 Entering Gaussian System, Link 0=/apps/cent7/gaussian/g16-A.03/g16-haswell/g16/g16
 Initial command:
 /apps/cent7/gaussian/g16-A.03/g16-haswell/g16/l1.exe "/scratch/brown/finej/gaussian/Gau-264803.inp" -scrdir="/scratch/brown/finej/gaussian/"
 Entering Link 1 = /apps/cent7/gaussian/g16-A.03/g16-haswell/g16/l1.exe PID=    264806.
  
 Copyright (c) 1988,1990,1992,1993,1995,1998,2003,2009,2016,
            Gaussian, Inc.  All Rights Reserved.
  
 This is part of the Gaussian(R) 16 program.  It is based on
 the Gaussian(R) 09 system (copyright 2009, Gaussian, Inc.),
 the Gaussian(R) 03 system (copyright 2003, Gaussian, Inc.),
 the Gaussian(R) 98 system (copyright 1998, Gaussian, Inc.),
 the Gaussian(R) 94 system (copyright 1995, Gaussian, Inc.),
 the Gaussian 92(TM) system (copyright 1992, Gaussian, Inc.),
 the Gaussian 90(TM) system (copyright 1990, Gaussian, Inc.),
 the Gaussian 88(TM) system (copyright 1988, Gaussian, Inc.),
 the Gaussian 86(TM) system (copyright 1986, Carnegie Mellon
 University), and the Gaussian 82(TM) system (copyright 1983,
 Carnegie Mellon University). Gaussian is a federally registered
 trademark of Gaussian, Inc.
  
 This software contains proprietary and confidential information,
 including trade secrets, belonging to Gaussian, Inc.
  
 This software is provided under written license and may be
 used, copied, transmitted, or stored only in accord with that
 written license.
  
 The following legend is applicable only to US Government
 contracts under FAR:
  
                    RESTRICTED RIGHTS LEGEND
  
 Use, reproduction and disclosure by the US Government is
 subject to restrictions as set forth in subparagraphs (a)
 and (c) of the Commercial Computer Software - Restricted
 Rights clause in FAR 52.227-19.
  
 Gaussian, Inc.
 340 Quinnipiac St., Bldg. 40, Wallingford CT 06492
  
  
 ---------------------------------------------------------------
 Warning -- This program may not be used in any manner that
 competes with the business of Gaussian, Inc. or will provide
 assistance to any competitor of Gaussian, Inc.  The licensee
 of this program is prohibited from giving any competitor of
 Gaussian, Inc. access to this program.  By using this program,
 the user acknowledges that Gaussian, Inc. is engaged in the
 business of creating and licensing software in the field of
 computational chemistry and represents and warrants to the
 licensee that it is not a competitor of Gaussian, Inc. and that
 it will not use this program in any manner prohibited above.
 ---------------------------------------------------------------
  

 Cite this work as:
 Gaussian 16, Revision A.03,
 M. J. Frisch, G. W. Trucks, H. B. Schlegel, G. E. Scuseria, 
 M. A. Robb, J. R. Cheeseman, G. Scalmani, V. Barone, 
 G. A. Petersson, H. Nakatsuji, X. Li, M. Caricato, A. V. Marenich, 
 J. Bloino, B. G. Janesko, R. Gomperts, B. Mennucci, H. P. Hratchian, 
 J. V. Ortiz, A. F. Izmaylov, J. L. Sonnenberg, D. Williams-Young, 
 F. Ding, F. Lipparini, F. Egidi, J. Goings, B. Peng, A. Petrone, 
 T. Henderson, D. Ranasinghe, V. G. Zakrzewski, J. Gao, N. Rega, 
 G. Zheng, W. Liang, M. Hada, M. Ehara, K. Toyota, R. Fukuda, 
 J. Hasegawa, M. Ishida, T. Nakajima, Y. Honda, O. Kitao, H. Nakai, 
 T. Vreven, K. Throssell, J. A. Montgomery, Jr., J. E. Peralta, 
 F. Ogliaro, M. J. Bearpark, J. J. Heyd, E. N. Brothers, K. N. Kudin, 
 V. N. Staroverov, T. A. Keith, R. Kobayashi, J. Normand, 
 K. Raghavachari, A. P. Rendell, J. C. Burant, S. S. Iyengar, 
 J. Tomasi, M. Cossi, J. M. Millam, M. Klene, C. Adamo, R. Cammi, 
 J. W. Ochterski, R. L. Martin, K. Morokuma, O. Farkas, 
 J. B. Foresman, and D. J. Fox, Gaussian, Inc., Wallingford CT, 2016.
 
 ******************************************
 Gaussian 16:  ES64L-G16RevA.03 25-Dec-2016
                26-Dec-2019 
 ******************************************
 %chk=benzene_p.chk
 %nprocshared=24
 Will use up to   24 processors via shared memory.
 %mem=10GB
 -------------------------------------------------------------------
 #p opt freq m062x/6-311++g(d,p) geom=connectivity temperature=0.001
 -------------------------------------------------------------------
 1/18=20,19=15,26=3,38=1,57=2,112=-1000/1,3;
 2/9=110,12=2,17=6,18=5,40=1/2;
 3/5=4,6=6,7=1111,11=2,25=1,30=1,71=1,74=-55/1,2,3;
 4//1;
 5/5=2,38=5/2;
 6/7=2,8=2,9=2,10=2,28=1/1;
 7//1,2,3,16;
 1/18=20,19=15,26=3/3(2);
 2/9=110/2;
 99//99;
 2/9=110/2;
 3/5=4,6=6,7=1111,11=2,25=1,30=1,71=1,74=-55/1,2,3;
 4/5=5,16=3,69=1/1;
 5/5=2,38=5/2;
 7//1,2,3,16;
 1/18=20,19=15,26=3/3(-5);
 2/9=110/2;
 6/7=2,8=2,9=2,10=2,19=2,28=1/1;
 99/9=1/99;
 Leave Link    1 at Thu Dec 26 15:49:40 2019, MaxMem=  1342177280 cpu:               0.9 elap:               0.0
 (Enter /apps/cent7/gaussian/g16-A.03/g16-haswell/g16/l101.exe)
 -------------------
 Title Card Required
 -------------------
 Symbolic Z-matrix:
 Charge =  1 Multiplicity = 1
 C                     0.38351   0.798    -0.48461 
 C                     0.58593   0.08552  -1.66724 
 C                     1.05096   0.74261  -2.80619 
 H                     0.37906  -0.994    -1.70094 
 C                     1.10983   2.82464  -1.5816 
 C                     1.31264   2.11235  -2.76357 
 H                     1.21023   0.18148  -3.7384 
 H                     1.31619   3.90418  -1.54778 
 H                     1.67885   2.6303   -3.66177 
 H                     0.0268    0.29367   0.38907 
 C                     0.6456    2.16731  -0.44194 
 H                     1.37963   2.31743   0.32198 
 H                    -0.26747   2.64785  -0.1586 
 
 ITRead=  0  0  0  0  0  0  0  0  0  0  0  0  0
 MicOpt= -1 -1 -1 -1 -1 -1 -1 -1 -1 -1 -1 -1 -1
 NAtoms=     13 NQM=       13 NQMF=       0 NMMI=      0 NMMIF=      0
                NMic=       0 NMicF=      0.
                    Isotopes and Nuclear Properties:
 (Nuclear quadrupole moments (NQMom) in fm**2, nuclear magnetic moments (NMagM)
  in nuclear magnetons)

  Atom         1           2           3           4           5           6           7           8           9          10
 IAtWgt=          12          12          12           1          12          12           1           1           1           1
 AtmWgt=  12.0000000  12.0000000  12.0000000   1.0078250  12.0000000  12.0000000   1.0078250   1.0078250   1.0078250   1.0078250
 NucSpn=           0           0           0           1           0           0           1           1           1           1
 AtZEff=  -0.0000000  -0.0000000  -0.0000000  -0.0000000  -0.0000000  -0.0000000  -0.0000000  -0.0000000  -0.0000000  -0.0000000
 NQMom=    0.0000000   0.0000000   0.0000000   0.0000000   0.0000000   0.0000000   0.0000000   0.0000000   0.0000000   0.0000000
 NMagM=    0.0000000   0.0000000   0.0000000   2.7928460   0.0000000   0.0000000   2.7928460   2.7928460   2.7928460   2.7928460
 AtZNuc=   6.0000000   6.0000000   6.0000000   1.0000000   6.0000000   6.0000000   1.0000000   1.0000000   1.0000000   1.0000000

  Atom        11          12          13
 IAtWgt=          12           1           1
 AtmWgt=  12.0000000   1.0078250   1.0078250
 NucSpn=           0           1           1
 AtZEff=  -0.0000000  -0.0000000  -0.0000000
 NQMom=    0.0000000   0.0000000   0.0000000
 NMagM=    0.0000000   2.7928460   2.7928460
 AtZNuc=   6.0000000   1.0000000   1.0000000
 Leave Link  101 at Thu Dec 26 15:49:41 2019, MaxMem=  1342177280 cpu:               9.5 elap:               0.4
 (Enter /apps/cent7/gaussian/g16-A.03/g16-haswell/g16/l103.exe)

 GradGradGradGradGradGradGradGradGradGradGradGradGradGradGradGradGradGrad
 Berny optimization.
 Initialization pass.
                           ----------------------------
                           !    Initial Parameters    !
                           ! (Angstroms and Degrees)  !
 --------------------------                            --------------------------
 ! Name  Definition              Value          Derivative Info.                !
 --------------------------------------------------------------------------------
 ! R1    R(1,2)                  1.3954         estimate D2E/DX2                !
 ! R2    R(1,10)                 1.07           estimate D2E/DX2                !
 ! R3    R(1,11)                 1.3948         estimate D2E/DX2                !
 ! R4    R(2,3)                  1.3947         estimate D2E/DX2                !
 ! R5    R(2,4)                  1.0997         estimate D2E/DX2                !
 ! R6    R(3,6)                  1.3952         estimate D2E/DX2                !
 ! R7    R(3,7)                  1.0997         estimate D2E/DX2                !
 ! R8    R(5,6)                  1.3948         estimate D2E/DX2                !
 ! R9    R(5,8)                  1.0996         estimate D2E/DX2                !
 ! R10   R(5,11)                 1.3951         estimate D2E/DX2                !
 ! R11   R(6,9)                  1.0996         estimate D2E/DX2                !
 ! R12   R(11,12)                1.07           estimate D2E/DX2                !
 ! R13   R(11,13)                1.07           estimate D2E/DX2                !
 ! A1    A(2,1,10)             119.9811         estimate D2E/DX2                !
 ! A2    A(2,1,11)             119.994          estimate D2E/DX2                !
 ! A3    A(10,1,11)            120.0249         estimate D2E/DX2                !
 ! A4    A(1,2,3)              119.9942         estimate D2E/DX2                !
 ! A5    A(1,2,4)              119.993          estimate D2E/DX2                !
 ! A6    A(3,2,4)              120.0128         estimate D2E/DX2                !
 ! A7    A(2,3,6)              120.0086         estimate D2E/DX2                !
 ! A8    A(2,3,7)              120.0106         estimate D2E/DX2                !
 ! A9    A(6,3,7)              119.9808         estimate D2E/DX2                !
 ! A10   A(6,5,8)              120.008          estimate D2E/DX2                !
 ! A11   A(6,5,11)             120.0            estimate D2E/DX2                !
 ! A12   A(8,5,11)             119.992          estimate D2E/DX2                !
 ! A13   A(3,6,5)              119.9985         estimate D2E/DX2                !
 ! A14   A(3,6,9)              119.9972         estimate D2E/DX2                !
 ! A15   A(5,6,9)              120.0043         estimate D2E/DX2                !
 ! A16   A(1,11,5)             120.0047         estimate D2E/DX2                !
 ! A17   A(1,11,12)            106.7665         estimate D2E/DX2                !
 ! A18   A(1,11,13)            106.7768         estimate D2E/DX2                !
 ! A19   A(5,11,12)            106.7884         estimate D2E/DX2                !
 ! A20   A(5,11,13)            106.7781         estimate D2E/DX2                !
 ! A21   A(12,11,13)           109.4712         estimate D2E/DX2                !
 ! D1    D(10,1,2,3)          -179.9964         estimate D2E/DX2                !
 ! D2    D(10,1,2,4)            -0.0151         estimate D2E/DX2                !
 ! D3    D(11,1,2,3)             0.0341         estimate D2E/DX2                !
 ! D4    D(11,1,2,4)          -179.9846         estimate D2E/DX2                !
 ! D5    D(2,1,11,5)             0.0131         estimate D2E/DX2                !
 ! D6    D(2,1,11,12)         -121.475          estimate D2E/DX2                !
 ! D7    D(2,1,11,13)          121.4962         estimate D2E/DX2                !
 ! D8    D(10,1,11,5)         -179.9563         estimate D2E/DX2                !
 ! D9    D(10,1,11,12)          58.5555         estimate D2E/DX2                !
 ! D10   D(10,1,11,13)         -58.4732         estimate D2E/DX2                !
 ! D11   D(1,2,3,6)             -0.0568         estimate D2E/DX2                !
 ! D12   D(1,2,3,7)           -179.9777         estimate D2E/DX2                !
 ! D13   D(4,2,3,6)            179.9619         estimate D2E/DX2                !
 ! D14   D(4,2,3,7)              0.041          estimate D2E/DX2                !
 ! D15   D(2,3,6,5)              0.0323         estimate D2E/DX2                !
 ! D16   D(2,3,6,9)           -179.9729         estimate D2E/DX2                !
 ! D17   D(7,3,6,5)            179.9532         estimate D2E/DX2                !
 ! D18   D(7,3,6,9)             -0.052          estimate D2E/DX2                !
 ! D19   D(8,5,6,3)            179.9892         estimate D2E/DX2                !
 ! D20   D(8,5,6,9)             -0.0056         estimate D2E/DX2                !
 ! D21   D(11,5,6,3)             0.0149         estimate D2E/DX2                !
 ! D22   D(11,5,6,9)          -179.9798         estimate D2E/DX2                !
 ! D23   D(6,5,11,1)            -0.0376         estimate D2E/DX2                !
 ! D24   D(6,5,11,12)          121.4398         estimate D2E/DX2                !
 ! D25   D(6,5,11,13)         -121.52           estimate D2E/DX2                !
 ! D26   D(8,5,11,1)           179.9881         estimate D2E/DX2                !
 ! D27   D(8,5,11,12)          -58.5345         estimate D2E/DX2                !
 ! D28   D(8,5,11,13)           58.5057         estimate D2E/DX2                !
 --------------------------------------------------------------------------------
 Trust Radius=3.00D-01 FncErr=1.00D-07 GrdErr=1.00D-06 EigMax=2.50D+02 EigMin=1.00D-04
 Number of steps in this run=     72 maximum allowed number of steps=    100.
 GradGradGradGradGradGradGradGradGradGradGradGradGradGradGradGradGradGrad

 Leave Link  103 at Thu Dec 26 15:49:41 2019, MaxMem=  1342177280 cpu:               0.3 elap:               0.0
 (Enter /apps/cent7/gaussian/g16-A.03/g16-haswell/g16/l202.exe)
                          Input orientation:                          
 ---------------------------------------------------------------------
 Center     Atomic      Atomic             Coordinates (Angstroms)
 Number     Number       Type             X           Y           Z
 ---------------------------------------------------------------------
      1          6           0        0.383510    0.797998   -0.484608
      2          6           0        0.585935    0.085524   -1.667242
      3          6           0        1.050964    0.742609   -2.806192
      4          1           0        0.379058   -0.993996   -1.700935
      5          6           0        1.109826    2.824639   -1.581599
      6          6           0        1.312642    2.112346   -2.763570
      7          1           0        1.210228    0.181484   -3.738402
      8          1           0        1.316189    3.904176   -1.547781
      9          1           0        1.678847    2.630298   -3.661769
     10          1           0        0.026796    0.293672    0.389068
     11          6           0        0.645599    2.167314   -0.441939
     12          1           0        1.379625    2.317431    0.321979
     13          1           0       -0.267474    2.647850   -0.158597
 ---------------------------------------------------------------------
                    Distance matrix (angstroms):
                    1          2          3          4          5
     1  C    0.000000
     2  C    1.395427   0.000000
     3  C    2.416260   1.394712   0.000000
     4  H    2.165806   1.099680   2.165375   0.000000
     5  C    2.416236   2.790080   2.416183   3.889760   0.000000
     6  C    2.790065   2.416205   1.395160   3.413229   1.394829
     7  H    3.413316   2.165330   1.099655   2.494768   3.412938
     8  H    3.412999   3.889684   3.413128   4.989364   1.099604
     9  H    3.889675   3.412986   2.165553   4.320860   2.165331
    10  H    1.070000   2.141115   3.385285   2.479978   3.385598
    11  C    1.394825   2.416356   2.789946   3.413209   1.395138
    12  H    1.987839   3.093275   3.517604   4.007351   1.988382
    13  H    1.987968   3.093514   3.518236   4.007475   1.988253
                    6          7          8          9         10
     6  C    0.000000
     7  H    2.165414   0.000000
     8  H    2.165365   4.320704   0.000000
     9  H    1.099610   2.494427   2.494641   0.000000
    10  H    3.860065   4.295242   4.295306   4.959675   0.000000
    11  C    2.416183   3.889601   2.165471   3.413102   2.141033
    12  H    3.093082   4.591041   2.453117   4.007202   2.435209
    13  H    3.093447   4.591467   2.452789   4.007580   2.434889
                   11         12         13
    11  C    0.000000
    12  H    1.070000   0.000000
    13  H    1.070000   1.747303   0.000000
 Stoichiometry    C6H7(1+)
 Framework group  C1[X(C6H7)]
 Deg. of freedom    33
 Full point group                 C1      NOp   1
 Largest Abelian subgroup         C1      NOp   1
 Largest concise Abelian subgroup C1      NOp   1
                         Standard orientation:                         
 ---------------------------------------------------------------------
 Center     Atomic      Atomic             Coordinates (Angstroms)
 Number     Number       Type             X           Y           Z
 ---------------------------------------------------------------------
      1          6           0       -0.622070   -1.229928    0.000063
      2          6           0        0.772592   -1.183721   -0.000204
      3          6           0        1.429444    0.046631    0.000357
      4          1           0        1.353552   -2.117413   -0.000545
      5          6           0       -0.701770    1.184993   -0.000264
      6          6           0        0.692295    1.231150   -0.000014
      7          1           0        2.528485    0.083359   -0.000224
      8          1           0       -1.282913    2.118482   -0.000377
      9          1           0        1.210360    2.201073   -0.000022
     10          1           0       -1.125782   -2.173949   -0.000309
     11          6           0       -1.358975   -0.045653    0.000171
     12          1           0       -1.976059   -0.066167    0.874063
     13          1           0       -1.976738   -0.066213   -0.873239
 ---------------------------------------------------------------------
 Rotational constants (GHZ):           5.5967307           5.4787782           2.8160308
 Leave Link  202 at Thu Dec 26 15:49:41 2019, MaxMem=  1342177280 cpu:               0.4 elap:               0.0
 (Enter /apps/cent7/gaussian/g16-A.03/g16-haswell/g16/l301.exe)
 Standard basis: 6-311++G(d,p) (5D, 7F)
 Ernie: Thresh=  0.10000D-02 Tol=  0.10000D-05 Strict=F.
 There are   187 symmetry adapted cartesian basis functions of A   symmetry.
 There are   181 symmetry adapted basis functions of A   symmetry.
   181 basis functions,   279 primitive gaussians,   187 cartesian basis functions
    21 alpha electrons       21 beta electrons
       nuclear repulsion energy       214.0592594639 Hartrees.
 IExCor= 4336 DFT=T Ex+Corr=M062X ExCW=0 ScaHFX=  0.540000
 ScaDFX=  1.000000  1.000000  1.000000  1.000000 ScalE2=  1.000000  1.000000
 IRadAn=      5 IRanWt=     -1 IRanGd=            0 ICorTp=0 IEmpDi=  4
 NAtoms=   13 NActive=   13 NUniq=   13 SFac= 1.00D+00 NAtFMM=   60 NAOKFM=F Big=F
 Integral buffers will be    131072 words long.
 Raffenetti 2 integral format.
 Two-electron integral symmetry is turned on.
 Leave Link  301 at Thu Dec 26 15:49:41 2019, MaxMem=  1342177280 cpu:               1.3 elap:               0.1
 (Enter /apps/cent7/gaussian/g16-A.03/g16-haswell/g16/l302.exe)
 NPDir=0 NMtPBC=     1 NCelOv=     1 NCel=       1 NClECP=     1 NCelD=      1
         NCelK=      1 NCelE2=     1 NClLst=     1 CellRange=     0.0.
 One-electron integrals computed using PRISM.
 One-electron integral symmetry used in STVInt
 NBasis=   181 RedAO= T EigKep=  1.58D-06  NBF=   181
 NBsUse=   181 1.00D-06 EigRej= -1.00D+00 NBFU=   181
 Precomputing XC quadrature grid using
 IXCGrd= 4 IRadAn=           5 IRanWt=          -1 IRanGd=           0 AccXCQ= 0.00D+00.
 Generated NRdTot=       0 NPtTot=           0 NUsed=           0 NTot=          32
 NSgBfM=   187   187   187   187   187 MxSgAt=    13 MxSgA2=    13.
 Leave Link  302 at Thu Dec 26 15:49:41 2019, MaxMem=  1342177280 cpu:               4.1 elap:               0.2
 (Enter /apps/cent7/gaussian/g16-A.03/g16-haswell/g16/l303.exe)
 DipDrv:  MaxL=1.
 Leave Link  303 at Thu Dec 26 15:49:41 2019, MaxMem=  1342177280 cpu:               0.8 elap:               0.1
 (Enter /apps/cent7/gaussian/g16-A.03/g16-haswell/g16/l401.exe)
 ExpMin= 3.60D-02 ExpMax= 4.56D+03 ExpMxC= 6.82D+02 IAcc=3 IRadAn=         5 AccDes= 0.00D+00
 Harris functional with IExCor= 1009 and IRadAn=       5 diagonalized for initial guess.
 HarFok:  IExCor= 1009 AccDes= 0.00D+00 IRadAn=         5 IDoV= 1 UseB2=F ITyADJ=14
 ICtDFT=  3500011 ScaDFX=  1.000000  1.000000  1.000000  1.000000
 FoFCou: FMM=F IPFlag=           0 FMFlag=      100000 FMFlg1=           0
         NFxFlg=           0 DoJE=T BraDBF=F KetDBF=T FulRan=T
         wScrn=  0.000000 ICntrl=       500 IOpCl=  0 I1Cent=   200000004 NGrid=           0
         NMat0=    1 NMatS0=      1 NMatT0=    0 NMatD0=    1 NMtDS0=    0 NMtDT0=    0
 Petite list used in FoFCou.
 Harris En= -232.415235778814    
 JPrj=0 DoOrth=F DoCkMO=F.
 Leave Link  401 at Thu Dec 26 15:49:42 2019, MaxMem=  1342177280 cpu:               6.7 elap:               0.3
 (Enter /apps/cent7/gaussian/g16-A.03/g16-haswell/g16/l502.exe)
 Integral symmetry usage will be decided dynamically.
 Closed shell SCF:
 Using DIIS extrapolation, IDIIS=  1040.
 NGot=  1342177280 LenX=  1342100905 LenY=  1342065495
 Requested convergence on RMS density matrix=1.00D-08 within 128 cycles.
 Requested convergence on MAX density matrix=1.00D-06.
 Requested convergence on             energy=1.00D-06.
 No special actions if energy rises.
 Fock matrices will be formed incrementally for  20 cycles.

 Cycle   1  Pass 1  IDiag  1:
 FoFJK:  IHMeth= 1 ICntrl=       0 DoSepK=F KAlg= 0 I1Cent=           0 FoldK=F
 IRaf= 990000000 NMat=       1 IRICut=       1 DoRegI=T DoRafI=F ISym2E= 0 IDoP0=0 IntGTp=1.
 FoFCou: FMM=F IPFlag=           0 FMFlag=      100000 FMFlg1=           0
         NFxFlg=           0 DoJE=F BraDBF=F KetDBF=F FulRan=T
         wScrn=  0.000000 ICntrl=         0 IOpCl=  0 I1Cent=           0 NGrid=           0
         NMat0=    1 NMatS0=      1 NMatT0=    0 NMatD0=    1 NMtDS0=    0 NMtDT0=    0
 Symmetry not used in FoFCou.
 E= -232.373285723128    
 DIIS: error= 3.68D-02 at cycle   1 NSaved=   1.
 NSaved= 1 IEnMin= 1 EnMin= -232.373285723128     IErMin= 1 ErrMin= 3.68D-02
 ErrMax= 3.68D-02  0.00D+00 EMaxC= 1.00D-01 BMatC= 1.33D-01 BMatP= 1.33D-01
 IDIUse=3 WtCom= 6.32D-01 WtEn= 3.68D-01
 Coeff-Com:  0.100D+01
 Coeff-En:   0.100D+01
 Coeff:      0.100D+01
 Gap=     0.237 Goal=   None    Shift=    0.000
 GapD=    0.237 DampG=1.000 DampE=0.500 DampFc=0.5000 IDamp=-1.
 Damping current iteration by 5.00D-01
 RMSDP=1.85D-02 MaxDP=6.64D-01              OVMax= 9.98D-02

 Cycle   2  Pass 1  IDiag  1:
 RMSU=  5.94D-03    CP:  1.25D+00
 E= -232.426567920699     Delta-E=       -0.053282197571 Rises=F Damp=T
 DIIS: error= 9.28D-03 at cycle   2 NSaved=   2.
 NSaved= 2 IEnMin= 2 EnMin= -232.426567920699     IErMin= 2 ErrMin= 9.28D-03
 ErrMax= 9.28D-03  0.00D+00 EMaxC= 1.00D-01 BMatC= 1.37D-02 BMatP= 1.33D-01
 IDIUse=3 WtCom= 9.07D-01 WtEn= 9.28D-02
 Coeff-Com: -0.280D+00 0.128D+01
 Coeff-En:   0.000D+00 0.100D+01
 Coeff:     -0.254D+00 0.125D+01
 Gap=     0.249 Goal=   None    Shift=    0.000
 RMSDP=9.54D-03 MaxDP=3.03D-01 DE=-5.33D-02 OVMax= 4.68D-02

 Cycle   3  Pass 1  IDiag  1:
 RMSU=  3.26D-03    CP:  1.48D+00  2.00D+00
 E= -232.472098687984     Delta-E=       -0.045530767286 Rises=F Damp=F
 DIIS: error= 4.00D-03 at cycle   3 NSaved=   3.
 NSaved= 3 IEnMin= 3 EnMin= -232.472098687984     IErMin= 3 ErrMin= 4.00D-03
 ErrMax= 4.00D-03  0.00D+00 EMaxC= 1.00D-01 BMatC= 1.52D-03 BMatP= 1.37D-02
 IDIUse=3 WtCom= 9.60D-01 WtEn= 4.00D-02
 Coeff-Com: -0.133D+00 0.361D+00 0.772D+00
 Coeff-En:   0.000D+00 0.000D+00 0.100D+01
 Coeff:     -0.128D+00 0.346D+00 0.781D+00
 Gap=     0.245 Goal=   None    Shift=    0.000
 RMSDP=1.25D-03 MaxDP=3.82D-02 DE=-4.55D-02 OVMax= 1.00D-02

 Cycle   4  Pass 1  IDiag  1:
 RMSU=  5.73D-04    CP:  1.45D+00  1.92D+00  8.89D-01
 E= -232.473456297515     Delta-E=       -0.001357609531 Rises=F Damp=F
 DIIS: error= 1.13D-03 at cycle   4 NSaved=   4.
 NSaved= 4 IEnMin= 4 EnMin= -232.473456297515     IErMin= 4 ErrMin= 1.13D-03
 ErrMax= 1.13D-03  0.00D+00 EMaxC= 1.00D-01 BMatC= 6.66D-05 BMatP= 1.52D-03
 IDIUse=3 WtCom= 9.89D-01 WtEn= 1.13D-02
 Coeff-Com: -0.325D-01 0.749D-01 0.244D+00 0.713D+00
 Coeff-En:   0.000D+00 0.000D+00 0.000D+00 0.100D+01
 Coeff:     -0.321D-01 0.740D-01 0.242D+00 0.716D+00
 Gap=     0.245 Goal=   None    Shift=    0.000
 RMSDP=2.83D-04 MaxDP=9.31D-03 DE=-1.36D-03 OVMax= 5.25D-03

 Cycle   5  Pass 1  IDiag  1:
 RMSU=  1.05D-04    CP:  1.46D+00  1.94D+00  9.10D-01  8.34D-01
 E= -232.473499702830     Delta-E=       -0.000043405315 Rises=F Damp=F
 DIIS: error= 6.65D-04 at cycle   5 NSaved=   5.
 NSaved= 5 IEnMin= 5 EnMin= -232.473499702830     IErMin= 5 ErrMin= 6.65D-04
 ErrMax= 6.65D-04  0.00D+00 EMaxC= 1.00D-01 BMatC= 2.04D-05 BMatP= 6.66D-05
 IDIUse=3 WtCom= 9.93D-01 WtEn= 6.65D-03
 Coeff-Com: -0.106D-01 0.218D-01 0.920D-01 0.408D+00 0.489D+00
 Coeff-En:   0.000D+00 0.000D+00 0.000D+00 0.233D+00 0.767D+00
 Coeff:     -0.106D-01 0.217D-01 0.914D-01 0.407D+00 0.491D+00
 Gap=     0.245 Goal=   None    Shift=    0.000
 RMSDP=4.52D-05 MaxDP=1.25D-03 DE=-4.34D-05 OVMax= 1.95D-03

 Cycle   6  Pass 1  IDiag  1:
 RMSU=  2.87D-05    CP:  1.45D+00  1.94D+00  9.10D-01  8.47D-01  9.09D-01
 E= -232.473521879016     Delta-E=       -0.000022176186 Rises=F Damp=F
 DIIS: error= 6.49D-05 at cycle   6 NSaved=   6.
 NSaved= 6 IEnMin= 6 EnMin= -232.473521879016     IErMin= 6 ErrMin= 6.49D-05
 ErrMax= 6.49D-05  0.00D+00 EMaxC= 1.00D-01 BMatC= 2.22D-07 BMatP= 2.04D-05
 IDIUse=1 WtCom= 1.00D+00 WtEn= 0.00D+00
 Coeff-Com:  0.553D-03-0.160D-02-0.180D-02 0.155D-01 0.793D-01 0.908D+00
 Coeff:      0.553D-03-0.160D-02-0.180D-02 0.155D-01 0.793D-01 0.908D+00
 Gap=     0.245 Goal=   None    Shift=    0.000
 RMSDP=1.38D-05 MaxDP=4.65D-04 DE=-2.22D-05 OVMax= 2.82D-04

 Cycle   7  Pass 1  IDiag  1:
 RMSU=  6.30D-06    CP:  1.46D+00  1.94D+00  9.11D-01  8.50D-01  9.62D-01
                    CP:  1.06D+00
 E= -232.473522139022     Delta-E=       -0.000000260005 Rises=F Damp=F
 DIIS: error= 2.71D-05 at cycle   7 NSaved=   7.
 NSaved= 7 IEnMin= 7 EnMin= -232.473522139022     IErMin= 7 ErrMin= 2.71D-05
 ErrMax= 2.71D-05  0.00D+00 EMaxC= 1.00D-01 BMatC= 6.17D-08 BMatP= 2.22D-07
 IDIUse=1 WtCom= 1.00D+00 WtEn= 0.00D+00
 Coeff-Com:  0.142D-02-0.310D-02-0.113D-01-0.405D-01-0.189D-01 0.405D+00
 Coeff-Com:  0.668D+00
 Coeff:      0.142D-02-0.310D-02-0.113D-01-0.405D-01-0.189D-01 0.405D+00
 Coeff:      0.668D+00
 Gap=     0.245 Goal=   None    Shift=    0.000
 RMSDP=3.30D-06 MaxDP=8.91D-05 DE=-2.60D-07 OVMax= 1.74D-04

 Cycle   8  Pass 1  IDiag  1:
 RMSU=  2.19D-06    CP:  1.46D+00  1.94D+00  9.11D-01  8.49D-01  9.81D-01
                    CP:  1.08D+00  9.59D-01
 E= -232.473522215542     Delta-E=       -0.000000076520 Rises=F Damp=F
 DIIS: error= 6.67D-06 at cycle   8 NSaved=   8.
 NSaved= 8 IEnMin= 8 EnMin= -232.473522215542     IErMin= 8 ErrMin= 6.67D-06
 ErrMax= 6.67D-06  0.00D+00 EMaxC= 1.00D-01 BMatC= 3.45D-09 BMatP= 6.17D-08
 IDIUse=1 WtCom= 1.00D+00 WtEn= 0.00D+00
 Coeff-Com:  0.150D-03-0.320D-03-0.174D-02-0.771D-02-0.847D-02-0.187D-01
 Coeff-Com:  0.136D+00 0.900D+00
 Coeff:      0.150D-03-0.320D-03-0.174D-02-0.771D-02-0.847D-02-0.187D-01
 Coeff:      0.136D+00 0.900D+00
 Gap=     0.245 Goal=   None    Shift=    0.000
 RMSDP=1.24D-06 MaxDP=2.86D-05 DE=-7.65D-08 OVMax= 5.75D-05

 Cycle   9  Pass 1  IDiag  1:
 RMSU=  7.71D-07    CP:  1.46D+00  1.94D+00  9.11D-01  8.48D-01  9.86D-01
                    CP:  1.08D+00  1.04D+00  1.15D+00
 E= -232.473522220643     Delta-E=       -0.000000005101 Rises=F Damp=F
 DIIS: error= 3.51D-06 at cycle   9 NSaved=   9.
 NSaved= 9 IEnMin= 9 EnMin= -232.473522220643     IErMin= 9 ErrMin= 3.51D-06
 ErrMax= 3.51D-06  0.00D+00 EMaxC= 1.00D-01 BMatC= 1.07D-09 BMatP= 3.45D-09
 IDIUse=1 WtCom= 1.00D+00 WtEn= 0.00D+00
 Coeff-Com: -0.139D-03 0.303D-03 0.800D-03 0.223D-02-0.151D-02-0.745D-01
 Coeff-Com: -0.242D-01 0.463D+00 0.634D+00
 Coeff:     -0.139D-03 0.303D-03 0.800D-03 0.223D-02-0.151D-02-0.745D-01
 Coeff:     -0.242D-01 0.463D+00 0.634D+00
 Gap=     0.245 Goal=   None    Shift=    0.000
 RMSDP=4.77D-07 MaxDP=1.50D-05 DE=-5.10D-09 OVMax= 2.03D-05

 Cycle  10  Pass 1  IDiag  1:
 RMSU=  3.45D-07    CP:  1.46D+00  1.94D+00  9.11D-01  8.49D-01  9.85D-01
                    CP:  1.07D+00  1.07D+00  1.19D+00  1.03D+00
 E= -232.473522222038     Delta-E=       -0.000000001395 Rises=F Damp=F
 DIIS: error= 8.17D-07 at cycle  10 NSaved=  10.
 NSaved=10 IEnMin=10 EnMin= -232.473522222038     IErMin=10 ErrMin= 8.17D-07
 ErrMax= 8.17D-07  0.00D+00 EMaxC= 1.00D-01 BMatC= 3.88D-11 BMatP= 1.07D-09
 IDIUse=1 WtCom= 1.00D+00 WtEn= 0.00D+00
 Coeff-Com: -0.271D-04 0.605D-04 0.209D-03 0.749D-03 0.254D-03-0.969D-02
 Coeff-Com: -0.609D-02 0.115D-01 0.138D+00 0.865D+00
 Coeff:     -0.271D-04 0.605D-04 0.209D-03 0.749D-03 0.254D-03-0.969D-02
 Coeff:     -0.609D-02 0.115D-01 0.138D+00 0.865D+00
 Gap=     0.245 Goal=   None    Shift=    0.000
 RMSDP=1.90D-07 MaxDP=1.16D-05 DE=-1.39D-09 OVMax= 7.34D-06

 Cycle  11  Pass 1  IDiag  1:
 RMSU=  7.56D-08    CP:  1.46D+00  1.94D+00  9.11D-01  8.49D-01  9.85D-01
                    CP:  1.07D+00  1.08D+00  1.20D+00  1.10D+00  1.08D+00
 E= -232.473522222106     Delta-E=       -0.000000000068 Rises=F Damp=F
 DIIS: error= 3.81D-07 at cycle  11 NSaved=  11.
 NSaved=11 IEnMin=11 EnMin= -232.473522222106     IErMin=11 ErrMin= 3.81D-07
 ErrMax= 3.81D-07  0.00D+00 EMaxC= 1.00D-01 BMatC= 1.63D-11 BMatP= 3.88D-11
 IDIUse=1 WtCom= 1.00D+00 WtEn= 0.00D+00
 Coeff-Com: -0.371D-06 0.311D-05 0.390D-04 0.185D-03 0.325D-03 0.293D-02
 Coeff-Com: -0.315D-02-0.662D-01-0.294D-01 0.414D+00 0.681D+00
 Coeff:     -0.371D-06 0.311D-05 0.390D-04 0.185D-03 0.325D-03 0.293D-02
 Coeff:     -0.315D-02-0.662D-01-0.294D-01 0.414D+00 0.681D+00
 Gap=     0.245 Goal=   None    Shift=    0.000
 RMSDP=6.71D-08 MaxDP=1.91D-06 DE=-6.80D-11 OVMax= 1.90D-06

 Cycle  12  Pass 1  IDiag  1:
 RMSU=  2.07D-08    CP:  1.46D+00  1.94D+00  9.11D-01  8.49D-01  9.85D-01
                    CP:  1.07D+00  1.08D+00  1.21D+00  1.12D+00  1.13D+00
                    CP:  9.04D-01
 E= -232.473522222125     Delta-E=       -0.000000000019 Rises=F Damp=F
 DIIS: error= 3.20D-08 at cycle  12 NSaved=  12.
 NSaved=12 IEnMin=12 EnMin= -232.473522222125     IErMin=12 ErrMin= 3.20D-08
 ErrMax= 3.20D-08  0.00D+00 EMaxC= 1.00D-01 BMatC= 1.00D-13 BMatP= 1.63D-11
 IDIUse=1 WtCom= 1.00D+00 WtEn= 0.00D+00
 Coeff-Com:  0.128D-05-0.257D-05-0.553D-05-0.106D-04 0.450D-04 0.870D-03
 Coeff-Com: -0.837D-04-0.852D-02-0.119D-01 0.307D-01 0.775D-01 0.911D+00
 Coeff:      0.128D-05-0.257D-05-0.553D-05-0.106D-04 0.450D-04 0.870D-03
 Coeff:     -0.837D-04-0.852D-02-0.119D-01 0.307D-01 0.775D-01 0.911D+00
 Gap=     0.245 Goal=   None    Shift=    0.000
 RMSDP=1.61D-08 MaxDP=5.28D-07 DE=-1.95D-11 OVMax= 3.44D-07

 Cycle  13  Pass 1  IDiag  1:
 RMSU=  5.78D-09    CP:  1.46D+00  1.94D+00  9.11D-01  8.49D-01  9.85D-01
                    CP:  1.07D+00  1.08D+00  1.21D+00  1.12D+00  1.13D+00
                    CP:  9.04D-01  1.05D+00
 E= -232.473522222125     Delta-E=        0.000000000001 Rises=F Damp=F
 DIIS: error= 2.34D-08 at cycle  13 NSaved=  13.
 NSaved=13 IEnMin=12 EnMin= -232.473522222125     IErMin=13 ErrMin= 2.34D-08
 ErrMax= 2.34D-08  0.00D+00 EMaxC= 1.00D-01 BMatC= 2.50D-14 BMatP= 1.00D-13
 IDIUse=1 WtCom= 1.00D+00 WtEn= 0.00D+00
 Coeff-Com:  0.302D-06-0.722D-06-0.310D-05-0.952D-05-0.176D-05 0.107D-03
 Coeff-Com:  0.100D-03 0.120D-02-0.325D-02-0.756D-02-0.143D-01 0.273D+00
 Coeff-Com:  0.751D+00
 Coeff:      0.302D-06-0.722D-06-0.310D-05-0.952D-05-0.176D-05 0.107D-03
 Coeff:      0.100D-03 0.120D-02-0.325D-02-0.756D-02-0.143D-01 0.273D+00
 Coeff:      0.751D+00
 Gap=     0.245 Goal=   None    Shift=    0.000
 RMSDP=2.94D-09 MaxDP=7.57D-08 DE= 6.82D-13 OVMax= 8.97D-08

 SCF Done:  E(RM062X) =  -232.473522222     A.U. after   13 cycles
            NFock= 13  Conv=0.29D-08     -V/T= 2.0030
 KE= 2.317707036453D+02 PE=-9.577633595552D+02 EE= 2.794598742239D+02
 Leave Link  502 at Thu Dec 26 15:49:47 2019, MaxMem=  1342177280 cpu:             136.9 elap:               5.8
 (Enter /apps/cent7/gaussian/g16-A.03/g16-haswell/g16/l601.exe)
 Copying SCF densities to generalized density rwf, IOpCl= 0 IROHF=0.

 **********************************************************************

            Population analysis using the SCF density.

 **********************************************************************

 Orbital symmetries:
       Occupied  (A) (A) (A) (A) (A) (A) (A) (A) (A) (A) (A) (A)
                 (A) (A) (A) (A) (A) (A) (A) (A) (A)
       Virtual   (A) (A) (A) (A) (A) (A) (A) (A) (A) (A) (A) (A)
                 (A) (A) (A) (A) (A) (A) (A) (A) (A) (A) (A) (A)
                 (A) (A) (A) (A) (A) (A) (A) (A) (A) (A) (A) (A)
                 (A) (A) (A) (A) (A) (A) (A) (A) (A) (A) (A) (A)
                 (A) (A) (A) (A) (A) (A) (A) (A) (A) (A) (A) (A)
                 (A) (A) (A) (A) (A) (A) (A) (A) (A) (A) (A) (A)
                 (A) (A) (A) (A) (A) (A) (A) (A) (A) (A) (A) (A)
                 (A) (A) (A) (A) (A) (A) (A) (A) (A) (A) (A) (A)
                 (A) (A) (A) (A) (A) (A) (A) (A) (A) (A) (A) (A)
                 (A) (A) (A) (A) (A) (A) (A) (A) (A) (A) (A) (A)
                 (A) (A) (A) (A) (A) (A) (A) (A) (A) (A) (A) (A)
                 (A) (A) (A) (A) (A) (A) (A) (A) (A) (A) (A) (A)
                 (A) (A) (A) (A) (A) (A) (A) (A) (A) (A) (A) (A)
                 (A) (A) (A) (A)
 The electronic state is 1-A.
 Alpha  occ. eigenvalues --  -10.79171 -10.78766 -10.78530 -10.75731 -10.75729
 Alpha  occ. eigenvalues --  -10.75163  -1.19979  -1.08996  -1.06563  -0.91961
 Alpha  occ. eigenvalues --   -0.90885  -0.81506  -0.75745  -0.74543  -0.74248
 Alpha  occ. eigenvalues --   -0.70223  -0.69848  -0.61850  -0.60993  -0.59816
 Alpha  occ. eigenvalues --   -0.52611
 Alpha virt. eigenvalues --   -0.28099  -0.18857  -0.13958  -0.11005  -0.10770
 Alpha virt. eigenvalues --   -0.10507  -0.09001  -0.08434  -0.08371  -0.06200
 Alpha virt. eigenvalues --   -0.05536  -0.04700  -0.04267  -0.03547  -0.02234
 Alpha virt. eigenvalues --   -0.00559  -0.00097  -0.00017   0.00208   0.00456
 Alpha virt. eigenvalues --    0.00772   0.01307   0.01308   0.01347   0.03671
 Alpha virt. eigenvalues --    0.03913   0.04274   0.05145   0.06184   0.06804
 Alpha virt. eigenvalues --    0.07448   0.07500   0.08028   0.08918   0.10497
 Alpha virt. eigenvalues --    0.13552   0.13613   0.14020   0.14928   0.15726
 Alpha virt. eigenvalues --    0.19259   0.20324   0.21652   0.22306   0.22721
 Alpha virt. eigenvalues --    0.29000   0.33512   0.34357   0.36213   0.39341
 Alpha virt. eigenvalues --    0.39568   0.40246   0.40327   0.40706   0.40837
 Alpha virt. eigenvalues --    0.40935   0.44308   0.45015   0.45878   0.48492
 Alpha virt. eigenvalues --    0.51440   0.52523   0.57621   0.58256   0.58591
 Alpha virt. eigenvalues --    0.60830   0.64342   0.67364   0.67563   0.69123
 Alpha virt. eigenvalues --    0.72395   0.73245   0.73499   0.74836   0.76320
 Alpha virt. eigenvalues --    0.76502   0.84164   0.85595   0.85948   0.91778
 Alpha virt. eigenvalues --    0.94627   0.95979   1.08226   1.12078   1.28562
 Alpha virt. eigenvalues --    1.29306   1.30239   1.31719   1.35180   1.37302
 Alpha virt. eigenvalues --    1.41215   1.41469   1.46408   1.46708   1.48106
 Alpha virt. eigenvalues --    1.50111   1.50839   1.53507   1.57396   1.60837
 Alpha virt. eigenvalues --    1.61229   1.64598   1.71925   1.72264   1.72706
 Alpha virt. eigenvalues --    1.77037   1.77690   1.79347   1.80998   1.82982
 Alpha virt. eigenvalues --    1.84749   1.85580   1.94438   2.04391   2.06549
 Alpha virt. eigenvalues --    2.14285   2.17201   2.26210   2.27140   2.28743
 Alpha virt. eigenvalues --    2.33022   2.35510   2.36155   2.38420   2.44070
 Alpha virt. eigenvalues --    2.46936   2.52568   2.54619   2.55845   2.55940
 Alpha virt. eigenvalues --    2.58438   2.61773   2.65326   2.66717   2.67760
 Alpha virt. eigenvalues --    2.69436   2.76449   2.78852   2.82452   2.89947
 Alpha virt. eigenvalues --    2.95234   3.17684   3.19084   3.26395   3.32040
 Alpha virt. eigenvalues --    3.33046   3.47564   3.79763   3.80731   3.82021
 Alpha virt. eigenvalues --    3.89543   3.96123   4.03764   4.68874  23.49027
 Alpha virt. eigenvalues --   23.82761  23.86314  23.94894  23.97997  24.05164
          Condensed to atoms (all electrons):
               1          2          3          4          5          6
     1  C    6.287044  -1.069100   1.579249  -0.038599   1.012572  -1.329524
     2  C   -1.069100   6.954179  -1.577071   0.385197  -1.312473   1.718967
     3  C    1.579249  -1.577071   7.067642  -0.050987   1.598712  -1.620805
     4  H   -0.038599   0.385197  -0.050987   0.382023  -0.027007   0.037197
     5  C    1.012572  -1.312473   1.598712  -0.027007   6.323200  -1.133293
     6  C   -1.329524   1.718967  -1.620805   0.037197  -1.133293   7.050072
     7  H    0.016585  -0.037997   0.372131   0.000011   0.016717  -0.038983
     8  H    0.026344  -0.033405   0.033863  -0.000843   0.365170  -0.040510
     9  H   -0.027433   0.037476  -0.052407   0.001426  -0.038861   0.387442
    10  H    0.371502  -0.037787   0.031823   0.001941   0.025886  -0.032076
    11  C   -1.420185   1.510018  -1.610617   0.034151  -1.446310   1.561198
    12  H    0.006714  -0.024015   0.017960  -0.001266   0.008121  -0.024635
    13  H    0.006536  -0.024098   0.017898  -0.001285   0.007653  -0.024376
               7          8          9         10         11         12
     1  C    0.016585   0.026344  -0.027433   0.371502  -1.420185   0.006714
     2  C   -0.037997  -0.033405   0.037476  -0.037787   1.510018  -0.024015
     3  C    0.372131   0.033863  -0.052407   0.031823  -1.610617   0.017960
     4  H    0.000011  -0.000843   0.001426   0.001941   0.034151  -0.001266
     5  C    0.016717   0.365170  -0.038861   0.025886  -1.446310   0.008121
     6  C   -0.038983  -0.040510   0.387442  -0.032076   1.561198  -0.024635
     7  H    0.374685   0.001585  -0.000090   0.001508  -0.005570  -0.000361
     8  H    0.001585   0.372086   0.001806   0.003213  -0.042057  -0.002601
     9  H   -0.000090   0.001806   0.381527  -0.000838   0.035357  -0.001266
    10  H    0.001508   0.003213  -0.000838   0.372171  -0.044561  -0.002804
    11  C   -0.005570  -0.042057   0.035357  -0.044561   8.146710   0.344562
    12  H   -0.000361  -0.002601  -0.001266  -0.002804   0.344562   0.439435
    13  H   -0.000347  -0.002671  -0.001265  -0.002739   0.345155  -0.035639
              13
     1  C    0.006536
     2  C   -0.024098
     3  C    0.017898
     4  H   -0.001285
     5  C    0.007653
     6  C   -0.024376
     7  H   -0.000347
     8  H   -0.002671
     9  H   -0.001265
    10  H   -0.002739
    11  C    0.345155
    12  H   -0.035639
    13  H    0.439454
 Mulliken charges:
               1
     1  C    0.578296
     2  C   -0.489890
     3  C    0.192610
     4  H    0.278041
     5  C    0.599913
     6  C   -0.510673
     7  H    0.300126
     8  H    0.318022
     9  H    0.277124
    10  H    0.312762
    11  C   -1.407851
    12  H    0.275795
    13  H    0.275724
 Sum of Mulliken charges =   1.00000
 Mulliken charges with hydrogens summed into heavy atoms:
               1
     1  C    0.891058
     2  C   -0.211848
     3  C    0.492736
     5  C    0.917935
     6  C   -0.233548
    11  C   -0.856332
 Electronic spatial extent (au):  <R**2>=            452.3001
 Charge=              1.0000 electrons
 Dipole moment (field-independent basis, Debye):
    X=             -0.9275    Y=             -0.0210    Z=             -0.0001  Tot=              0.9277
 Quadrupole moment (field-independent basis, Debye-Ang):
   XX=            -19.6367   YY=            -22.6471   ZZ=            -34.8243
   XY=              0.0591   XZ=             -0.0011   YZ=              0.0007
 Traceless Quadrupole moment (field-independent basis, Debye-Ang):
   XX=              6.0660   YY=              3.0556   ZZ=             -9.1216
   XY=              0.0591   XZ=             -0.0011   YZ=              0.0007
 Octapole moment (field-independent basis, Debye-Ang**2):
  XXX=              2.8881  YYY=              0.0159  ZZZ=              0.0026  XYY=             -1.5107
  XXY=              0.2371  XXZ=             -0.0028  XZZ=             -4.7429  YZZ=             -0.2201
  YYZ=             -0.0063  XYZ=              0.0020
 Hexadecapole moment (field-independent basis, Debye-Ang**3):
 XXXX=           -223.1718 YYYY=           -215.2713 ZZZZ=            -41.9744 XXXY=             -0.1108
 XXXZ=             -0.0062 YYYX=             -0.3571 YYYZ=              0.0072 ZZZX=             -0.0052
 ZZZY=              0.0004 XXYY=            -72.0273 XXZZ=            -49.0770 YYZZ=            -58.4853
 XXYZ=              0.0021 YYXZ=              0.0001 ZZXY=              0.4345
 N-N= 2.140592594639D+02 E-N=-9.577633594023D+02  KE= 2.317707036453D+02
 No NMR shielding tensors so no spin-rotation constants.
 Leave Link  601 at Thu Dec 26 15:49:47 2019, MaxMem=  1342177280 cpu:               2.2 elap:               0.1
 (Enter /apps/cent7/gaussian/g16-A.03/g16-haswell/g16/l701.exe)
 ... and contract with generalized density number  0.
 Compute integral first derivatives.
 Leave Link  701 at Thu Dec 26 15:49:48 2019, MaxMem=  1342177280 cpu:               2.5 elap:               0.1
 (Enter /apps/cent7/gaussian/g16-A.03/g16-haswell/g16/l702.exe)
 L702 exits ... SP integral derivatives will be done elsewhere.
 Leave Link  702 at Thu Dec 26 15:49:48 2019, MaxMem=  1342177280 cpu:               0.5 elap:               0.0
 (Enter /apps/cent7/gaussian/g16-A.03/g16-haswell/g16/l703.exe)
 Integral derivatives from FoFJK, PRISM(SPDF).
 Compute integral first derivatives, UseDBF=F ICtDFT=           0.
 Calling FoFJK, ICntrl=      2127 FMM=F ISym2X=0 I1Cent= 0 IOpClX= 0 NMat=1 NMatS=1 NMatT=0.
 FoFJK:  IHMeth= 1 ICntrl=    2127 DoSepK=F KAlg= 0 I1Cent=           0 FoldK=F
 IRaf=         0 NMat=       1 IRICut=       1 DoRegI=T DoRafI=F ISym2E= 0 IDoP0=0 IntGTp=1.
 FoFCou: FMM=F IPFlag=           0 FMFlag=      100000 FMFlg1=         800
         NFxFlg=           0 DoJE=F BraDBF=F KetDBF=F FulRan=T
         wScrn=  0.000000 ICntrl=      2127 IOpCl=  0 I1Cent=           0 NGrid=           0
         NMat0=    1 NMatS0=      1 NMatT0=    0 NMatD0=    1 NMtDS0=    0 NMtDT0=    0
 Symmetry not used in FoFCou.
 Leave Link  703 at Thu Dec 26 15:49:49 2019, MaxMem=  1342177280 cpu:              23.2 elap:               1.0
 (Enter /apps/cent7/gaussian/g16-A.03/g16-haswell/g16/l716.exe)
 Dipole        =-3.64911072D-01-8.24580580D-03-3.91510884D-05
 ***** Axes restored to original set *****
 -------------------------------------------------------------------
 Center     Atomic                   Forces (Hartrees/Bohr)
 Number     Number              X              Y              Z
 -------------------------------------------------------------------
      1        6          -0.000327047   -0.061363856   -0.041177370
      2        6          -0.010751899   -0.015924865    0.026086340
      3        6           0.000550850   -0.001798762   -0.003622554
      4        1           0.002102332    0.010946276    0.000333649
      5        6           0.023075745    0.013288830   -0.069658319
      6        6           0.006400573    0.031451385   -0.000249684
      7        1          -0.001351241    0.004898574    0.008182248
      8        1          -0.002083044   -0.009741872    0.000411142
      9        1          -0.003711027   -0.005261243    0.009071437
     10        1          -0.003446999   -0.004239532    0.008943969
     11        6          -0.002549564    0.009802211    0.015318091
     12        1           0.009198701    0.011346251    0.027010677
     13        1          -0.017107380    0.016596604    0.019350374
 -------------------------------------------------------------------
 Cartesian Forces:  Max     0.069658319 RMS     0.020186303
 Leave Link  716 at Thu Dec 26 15:49:49 2019, MaxMem=  1342177280 cpu:               1.1 elap:               0.1
 (Enter /apps/cent7/gaussian/g16-A.03/g16-haswell/g16/l103.exe)

 GradGradGradGradGradGradGradGradGradGradGradGradGradGradGradGradGradGrad
 Berny optimization.
 FormGI is forming the generalized inverse of G from B-inverse, IUseBI=4.
 Internal  Forces:  Max     0.056289116 RMS     0.013238539
 Search for a local minimum.
 Step number   1 out of a maximum of   72
 All quantities printed in internal units (Hartrees-Bohrs-Radians)
 RMS Force = .13239D-01 SwitMx=.10000D-02 MixMth= 1
 Mixed Optimization -- RFO/linear search
 Second derivative matrix not updated -- first step.
 ITU=  0
     Eigenvalues ---    0.02152   0.02154   0.02154   0.02154   0.02155
     Eigenvalues ---    0.02155   0.02156   0.02157   0.05010   0.07495
     Eigenvalues ---    0.11480   0.12408   0.16000   0.16000   0.16000
     Eigenvalues ---    0.16000   0.16000   0.22000   0.22000   0.22124
     Eigenvalues ---    0.33718   0.33720   0.33725   0.33726   0.37230
     Eigenvalues ---    0.37230   0.37230   0.42107   0.42224   0.46412
     Eigenvalues ---    0.46453   0.46466   0.46497
 RFO step:  Lambda=-2.63035432D-02 EMin= 2.15241204D-02
 Linear search not attempted -- first point.
 Iteration  1 RMS(Cart)=  0.04282154 RMS(Int)=  0.00085153
 Iteration  2 RMS(Cart)=  0.00088024 RMS(Int)=  0.00012298
 Iteration  3 RMS(Cart)=  0.00000087 RMS(Int)=  0.00012297
 ITry= 1 IFail=0 DXMaxC= 1.33D-01 DCOld= 1.00D+10 DXMaxT= 3.00D-01 DXLimC= 3.00D+00 Rises=F
 Variable       Old X    -DE/DX   Delta X   Delta X   Delta X     New X
                                 (Linear)    (Quad)   (Total)
    R1        2.63697  -0.02370   0.00000  -0.04834  -0.04834   2.58863
    R2        2.02201   0.01045   0.00000   0.02622   0.02622   2.04822
    R3        2.63584   0.05629   0.00000   0.11796   0.11801   2.75385
    R4        2.63562   0.01291   0.00000   0.02293   0.02288   2.65851
    R5        2.07809  -0.01115   0.00000  -0.03068  -0.03068   2.04741
    R6        2.63647   0.01248   0.00000   0.02207   0.02202   2.65849
    R7        2.07805  -0.00963   0.00000  -0.02650  -0.02650   2.05155
    R8        2.63584  -0.02342   0.00000  -0.04770  -0.04770   2.58814
    R9        2.07795  -0.00994   0.00000  -0.02735  -0.02735   2.05060
   R10        2.63643   0.05581   0.00000   0.11710   0.11715   2.75357
   R11        2.07796  -0.01112   0.00000  -0.03060  -0.03060   2.04737
   R12        2.02201   0.02719   0.00000   0.06820   0.06820   2.09021
   R13        2.02201   0.02718   0.00000   0.06818   0.06818   2.09018
    A1        2.09407  -0.00046   0.00000  -0.00318  -0.00316   2.09090
    A2        2.09429   0.00251   0.00000   0.01495   0.01492   2.10921
    A3        2.09483  -0.00206   0.00000  -0.01177  -0.01175   2.08308
    A4        2.09429  -0.00213   0.00000  -0.01746  -0.01759   2.07670
    A5        2.09427   0.00108   0.00000   0.00883   0.00890   2.10317
    A6        2.09462   0.00104   0.00000   0.00863   0.00869   2.10331
    A7        2.09455   0.01628   0.00000   0.05046   0.05028   2.14483
    A8        2.09458  -0.00814   0.00000  -0.02522  -0.02513   2.06945
    A9        2.09406  -0.00814   0.00000  -0.02524  -0.02515   2.06891
   A10        2.09453  -0.00063   0.00000  -0.00384  -0.00382   2.09071
   A11        2.09440   0.00283   0.00000   0.01614   0.01610   2.11050
   A12        2.09426  -0.00220   0.00000  -0.01230  -0.01228   2.08197
   A13        2.09437  -0.00237   0.00000  -0.01856  -0.01869   2.07567
   A14        2.09435   0.00117   0.00000   0.00919   0.00925   2.10360
   A15        2.09447   0.00120   0.00000   0.00937   0.00944   2.10391
   A16        2.09448  -0.01712   0.00000  -0.04553  -0.04502   2.04946
   A17        1.86343   0.00688   0.00000   0.03149   0.03185   1.89528
   A18        1.86361   0.00687   0.00000   0.03147   0.03183   1.89543
   A19        1.86381   0.00684   0.00000   0.03126   0.03163   1.89543
   A20        1.86363   0.00689   0.00000   0.03158   0.03194   1.89557
   A21        1.91063  -0.01125   0.00000  -0.09177  -0.09173   1.81891
    D1       -3.14153  -0.00001   0.00000  -0.00009  -0.00008   3.14158
    D2       -0.00026   0.00000   0.00000   0.00006   0.00007  -0.00020
    D3        0.00060  -0.00002   0.00000  -0.00038  -0.00037   0.00023
    D4       -3.14132  -0.00002   0.00000  -0.00023  -0.00022  -3.14155
    D5        0.00023  -0.00001   0.00000  -0.00008  -0.00007   0.00016
    D6       -2.12014  -0.00310   0.00000  -0.03736  -0.03728  -2.15742
    D7        2.12051   0.00312   0.00000   0.03761   0.03754   2.15805
    D8       -3.14083  -0.00003   0.00000  -0.00037  -0.00036  -3.14119
    D9        1.02199  -0.00312   0.00000  -0.03765  -0.03758   0.98441
   D10       -1.02055   0.00311   0.00000   0.03732   0.03725  -0.98330
   D11       -0.00099   0.00002   0.00000   0.00056   0.00057  -0.00042
   D12       -3.14120  -0.00002   0.00000  -0.00034  -0.00034  -3.14154
   D13        3.14093   0.00002   0.00000   0.00041   0.00042   3.14135
   D14        0.00072  -0.00003   0.00000  -0.00049  -0.00049   0.00023
   D15        0.00056  -0.00002   0.00000  -0.00036  -0.00036   0.00020
   D16       -3.14112  -0.00001   0.00000  -0.00031  -0.00032  -3.14144
   D17        3.14078   0.00002   0.00000   0.00054   0.00055   3.14132
   D18       -0.00091   0.00003   0.00000   0.00059   0.00059  -0.00032
   D19        3.14140   0.00001   0.00000   0.00018   0.00018   3.14158
   D20       -0.00010   0.00001   0.00000   0.00014   0.00014   0.00004
   D21        0.00026   0.00000   0.00000  -0.00005  -0.00005   0.00021
   D22       -3.14124  -0.00000   0.00000  -0.00009  -0.00010  -3.14134
   D23       -0.00066   0.00002   0.00000   0.00028   0.00028  -0.00038
   D24        2.11952   0.00312   0.00000   0.03767   0.03760   2.15712
   D25       -2.12092  -0.00311   0.00000  -0.03735  -0.03728  -2.15820
   D26        3.14138   0.00001   0.00000   0.00005   0.00004   3.14143
   D27       -1.02162   0.00311   0.00000   0.03743   0.03736  -0.98426
   D28        1.02112  -0.00312   0.00000  -0.03758  -0.03751   0.98360
         Item               Value     Threshold  Converged?
 Maximum Force            0.056289     0.000450     NO 
 RMS     Force            0.013239     0.000300     NO 
 Maximum Displacement     0.132873     0.001800     NO 
 RMS     Displacement     0.042896     0.001200     NO 
 Predicted change in Energy=-1.417208D-02
 Lowest energy point so far.  Saving SCF results.
 GradGradGradGradGradGradGradGradGradGradGradGradGradGradGradGradGradGrad

 Leave Link  103 at Thu Dec 26 15:49:49 2019, MaxMem=  1342177280 cpu:               1.3 elap:               0.1
 (Enter /apps/cent7/gaussian/g16-A.03/g16-haswell/g16/l202.exe)
                          Input orientation:                          
 ---------------------------------------------------------------------
 Center     Atomic      Atomic             Coordinates (Angstroms)
 Number     Number       Type             X           Y           Z
 ---------------------------------------------------------------------
      1          6           0        0.378074    0.749094   -0.499941
      2          6           0        0.579956    0.058280   -1.665486
      3          6           0        1.049436    0.751308   -2.796169
      4          1           0        0.381242   -1.005603   -1.715677
      5          6           0        1.126954    2.838025   -1.630650
      6          6           0        1.323272    2.131182   -2.787197
      7          1           0        1.207022    0.197210   -3.716355
      8          1           0        1.333732    3.903034   -1.608042
      9          1           0        1.683672    2.626538   -3.680803
     10          1           0        0.016641    0.228285    0.379209
     11          6           0        0.642838    2.180100   -0.424005
     12          1           0        1.367292    2.361887    0.391813
     13          1           0       -0.278386    2.692005   -0.088284
 ---------------------------------------------------------------------
                    Distance matrix (angstroms):
                    1          2          3          4          5
     1  C    0.000000
     2  C    1.369845   0.000000
     3  C    2.392363   1.406821   0.000000
     4  H    2.134710   1.083445   2.168106   0.000000
     5  C    2.490573   2.833267   2.391407   3.916221   0.000000
     6  C    2.834627   2.471372   1.406811   3.446011   1.369587
     7  H    3.367054   2.149088   1.085634   2.476163   3.366078
     8  H    3.476853   3.918369   3.380214   5.001354   1.085133
     9  H    3.917559   3.446106   2.168252   4.330184   2.134898
    10  H    1.083873   2.127676   3.379830   2.458447   3.476071
    11  C    1.457273   2.459136   2.798916   3.447543   1.457129
    12  H    2.091620   3.187316   3.585837   4.093140   2.091609
    13  H    2.091722   3.187605   3.586371   4.093388   2.091697
                    6          7          8          9         10
     6  C    0.000000
     7  H    2.148743   0.000000
     8  H    2.128374   4.265463   0.000000
     9  H    1.083419   2.475903   2.459317   0.000000
    10  H    3.918473   4.265164   4.380374   5.001431   0.000000
    11  C    2.459687   3.884550   2.201767   3.448097   2.201558
    12  H    3.187675   4.646349   2.525011   4.093451   2.525207
    13  H    3.188098   4.646864   2.524912   4.093917   2.524977
                   11         12         13
    11  C    0.000000
    12  H    1.106092   0.000000
    13  H    1.106078   1.745773   0.000000
 Stoichiometry    C6H7(1+)
 Framework group  C1[X(C6H7)]
 Deg. of freedom    33
 Full point group                 C1      NOp   1
 RotChk:  IX=3 Diff= 1.98D+00
 Largest Abelian subgroup         C1      NOp   1
 Largest concise Abelian subgroup C1      NOp   1
                         Standard orientation:                         
 ---------------------------------------------------------------------
 Center     Atomic      Atomic             Coordinates (Angstroms)
 Number     Number       Type             X           Y           Z
 ---------------------------------------------------------------------
      1          6           0       -1.278846    0.562457    0.000009
      2          6           0       -1.192593   -0.804670   -0.000101
      3          6           0        0.078488   -1.407579    0.000142
      4          1           0       -2.089613   -1.412294   -0.000204
      5          6           0        1.207908    0.700320   -0.000155
      6          6           0        1.274976   -0.667624   -0.000003
      7          1           0        0.138984   -2.491526    0.000005
      8          1           0        2.122123    1.284892   -0.000259
      9          1           0        2.233892   -1.171884    0.000052
     10          1           0       -2.251446    1.040820   -0.000191
     11          6           0       -0.077275    1.386999    0.000090
     12          1           0       -0.114877    2.064961    0.873241
     13          1           0       -0.115016    2.065612   -0.872533
 ---------------------------------------------------------------------
 Rotational constants (GHZ):           5.4830049           5.3469425           2.7523435
 Leave Link  202 at Thu Dec 26 15:49:49 2019, MaxMem=  1342177280 cpu:               0.3 elap:               0.0
 (Enter /apps/cent7/gaussian/g16-A.03/g16-haswell/g16/l301.exe)
 Standard basis: 6-311++G(d,p) (5D, 7F)
 Ernie: Thresh=  0.10000D-02 Tol=  0.10000D-05 Strict=F.
 There are   187 symmetry adapted cartesian basis functions of A   symmetry.
 There are   181 symmetry adapted basis functions of A   symmetry.
   181 basis functions,   279 primitive gaussians,   187 cartesian basis functions
    21 alpha electrons       21 beta electrons
       nuclear repulsion energy       211.7929483054 Hartrees.
 IExCor= 4336 DFT=T Ex+Corr=M062X ExCW=0 ScaHFX=  0.540000
 ScaDFX=  1.000000  1.000000  1.000000  1.000000 ScalE2=  1.000000  1.000000
 IRadAn=      5 IRanWt=     -1 IRanGd=            0 ICorTp=0 IEmpDi=  4
 NAtoms=   13 NActive=   13 NUniq=   13 SFac= 1.00D+00 NAtFMM=   60 NAOKFM=F Big=F
 Integral buffers will be    131072 words long.
 Raffenetti 2 integral format.
 Two-electron integral symmetry is turned on.
 Leave Link  301 at Thu Dec 26 15:49:49 2019, MaxMem=  1342177280 cpu:               1.3 elap:               0.1
 (Enter /apps/cent7/gaussian/g16-A.03/g16-haswell/g16/l302.exe)
 NPDir=0 NMtPBC=     1 NCelOv=     1 NCel=       1 NClECP=     1 NCelD=      1
         NCelK=      1 NCelE2=     1 NClLst=     1 CellRange=     0.0.
 One-electron integrals computed using PRISM.
 One-electron integral symmetry used in STVInt
 NBasis=   181 RedAO= T EigKep=  1.75D-06  NBF=   181
 NBsUse=   181 1.00D-06 EigRej= -1.00D+00 NBFU=   181
 Precomputing XC quadrature grid using
 IXCGrd= 4 IRadAn=           5 IRanWt=          -1 IRanGd=           0 AccXCQ= 0.00D+00.
 Generated NRdTot=       0 NPtTot=           0 NUsed=           0 NTot=          32
 NSgBfM=   187   187   187   187   187 MxSgAt=    13 MxSgA2=    13.
 Leave Link  302 at Thu Dec 26 15:49:49 2019, MaxMem=  1342177280 cpu:               2.9 elap:               0.1
 (Enter /apps/cent7/gaussian/g16-A.03/g16-haswell/g16/l303.exe)
 DipDrv:  MaxL=1.
 Leave Link  303 at Thu Dec 26 15:49:49 2019, MaxMem=  1342177280 cpu:               0.6 elap:               0.0
 (Enter /apps/cent7/gaussian/g16-A.03/g16-haswell/g16/l401.exe)
 Initial guess from the checkpoint file:  "benzene_p.chk"
 B after Tr=    -0.000000    0.000000    0.000000
         Rot=    0.715009    0.000003    0.000002    0.699115 Ang=  88.71 deg.
 Guess basis will be translated and rotated to current coordinates.
 JPrj=2 DoOrth=T DoCkMO=T.
 Generating alternative initial guess.
 ExpMin= 3.60D-02 ExpMax= 4.56D+03 ExpMxC= 6.82D+02 IAcc=3 IRadAn=         5 AccDes= 0.00D+00
 Harris functional with IExCor= 1009 and IRadAn=       5 diagonalized for initial guess.
 HarFok:  IExCor= 1009 AccDes= 0.00D+00 IRadAn=         5 IDoV= 1 UseB2=F ITyADJ=14
 ICtDFT=  3500011 ScaDFX=  1.000000  1.000000  1.000000  1.000000
 FoFCou: FMM=F IPFlag=           0 FMFlag=      100000 FMFlg1=           0
         NFxFlg=           0 DoJE=T BraDBF=F KetDBF=T FulRan=T
         wScrn=  0.000000 ICntrl=       500 IOpCl=  0 I1Cent=   200000004 NGrid=           0
         NMat0=    1 NMatS0=      1 NMatT0=    0 NMatD0=    1 NMtDS0=    0 NMtDT0=    0
 Petite list used in FoFCou.
 Harris En= -232.421448425736    
 Leave Link  401 at Thu Dec 26 15:49:50 2019, MaxMem=  1342177280 cpu:               8.0 elap:               0.4
 (Enter /apps/cent7/gaussian/g16-A.03/g16-haswell/g16/l502.exe)
 Integral symmetry usage will be decided dynamically.
 Closed shell SCF:
 Using DIIS extrapolation, IDIIS=  1040.
 NGot=  1342177280 LenX=  1342100905 LenY=  1342065495
 Requested convergence on RMS density matrix=1.00D-08 within 128 cycles.
 Requested convergence on MAX density matrix=1.00D-06.
 Requested convergence on             energy=1.00D-06.
 No special actions if energy rises.
 Fock matrices will be formed incrementally for  20 cycles.

 Cycle   1  Pass 1  IDiag  1:
 FoFJK:  IHMeth= 1 ICntrl=       0 DoSepK=F KAlg= 0 I1Cent=           0 FoldK=F
 IRaf= 990000000 NMat=       1 IRICut=       1 DoRegI=T DoRafI=F ISym2E= 0 IDoP0=0 IntGTp=1.
 FoFCou: FMM=F IPFlag=           0 FMFlag=      100000 FMFlg1=           0
         NFxFlg=           0 DoJE=F BraDBF=F KetDBF=F FulRan=T
         wScrn=  0.000000 ICntrl=         0 IOpCl=  0 I1Cent=           0 NGrid=           0
         NMat0=    1 NMatS0=      1 NMatT0=    0 NMatD0=    1 NMtDS0=    0 NMtDT0=    0
 Symmetry not used in FoFCou.
 E= -232.482937005211    
 DIIS: error= 3.83D-03 at cycle   1 NSaved=   1.
 NSaved= 1 IEnMin= 1 EnMin= -232.482937005211     IErMin= 1 ErrMin= 3.83D-03
 ErrMax= 3.83D-03  0.00D+00 EMaxC= 1.00D-01 BMatC= 4.58D-03 BMatP= 4.58D-03
 IDIUse=3 WtCom= 9.62D-01 WtEn= 3.83D-02
 Coeff-Com:  0.100D+01
 Coeff-En:   0.100D+01
 Coeff:      0.100D+01
 Gap=     0.501 Goal=   None    Shift=    0.000
 GapD=    0.501 DampG=2.000 DampE=1.000 DampFc=2.0000 IDamp=-1.
 RMSDP=4.17D-03 MaxDP=2.54D-01              OVMax= 1.94D-02

 Cycle   2  Pass 1  IDiag  1:
 RMSU=  3.68D-03    CP:  9.55D-01
 E= -232.487071474792     Delta-E=       -0.004134469581 Rises=F Damp=F
 DIIS: error= 2.80D-03 at cycle   2 NSaved=   2.
 NSaved= 2 IEnMin= 2 EnMin= -232.487071474792     IErMin= 2 ErrMin= 2.80D-03
 ErrMax= 2.80D-03  0.00D+00 EMaxC= 1.00D-01 BMatC= 7.99D-04 BMatP= 4.58D-03
 IDIUse=3 WtCom= 9.72D-01 WtEn= 2.80D-02
 Coeff-Com:  0.193D+00 0.807D+00
 Coeff-En:   0.000D+00 0.100D+01
 Coeff:      0.188D+00 0.812D+00
 Gap=     0.243 Goal=   None    Shift=    0.000
 RMSDP=1.16D-03 MaxDP=3.94D-02 DE=-4.13D-03 OVMax= 1.33D-02

 Cycle   3  Pass 1  IDiag  1:
 RMSU=  5.74D-04    CP:  9.31D-01  1.04D+00
 E= -232.487493490421     Delta-E=       -0.000422015629 Rises=F Damp=F
 DIIS: error= 2.85D-03 at cycle   3 NSaved=   3.
 NSaved= 3 IEnMin= 3 EnMin= -232.487493490421     IErMin= 2 ErrMin= 2.80D-03
 ErrMax= 2.85D-03  0.00D+00 EMaxC= 1.00D-01 BMatC= 3.61D-04 BMatP= 7.99D-04
 IDIUse=3 WtCom= 9.71D-01 WtEn= 2.85D-02
 Coeff-Com: -0.326D-01 0.396D+00 0.637D+00
 Coeff-En:   0.000D+00 0.300D+00 0.700D+00
 Coeff:     -0.317D-01 0.393D+00 0.639D+00
 Gap=     0.245 Goal=   None    Shift=    0.000
 RMSDP=2.11D-04 MaxDP=7.09D-03 DE=-4.22D-04 OVMax= 9.48D-03

 Cycle   4  Pass 1  IDiag  1:
 RMSU=  1.72D-04    CP:  9.30D-01  1.06D+00  9.05D-01
 E= -232.487854398385     Delta-E=       -0.000360907964 Rises=F Damp=F
 DIIS: error= 5.21D-04 at cycle   4 NSaved=   4.
 NSaved= 4 IEnMin= 4 EnMin= -232.487854398385     IErMin= 4 ErrMin= 5.21D-04
 ErrMax= 5.21D-04  0.00D+00 EMaxC= 1.00D-01 BMatC= 1.82D-05 BMatP= 3.61D-04
 IDIUse=3 WtCom= 9.95D-01 WtEn= 5.21D-03
 Coeff-Com: -0.200D-01 0.152D+00 0.304D+00 0.564D+00
 Coeff-En:   0.000D+00 0.000D+00 0.000D+00 0.100D+01
 Coeff:     -0.199D-01 0.151D+00 0.302D+00 0.567D+00
 Gap=     0.245 Goal=   None    Shift=    0.000
 RMSDP=9.70D-05 MaxDP=3.04D-03 DE=-3.61D-04 OVMax= 2.77D-03

 Cycle   5  Pass 1  IDiag  1:
 RMSU=  3.80D-05    CP:  9.28D-01  1.06D+00  9.59D-01  9.99D-01
 E= -232.487874323913     Delta-E=       -0.000019925528 Rises=F Damp=F
 DIIS: error= 1.77D-04 at cycle   5 NSaved=   5.
 NSaved= 5 IEnMin= 5 EnMin= -232.487874323913     IErMin= 5 ErrMin= 1.77D-04
 ErrMax= 1.77D-04  0.00D+00 EMaxC= 1.00D-01 BMatC= 1.66D-06 BMatP= 1.82D-05
 IDIUse=3 WtCom= 9.98D-01 WtEn= 1.77D-03
 Coeff-Com:  0.328D-04-0.336D-01-0.229D-01 0.204D+00 0.853D+00
 Coeff-En:   0.000D+00 0.000D+00 0.000D+00 0.000D+00 0.100D+01
 Coeff:      0.328D-04-0.335D-01-0.228D-01 0.203D+00 0.853D+00
 Gap=     0.245 Goal=   None    Shift=    0.000
 RMSDP=3.00D-05 MaxDP=1.01D-03 DE=-1.99D-05 OVMax= 7.18D-04

 Cycle   6  Pass 1  IDiag  1:
 RMSU=  1.20D-05    CP:  9.28D-01  1.06D+00  9.75D-01  1.07D+00  1.04D+00
 E= -232.487876495194     Delta-E=       -0.000002171281 Rises=F Damp=F
 DIIS: error= 4.15D-05 at cycle   6 NSaved=   6.
 NSaved= 6 IEnMin= 6 EnMin= -232.487876495194     IErMin= 6 ErrMin= 4.15D-05
 ErrMax= 4.15D-05  0.00D+00 EMaxC= 1.00D-01 BMatC= 6.09D-08 BMatP= 1.66D-06
 IDIUse=1 WtCom= 1.00D+00 WtEn= 0.00D+00
 Coeff-Com:  0.950D-03-0.163D-01-0.195D-01 0.326D-01 0.200D+00 0.802D+00
 Coeff:      0.950D-03-0.163D-01-0.195D-01 0.326D-01 0.200D+00 0.802D+00
 Gap=     0.245 Goal=   None    Shift=    0.000
 RMSDP=4.31D-06 MaxDP=1.14D-04 DE=-2.17D-06 OVMax= 3.33D-04

 Cycle   7  Pass 1  IDiag  1:
 RMSU=  3.14D-06    CP:  9.28D-01  1.06D+00  9.76D-01  1.09D+00  1.04D+00
                    CP:  1.10D+00
 E= -232.487876632794     Delta-E=       -0.000000137601 Rises=F Damp=F
 DIIS: error= 1.57D-05 at cycle   7 NSaved=   7.
 NSaved= 7 IEnMin= 7 EnMin= -232.487876632794     IErMin= 7 ErrMin= 1.57D-05
 ErrMax= 1.57D-05  0.00D+00 EMaxC= 1.00D-01 BMatC= 2.58D-08 BMatP= 6.09D-08
 IDIUse=1 WtCom= 1.00D+00 WtEn= 0.00D+00
 Coeff-Com:  0.271D-03 0.807D-03-0.240D-02-0.299D-01-0.129D+00 0.307D+00
 Coeff-Com:  0.853D+00
 Coeff:      0.271D-03 0.807D-03-0.240D-02-0.299D-01-0.129D+00 0.307D+00
 Coeff:      0.853D+00
 Gap=     0.245 Goal=   None    Shift=    0.000
 RMSDP=3.13D-06 MaxDP=8.29D-05 DE=-1.38D-07 OVMax= 1.02D-04

 Cycle   8  Pass 1  IDiag  1:
 RMSU=  1.26D-06    CP:  9.28D-01  1.06D+00  9.76D-01  1.09D+00  1.06D+00
                    CP:  1.27D+00  1.26D+00
 E= -232.487876668688     Delta-E=       -0.000000035893 Rises=F Damp=F
 DIIS: error= 2.93D-06 at cycle   8 NSaved=   8.
 NSaved= 8 IEnMin= 8 EnMin= -232.487876668688     IErMin= 8 ErrMin= 2.93D-06
 ErrMax= 2.93D-06  0.00D+00 EMaxC= 1.00D-01 BMatC= 8.51D-10 BMatP= 2.58D-08
 IDIUse=1 WtCom= 1.00D+00 WtEn= 0.00D+00
 Coeff-Com: -0.572D-05 0.179D-02 0.133D-02-0.109D-01-0.562D-01 0.454D-01
 Coeff-Com:  0.230D+00 0.789D+00
 Coeff:     -0.572D-05 0.179D-02 0.133D-02-0.109D-01-0.562D-01 0.454D-01
 Coeff:      0.230D+00 0.789D+00
 Gap=     0.245 Goal=   None    Shift=    0.000
 RMSDP=6.63D-07 MaxDP=1.86D-05 DE=-3.59D-08 OVMax= 2.39D-05

 Cycle   9  Pass 1  IDiag  1:
 RMSU=  4.64D-07    CP:  9.28D-01  1.06D+00  9.75D-01  1.09D+00  1.06D+00
                    CP:  1.30D+00  1.30D+00  1.08D+00
 E= -232.487876669564     Delta-E=       -0.000000000876 Rises=F Damp=F
 DIIS: error= 2.27D-06 at cycle   9 NSaved=   9.
 NSaved= 9 IEnMin= 9 EnMin= -232.487876669564     IErMin= 9 ErrMin= 2.27D-06
 ErrMax= 2.27D-06  0.00D+00 EMaxC= 1.00D-01 BMatC= 3.31D-10 BMatP= 8.51D-10
 IDIUse=1 WtCom= 1.00D+00 WtEn= 0.00D+00
 Coeff-Com: -0.362D-04 0.868D-03 0.105D-02-0.202D-02-0.142D-01-0.650D-02
 Coeff-Com:  0.192D-01 0.423D+00 0.579D+00
 Coeff:     -0.362D-04 0.868D-03 0.105D-02-0.202D-02-0.142D-01-0.650D-02
 Coeff:      0.192D-01 0.423D+00 0.579D+00
 Gap=     0.245 Goal=   None    Shift=    0.000
 RMSDP=2.66D-07 MaxDP=8.47D-06 DE=-8.76D-10 OVMax= 1.11D-05

 Cycle  10  Pass 1  IDiag  1:
 RMSU=  1.28D-07    CP:  9.28D-01  1.06D+00  9.75D-01  1.09D+00  1.06D+00
                    CP:  1.30D+00  1.30D+00  1.14D+00  1.00D+00
 E= -232.487876669922     Delta-E=       -0.000000000358 Rises=F Damp=F
 DIIS: error= 1.49D-07 at cycle  10 NSaved=  10.
 NSaved=10 IEnMin=10 EnMin= -232.487876669922     IErMin=10 ErrMin= 1.49D-07
 ErrMax= 1.49D-07  0.00D+00 EMaxC= 1.00D-01 BMatC= 3.84D-12 BMatP= 3.31D-10
 IDIUse=1 WtCom= 1.00D+00 WtEn= 0.00D+00
 Coeff-Com: -0.403D-05 0.171D-04 0.591D-04 0.276D-03 0.919D-03-0.340D-02
 Coeff-Com: -0.136D-01 0.189D-01 0.993D-01 0.898D+00
 Coeff:     -0.403D-05 0.171D-04 0.591D-04 0.276D-03 0.919D-03-0.340D-02
 Coeff:     -0.136D-01 0.189D-01 0.993D-01 0.898D+00
 Gap=     0.245 Goal=   None    Shift=    0.000
 RMSDP=6.44D-08 MaxDP=2.48D-06 DE=-3.58D-10 OVMax= 7.24D-07

 Cycle  11  Pass 1  IDiag  1:
 RMSU=  2.51D-08    CP:  9.28D-01  1.06D+00  9.75D-01  1.09D+00  1.06D+00
                    CP:  1.30D+00  1.30D+00  1.16D+00  1.06D+00  1.08D+00
 E= -232.487876669926     Delta-E=       -0.000000000004 Rises=F Damp=F
 DIIS: error= 4.64D-08 at cycle  11 NSaved=  11.
 NSaved=11 IEnMin=11 EnMin= -232.487876669926     IErMin=11 ErrMin= 4.64D-08
 ErrMax= 4.64D-08  0.00D+00 EMaxC= 1.00D-01 BMatC= 2.30D-13 BMatP= 3.84D-12
 IDIUse=1 WtCom= 1.00D+00 WtEn= 0.00D+00
 Coeff-Com:  0.946D-07-0.272D-04-0.182D-04 0.164D-03 0.832D-03-0.529D-03
 Coeff-Com: -0.436D-02-0.110D-01 0.104D-01 0.261D+00 0.744D+00
 Coeff:      0.946D-07-0.272D-04-0.182D-04 0.164D-03 0.832D-03-0.529D-03
 Coeff:     -0.436D-02-0.110D-01 0.104D-01 0.261D+00 0.744D+00
 Gap=     0.245 Goal=   None    Shift=    0.000
 RMSDP=1.35D-08 MaxDP=2.17D-07 DE=-3.52D-12 OVMax= 2.02D-07

 Cycle  12  Pass 1  IDiag  1:
 RMSU=  5.16D-09    CP:  9.28D-01  1.06D+00  9.75D-01  1.09D+00  1.06D+00
                    CP:  1.30D+00  1.30D+00  1.17D+00  1.08D+00  1.11D+00
                    CP:  9.89D-01
 E= -232.487876669928     Delta-E=       -0.000000000002 Rises=F Damp=F
 DIIS: error= 1.75D-08 at cycle  12 NSaved=  12.
 NSaved=12 IEnMin=12 EnMin= -232.487876669928     IErMin=12 ErrMin= 1.75D-08
 ErrMax= 1.75D-08  0.00D+00 EMaxC= 1.00D-01 BMatC= 3.20D-14 BMatP= 2.30D-13
 IDIUse=1 WtCom= 1.00D+00 WtEn= 0.00D+00
 Coeff-Com:  0.414D-06-0.114D-04-0.117D-04 0.297D-04 0.209D-03 0.103D-03
 Coeff-Com: -0.271D-03-0.645D-02-0.417D-02 0.732D-02 0.270D+00 0.733D+00
 Coeff:      0.414D-06-0.114D-04-0.117D-04 0.297D-04 0.209D-03 0.103D-03
 Coeff:     -0.271D-03-0.645D-02-0.417D-02 0.732D-02 0.270D+00 0.733D+00
 Gap=     0.245 Goal=   None    Shift=    0.000
 RMSDP=3.88D-09 MaxDP=1.62D-07 DE=-1.93D-12 OVMax= 7.41D-08

 SCF Done:  E(RM062X) =  -232.487876670     A.U. after   12 cycles
            NFock= 12  Conv=0.39D-08     -V/T= 2.0041
 KE= 2.315313496598D+02 PE=-9.531290639839D+02 EE= 2.773168893488D+02
 Leave Link  502 at Thu Dec 26 15:49:55 2019, MaxMem=  1342177280 cpu:             121.7 elap:               5.1
 (Enter /apps/cent7/gaussian/g16-A.03/g16-haswell/g16/l701.exe)
 ... and contract with generalized density number  0.
 Compute integral first derivatives.
 Leave Link  701 at Thu Dec 26 15:49:55 2019, MaxMem=  1342177280 cpu:               2.5 elap:               0.1
 (Enter /apps/cent7/gaussian/g16-A.03/g16-haswell/g16/l702.exe)
 L702 exits ... SP integral derivatives will be done elsewhere.
 Leave Link  702 at Thu Dec 26 15:49:55 2019, MaxMem=  1342177280 cpu:               0.4 elap:               0.0
 (Enter /apps/cent7/gaussian/g16-A.03/g16-haswell/g16/l703.exe)
 Integral derivatives from FoFJK, PRISM(SPDF).
 Compute integral first derivatives, UseDBF=F ICtDFT=           0.
 Calling FoFJK, ICntrl=      2127 FMM=F ISym2X=0 I1Cent= 0 IOpClX= 0 NMat=1 NMatS=1 NMatT=0.
 FoFJK:  IHMeth= 1 ICntrl=    2127 DoSepK=F KAlg= 0 I1Cent=           0 FoldK=F
 IRaf=         0 NMat=       1 IRICut=       1 DoRegI=T DoRafI=F ISym2E= 0 IDoP0=0 IntGTp=1.
 FoFCou: FMM=F IPFlag=           0 FMFlag=      100000 FMFlg1=         800
         NFxFlg=           0 DoJE=F BraDBF=F KetDBF=F FulRan=T
         wScrn=  0.000000 ICntrl=      2127 IOpCl=  0 I1Cent=           0 NGrid=           0
         NMat0=    1 NMatS0=      1 NMatT0=    0 NMatD0=    1 NMtDS0=    0 NMtDT0=    0
 Symmetry not used in FoFCou.
 Leave Link  703 at Thu Dec 26 15:49:56 2019, MaxMem=  1342177280 cpu:              21.8 elap:               0.9
 (Enter /apps/cent7/gaussian/g16-A.03/g16-haswell/g16/l716.exe)
 Dipole        =-1.82242329D-02 3.30041253D-01 1.06607829D-04
 ***** Axes restored to original set *****
 -------------------------------------------------------------------
 Center     Atomic                   Forces (Hartrees/Bohr)
 Number     Number              X              Y              Z
 -------------------------------------------------------------------
      1        6           0.000683885   -0.008489200   -0.008258296
      2        6          -0.001461991   -0.000202196    0.004965865
      3        6          -0.000018276    0.000044429   -0.000076550
      4        1           0.000512975    0.000767068   -0.001234911
      5        6           0.002847538   -0.001882054   -0.010957187
      6        6           0.000181064    0.004282793    0.002361879
      7        1           0.000062034   -0.000264475   -0.000334355
      8        1          -0.000614836    0.000079399    0.002151649
      9        1          -0.000305498   -0.001466462    0.000021287
     10        1          -0.000229393    0.001523306    0.001868511
     11        6          -0.000525112    0.001527760    0.002785667
     12        1          -0.003071350    0.002546151    0.002622488
     13        1           0.001938960    0.001533480    0.004083953
 -------------------------------------------------------------------
 Cartesian Forces:  Max     0.010957187 RMS     0.003182008
 Leave Link  716 at Thu Dec 26 15:49:56 2019, MaxMem=  1342177280 cpu:               0.5 elap:               0.0
 (Enter /apps/cent7/gaussian/g16-A.03/g16-haswell/g16/l103.exe)

 GradGradGradGradGradGradGradGradGradGradGradGradGradGradGradGradGradGrad
 Berny optimization.
 Using GEDIIS/GDIIS optimizer.
 FormGI is forming the generalized inverse of G from B-inverse, IUseBI=4.
 Internal  Forces:  Max     0.005866810 RMS     0.001701690
 Search for a local minimum.
 Step number   2 out of a maximum of   72
 All quantities printed in internal units (Hartrees-Bohrs-Radians)
 RMS Force = .17017D-02 SwitMx=.10000D-02 MixMth= 1
 Mixed Optimization -- RFO/linear search
 Update second derivatives using D2CorX and points    1    2
 DE= -1.44D-02 DEPred=-1.42D-02 R= 1.01D+00
 TightC=F SS=  1.41D+00  RLast= 2.79D-01 DXNew= 5.0454D-01 8.3708D-01
 Trust test= 1.01D+00 RLast= 2.79D-01 DXMaxT set to 5.05D-01
 ITU=  1  0
 Use linear search instead of GDIIS.
     Eigenvalues ---    0.02152   0.02154   0.02154   0.02154   0.02155
     Eigenvalues ---    0.02155   0.02156   0.02157   0.05011   0.07329
     Eigenvalues ---    0.11311   0.12279   0.15876   0.16000   0.16000
     Eigenvalues ---    0.16000   0.16002   0.21618   0.22000   0.22132
     Eigenvalues ---    0.33689   0.33721   0.33724   0.33920   0.37212
     Eigenvalues ---    0.37230   0.38161   0.41405   0.42298   0.45283
     Eigenvalues ---    0.46444   0.46467   0.46575
 RFO step:  Lambda=-6.27745465D-04 EMin= 2.15244581D-02
 Quartic linear search produced a step of  0.15019.
 Iteration  1 RMS(Cart)=  0.01219468 RMS(Int)=  0.00012974
 Iteration  2 RMS(Cart)=  0.00012654 RMS(Int)=  0.00002422
 Iteration  3 RMS(Cart)=  0.00000000 RMS(Int)=  0.00002422
 ITry= 1 IFail=0 DXMaxC= 4.88D-02 DCOld= 1.00D+10 DXMaxT= 5.05D-01 DXLimC= 3.00D+00 Rises=F
 Variable       Old X    -DE/DX   Delta X   Delta X   Delta X     New X
                                 (Linear)    (Quad)   (Total)
    R1        2.58863  -0.00341  -0.00726  -0.00200  -0.00927   2.57937
    R2        2.04822   0.00086   0.00394  -0.00084   0.00310   2.05132
    R3        2.75385   0.00584   0.01772  -0.00123   0.01651   2.77036
    R4        2.65851   0.00088   0.00344  -0.00099   0.00243   2.66093
    R5        2.04741  -0.00079  -0.00461   0.00139  -0.00322   2.04419
    R6        2.65849   0.00091   0.00331  -0.00077   0.00252   2.66101
    R7        2.05155   0.00043  -0.00398   0.00497   0.00099   2.05255
    R8        2.58814  -0.00319  -0.00716  -0.00150  -0.00866   2.57948
    R9        2.05060   0.00001  -0.00411   0.00365  -0.00046   2.05015
   R10        2.75357   0.00587   0.01759  -0.00101   0.01661   2.77018
   R11        2.04737  -0.00079  -0.00460   0.00138  -0.00322   2.04415
   R12        2.09021   0.00034   0.01024  -0.00802   0.00222   2.09243
   R13        2.09018   0.00033   0.01024  -0.00804   0.00220   2.09238
    A1        2.09090   0.00161  -0.00048   0.01383   0.01335   2.10425
    A2        2.10921   0.00141   0.00224   0.00440   0.00665   2.11585
    A3        2.08308  -0.00302  -0.00177  -0.01823  -0.02000   2.06308
    A4        2.07670  -0.00022  -0.00264  -0.00031  -0.00298   2.07372
    A5        2.10317   0.00147   0.00134   0.00985   0.01120   2.11437
    A6        2.10331  -0.00125   0.00131  -0.00954  -0.00822   2.09509
    A7        2.14483   0.00113   0.00755  -0.00238   0.00512   2.14995
    A8        2.06945  -0.00062  -0.00377   0.00082  -0.00293   2.06652
    A9        2.06891  -0.00051  -0.00378   0.00157  -0.00219   2.06672
   A10        2.09071   0.00171  -0.00057   0.01435   0.01377   2.10449
   A11        2.11050   0.00117   0.00242   0.00308   0.00551   2.11601
   A12        2.08197  -0.00288  -0.00184  -0.01743  -0.01928   2.06269
   A13        2.07567  -0.00008  -0.00281   0.00070  -0.00213   2.07354
   A14        2.10360  -0.00126   0.00139  -0.00966  -0.00826   2.09534
   A15        2.10391   0.00134   0.00142   0.00896   0.01039   2.11430
   A16        2.04946  -0.00341  -0.00676  -0.00549  -0.01216   2.03730
   A17        1.89528   0.00175   0.00478   0.00959   0.01444   1.90972
   A18        1.89543   0.00175   0.00478   0.00963   0.01447   1.90990
   A19        1.89543   0.00172   0.00475   0.00929   0.01410   1.90953
   A20        1.89557   0.00173   0.00480   0.00938   0.01424   1.90980
   A21        1.81891  -0.00366  -0.01378  -0.03678  -0.05048   1.76842
    D1        3.14158  -0.00000  -0.00001  -0.00003  -0.00004   3.14154
    D2       -0.00020   0.00000   0.00001   0.00018   0.00020   0.00000
    D3        0.00023  -0.00001  -0.00006  -0.00034  -0.00040  -0.00017
    D4       -3.14155  -0.00000  -0.00003  -0.00013  -0.00016   3.14148
    D5        0.00016  -0.00000  -0.00001   0.00001   0.00000   0.00016
    D6       -2.15742  -0.00125  -0.00560  -0.01657  -0.02218  -2.17960
    D7        2.15805   0.00126   0.00564   0.01675   0.02239   2.18044
    D8       -3.14119  -0.00001  -0.00005  -0.00030  -0.00035  -3.14155
    D9        0.98441  -0.00126  -0.00564  -0.01688  -0.02253   0.96188
   D10       -0.98330   0.00125   0.00559   0.01643   0.02204  -0.96126
   D11       -0.00042   0.00001   0.00009   0.00048   0.00057   0.00015
   D12       -3.14154  -0.00000  -0.00005  -0.00014  -0.00020   3.14145
   D13        3.14135   0.00001   0.00006   0.00027   0.00033  -3.14150
   D14        0.00023  -0.00001  -0.00007  -0.00036  -0.00043  -0.00020
   D15        0.00020  -0.00001  -0.00005  -0.00026  -0.00032  -0.00012
   D16       -3.14144  -0.00000  -0.00005  -0.00018  -0.00023   3.14152
   D17        3.14132   0.00001   0.00008   0.00037   0.00045  -3.14141
   D18       -0.00032   0.00001   0.00009   0.00045   0.00054   0.00022
   D19        3.14158   0.00000   0.00003   0.00010   0.00012  -3.14148
   D20        0.00004   0.00000   0.00002   0.00001   0.00003   0.00007
   D21        0.00021  -0.00000  -0.00001  -0.00009  -0.00010   0.00010
   D22       -3.14134  -0.00000  -0.00001  -0.00018  -0.00020  -3.14153
   D23       -0.00038   0.00001   0.00004   0.00022   0.00026  -0.00012
   D24        2.15712   0.00127   0.00565   0.01695   0.02261   2.17973
   D25       -2.15820  -0.00126  -0.00560  -0.01665  -0.02225  -2.18045
   D26        3.14143   0.00000   0.00001   0.00002   0.00003   3.14146
   D27       -0.98426   0.00127   0.00561   0.01676   0.02238  -0.96188
   D28        0.98360  -0.00127  -0.00563  -0.01684  -0.02248   0.96113
         Item               Value     Threshold  Converged?
 Maximum Force            0.005867     0.000450     NO 
 RMS     Force            0.001702     0.000300     NO 
 Maximum Displacement     0.048844     0.001800     NO 
 RMS     Displacement     0.012189     0.001200     NO 
 Predicted change in Energy=-4.831683D-04
 Lowest energy point so far.  Saving SCF results.
 GradGradGradGradGradGradGradGradGradGradGradGradGradGradGradGradGradGrad

 Leave Link  103 at Thu Dec 26 15:49:56 2019, MaxMem=  1342177280 cpu:               1.0 elap:               0.1
 (Enter /apps/cent7/gaussian/g16-A.03/g16-haswell/g16/l202.exe)
                          Input orientation:                          
 ---------------------------------------------------------------------
 Center     Atomic      Atomic             Coordinates (Angstroms)
 Number     Number       Type             X           Y           Z
 ---------------------------------------------------------------------
      1          6           0        0.378647    0.742070   -0.507106
      2          6           0        0.579821    0.053346   -1.668250
      3          6           0        1.049507    0.750263   -2.798057
      4          1           0        0.384835   -1.008903   -1.729642
      5          6           0        1.129361    2.836035   -1.639800
      6          6           0        1.324749    2.131234   -2.792322
      7          1           0        1.207376    0.195605   -3.718479
      8          1           0        1.332125    3.901180   -1.603145
      9          1           0        1.684181    2.615730   -3.690199
[...]
 ! A6    A(3,2,4)              119.8872         -DE/DX =    0.0                 !
 ! A7    A(2,3,6)              123.2586         -DE/DX =    0.0                 !
 ! A8    A(2,3,7)              118.3714         -DE/DX =    0.0                 !
 ! A9    A(6,3,7)              118.37           -DE/DX =    0.0                 !
 ! A10   A(6,5,8)              120.9164         -DE/DX =   -0.0001              !
 ! A11   A(6,5,11)             120.9979         -DE/DX =    0.0                 !
 ! A12   A(8,5,11)             118.0857         -DE/DX =    0.0001              !
 ! A13   A(3,6,5)              118.8146         -DE/DX =    0.0                 !
 ! A14   A(3,6,9)              119.887          -DE/DX =    0.0                 !
 ! A15   A(5,6,9)              121.2983         -DE/DX =    0.0                 !
 ! A16   A(1,11,5)             117.1182         -DE/DX =    0.0001              !
 ! A17   A(1,11,12)            109.4927         -DE/DX =    0.0                 !
 ! A18   A(1,11,13)            109.504          -DE/DX =    0.0                 !
 ! A19   A(5,11,12)            109.4941         -DE/DX =    0.0                 !
 ! A20   A(5,11,13)            109.5053         -DE/DX =    0.0                 !
 ! A21   A(12,11,13)           100.4294         -DE/DX =    0.0                 !
 ! D1    D(10,1,2,3)          -180.0023         -DE/DX =    0.0                 !
 ! D2    D(10,1,2,4)            -0.0016         -DE/DX =    0.0                 !
 ! D3    D(11,1,2,3)            -0.005          -DE/DX =    0.0                 !
 ! D4    D(11,1,2,4)          -180.0043         -DE/DX =    0.0                 !
 ! D5    D(2,1,11,5)             0.0066         -DE/DX =    0.0                 !
 ! D6    D(2,1,11,12)         -125.3737         -DE/DX =    0.0                 !
 ! D7    D(2,1,11,13)          125.4123         -DE/DX =    0.0                 !
 ! D8    D(10,1,11,5)          180.004          -DE/DX =    0.0                 !
 ! D9    D(10,1,11,12)          54.6237         -DE/DX =    0.0                 !
 ! D10   D(10,1,11,13)         -54.5903         -DE/DX =    0.0                 !
 ! D11   D(1,2,3,6)              0.0033         -DE/DX =    0.0                 !
 ! D12   D(1,2,3,7)            179.9957         -DE/DX =    0.0                 !
 ! D13   D(4,2,3,6)           -179.9974         -DE/DX =    0.0                 !
 ! D14   D(4,2,3,7)             -0.0051         -DE/DX =    0.0                 !
 ! D15   D(2,3,6,5)             -0.0033         -DE/DX =    0.0                 !
 ! D16   D(2,3,6,9)            179.9975         -DE/DX =    0.0                 !
 ! D17   D(7,3,6,5)           -179.9957         -DE/DX =    0.0                 !
 ! D18   D(7,3,6,9)              0.0051         -DE/DX =    0.0                 !
 ! D19   D(8,5,6,3)            180.0023         -DE/DX =    0.0                 !
 ! D20   D(8,5,6,9)              0.0015         -DE/DX =    0.0                 !
 ! D21   D(11,5,6,3)             0.005          -DE/DX =    0.0                 !
 ! D22   D(11,5,6,9)           180.0042         -DE/DX =    0.0                 !
 ! D23   D(6,5,11,1)            -0.0066         -DE/DX =    0.0                 !
 ! D24   D(6,5,11,12)          125.373          -DE/DX =    0.0                 !
 ! D25   D(6,5,11,13)         -125.4117         -DE/DX =    0.0                 !
 ! D26   D(8,5,11,1)          -180.004          -DE/DX =    0.0                 !
 ! D27   D(8,5,11,12)          -54.6244         -DE/DX =    0.0                 !
 ! D28   D(8,5,11,13)           54.591          -DE/DX =    0.0                 !
 --------------------------------------------------------------------------------
 GradGradGradGradGradGradGradGradGradGradGradGradGradGradGradGradGradGrad

 Leave Link  103 at Thu Dec 26 15:50:53 2019, MaxMem=  1342177280 cpu:               0.6 elap:               0.1
 (Enter /apps/cent7/gaussian/g16-A.03/g16-haswell/g16/l9999.exe)

 ----------------------------------------------------------------------

 Electric dipole moment (input orientation):
 (Debye = 10**-18 statcoulomb cm , SI units = C m)
                  (au)            (Debye)         (10**-30 SI)
   Tot        0.346731D+00      0.881302D+00      0.293971D+01
   x         -0.502138D-01     -0.127631D+00     -0.425730D+00
   y          0.176974D+00      0.449822D+00      0.150045D+01
   z          0.293907D+00      0.747037D+00      0.249185D+01

 Dipole polarizability, Alpha (input orientation).
 (esu units = cm**3 , SI units = C**2 m**2 J**-1)
 Alpha(0;0):
               (au)            (10**-24 esu)      (10**-40 SI)
   iso        0.609073D+02      0.902554D+01      0.100423D+02
   aniso      0.379894D+02      0.562945D+01      0.626360D+01
   xx         0.397640D+02      0.589241D+01      0.655620D+01
   yx         0.615185D+01      0.911610D+00      0.101430D+01
   yy         0.713710D+02      0.105761D+02      0.117675D+02
   zx        -0.980096D+01     -0.145235D+01     -0.161596D+01
   zy         0.344498D+01      0.510493D+00      0.568000D+00
   zz         0.715870D+02      0.106081D+02      0.118031D+02

 ----------------------------------------------------------------------

 Dipole orientation:
     6          0.62389657          1.71902496         -0.20055972
     6          0.63030163          1.73787410         -2.77993923
     6          1.25179903          3.99597866         -4.04476724
     1          0.16961966          0.06068262         -3.85590554
     6          1.87647051          6.27393734         -0.20067242
     6          1.87230198          6.25433765         -2.77999236
     1          1.25283692          3.99570292         -6.09762232
     1          2.34464734          7.97831100          0.83930854
     1          2.33397283          7.93123686         -3.85598955
     1          0.15479529          0.01504373          0.83958858
     6          1.24969382          3.99664815          1.24347122
     1          2.79915213          3.57055834          2.58199921
     1         -0.30005057          4.42282382          2.58155965

 Electric dipole moment (dipole orientation):
 (Debye = 10**-18 statcoulomb cm , SI units = C m)
                  (au)            (Debye)         (10**-30 SI)
   Tot        0.346731D+00      0.881302D+00      0.293971D+01
   x          0.000000D+00      0.000000D+00      0.000000D+00
   y          0.000000D+00      0.000000D+00      0.000000D+00
   z          0.346731D+00      0.881302D+00      0.293971D+01

 Dipole polarizability, Alpha (dipole orientation).
 (esu units = cm**3 , SI units = C**2 m**2 J**-1)
 Alpha(0;0):
               (au)            (10**-24 esu)      (10**-40 SI)
   iso        0.609073D+02      0.902554D+01      0.100423D+02
   aniso      0.379894D+02      0.562945D+01      0.626360D+01
   xx         0.382020D+02      0.566095D+01      0.629866D+01
   yx         0.921535D+01      0.136557D+01      0.151941D+01
   yy         0.691789D+02      0.102513D+02      0.114061D+02
   zx        -0.159016D-01     -0.235638D-02     -0.262183D-02
   zy         0.410306D-02      0.608011D-03      0.676504D-03
   zz         0.753411D+02      0.111644D+02      0.124221D+02

 ----------------------------------------------------------------------
 1\1\GINC-BROWN-A089\Freq\RM062X\6-311++G(d,p)\C6H7(1+)\FINEJ\26-Dec-20
 19\0\\#P Geom=AllCheck Guess=TCheck SCRF=Check GenChk RM062X/6-311++G(
 d,p) Freq\\Title Card Required\\1,1\C,0.3781666113,0.7404452997,-0.506
 4507152\C,0.5795892785,0.0524702323,-1.6680511528\C,1.0494742117,0.750
 4570322,-2.7976743085\H,0.385524878,-1.0102876898,-1.7329868237\C,1.12
 99139112,2.8374330926,-1.6407706788\C,1.3249862502,2.1317728059,-2.792
 769852\H,1.2073334572,0.1958867365,-3.7183439994\H,1.3312326241,3.9029
 862541,-1.5987439187\H,1.6844791557,2.6131831391,-3.6929589916\H,0.016
 9602976,0.2368845122,0.3844034302\C,0.6431188786,2.1790462243,-0.42593
 70307\H,1.3421500886,2.379693925,0.4082986853\H,-0.2611846927,2.701373
 5558,-0.0596012841\\Version=ES64L-G16RevA.03\State=1-A\HF=-232.4884773
 \RMSD=3.641e-09\RMSF=1.152e-04\ZeroPoint=0.1107045\Thermal=0.1107045\D
 ipole=-0.0502138,0.1769738,0.2939069\DipoleDeriv=0.057257,0.034613,-0.
 0498972,-0.1482283,-0.0016081,0.4820838,-0.1754472,-0.1439452,0.537682
 ,-0.1612357,-0.0837168,0.2363205,0.0513752,0.1115189,-0.0475702,0.3289
 978,0.4147768,-0.9171347,0.206636,0.1851393,-0.1598218,0.1851418,0.810
 2382,-0.1620221,-0.1598271,-0.1619896,0.558829,0.1551016,-0.0137457,0.
 0192733,-0.0129638,0.0994423,0.0004235,0.0198169,0.0031147,0.0977864,0
 .0280686,-0.1376703,-0.0683397,0.0451379,0.2842424,0.0159986,0.0571618
 ,0.6420066,0.2809453,-0.0589212,0.0142651,-0.0467224,-0.1208337,-0.891
 6667,-0.1466206,-0.1393992,-0.6090104,-0.0162291,0.112939,0.001658,0.0
 003779,0.0016464,0.1137074,-0.0049723,0.0003581,-0.0049706,0.1080505,0
 .118284,-0.0043313,0.0068106,-0.000786,0.1155009,-0.0011908,0.0092406,
 0.0109414,0.097001,0.1559492,-0.0132827,0.016677,-0.0140612,0.0910394,
 -0.0015801,0.0161376,-0.0042647,0.1053116,0.1203499,-0.0015375,0.00165
 44,-0.0050748,0.0952461,-0.0004074,-0.0007713,-0.0125071,0.1151806,-0.
 0834341,0.0506778,0.0688113,0.0507914,-0.2083519,-0.2666506,0.0690174,
 -0.266712,-0.493217,0.1741301,-0.0164311,-0.013567,-0.0142508,0.190098
 1,0.066957,-0.009537,0.065513,0.2635631,0.1748756,-0.0156378,-0.011576
 8,-0.0178942,0.190593,0.0655511,-0.0157483,0.0670471,0.2622312\Polar=3
 9.7639827,6.1518506,71.3710103,-9.8009604,3.4449775,71.5870113\Quadrup
 ole=-6.0712552,2.6857934,3.3854618,1.5350279,-2.7839208,1.5248297\PG=C
 01 [X(C6H7)]\NImag=0\\0.23473075,0.07770333,0.61371429,-0.15755603,0.0
 3638629,0.73741056,-0.07718456,0.00313538,0.04485775,0.18235049,0.0169
 7990,-0.21222555,-0.15935966,0.10498669,0.75560773,0.05436711,-0.11195
 993,-0.32762164,-0.13815582,0.07611287,0.64612619,-0.00230478,0.012571
 72,0.01902474,-0.09163376,-0.05528745,0.06125379,0.22286829,0.00497566
 ,0.05143716,0.01776998,-0.03701140,-0.18528028,0.04256492,0.08352081,0
 .66061754,0.01380611,-0.00823659,-0.05219074,0.07379411,0.10512229,-0.
 24314682,-0.13643275,0.05330639,0.66982848,0.00458810,0.00621785,0.000
 52457,-0.05248751,-0.05518445,0.00115614,0.00095774,-0.01036447,-0.000
 80912,0.04149266,-0.00257169,-0.00849783,0.00057324,-0.05517207,-0.343
 15386,-0.01841330,-0.00167845,-0.00829577,-0.00186806,0.05999638,0.356
 32199,-0.00550710,-0.02951645,0.00208971,0.00116340,-0.01837039,-0.057
 67644,0.00515295,0.02786994,0.00428515,-0.00481961,0.01987568,0.058196
 49,-0.00150512,-0.01316845,0.00331632,-0.00618004,0.00260763,0.0096015
 9,0.00643492,0.00939951,-0.01306846,-0.00068481,0.00018820,0.00009614,
 0.22395169,-0.01503133,-0.02302655,0.03422588,0.00062342,0.00049875,0.
 00088055,0.00180525,-0.03426146,-0.03018803,0.00020875,0.00047001,0.00
 008345,0.08158260,0.71930190,0.00202734,0.02781949,0.01424597,0.008239
 47,-0.00591190,-0.03616081,-0.01828189,-0.05620243,0.02475271,0.000110
 85,0.00015490,-0.00096598,-0.11802265,0.09550491,0.64268297,-0.0033669
 2,0.00158949,-0.00072637,-0.00033190,-0.01259827,0.00033151,-0.0787484
 8,-0.05997583,0.01393939,0.00565528,-0.00153831,0.00334385,-0.07898079
 ,0.01763915,0.06099145,0.19328768,-0.00039654,-0.02707519,-0.01454571,
 -0.01798911,-0.01232282,0.05155310,-0.04169769,-0.31163447,-0.02814378
 ,-0.00146132,0.00141655,0.00120948,0.00379804,-0.19457737,-0.10210576,
 0.10103435,0.64835324,-0.00208938,-0.02134577,-0.01139591,-0.00336913,
 0.03309594,0.03653384,0.02648099,0.03442149,-0.12967763,0.00339762,0.0
 0147568,-0.00367699,0.05148973,-0.14951229,-0.34354839,-0.17835558,0.0
 1611154,0.74251126,0.00598754,-0.00230098,0.00385314,0.01080746,0.0040
 9442,0.01025249,-0.06252171,0.01977304,0.03693581,-0.00273076,0.000679
 59,-0.00106199,0.00647846,-0.00293453,0.00173715,0.01295728,-0.0049799
 3,-0.00332818,0.03780121,-0.00275592,-0.00127079,0.00336546,-0.0041991
 4,0.01304993,0.01442067,0.01977032,-0.13692336,-0.12338738,0.00073521,
 0.00046072,-0.00002083,-0.00247906,-0.00608691,-0.00088835,0.00331627,
 -0.00802014,-0.02576076,-0.01616662,0.13848666,0.00354133,0.00180660,-
 0.00330721,0.00456418,-0.01396784,-0.01222201,0.03693161,-0.12338842,-
 0.26673470,-0.00102408,0.00016991,0.00044400,0.00205016,0.00066946,0.0
 0101747,0.00236408,0.00262914,0.00669724,-0.04569488,0.13133594,0.2741
 7639,0.00273148,-0.00026891,0.00328717,-0.00068762,0.00021752,-0.00093
 265,0.00841064,-0.00154198,0.00390858,-0.00093617,0.00018911,-0.000322
 77,-0.05839436,-0.05557273,0.00081124,0.01273660,0.00441833,0.00273026
 ,-0.00208696,0.00070662,-0.00063472,0.04040648,-0.00089532,0.00243143,
 0.00216475,0.00072688,0.00018418,-0.00167319,-0.00164974,-0.00136571,-
 0.00205584,0.00018907,-0.00006254,0.00004290,-0.05456118,-0.33941936,-
 0.01387484,-0.00450330,-0.00581091,0.00274782,0.00026619,-0.00052759,0
 .00038314,0.06111538,0.35095380,0.00285617,0.00001337,-0.00602628,-0.0
 0058389,0.00007056,0.00104336,0.00383543,-0.00242328,-0.00493035,-0.00
 032275,0.00004281,0.00006617,0.00150211,-0.01041490,-0.05931010,-0.003
 39227,-0.02779684,0.00518502,-0.00093699,-0.00112462,0.00002105,-0.006
 08495,0.01351678,0.05648542,-0.00056228,0.00014427,-0.00035247,0.00625
 815,-0.00175673,0.00112982,0.00121846,-0.00177468,0.00419495,-0.000140
 65,0.00001920,0.00013100,0.00243666,-0.00179157,0.00239753,-0.07566777
 ,-0.04677070,0.08627930,-0.00275370,0.00068790,-0.00097854,-0.00449964
 ,0.00100932,-0.00150136,0.06565269,0.00016466,-0.00072818,-0.00058696,
 -0.00167981,-0.00449456,-0.00209817,-0.01046079,-0.01085768,0.02643679
 ,-0.00038829,-0.00030980,0.00118952,0.00699876,0.01260733,-0.01770666,
 -0.04678456,-0.11589428,0.10880886,0.00074369,0.00068455,0.00010484,0.
 00096310,0.00041130,0.00051338,0.05124168,0.11945450,-0.00033806,-0.00
 051542,0.00010958,0.00118355,-0.00183226,0.00163155,-0.00176736,-0.003
 30111,0.00658436,-0.00014861,-0.00020535,0.00026170,0.00843030,0.01238
 381,-0.01686489,0.08626982,0.10876542,-0.26175268,-0.00094017,0.000294
 96,0.00024317,-0.00153338,0.00035444,0.00035129,-0.09353450,-0.1126795
 8,0.27090351,-0.08061659,-0.04650605,0.08311574,0.01078837,-0.00379580
 ,0.00375767,0.00859549,-0.00171813,0.00315426,-0.00450108,0.00100987,-
 0.00149481,0.00355746,-0.00119590,-0.00017810,-0.00084539,0.00078482,-
 0.00000309,-0.00218440,0.00030151,-0.00057957,0.00197897,-0.00040489,0
 .00075843,-0.00095156,0.00019474,-0.00026614,0.06369216,-0.04751785,-0
 .12153927,0.11150932,0.00512621,0.01328787,-0.01710834,-0.00160997,-0.
 00318459,-0.00344189,0.00096350,0.00042805,0.00052334,-0.00056838,-0.0
 0566850,-0.00451852,0.00027486,0.00173364,0.00093748,0.00074196,0.0004
 2712,-0.00059048,-0.00087490,-0.00022155,0.00127784,0.00019481,0.00008
 876,0.00012752,0.05267717,0.12265985,0.08242264,0.10805575,-0.25499903
 ,0.00988174,0.01343308,-0.01196185,0.00322794,-0.00307396,-0.00329638,
 -0.00152689,0.00036377,0.00033594,0.00025490,-0.00236770,0.00124740,-0
 .00035298,-0.00080572,-0.00034839,-0.00027729,0.00091731,-0.00083596,0
 .00043564,-0.00033180,0.00056319,-0.00026612,0.00012759,-0.00006976,-0
 .09159782,-0.11423869,0.26152303,-0.08066601,-0.04067589,0.00485861,0.
 02086294,0.00054369,0.00299963,-0.01298059,-0.00096051,-0.00179471,0.0
 0882264,-0.00111792,0.00357968,-0.09248871,-0.03302524,0.05057944,0.01
 797261,0.00170109,0.01369515,-0.00216371,0.00021517,-0.00075049,-0.001
 65197,-0.00070758,0.00381777,0.00914002,-0.00144844,0.00226578,-0.0013
 9368,-0.00916548,-0.00287696,0.44790666,-0.03732758,-0.25411446,0.0021
 7251,0.00066399,-0.01504817,-0.02745592,-0.00096167,-0.00936143,0.0060
 0121,-0.00133386,0.00168805,-0.00120164,-0.03638246,-0.13819393,0.0785
 3309,0.00158262,0.01324907,-0.01117802,0.00021566,-0.00000913,0.000922
 93,-0.00906745,-0.00659003,0.02680402,-0.00123416,-0.00142535,-0.00368
 149,-0.00080369,-0.00913685,-0.00325569,0.02741748,0.55696659,0.007157
 67,0.01367256,-0.08617111,0.00309772,-0.02701053,-0.00752645,-0.001796
 52,0.00600067,-0.00304838,0.00343023,-0.00193829,-0.00298298,0.0482632
 9,0.06704097,-0.19028744,0.01360148,-0.01162770,-0.03292743,-0.0007495
 9,0.00092265,0.00077778,-0.00192377,-0.00183018,0.00493352,0.00241218,
 -0.00294377,-0.00018691,0.00286712,0.02538066,0.00721974,-0.03136119,-
 0.00906905,0.53416947,-0.00570980,0.00216791,-0.00183172,-0.00113658,0
 .00018656,-0.00154656,-0.00003743,-0.00209656,0.00137969,0.00027256,0.
 00005589,0.00007327,0.00519027,0.00348428,0.00822179,-0.00313838,0.001
 68138,0.00252063,0.00020221,-0.00008345,0.00007189,0.00056423,-0.00003
 975,-0.00061013,-0.00053310,0.00035927,0.00021838,0.00110576,-0.000654
 91,0.00027780,-0.12007065,-0.03870150,-0.12269222,0.14486221,-0.019017
 86,-0.00515598,-0.02369491,0.00225800,-0.00554768,-0.00312943,-0.00263
 820,-0.00536835,0.00305671,0.00146451,-0.00050724,-0.00049968,0.012524
 76,0.00169298,0.00262844,-0.00092301,0.00532551,0.00459002,-0.00003928
 ,-0.00013743,-0.00002309,-0.00067176,0.00008117,-0.00029212,-0.0007678
 1,0.00038099,-0.00011772,0.00153270,0.00030140,0.00113713,-0.04027572,
 -0.04314689,-0.02715855,0.03600266,0.05058520,-0.00066367,-0.00790074,
 -0.00567934,-0.00242228,-0.00049307,0.00584221,0.00037821,0.00341605,-
 0.00140212,-0.00015653,-0.00004716,-0.00020408,-0.01539963,-0.00511765
 ,-0.02342713,0.00241081,0.00230718,-0.00302982,0.00015351,-0.00005234,
 -0.00013410,0.00187199,-0.00002267,0.00116899,0.00096880,-0.00075700,-
 0.00028671,0.00067203,-0.00016328,0.00040750,-0.12560185,-0.02611484,-
 0.17441671,0.13315975,0.03536399,0.19799154,0.00387818,-0.00060966,-0.
 00237143,-0.00142545,-0.00099371,-0.00421473,-0.00025879,-0.00222547,0
 .00099215,-0.00030801,-0.00005979,-0.00033400,-0.00981562,0.00420789,0
 .00136639,-0.00152983,-0.00012271,0.00055168,0.00020708,-0.00004882,0.
 00013903,0.00142832,-0.00054509,0.00066243,0.00040272,0.00009599,0.000
 16040,0.00077449,0.00041299,0.00039740,-0.19328955,0.09593261,0.077693
 60,-0.02157131,0.01055101,0.00462887,0.22150778,0.02569055,-0.01394908
 ,-0.00998019,-0.00146904,-0.00455554,-0.00369382,-0.00168415,-0.005521
 60,0.00339816,-0.00104287,0.00004167,-0.00118532,-0.00993996,0.0066630
 9,-0.00343237,0.00088654,0.00525717,0.00560800,-0.00009321,-0.00013365
 ,-0.00005214,0.00038768,-0.00006418,-0.00018701,0.00079848,0.00008242,
 0.00040679,-0.00207637,0.00082407,0.00003894,0.09749935,-0.09487747,-0
 .03143945,-0.00236176,0.00149635,-0.00041848,-0.10659524,0.10473673,-0
 .00002411,-0.00827916,-0.00646456,-0.00225078,-0.00088910,0.00513886,0
 .00199286,0.00303977,-0.00102359,0.00018819,-0.00018384,-0.00017269,0.
 02148621,-0.01318846,-0.01338179,-0.00042520,0.00244965,-0.00457010,0.
 00005698,-0.00002271,-0.00014312,-0.00161262,0.00057869,0.00044874,-0.
 00088059,-0.00040885,-0.00092422,-0.00020572,0.00030504,0.00021457,0.0
 8058914,-0.03247711,-0.04955310,-0.01924255,0.00813920,0.00316978,-0.0
 7967180,0.04093687,0.06726122\\-0.00004020,-0.00030146,-0.00006411,-0.
 00001084,0.00002474,0.00006687,-0.00000029,-0.00001801,-0.00006633,0.0
 0000582,-0.00002088,-0.00002953,0.00010359,0.00006918,-0.00030254,-0.0
 0001158,0.00004382,0.00008284,0.00000692,-0.00000263,-0.00000578,-0.00
 001609,0.00000779,0.00005406,0.00000699,-0.00001574,-0.00003018,0.0000
 0142,0.00005736,0.00002805,-0.00007617,0.00025873,0.00043182,-0.000039
 66,-0.00004059,-0.00009873,0.00007009,-0.00006232,-0.00006643\\\@


 LOGIC IS A SYSTEMATIC METHOD OF COMING TO THE
 WRONG CONCLUSION WITH CONFIDENCE.
 Job cpu time:       0 days  0 hours 15 minutes 27.4 seconds.
 Elapsed time:       0 days  0 hours  0 minutes 39.5 seconds.
 File lengths (MBytes):  RWF=     46 Int=      0 D2E=      0 Chk=      4 Scr=      1
 Normal termination of Gaussian 16 at Thu Dec 26 15:50:53 2019.
real 73.14
user 1656.54
sys 10.40
Machine:
brown-a089
brown-a089
brown-a089
brown-a089
brown-a089
brown-a089
brown-a089
brown-a089
brown-a089
brown-a089
brown-a089
brown-a089
brown-a089
brown-a089
brown-a089
brown-a089
brown-a089
brown-a089
brown-a089
brown-a089
brown-a089
brown-a089
brown-a089
brown-a089
