Title Card Required                                                     
Freq      RM062X                                                      6-311++G(d,p)       
Number of atoms                            I                6
Info1-9                                    I   N=           9
          22          22        1002           0           0         100
           6          18        -502
Full Title                                 C   N=           2
Title Card Required     
Route                                      C   N=           6
#P opt freq m062x/6-311++g(d,p) geom=connectivity temperatur
e=0.001     
Charge                                     I                0
Multiplicity                               I                1
Number of electrons                        I               18
Number of alpha electrons                  I                9
Number of beta electrons                   I                9
Number of basis functions                  I               72
Number of independent functions            I               72
Number of point charges in /Mol/           I                0
Number of translation vectors              I                0
Atomic numbers                             I   N=           6
           6           1           1           1           8           1
Nuclear charges                            R   N=           6
  6.00000000E+00  1.00000000E+00  1.00000000E+00  1.00000000E+00  8.00000000E+00
  1.00000000E+00
Current cartesian coordinates              R   N=          18
 -8.77956922E-02  1.25013477E+00  1.12058751E-16 -2.05766921E+00  1.84668195E+00
 -7.55540339E-16  8.29905935E-01  2.02440518E+00  1.68525353E+00  8.29905935E-01
  2.02440518E+00 -1.68525353E+00 -8.77956922E-02 -1.42344496E+00  1.81786648E-16
  1.62699703E+00 -2.00874120E+00  6.97339359E-16
Number of symbols in /Mol/                 I                0
Force Field                                I                0
Atom Types                                 C   N=           6
                                                            
            
Int Atom Types                             I   N=           6
           0           0           0           0           0           0
MM charges                                 R   N=           6
  0.00000000E+00  0.00000000E+00  0.00000000E+00  0.00000000E+00  0.00000000E+00
  0.00000000E+00
Integer atomic weights                     I   N=           6
          12           1           1           1          16           1
Real atomic weights                        R   N=           6
  1.20000000E+01  1.00782504E+00  1.00782504E+00  1.00782504E+00  1.59949146E+01
  1.00782504E+00
Atom fragment info                         I   N=           6
           0           0           0           0           0           0
Atom residue num                           I   N=           6
           0           0           0           0           0           0
Nuclear spins                              I   N=           6
           0           1           1           1           0           1
Nuclear ZEff                               R   N=           6
 -3.60000000E+00 -1.00000000E+00 -1.00000000E+00 -1.00000000E+00 -5.60000000E+00
 -1.00000000E+00
Nuclear ZNuc                               R   N=           6
  6.00000000E+00  1.00000000E+00  1.00000000E+00  1.00000000E+00  8.00000000E+00
  1.00000000E+00
Nuclear QMom                               R   N=           6
  0.00000000E+00  0.00000000E+00  0.00000000E+00  0.00000000E+00  0.00000000E+00
  0.00000000E+00
Nuclear GFac                               R   N=           6
  0.00000000E+00  2.79284600E+00  2.79284600E+00  2.79284600E+00  0.00000000E+00
  2.79284600E+00
MicOpt                                     I   N=           6
          -1          -1          -1          -1          -1          -1
Number of residues                         I                0
Number of secondary structures             I                0
Redundant internal dimensions              I   N=           4
          15           5           7           3
Redundant internal coordinate indices      I   N=          60
           1           2           0           0           1           3
           0           0           1           4           0           0
           1           5           0           0           5           6
           0           0           2           1           3           0
           2           1           4           0           2           1
           5           0           3           1           4           0
           3           1           5           0           4           1
           5           0           1           5           6           0
           2           1           5           6           3           1
           5           6           4           1           5           6
Redundant internal coordinates             R   N=          15
  2.05822015E+00  2.06923909E+00  2.06923909E+00  2.67357973E+00  1.81192874E+00
  1.89231651E+00  1.89231651E+00  1.86485225E+00  1.90349763E+00  1.95431003E+00
  1.95431003E+00  1.89971924E+00  3.14159265E+00 -1.07214846E+00  1.07214846E+00
ZRed-IntVec                                I   N=          15
           0           0           0           0           0           0
           0           0           0           0           0           0
           0           0           0
ZRed-FPVec                                 R   N=          15
  0.00000000E+00  0.00000000E+00  0.00000000E+00  0.00000000E+00  0.00000000E+00
  0.00000000E+00  0.00000000E+00  0.00000000E+00  0.00000000E+00  0.00000000E+00
  0.00000000E+00  0.00000000E+00  0.00000000E+00  0.00000000E+00  0.00000000E+00
ZRed-Constraint1                           R   N=          15
  2.05822015E+00  2.06923909E+00  2.06923909E+00  2.67357973E+00  1.81192874E+00
  1.89231651E+00  1.89231651E+00  1.86485225E+00  1.90349763E+00  1.95431003E+00
  1.95431003E+00  1.89971924E+00  3.14159264E+00 -1.07214846E+00  1.07214846E+00
ZRed-Constraint2                           R   N=          15
  2.02200695E+00  2.02200695E+00  2.02200696E+00  2.70230836E+00  1.81413706E+00
  1.91063323E+00  1.91063324E+00  1.91063324E+00  1.91063324E+00  1.91063324E+00
  1.91063324E+00  1.91063324E+00  3.14159265E+00 -1.04719755E+00  1.04719755E+00
SymInf integers                            I   N=          26
           2           2           1           1           1           1
           1          -1           0           0           0           0
           0           0           0           0           0           0
           0           0           0           0           0           0
           0           0
RotTr to input orientation                 R   N=          12
 -4.63818040E-01  8.43677776E-01  2.70334304E-01 -3.43802783E-01 -4.52637005E-01
  8.22751109E-01  8.16500136E-01  2.88665121E-01  4.99999976E-01  1.35943275E-01
  8.19125994E-01  4.43418079E-01
Number of contracted shells                I               32
Number of primitive shells                 I               54
Pure/Cartesian d shells                    I                0
Pure/Cartesian f shells                    I                0
Highest angular momentum                   I                2
Largest degree of contraction              I                6
Shell types                                I   N=          32
           0          -1          -1          -1          -1          -2
           0           0           0           0           1           0
           0           0           0           1           0           0
           0           0           1           0          -1          -1
          -1          -1          -2           0           0           0
           0           1
Number of primitives per shell             I   N=          32
           6           3           1           1           1           1
           3           1           1           1           1           3
           1           1           1           1           3           1
           1           1           1           6           3           1
           1           1           1           3           1           1
           1           1
Shell to atom map                          I   N=          32
           1           1           1           1           1           1
           2           2           2           2           2           3
           3           3           3           3           4           4
           4           4           4           5           5           5
           5           5           5           6           6           6
           6           6
Primitive exponents                        R   N=          54
  4.56324000E+03  6.82024000E+02  1.54973000E+02  4.44553000E+01  1.30290000E+01
  1.82773000E+00  2.09642000E+01  4.80331000E+00  1.45933000E+00  4.83456000E-01
  1.45585000E-01  4.38000000E-02  6.26000000E-01  3.38650000E+01  5.09479000E+00
  1.15879000E+00  3.25840000E-01  1.02741000E-01  3.60000000E-02  7.50000000E-01
  3.38650000E+01  5.09479000E+00  1.15879000E+00  3.25840000E-01  1.02741000E-01
  3.60000000E-02  7.50000000E-01  3.38650000E+01  5.09479000E+00  1.15879000E+00
  3.25840000E-01  1.02741000E-01  3.60000000E-02  7.50000000E-01  8.58850000E+03
  1.29723000E+03  2.99296000E+02  8.73771000E+01  2.56789000E+01  3.74004000E+00
  4.21175000E+01  9.62837000E+00  2.85332000E+00  9.05661000E-01  2.55611000E-01
  8.45000000E-02  1.29200000E+00  3.38650000E+01  5.09479000E+00  1.15879000E+00
  3.25840000E-01  1.02741000E-01  3.60000000E-02  7.50000000E-01
Contraction coefficients                   R   N=          54
  1.96665025E-03  1.52306019E-02  7.61269097E-02  2.60801033E-01  6.16462078E-01
  2.21006028E-01  1.14660081E-01  9.19999648E-01 -3.03068213E-03  1.00000000E+00
  1.00000000E+00  1.00000000E+00  1.00000000E+00  2.54938145E-02  1.90373109E-01
  8.52161486E-01  1.00000000E+00  1.00000000E+00  1.00000000E+00  1.00000000E+00
  2.54938145E-02  1.90373109E-01  8.52161486E-01  1.00000000E+00  1.00000000E+00
  1.00000000E+00  1.00000000E+00  2.54938145E-02  1.90373109E-01  8.52161486E-01
  1.00000000E+00  1.00000000E+00  1.00000000E+00  1.00000000E+00  1.89515008E-03
  1.43859006E-02  7.07320031E-02  2.40001011E-01  5.94797026E-01  2.80802012E-01
  1.13889012E-01  9.20811101E-01 -3.27447036E-03  1.00000000E+00  1.00000000E+00
  1.00000000E+00  1.00000000E+00  2.54938145E-02  1.90373109E-01  8.52161486E-01
  1.00000000E+00  1.00000000E+00  1.00000000E+00  1.00000000E+00
P(S=P) Contraction coefficients            R   N=          54
  0.00000000E+00  0.00000000E+00  0.00000000E+00  0.00000000E+00  0.00000000E+00
  0.00000000E+00  4.02486927E-02  2.37593957E-01  8.15853851E-01  1.00000000E+00
  1.00000000E+00  1.00000000E+00  0.00000000E+00  0.00000000E+00  0.00000000E+00
  0.00000000E+00  0.00000000E+00  0.00000000E+00  0.00000000E+00  0.00000000E+00
  0.00000000E+00  0.00000000E+00  0.00000000E+00  0.00000000E+00  0.00000000E+00
  0.00000000E+00  0.00000000E+00  0.00000000E+00  0.00000000E+00  0.00000000E+00
  0.00000000E+00  0.00000000E+00  0.00000000E+00  0.00000000E+00  0.00000000E+00
  0.00000000E+00  0.00000000E+00  0.00000000E+00  0.00000000E+00  0.00000000E+00
  3.65113974E-02  2.37152983E-01  8.19701941E-01  1.00000000E+00  1.00000000E+00
  1.00000000E+00  0.00000000E+00  0.00000000E+00  0.00000000E+00  0.00000000E+00
  0.00000000E+00  0.00000000E+00  0.00000000E+00  0.00000000E+00
Coordinates of each shell                  R   N=          96
 -8.77956922E-02  1.25013477E+00  1.03644887E-18 -8.77956922E-02  1.25013477E+00
  1.03644887E-18 -8.77956922E-02  1.25013477E+00  1.03644887E-18 -8.77956922E-02
  1.25013477E+00  1.03644887E-18 -8.77956922E-02  1.25013477E+00  1.03644887E-18
 -8.77956922E-02  1.25013477E+00  1.03644887E-18 -2.05766921E+00  1.84668195E+00
 -5.33495734E-16 -2.05766921E+00  1.84668195E+00 -5.33495734E-16 -2.05766921E+00
  1.84668195E+00 -5.33495734E-16 -2.05766921E+00  1.84668195E+00 -5.33495734E-16
 -2.05766921E+00  1.84668195E+00 -5.33495734E-16  8.29905935E-01  2.02440518E+00
  1.68525353E+00  8.29905935E-01  2.02440518E+00  1.68525353E+00  8.29905935E-01
  2.02440518E+00  1.68525353E+00  8.29905935E-01  2.02440518E+00  1.68525353E+00
  8.29905935E-01  2.02440518E+00  1.68525353E+00  8.29905935E-01  2.02440518E+00
 -1.68525353E+00  8.29905935E-01  2.02440518E+00 -1.68525353E+00  8.29905935E-01
  2.02440518E+00 -1.68525353E+00  8.29905935E-01  2.02440518E+00 -1.68525353E+00
  8.29905935E-01  2.02440518E+00 -1.68525353E+00 -8.77956922E-02 -1.42344496E+00
  7.07643509E-17 -8.77956922E-02 -1.42344496E+00  7.07643509E-17 -8.77956922E-02
 -1.42344496E+00  7.07643509E-17 -8.77956922E-02 -1.42344496E+00  7.07643509E-17
 -8.77956922E-02 -1.42344496E+00  7.07643509E-17 -8.77956922E-02 -1.42344496E+00
  7.07643509E-17  1.62699703E+00 -2.00874120E+00  5.86317062E-16  1.62699703E+00
 -2.00874120E+00  5.86317062E-16  1.62699703E+00 -2.00874120E+00  5.86317062E-16
  1.62699703E+00 -2.00874120E+00  5.86317062E-16  1.62699703E+00 -2.00874120E+00
  5.86317062E-16
Num ILSW                                   I              100
ILSW                                       I   N=         100
           0           0           0           0           2           0
           0           0           0           0        4336          -1
           5           0           0           0           2           0
           0           0           0           0           1           0
           1           0           0           0           0           0
           0           0      100000           0          -1           0
           0           0           0           0           0           0
           0           0           0           1           0           0
           0 -2000000000           1           0           0           0
           0           0           4          52           0           0
           0           0          55           0           0           0
           0           0           0           6           0           1
           0           0           0           0           0           0
           0           0           0           0           0           0
           0           0           0           0           0           0
           0           0           0           0           0           0
           0           0           0           0
Num RLSW                                   I               52
RLSW                                       R   N=          52
  1.00000000E+00  1.00000000E+00  1.00000000E+00  1.00000000E+00  5.40000000E-01
  0.00000000E+00  0.00000000E+00  1.00000000E+00  0.00000000E+00  0.00000000E+00
  0.00000000E+00  0.00000000E+00  1.00000000E+00  0.00000000E+00  0.00000000E+00
  0.00000000E+00  0.00000000E+00  1.00000000E+00  0.00000000E+00  0.00000000E+00
  0.00000000E+00  0.00000000E+00  1.00000000E+00  0.00000000E+00  0.00000000E+00
  0.00000000E+00  0.00000000E+00  1.00000000E+00  0.00000000E+00  0.00000000E+00
  0.00000000E+00  0.00000000E+00  1.00000000E+00  0.00000000E+00  0.00000000E+00
  0.00000000E+00  0.00000000E+00  0.00000000E+00  1.00000000E+00  1.00000000E+00
  0.00000000E+00  1.00000000E+00  0.00000000E+00  0.00000000E+00  0.00000000E+00
  0.00000000E+00  0.00000000E+00  0.00000000E+00  0.00000000E+00  0.00000000E+00
  0.00000000E+00  0.00000000E+00
MxBond                                     I                4
NBond                                      I   N=           6
           4           1           1           1           2           1
IBond                                      I   N=          24
           2           3           4           5           1           0
           0           0           1           0           0           0
           1           0           0           0           1           6
           0           0           5           0           0           0
RBond                                      R   N=          24
  1.00000000E+00  1.00000000E+00  1.00000000E+00  1.00000000E+00  1.00000000E+00
  0.00000000E+00  0.00000000E+00  0.00000000E+00  1.00000000E+00  0.00000000E+00
  0.00000000E+00  0.00000000E+00  1.00000000E+00  0.00000000E+00  0.00000000E+00
  0.00000000E+00  1.00000000E+00  1.00000000E+00  0.00000000E+00  0.00000000E+00
  1.00000000E+00  0.00000000E+00  0.00000000E+00  0.00000000E+00
Virial Ratio                               R      2.003350198704793E+00
SCF Energy                                 R     -1.157043090524114E+02
Total Energy                               R     -1.157043090524114E+02
RMS Force                                  R      7.497131909634288E-05
RMS Density                                R      4.297723170620374E-10
NImag                                      I                0
Job Status                                 I                1
Nuclear derivative order                   I                2
External E-field                           R   N=          35
  0.00000000E+00  0.00000000E+00  0.00000000E+00  0.00000000E+00  0.00000000E+00
  0.00000000E+00  0.00000000E+00  0.00000000E+00  0.00000000E+00  0.00000000E+00
  0.00000000E+00  0.00000000E+00  0.00000000E+00  0.00000000E+00  0.00000000E+00
  0.00000000E+00  0.00000000E+00  0.00000000E+00  0.00000000E+00  0.00000000E+00
  0.00000000E+00  0.00000000E+00  0.00000000E+00  0.00000000E+00  0.00000000E+00
  0.00000000E+00  0.00000000E+00  0.00000000E+00  0.00000000E+00  0.00000000E+00
  0.00000000E+00  0.00000000E+00  0.00000000E+00  0.00000000E+00  0.00000000E+00
IOpCl                                      I                0
IROHF                                      I                0
Alpha Orbital Energies                     R   N=          72
 -1.96216329E+01 -1.05791574E+01 -1.14531394E+00 -7.78400855E-01 -5.88133379E-01
 -5.18149036E-01 -5.00869619E-01 -4.09689311E-01 -3.54607558E-01 -3.21221468E-03
  1.90080634E-02  3.39062559E-02  4.02191550E-02  7.60902993E-02  9.19231665E-02
  1.06152023E-01  1.33008868E-01  1.95043114E-01  2.13711392E-01  2.15892110E-01
  2.19301980E-01  2.38783119E-01  2.43000032E-01  2.65329393E-01  2.95417460E-01
  3.73108163E-01  4.55473020E-01  4.65220925E-01  5.73239375E-01  6.18883237E-01
  6.85002958E-01  6.91973905E-01  7.16772327E-01  9.11397473E-01  1.00754951E+00
  1.05409033E+00  1.10192309E+00  1.18411729E+00  1.25987109E+00  1.42132804E+00
  1.46894365E+00  1.49713494E+00  1.57598572E+00  1.58991231E+00  1.59663893E+00
  1.72441468E+00  1.73821365E+00  1.83955472E+00  2.04190617E+00  2.07991343E+00
  2.15000895E+00  2.24255522E+00  2.43223605E+00  2.44909163E+00  2.51200094E+00
  2.53821499E+00  2.54563686E+00  2.69358435E+00  2.89876734E+00  3.02417511E+00
  3.14807637E+00  3.27292722E+00  3.35165891E+00  3.77445135E+00  3.82910878E+00
  3.96484688E+00  4.05615164E+00  5.12973412E+00  5.46168707E+00  5.74565514E+00
  2.39889412E+01  5.00070894E+01
Alpha MO coefficients                      R   N=        5184
  1.12296968E-05 -6.67050146E-05 -1.30718074E-05 -1.08107582E-04  0.00000000E+00
  3.17722695E-04  4.80651617E-05 -8.31974424E-05  0.00000000E+00  1.11803317E-03
 -7.96803000E-05 -3.58822980E-04  0.00000000E+00 -4.13310516E-03  1.87747370E-04
  7.01996238E-04  0.00000000E+00  8.12767363E-05  0.00000000E+00  0.00000000E+00
  9.51141872E-05 -7.52830691E-06  2.56435941E-05 -5.13575248E-04  2.91504946E-04
  8.80397489E-04 -7.91507070E-05  5.18068848E-05  0.00000000E+00  3.31576079E-05
 -5.45494529E-04  3.15897508E-04  4.07541843E-04  5.68708130E-05  1.23695456E-04
  8.46327244E-05  3.31576079E-05 -5.45494529E-04  3.15897508E-04  4.07541843E-04
  5.68708130E-05  1.23695456E-04 -8.46327244E-05  5.52884042E-01  4.69511324E-01
  1.23951171E-03  9.05474336E-04  0.00000000E+00  8.71099748E-03 -1.55054890E-04
 -2.28895606E-04  0.00000000E+00 -4.42082618E-03  2.89659916E-04 -6.15169463E-04
  0.00000000E+00  4.06710897E-03  9.55929846E-05  5.01812314E-04  0.00000000E+00
 -6.92374806E-05  0.00000000E+00  0.00000000E+00  1.08361668E-04 -1.02533993E-04
  8.35522574E-05 -1.75794669E-04 -6.84840099E-04  3.00917580E-04  4.69079578E-04
 -9.43489445E-05  0.00000000E+00  5.64201731E-01  4.63741697E-01  9.80690443E-05
 -1.02604084E-03  0.00000000E+00  1.27029322E-02 -1.96209941E-04  1.72193124E-03
  0.00000000E+00 -5.28624243E-03  4.38567491E-05  6.74677663E-04  0.00000000E+00
 -9.53281262E-03 -1.73833160E-04  2.52069835E-04  0.00000000E+00  3.33771952E-04
  0.00000000E+00  0.00000000E+00  5.68876307E-04  6.09247438E-05  3.48523711E-04
 -2.75693206E-03  2.78686249E-03  1.23229520E-03 -1.58637998E-03  3.45715153E-04
  0.00000000E+00  3.79712688E-04 -2.79849373E-03  3.02594520E-03  1.03065408E-03
  7.37360743E-04  4.67269663E-04  1.32349062E-03  3.79712688E-04 -2.79849373E-03
  3.02594520E-03  1.03065408E-03  7.37360743E-04  4.67269663E-04 -1.32349062E-03
 -4.36132847E-05 -1.13299940E-04  2.50252399E-05  1.70228268E-04  0.00000000E+00
  7.07884602E-04 -1.09541765E-04  2.35954301E-04  0.00000000E+00 -1.46054789E-03
 -1.41003597E-04 -4.50963641E-04  0.00000000E+00  5.22980839E-03  2.16990567E-04
  1.67269644E-03  0.00000000E+00  1.12976308E-04  0.00000000E+00  0.00000000E+00
  7.22084158E-05  3.32392187E-05 -2.71598888E-05  4.33063657E-04 -7.96890437E-04
  1.11154261E-03 -1.69421893E-04  1.82120450E-04  0.00000000E+00 -3.90948123E-02
 -6.20099535E-02  2.28684145E-03 -4.42656193E-02  0.00000000E+00  1.53944631E-01
  4.72270238E-03 -7.73212921E-02  0.00000000E+00  5.61980798E-02  4.99651663E-03
 -8.14799103E-03  0.00000000E+00  7.73885106E-02 -7.15397674E-04 -9.33040324E-03
  0.00000000E+00 -1.23738656E-02  0.00000000E+00  0.00000000E+00 -1.98749121E-02
 -2.85815416E-03  1.50590854E-02  2.32415681E-02 -8.40478154E-03 -1.39756629E-02
  5.24769482E-03 -2.29663406E-03  0.00000000E+00  1.51731162E-02  2.19714150E-02
 -1.16586233E-02 -8.93073780E-03 -2.64303119E-03 -2.93902480E-03 -4.50752022E-03
  1.51731162E-02  2.19714150E-02 -1.16586233E-02 -8.93073780E-03 -2.64303119E-03
 -2.93902480E-03  4.50752022E-03 -1.09978110E-01 -1.80907027E-01  3.47552378E-02
  2.69918571E-02  0.00000000E+00  5.18864708E-01  5.66513147E-02  4.55240485E-02
  0.00000000E+00  3.82409381E-01  2.00242790E-02  2.59991299E-02  0.00000000E+00
 -5.53279533E-02 -2.58977650E-03 -1.26698505E-02  0.00000000E+00 -1.00292235E-02
  0.00000000E+00  0.00000000E+00 -7.95795863E-04 -2.20089427E-03  9.03624652E-02
  7.28782366E-02  6.90660516E-03 -3.86068786E-03 -1.99030867E-02  1.03204367E-02
  0.00000000E+00 -9.65211457E-02 -1.56146550E-01 -9.12203070E-03  2.67253920E-02
  0.00000000E+00  4.11370016E-01 -1.36187127E-02  2.24975542E-02  0.00000000E+00
  3.02835866E-01  2.01353131E-03  1.43815783E-02  0.00000000E+00  3.45640589E-02
  1.99741968E-03 -6.85005753E-03  0.00000000E+00 -1.70968600E-03  0.00000000E+00
  0.00000000E+00 -9.35571977E-04  2.90460304E-03  8.87470290E-02  1.02436831E-01
  4.47991799E-03 -1.57320697E-03  1.49105965E-02 -2.30928032E-03  0.00000000E+00
  8.28708350E-02  9.50013752E-02 -2.28515518E-03  2.15493628E-03 -7.07568053E-03
 -4.02345737E-03 -1.20018404E-02  8.28708350E-02  9.50013752E-02 -2.28515518E-03
  2.15493628E-03 -7.07568053E-03 -4.02345737E-03  1.20018404E-02  3.19854972E-02
  5.31199796E-02 -4.88464274E-02  8.60941814E-02  0.00000000E+00 -1.56556518E-01
 -7.35435192E-02  1.27494857E-01  0.00000000E+00 -1.45890772E-01 -3.55749615E-02
  6.69540499E-02  0.00000000E+00 -4.95053770E-02 -2.22067297E-03 -1.26186157E-02
  0.00000000E+00  4.65891812E-04  0.00000000E+00  0.00000000E+00 -1.15487458E-02
  4.86824323E-03 -7.97073888E-02 -9.02684140E-02 -4.11408328E-03 -1.33506484E-02
  1.59242110E-02 -2.76757733E-04  0.00000000E+00 -1.57293781E-02 -2.51312145E-02
  8.37085729E-02  1.04205732E-01  0.00000000E+00  6.21207308E-02  1.31931612E-01
  1.64129091E-01  0.00000000E+00  7.57810555E-02  8.94380143E-02  7.33133412E-02
  0.00000000E+00 -4.17966949E-02 -2.46185026E-04  9.30048069E-03  0.00000000E+00
  1.79887500E-02  0.00000000E+00  0.00000000E+00  1.64933878E-02 -1.25797919E-02
 -1.79445300E-02 -1.74782157E-02  3.59884717E-03 -9.12451411E-04  4.36412943E-04
  3.04058675E-03  0.00000000E+00  7.38380402E-02  8.54660022E-02  2.38517843E-02
  8.00796941E-03 -4.21211660E-04  1.38437249E-03 -7.47574558E-03  7.38380402E-02
  8.54660022E-02  2.38517843E-02  8.00796941E-03 -4.21211660E-04  1.38437249E-03
  7.47574558E-03  2.22599316E-02  3.73339481E-02  1.68605476E-01 -1.02200069E-01
  0.00000000E+00 -1.14166336E-01  2.46916684E-01 -1.52650501E-01  0.00000000E+00
 -1.52837079E-01  1.66122990E-01 -9.73768296E-02  0.00000000E+00  8.75243649E-03
  1.57189166E-03  1.36972231E-02  0.00000000E+00 -3.19951531E-03  0.00000000E+00
  0.00000000E+00  1.80673489E-02  1.93253804E-03  1.31985438E-01  1.82302954E-01
  5.18058191E-02  1.54832973E-02 -1.87499041E-02  8.51115063E-03  0.00000000E+00
  0.00000000E+00  0.00000000E+00  0.00000000E+00  0.00000000E+00  1.79424131E-01
  0.00000000E+00  0.00000000E+00  0.00000000E+00  2.75141070E-01  0.00000000E+00
  0.00000000E+00  0.00000000E+00  1.73008926E-01  0.00000000E+00  0.00000000E+00
  0.00000000E+00 -1.34802099E-02  0.00000000E+00  1.75811907E-02 -6.27117731E-03
  0.00000000E+00  0.00000000E+00  0.00000000E+00  0.00000000E+00  0.00000000E+00
  0.00000000E+00  0.00000000E+00  0.00000000E+00  9.08426424E-03  1.18081597E-01
  1.55984360E-01  6.07050468E-02  2.79318120E-02 -7.31604167E-03 -4.71453940E-03
 -5.58169591E-03 -1.18081597E-01 -1.55984360E-01 -6.07050468E-02 -2.79318120E-02
  7.31604167E-03  4.71453940E-03 -5.58169591E-03  0.00000000E+00  0.00000000E+00
  0.00000000E+00  0.00000000E+00  1.41171516E-01  0.00000000E+00  0.00000000E+00
  0.00000000E+00  2.11391126E-01  0.00000000E+00  0.00000000E+00  0.00000000E+00
  1.75392866E-01  0.00000000E+00  0.00000000E+00  0.00000000E+00  1.47373492E-02
  0.00000000E+00  7.17730627E-03  1.24998640E-02  0.00000000E+00  0.00000000E+00
  0.00000000E+00  0.00000000E+00  0.00000000E+00  0.00000000E+00  0.00000000E+00
  0.00000000E+00  1.54785123E-02 -2.82310488E-04 -1.05431714E-03  1.33945588E-01
 -1.15443581E-01  0.00000000E+00  6.79875055E-03  2.05780651E-01 -1.88403349E-01
  0.00000000E+00 -1.35425368E-02  1.59760309E-01 -9.86775686E-02  0.00000000E+00
  9.58086729E-03  2.08150350E-03  2.17942833E-03  0.00000000E+00 -2.69132270E-03
  0.00000000E+00  0.00000000E+00 -2.88457067E-02 -4.58571951E-03 -1.37247944E-01
 -1.72196466E-01 -5.65368451E-02 -2.03720583E-02 -9.60334349E-03 -1.16599169E-03
  0.00000000E+00  1.28561590E-02  1.49407742E-02 -5.48428524E-04  3.58086635E-03
  4.20782436E-03 -4.65300752E-03 -2.48668147E-03  1.28561590E-02  1.49407742E-02
 -5.48428524E-04  3.58086635E-03  4.20782436E-03 -4.65300752E-03  2.48668147E-03
  1.60405056E-02  2.67788307E-02  5.73644322E-02  1.73327294E-01  0.00000000E+00
 -7.97094370E-02  8.59068828E-02  2.57257925E-01  0.00000000E+00 -1.07720780E-01
  7.75412059E-02  1.93982707E-01  0.00000000E+00 -4.72498198E-02 -1.30503943E-02
  2.26555853E-02  0.00000000E+00 -5.48698973E-03  0.00000000E+00  0.00000000E+00
 -7.55846070E-03  1.73685289E-02 -2.46793125E-02 -3.98973336E-02  8.33618276E-03
  3.24178816E-04  1.02449805E-02  1.92701710E-02  0.00000000E+00 -5.65514928E-03
 -9.59187699E-03 -1.34324165E-01 -5.49127645E-02  0.00000000E+00  3.00002089E-02
 -1.93462796E-01 -9.28526192E-02  0.00000000E+00  1.18439927E-02 -1.26298847E-01
 -4.84521872E-02  0.00000000E+00  1.15589308E-02  5.98187261E-04  1.64173481E-03
  0.00000000E+00 -1.81831573E-02  0.00000000E+00  0.00000000E+00  9.60969841E-04
 -2.88197570E-02  1.16197099E-01  1.84694073E-01  9.72051449E-02  1.37126563E-02
  9.87074503E-03 -6.39088393E-03  0.00000000E+00 -7.27522272E-02 -1.10317070E-01
 -6.98512033E-02 -1.20211963E-02 -5.05608495E-03  6.57723883E-04  7.76621106E-03
 -7.27522272E-02 -1.10317070E-01 -6.98512033E-02 -1.20211963E-02 -5.05608495E-03
  6.57723883E-04 -7.76621106E-03  2.83417621E-02  4.75451363E-02  1.74935965E-01
  9.82034091E-02  0.00000000E+00 -1.42796022E-01  2.54073252E-01  1.45319007E-01
  0.00000000E+00 -2.29614033E-01  2.10404495E-01  1.30218473E-01  0.00000000E+00
 -6.81326601E-02  4.46957860E-02  2.73366086E-02  0.00000000E+00 -8.93636408E-03
  0.00000000E+00  0.00000000E+00  6.12791780E-03  3.71112969E-03  8.82998668E-02
  1.48487415E-01  6.25141044E-02  1.26891401E-03 -7.16226080E-03  2.14106581E-02
  0.00000000E+00  0.00000000E+00  0.00000000E+00  0.00000000E+00  0.00000000E+00
 -9.95550098E-02  0.00000000E+00  0.00000000E+00  0.00000000E+00 -1.39156557E-01
  0.00000000E+00  0.00000000E+00  0.00000000E+00 -1.04592232E-01  0.00000000E+00
  0.00000000E+00  0.00000000E+00 -1.80261459E-02  0.00000000E+00 -1.14028041E-02
 -3.94195181E-02  0.00000000E+00  0.00000000E+00  0.00000000E+00  0.00000000E+00
  0.00000000E+00  0.00000000E+00  0.00000000E+00  0.00000000E+00 -6.56052094E-03
 -9.35522678E-02 -1.58296712E-01 -1.01567316E-01  2.53310977E-03  5.06228307E-03
  4.03767918E-03  3.65053656E-03  9.35522678E-02  1.58296712E-01  1.01567316E-01
 -2.53310977E-03 -5.06228307E-03 -4.03767918E-03  3.65053656E-03  0.00000000E+00
  0.00000000E+00  0.00000000E+00  0.00000000E+00  2.60950809E-01  0.00000000E+00
  0.00000000E+00  0.00000000E+00  3.85287090E-01  0.00000000E+00  0.00000000E+00
  0.00000000E+00  3.79669643E-01  0.00000000E+00  0.00000000E+00  0.00000000E+00
  1.06491881E-01  0.00000000E+00  1.19099928E-02  5.04199932E-03  0.00000000E+00
  0.00000000E+00  0.00000000E+00  0.00000000E+00  0.00000000E+00  0.00000000E+00
  0.00000000E+00  0.00000000E+00  3.00044524E-02 -1.67391815E-02 -2.80923910E-02
  9.34765551E-03  3.63100864E-02  0.00000000E+00  8.68495997E-02  2.34825701E-02
  6.15349869E-02  0.00000000E+00  2.42172745E-01 -1.78520422E-02  4.87281055E-02
  0.00000000E+00  3.73077759E+00  1.08718845E-02  1.13798995E-01  0.00000000E+00
 -1.67648224E-03  0.00000000E+00  0.00000000E+00 -6.38392729E-03 -4.24963445E-03
 -5.92762103E-04  9.14160631E-03 -2.64000134E-01 -8.76151758E-01  7.95166090E-03