 Entering Gaussian System, Link 0=/apps/cent7/gaussian/g16-A.03/g16-haswell/g16/g16
 Initial command:
 /apps/cent7/gaussian/g16-A.03/g16-haswell/g16/l1.exe "/scratch/brown/finej/gaussian/Gau-228492.inp" -scrdir="/scratch/brown/finej/gaussian/"
 Entering Link 1 = /apps/cent7/gaussian/g16-A.03/g16-haswell/g16/l1.exe PID=    228493.
  
 Copyright (c) 1988,1990,1992,1993,1995,1998,2003,2009,2016,
            Gaussian, Inc.  All Rights Reserved.
  
 This is part of the Gaussian(R) 16 program.  It is based on
 the Gaussian(R) 09 system (copyright 2009, Gaussian, Inc.),
 the Gaussian(R) 03 system (copyright 2003, Gaussian, Inc.),
 the Gaussian(R) 98 system (copyright 1998, Gaussian, Inc.),
 the Gaussian(R) 94 system (copyright 1995, Gaussian, Inc.),
 the Gaussian 92(TM) system (copyright 1992, Gaussian, Inc.),
 the Gaussian 90(TM) system (copyright 1990, Gaussian, Inc.),
 the Gaussian 88(TM) system (copyright 1988, Gaussian, Inc.),
 the Gaussian 86(TM) system (copyright 1986, Carnegie Mellon
 University), and the Gaussian 82(TM) system (copyright 1983,
 Carnegie Mellon University). Gaussian is a federally registered
 trademark of Gaussian, Inc.
  
 This software contains proprietary and confidential information,
 including trade secrets, belonging to Gaussian, Inc.
  
 This software is provided under written license and may be
 used, copied, transmitted, or stored only in accord with that
 written license.
  
 The following legend is applicable only to US Government
 contracts under FAR:
  
                    RESTRICTED RIGHTS LEGEND
  
 Use, reproduction and disclosure by the US Government is
 subject to restrictions as set forth in subparagraphs (a)
 and (c) of the Commercial Computer Software - Restricted
 Rights clause in FAR 52.227-19.
  
 Gaussian, Inc.
 340 Quinnipiac St., Bldg. 40, Wallingford CT 06492
  
  
 ---------------------------------------------------------------
 Warning -- This program may not be used in any manner that
 competes with the business of Gaussian, Inc. or will provide
 assistance to any competitor of Gaussian, Inc.  The licensee
 of this program is prohibited from giving any competitor of
 Gaussian, Inc. access to this program.  By using this program,
 the user acknowledges that Gaussian, Inc. is engaged in the
 business of creating and licensing software in the field of
 computational chemistry and represents and warrants to the
 licensee that it is not a competitor of Gaussian, Inc. and that
 it will not use this program in any manner prohibited above.
 ---------------------------------------------------------------
  

 Cite this work as:
 Gaussian 16, Revision A.03,
 M. J. Frisch, G. W. Trucks, H. B. Schlegel, G. E. Scuseria, 
 M. A. Robb, J. R. Cheeseman, G. Scalmani, V. Barone, 
 G. A. Petersson, H. Nakatsuji, X. Li, M. Caricato, A. V. Marenich, 
 J. Bloino, B. G. Janesko, R. Gomperts, B. Mennucci, H. P. Hratchian, 
 J. V. Ortiz, A. F. Izmaylov, J. L. Sonnenberg, D. Williams-Young, 
 F. Ding, F. Lipparini, F. Egidi, J. Goings, B. Peng, A. Petrone, 
 T. Henderson, D. Ranasinghe, V. G. Zakrzewski, J. Gao, N. Rega, 
 G. Zheng, W. Liang, M. Hada, M. Ehara, K. Toyota, R. Fukuda, 
 J. Hasegawa, M. Ishida, T. Nakajima, Y. Honda, O. Kitao, H. Nakai, 
 T. Vreven, K. Throssell, J. A. Montgomery, Jr., J. E. Peralta, 
 F. Ogliaro, M. J. Bearpark, J. J. Heyd, E. N. Brothers, K. N. Kudin, 
 V. N. Staroverov, T. A. Keith, R. Kobayashi, J. Normand, 
 K. Raghavachari, A. P. Rendell, J. C. Burant, S. S. Iyengar, 
 J. Tomasi, M. Cossi, J. M. Millam, M. Klene, C. Adamo, R. Cammi, 
 J. W. Ochterski, R. L. Martin, K. Morokuma, O. Farkas, 
 J. B. Foresman, and D. J. Fox, Gaussian, Inc., Wallingford CT, 2016.
 
 ******************************************
 Gaussian 16:  ES64L-G16RevA.03 25-Dec-2016
                26-Dec-2019 
 ******************************************
 %chk=methylpropene.chk
 %nprocshared=24
 Will use up to   24 processors via shared memory.
 %mem=10GB
 -------------------------------------------------------------------
 #p opt freq m062x/6-311++g(d,p) geom=connectivity temperature=0.001
 -------------------------------------------------------------------
 1/18=20,19=15,26=3,38=1,57=2,112=-1000/1,3;
 2/9=110,12=2,17=6,18=5,40=1/2;
 3/5=4,6=6,7=1111,11=2,25=1,30=1,71=1,74=-55/1,2,3;
 4//1;
 5/5=2,38=5/2;
 6/7=2,8=2,9=2,10=2,28=1/1;
 7//1,2,3,16;
 1/18=20,19=15,26=3/3(2);
 2/9=110/2;
 99//99;
 2/9=110/2;
 3/5=4,6=6,7=1111,11=2,25=1,30=1,71=1,74=-55/1,2,3;
 4/5=5,16=3,69=1/1;
 5/5=2,38=5/2;
 7//1,2,3,16;
 1/18=20,19=15,26=3/3(-5);
 2/9=110/2;
 6/7=2,8=2,9=2,10=2,19=2,28=1/1;
 99/9=1/99;
 Leave Link    1 at Thu Dec 26 16:33:21 2019, MaxMem=  1342177280 cpu:               0.9 elap:               0.0
 (Enter /apps/cent7/gaussian/g16-A.03/g16-haswell/g16/l101.exe)
 -------------------
 Title Card Required
 -------------------
 Symbolic Z-matrix:
 Charge =  0 Multiplicity = 1
 C                    -1.85703  -7.63945  -1.57243 
 H                    -1.50038  -8.64826  -1.57243 
 H                    -1.50036  -7.13505  -0.69877 
 H                    -2.92703  -7.63944  -1.57243 
 C                    -1.34369  -6.91349  -2.82983 
 C                    -1.66824  -5.61609  -3.04886 
 H                    -1.52757  -5.18159  -4.01649 
 H                    -2.06654  -5.02419  -2.25141 
 C                    -0.4585   -7.66444  -3.84182 
 H                     0.24859  -8.27126  -3.31579 
 H                    -1.072    -8.28616  -4.45986 
 H                     0.06295  -6.95766  -4.45293 
 
 ITRead=  0  0  0  0  0  0  0  0  0  0  0  0
 MicOpt= -1 -1 -1 -1 -1 -1 -1 -1 -1 -1 -1 -1
 NAtoms=     12 NQM=       12 NQMF=       0 NMMI=      0 NMMIF=      0
                NMic=       0 NMicF=      0.
                    Isotopes and Nuclear Properties:
 (Nuclear quadrupole moments (NQMom) in fm**2, nuclear magnetic moments (NMagM)
  in nuclear magnetons)

  Atom         1           2           3           4           5           6           7           8           9          10
 IAtWgt=          12           1           1           1          12          12           1           1          12           1
 AtmWgt=  12.0000000   1.0078250   1.0078250   1.0078250  12.0000000  12.0000000   1.0078250   1.0078250  12.0000000   1.0078250
 NucSpn=           0           1           1           1           0           0           1           1           0           1
 AtZEff=  -0.0000000  -0.0000000  -0.0000000  -0.0000000  -0.0000000  -0.0000000  -0.0000000  -0.0000000  -0.0000000  -0.0000000
 NQMom=    0.0000000   0.0000000   0.0000000   0.0000000   0.0000000   0.0000000   0.0000000   0.0000000   0.0000000   0.0000000
 NMagM=    0.0000000   2.7928460   2.7928460   2.7928460   0.0000000   0.0000000   2.7928460   2.7928460   0.0000000   2.7928460
 AtZNuc=   6.0000000   1.0000000   1.0000000   1.0000000   6.0000000   6.0000000   1.0000000   1.0000000   6.0000000   1.0000000

  Atom        11          12
 IAtWgt=           1           1
 AtmWgt=   1.0078250   1.0078250
 NucSpn=           1           1
 AtZEff=  -0.0000000  -0.0000000
 NQMom=    0.0000000   0.0000000
 NMagM=    2.7928460   2.7928460
 AtZNuc=   1.0000000   1.0000000
 Leave Link  101 at Thu Dec 26 16:33:22 2019, MaxMem=  1342177280 cpu:              14.0 elap:               0.6
 (Enter /apps/cent7/gaussian/g16-A.03/g16-haswell/g16/l103.exe)

 GradGradGradGradGradGradGradGradGradGradGradGradGradGradGradGradGradGrad
 Berny optimization.
 Initialization pass.
                           ----------------------------
                           !    Initial Parameters    !
                           ! (Angstroms and Degrees)  !
 --------------------------                            --------------------------
 ! Name  Definition              Value          Derivative Info.                !
 --------------------------------------------------------------------------------
 ! R1    R(1,2)                  1.07           estimate D2E/DX2                !
 ! R2    R(1,3)                  1.07           estimate D2E/DX2                !
 ! R3    R(1,4)                  1.07           estimate D2E/DX2                !
 ! R4    R(1,5)                  1.54           estimate D2E/DX2                !
 ! R5    R(5,6)                  1.3552         estimate D2E/DX2                !
 ! R6    R(5,9)                  1.54           estimate D2E/DX2                !
 ! R7    R(6,7)                  1.07           estimate D2E/DX2                !
 ! R8    R(6,8)                  1.07           estimate D2E/DX2                !
 ! R9    R(9,10)                 1.07           estimate D2E/DX2                !
 ! R10   R(9,11)                 1.07           estimate D2E/DX2                !
 ! R11   R(9,12)                 1.07           estimate D2E/DX2                !
 ! A1    A(2,1,3)              109.4712         estimate D2E/DX2                !
 ! A2    A(2,1,4)              109.4712         estimate D2E/DX2                !
 ! A3    A(2,1,5)              109.4712         estimate D2E/DX2                !
 ! A4    A(3,1,4)              109.4712         estimate D2E/DX2                !
 ! A5    A(3,1,5)              109.4713         estimate D2E/DX2                !
 ! A6    A(4,1,5)              109.4712         estimate D2E/DX2                !
 ! A7    A(1,5,6)              120.2269         estimate D2E/DX2                !
 ! A8    A(1,5,9)              119.8865         estimate D2E/DX2                !
 ! A9    A(6,5,9)              119.8865         estimate D2E/DX2                !
 ! A10   A(5,6,7)              120.2269         estimate D2E/DX2                !
 ! A11   A(5,6,8)              119.8865         estimate D2E/DX2                !
 ! A12   A(7,6,8)              119.8865         estimate D2E/DX2                !
 ! A13   A(5,9,10)             109.4712         estimate D2E/DX2                !
 ! A14   A(5,9,11)             109.4712         estimate D2E/DX2                !
 ! A15   A(5,9,12)             109.4712         estimate D2E/DX2                !
 ! A16   A(10,9,11)            109.4713         estimate D2E/DX2                !
 ! A17   A(10,9,12)            109.4712         estimate D2E/DX2                !
 ! A18   A(11,9,12)            109.4712         estimate D2E/DX2                !
 ! D1    D(2,1,5,6)           -179.9998         estimate D2E/DX2                !
 ! D2    D(2,1,5,9)              0.0002         estimate D2E/DX2                !
 ! D3    D(3,1,5,6)            -59.9998         estimate D2E/DX2                !
 ! D4    D(3,1,5,9)            120.0002         estimate D2E/DX2                !
 ! D5    D(4,1,5,6)             60.0002         estimate D2E/DX2                !
 ! D6    D(4,1,5,9)           -119.9998         estimate D2E/DX2                !
 ! D7    D(1,5,6,7)           -164.727          estimate D2E/DX2                !
 ! D8    D(1,5,6,8)             15.273          estimate D2E/DX2                !
 ! D9    D(9,5,6,7)             15.273          estimate D2E/DX2                !
 ! D10   D(9,5,6,8)           -164.727          estimate D2E/DX2                !
 ! D11   D(1,5,9,10)           -41.2523         estimate D2E/DX2                !
 ! D12   D(1,5,9,11)            78.7477         estimate D2E/DX2                !
 ! D13   D(1,5,9,12)          -161.2523         estimate D2E/DX2                !
 ! D14   D(6,5,9,10)           138.7477         estimate D2E/DX2                !
 ! D15   D(6,5,9,11)          -101.2523         estimate D2E/DX2                !
 ! D16   D(6,5,9,12)            18.7477         estimate D2E/DX2                !
 --------------------------------------------------------------------------------
 Trust Radius=3.00D-01 FncErr=1.00D-07 GrdErr=1.00D-06 EigMax=2.50D+02 EigMin=1.00D-04
 Number of steps in this run=     55 maximum allowed number of steps=    100.
 GradGradGradGradGradGradGradGradGradGradGradGradGradGradGradGradGradGrad

 Leave Link  103 at Thu Dec 26 16:33:22 2019, MaxMem=  1342177280 cpu:               0.5 elap:               0.0
 (Enter /apps/cent7/gaussian/g16-A.03/g16-haswell/g16/l202.exe)
                          Input orientation:                          
 ---------------------------------------------------------------------
 Center     Atomic      Atomic             Coordinates (Angstroms)
 Number     Number       Type             X           Y           Z
 ---------------------------------------------------------------------
      1          6           0       -1.857033   -7.639451   -1.572426
      2          1           0       -1.500378   -8.648261   -1.572426
      3          1           0       -1.500360   -7.135053   -0.698775
      4          1           0       -2.927033   -7.639438   -1.572426
      5          6           0       -1.343691   -6.913495   -2.829831
      6          6           0       -1.668245   -5.616090   -3.048856
      7          1           0       -1.527573   -5.181592   -4.016494
      8          1           0       -2.066536   -5.024188   -2.251412
      9          6           0       -0.458498   -7.664440   -3.841818
     10          1           0        0.248588   -8.271258   -3.315794
     11          1           0       -1.071999   -8.286159   -4.459864
     12          1           0        0.062952   -6.957662   -4.452927
 ---------------------------------------------------------------------
                    Distance matrix (angstroms):
                    1          2          3          4          5
     1  C    0.000000
     2  H    1.070000   0.000000
     3  H    1.070000   1.747302   0.000000
     4  H    1.070000   1.747303   1.747303   0.000000
     5  C    1.540000   2.148263   2.148263   2.148263   0.000000
     6  C    2.511867   3.376698   2.803269   2.803271   1.355200
     7  H    3.481822   4.241698   3.850196   3.738042   2.107479
     8  H    2.710077   3.730344   2.680856   2.835667   2.103938
     9  C    2.665832   2.683944   3.353274   3.353271   1.540000
    10  H    2.805735   2.498069   3.346427   3.677376   2.148263
    11  H    3.061341   2.941415   3.956556   3.492377   2.148263
    12  H    3.528238   3.687738   4.070512   4.207388   2.148263
                    6          7          8          9         10
     6  C    0.000000
     7  H    1.070000   0.000000
     8  H    1.070000   1.852234   0.000000
     9  C    2.507591   2.708868   3.476507   0.000000
    10  H    3.285639   3.632047   4.127490   1.070000   0.000000
    11  H    3.078267   3.168984   4.062859   1.070000   1.747303
    12  H    2.601591   2.423771   3.622114   1.070000   1.747303
                   11         12
    11  H    0.000000
    12  H    1.747303   0.000000
 Stoichiometry    C4H8
 Framework group  C1[X(C4H8)]
 Deg. of freedom    30
 Full point group                 C1      NOp   1
 Largest Abelian subgroup         C1      NOp   1
 Largest concise Abelian subgroup C1      NOp   1
                         Standard orientation:                         
 ---------------------------------------------------------------------
 Center     Atomic      Atomic             Coordinates (Angstroms)
 Number     Number       Type             X           Y           Z
 ---------------------------------------------------------------------
      1          6           0        1.338669   -0.666625    0.015824
      2          1           0        1.149704   -1.719804    0.013406
      3          1           0        1.908478   -0.404508   -0.851074
      4          1           0        1.887715   -0.404795    0.896105
      5          6           0        0.000325    0.095074    0.000045
      6          6           0       -0.013465    1.450204    0.000100
      7          1           0       -0.913598    1.979729    0.233044
      8          1           0        0.878844    1.992485   -0.233603
      9          6           0       -1.326905   -0.685828   -0.015850
     10          1           0       -1.241831   -1.520272   -0.680203
     11          1           0       -1.546238   -1.036509    0.970971
     12          1           0       -2.114813   -0.043277   -0.349362
 ---------------------------------------------------------------------
 Rotational constants (GHZ):           9.3297487           7.8335678           4.5004227
 Leave Link  202 at Thu Dec 26 16:33:22 2019, MaxMem=  1342177280 cpu:               0.5 elap:               0.0
 (Enter /apps/cent7/gaussian/g16-A.03/g16-haswell/g16/l301.exe)
 Standard basis: 6-311++G(d,p) (5D, 7F)
 Ernie: Thresh=  0.10000D-02 Tol=  0.10000D-05 Strict=F.
 There are   148 symmetry adapted cartesian basis functions of A   symmetry.
 There are   144 symmetry adapted basis functions of A   symmetry.
   144 basis functions,   216 primitive gaussians,   148 cartesian basis functions
    16 alpha electrons       16 beta electrons
       nuclear repulsion energy       118.8319664806 Hartrees.
 IExCor= 4336 DFT=T Ex+Corr=M062X ExCW=0 ScaHFX=  0.540000
 ScaDFX=  1.000000  1.000000  1.000000  1.000000 ScalE2=  1.000000  1.000000
 IRadAn=      5 IRanWt=     -1 IRanGd=            0 ICorTp=0 IEmpDi=  4
 NAtoms=   12 NActive=   12 NUniq=   12 SFac= 1.00D+00 NAtFMM=   60 NAOKFM=F Big=F
 Integral buffers will be    131072 words long.
 Raffenetti 2 integral format.
 Two-electron integral symmetry is turned on.
 Leave Link  301 at Thu Dec 26 16:33:22 2019, MaxMem=  1342177280 cpu:               1.8 elap:               0.1
 (Enter /apps/cent7/gaussian/g16-A.03/g16-haswell/g16/l302.exe)
 NPDir=0 NMtPBC=     1 NCelOv=     1 NCel=       1 NClECP=     1 NCelD=      1
         NCelK=      1 NCelE2=     1 NClLst=     1 CellRange=     0.0.
 One-electron integrals computed using PRISM.
 One-electron integral symmetry used in STVInt
 NBasis=   144 RedAO= T EigKep=  2.98D-05  NBF=   144
 NBsUse=   144 1.00D-06 EigRej= -1.00D+00 NBFU=   144
 Precomputing XC quadrature grid using
 IXCGrd= 4 IRadAn=           5 IRanWt=          -1 IRanGd=           0 AccXCQ= 0.00D+00.
 Generated NRdTot=       0 NPtTot=           0 NUsed=           0 NTot=          32
 NSgBfM=   148   148   148   148   148 MxSgAt=    12 MxSgA2=    12.
 Leave Link  302 at Thu Dec 26 16:33:22 2019, MaxMem=  1342177280 cpu:               3.4 elap:               0.2
 (Enter /apps/cent7/gaussian/g16-A.03/g16-haswell/g16/l303.exe)
 DipDrv:  MaxL=1.
 Leave Link  303 at Thu Dec 26 16:33:22 2019, MaxMem=  1342177280 cpu:               1.1 elap:               0.1
 (Enter /apps/cent7/gaussian/g16-A.03/g16-haswell/g16/l401.exe)
 ExpMin= 3.60D-02 ExpMax= 4.56D+03 ExpMxC= 6.82D+02 IAcc=3 IRadAn=         5 AccDes= 0.00D+00
 Harris functional with IExCor= 1009 and IRadAn=       5 diagonalized for initial guess.
 HarFok:  IExCor= 1009 AccDes= 0.00D+00 IRadAn=         5 IDoV= 1 UseB2=F ITyADJ=14
 ICtDFT=  3500011 ScaDFX=  1.000000  1.000000  1.000000  1.000000
 FoFCou: FMM=F IPFlag=           0 FMFlag=      100000 FMFlg1=           0
         NFxFlg=           0 DoJE=T BraDBF=F KetDBF=T FulRan=T
         wScrn=  0.000000 ICntrl=       500 IOpCl=  0 I1Cent=   200000004 NGrid=           0
         NMat0=    1 NMatS0=      1 NMatT0=    0 NMatD0=    1 NMtDS0=    0 NMtDT0=    0
 Petite list used in FoFCou.
 Harris En= -157.181132782365    
 JPrj=0 DoOrth=F DoCkMO=F.
 Leave Link  401 at Thu Dec 26 16:33:23 2019, MaxMem=  1342177280 cpu:               5.9 elap:               0.3
 (Enter /apps/cent7/gaussian/g16-A.03/g16-haswell/g16/l502.exe)
 Keep R1 ints in memory in canonical form, NReq=77925564.
 FoFCou: FMM=F IPFlag=           0 FMFlag=           0 FMFlg1=           0
         NFxFlg=           0 DoJE=F BraDBF=F KetDBF=F FulRan=T
         wScrn=  0.000000 ICntrl=       600 IOpCl=  0 I1Cent=           0 NGrid=           0
         NMat0=    1 NMatS0=  10440 NMatT0=    0 NMatD0=    1 NMtDS0=    0 NMtDT0=    0
 Symmetry not used in FoFCou.
 Two-electron integral symmetry not used.
 Closed shell SCF:
 Using DIIS extrapolation, IDIIS=  1040.
 NGot=  1342177280 LenX=  1287626260 LenY=  1287603915
 Requested convergence on RMS density matrix=1.00D-08 within 128 cycles.
 Requested convergence on MAX density matrix=1.00D-06.
 Requested convergence on             energy=1.00D-06.
 No special actions if energy rises.

 Cycle   1  Pass 1  IDiag  1:
 E= -156.970204604215    
 DIIS: error= 3.95D-02 at cycle   1 NSaved=   1.
 NSaved= 1 IEnMin= 1 EnMin= -156.970204604215     IErMin= 1 ErrMin= 3.95D-02
 ErrMax= 3.95D-02  0.00D+00 EMaxC= 1.00D-01 BMatC= 2.09D-01 BMatP= 2.09D-01
 IDIUse=3 WtCom= 6.05D-01 WtEn= 3.95D-01
 Coeff-Com:  0.100D+01
 Coeff-En:   0.100D+01
 Coeff:      0.100D+01
 Gap=     0.327 Goal=   None    Shift=    0.000
 GapD=    0.327 DampG=1.000 DampE=0.500 DampFc=0.5000 IDamp=-1.
 Damping current iteration by 5.00D-01
 RMSDP=5.67D-03 MaxDP=1.21D-01              OVMax= 1.82D-01

 Cycle   2  Pass 1  IDiag  1:
 E= -157.075442188455     Delta-E=       -0.105237584240 Rises=F Damp=T
 DIIS: error= 8.25D-03 at cycle   2 NSaved=   2.
 NSaved= 2 IEnMin= 2 EnMin= -157.075442188455     IErMin= 2 ErrMin= 8.25D-03
 ErrMax= 8.25D-03  0.00D+00 EMaxC= 1.00D-01 BMatC= 9.50D-03 BMatP= 2.09D-01
 IDIUse=3 WtCom= 9.17D-01 WtEn= 8.25D-02
 Coeff-Com: -0.146D+00 0.115D+01
 Coeff-En:   0.000D+00 0.100D+01
 Coeff:     -0.134D+00 0.113D+01
 Gap=     0.292 Goal=   None    Shift=    0.000
 RMSDP=3.01D-03 MaxDP=9.89D-02 DE=-1.05D-01 OVMax= 8.51D-02

 Cycle   3  Pass 1  IDiag  1:
 E= -157.166833848774     Delta-E=       -0.091391660319 Rises=F Damp=F
 DIIS: error= 1.57D-03 at cycle   3 NSaved=   3.
 NSaved= 3 IEnMin= 3 EnMin= -157.166833848774     IErMin= 3 ErrMin= 1.57D-03
 ErrMax= 1.57D-03  0.00D+00 EMaxC= 1.00D-01 BMatC= 1.95D-04 BMatP= 9.50D-03
 IDIUse=3 WtCom= 9.84D-01 WtEn= 1.57D-02
 Coeff-Com: -0.282D-01 0.101D+00 0.927D+00
 Coeff-En:   0.000D+00 0.000D+00 0.100D+01
 Coeff:     -0.278D-01 0.999D-01 0.928D+00
 Gap=     0.288 Goal=   None    Shift=    0.000
 RMSDP=3.35D-04 MaxDP=1.38D-02 DE=-9.14D-02 OVMax= 7.99D-03

 Cycle   4  Pass 1  IDiag  1:
 E= -157.167009717203     Delta-E=       -0.000175868429 Rises=F Damp=F
 DIIS: error= 5.26D-04 at cycle   4 NSaved=   4.
 NSaved= 4 IEnMin= 4 EnMin= -157.167009717203     IErMin= 4 ErrMin= 5.26D-04
 ErrMax= 5.26D-04  0.00D+00 EMaxC= 1.00D-01 BMatC= 4.73D-05 BMatP= 1.95D-04
 IDIUse=3 WtCom= 9.95D-01 WtEn= 5.26D-03
 Coeff-Com: -0.732D-02 0.217D-01 0.362D+00 0.624D+00
 Coeff-En:   0.000D+00 0.000D+00 0.000D+00 0.100D+01
 Coeff:     -0.729D-02 0.216D-01 0.360D+00 0.626D+00
 Gap=     0.291 Goal=   None    Shift=    0.000
 RMSDP=7.30D-05 MaxDP=1.59D-03 DE=-1.76D-04 OVMax= 2.85D-03

 Cycle   5  Pass 1  IDiag  1:
 E= -157.167053960926     Delta-E=       -0.000044243723 Rises=F Damp=F
 DIIS: error= 2.06D-04 at cycle   5 NSaved=   5.
 NSaved= 5 IEnMin= 5 EnMin= -157.167053960926     IErMin= 5 ErrMin= 2.06D-04
 ErrMax= 2.06D-04  0.00D+00 EMaxC= 1.00D-01 BMatC= 3.81D-06 BMatP= 4.73D-05
 IDIUse=3 WtCom= 9.98D-01 WtEn= 2.06D-03
 Coeff-Com:  0.202D-03-0.968D-03 0.608D-01 0.240D+00 0.700D+00
 Coeff-En:   0.000D+00 0.000D+00 0.000D+00 0.000D+00 0.100D+01
 Coeff:      0.201D-03-0.966D-03 0.607D-01 0.239D+00 0.701D+00
 Gap=     0.291 Goal=   None    Shift=    0.000
 RMSDP=2.70D-05 MaxDP=3.78D-04 DE=-4.42D-05 OVMax= 1.28D-03

 Cycle   6  Pass 1  IDiag  1:
 E= -157.167057593088     Delta-E=       -0.000003632162 Rises=F Damp=F
 DIIS: error= 9.17D-05 at cycle   6 NSaved=   6.
 NSaved= 6 IEnMin= 6 EnMin= -157.167057593088     IErMin= 6 ErrMin= 9.17D-05
 ErrMax= 9.17D-05  0.00D+00 EMaxC= 1.00D-01 BMatC= 6.35D-07 BMatP= 3.81D-06
 IDIUse=1 WtCom= 1.00D+00 WtEn= 0.00D+00
 Coeff-Com:  0.957D-03-0.315D-02 0.116D-02 0.671D-01 0.352D+00 0.582D+00
 Coeff:      0.957D-03-0.315D-02 0.116D-02 0.671D-01 0.352D+00 0.582D+00
 Gap=     0.291 Goal=   None    Shift=    0.000
 RMSDP=5.58D-06 MaxDP=1.72D-04 DE=-3.63D-06 OVMax= 2.91D-04

 Cycle   7  Pass 1  IDiag  1:
 E= -157.167058163057     Delta-E=       -0.000000569969 Rises=F Damp=F
 DIIS: error= 2.00D-05 at cycle   7 NSaved=   7.
 NSaved= 7 IEnMin= 7 EnMin= -157.167058163057     IErMin= 7 ErrMin= 2.00D-05
 ErrMax= 2.00D-05  0.00D+00 EMaxC= 1.00D-01 BMatC= 2.62D-08 BMatP= 6.35D-07
 IDIUse=1 WtCom= 1.00D+00 WtEn= 0.00D+00
 Coeff-Com:  0.295D-03-0.779D-03-0.105D-01-0.233D-01-0.617D-03 0.166D+00
 Coeff-Com:  0.869D+00
 Coeff:      0.295D-03-0.779D-03-0.105D-01-0.233D-01-0.617D-03 0.166D+00
 Coeff:      0.869D+00
 Gap=     0.291 Goal=   None    Shift=    0.000
 RMSDP=3.69D-06 MaxDP=5.93D-05 DE=-5.70D-07 OVMax= 1.26D-04

 Cycle   8  Pass 1  IDiag  1:
 E= -157.167058199996     Delta-E=       -0.000000036939 Rises=F Damp=F
 DIIS: error= 3.35D-06 at cycle   8 NSaved=   8.
 NSaved= 8 IEnMin= 8 EnMin= -157.167058199996     IErMin= 8 ErrMin= 3.35D-06
 ErrMax= 3.35D-06  0.00D+00 EMaxC= 1.00D-01 BMatC= 7.59D-10 BMatP= 2.62D-08
 IDIUse=1 WtCom= 1.00D+00 WtEn= 0.00D+00
 Coeff-Com: -0.358D-04 0.744D-04 0.904D-04-0.198D-02-0.565D-02-0.317D-01
 Coeff-Com:  0.247D-01 0.101D+01
 Coeff:     -0.358D-04 0.744D-04 0.904D-04-0.198D-02-0.565D-02-0.317D-01
 Coeff:      0.247D-01 0.101D+01
 Gap=     0.291 Goal=   None    Shift=    0.000
 RMSDP=5.01D-07 MaxDP=7.31D-06 DE=-3.69D-08 OVMax= 9.91D-06

 Cycle   9  Pass 1  IDiag  1:
 E= -157.167058200926     Delta-E=       -0.000000000930 Rises=F Damp=F
 DIIS: error= 6.68D-07 at cycle   9 NSaved=   9.
 NSaved= 9 IEnMin= 9 EnMin= -157.167058200926     IErMin= 9 ErrMin= 6.68D-07
 ErrMax= 6.68D-07  0.00D+00 EMaxC= 1.00D-01 BMatC= 2.73D-11 BMatP= 7.59D-10
 IDIUse=1 WtCom= 1.00D+00 WtEn= 0.00D+00
 Coeff-Com: -0.114D-04 0.298D-04 0.322D-03 0.321D-03-0.304D-03-0.109D-01
 Coeff-Com: -0.166D-01 0.104D+00 0.923D+00
 Coeff:     -0.114D-04 0.298D-04 0.322D-03 0.321D-03-0.304D-03-0.109D-01
 Coeff:     -0.166D-01 0.104D+00 0.923D+00
 Gap=     0.291 Goal=   None    Shift=    0.000
 RMSDP=8.80D-08 MaxDP=1.15D-06 DE=-9.30D-10 OVMax= 2.77D-06

 Cycle  10  Pass 1  IDiag  1:
 E= -157.167058200959     Delta-E=       -0.000000000033 Rises=F Damp=F
 DIIS: error= 1.64D-07 at cycle  10 NSaved=  10.
 NSaved=10 IEnMin=10 EnMin= -157.167058200959     IErMin=10 ErrMin= 1.64D-07
 ErrMax= 1.64D-07  0.00D+00 EMaxC= 1.00D-01 BMatC= 3.08D-12 BMatP= 2.73D-11
 IDIUse=1 WtCom= 1.00D+00 WtEn= 0.00D+00
 Coeff-Com:  0.192D-05-0.251D-05 0.348D-04 0.105D-03 0.369D-03-0.237D-03
 Coeff-Com: -0.183D-02-0.562D-01 0.150D+00 0.907D+00
 Coeff:      0.192D-05-0.251D-05 0.348D-04 0.105D-03 0.369D-03-0.237D-03
 Coeff:     -0.183D-02-0.562D-01 0.150D+00 0.907D+00
 Gap=     0.291 Goal=   None    Shift=    0.000
 RMSDP=3.09D-08 MaxDP=8.57D-07 DE=-3.26D-11 OVMax= 7.51D-07

 Cycle  11  Pass 1  IDiag  1:
 E= -157.167058200962     Delta-E=       -0.000000000003 Rises=F Damp=F
 DIIS: error= 4.04D-08 at cycle  11 NSaved=  11.
 NSaved=11 IEnMin=11 EnMin= -157.167058200962     IErMin=11 ErrMin= 4.04D-08
 ErrMax= 4.04D-08  0.00D+00 EMaxC= 1.00D-01 BMatC= 3.61D-13 BMatP= 3.08D-12
 IDIUse=1 WtCom= 1.00D+00 WtEn= 0.00D+00
 Coeff-Com:  0.180D-05-0.359D-05-0.100D-04 0.124D-04 0.193D-03 0.600D-03
 Coeff-Com:  0.776D-03-0.311D-01-0.855D-02 0.361D+00 0.677D+00
 Coeff:      0.180D-05-0.359D-05-0.100D-04 0.124D-04 0.193D-03 0.600D-03
 Coeff:      0.776D-03-0.311D-01-0.855D-02 0.361D+00 0.677D+00
 Gap=     0.291 Goal=   None    Shift=    0.000
 RMSDP=7.45D-09 MaxDP=2.13D-07 DE=-3.47D-12 OVMax= 1.45D-07

 SCF Done:  E(RM062X) =  -157.167058201     A.U. after   11 cycles
            NFock= 11  Conv=0.74D-08     -V/T= 2.0041
 KE= 1.565186270853D+02 PE=-6.013087604299D+02 EE= 1.687911086630D+02
 Leave Link  502 at Thu Dec 26 16:33:26 2019, MaxMem=  1342177280 cpu:              63.3 elap:               3.4
 (Enter /apps/cent7/gaussian/g16-A.03/g16-haswell/g16/l601.exe)
 Copying SCF densities to generalized density rwf, IOpCl= 0 IROHF=0.

 **********************************************************************

            Population analysis using the SCF density.

 **********************************************************************

 Orbital symmetries:
       Occupied  (A) (A) (A) (A) (A) (A) (A) (A) (A) (A) (A) (A)
                 (A) (A) (A) (A)
       Virtual   (A) (A) (A) (A) (A) (A) (A) (A) (A) (A) (A) (A)
                 (A) (A) (A) (A) (A) (A) (A) (A) (A) (A) (A) (A)
                 (A) (A) (A) (A) (A) (A) (A) (A) (A) (A) (A) (A)
                 (A) (A) (A) (A) (A) (A) (A) (A) (A) (A) (A) (A)
                 (A) (A) (A) (A) (A) (A) (A) (A) (A) (A) (A) (A)
                 (A) (A) (A) (A) (A) (A) (A) (A) (A) (A) (A) (A)
                 (A) (A) (A) (A) (A) (A) (A) (A) (A) (A) (A) (A)
                 (A) (A) (A) (A) (A) (A) (A) (A) (A) (A) (A) (A)
                 (A) (A) (A) (A) (A) (A) (A) (A) (A) (A) (A) (A)
                 (A) (A) (A) (A) (A) (A) (A) (A) (A) (A) (A) (A)
                 (A) (A) (A) (A) (A) (A) (A) (A)
 The electronic state is 1-A.
 Alpha  occ. eigenvalues --  -10.55212 -10.52500 -10.52491 -10.51567  -0.89889
 Alpha  occ. eigenvalues --   -0.79145  -0.76820  -0.59711  -0.52180  -0.51184
 Alpha  occ. eigenvalues --   -0.50064  -0.46610  -0.44369  -0.42046  -0.39589
 Alpha  occ. eigenvalues --   -0.29156
 Alpha virt. eigenvalues --   -0.00093   0.01820   0.01923   0.02149   0.04253
 Alpha virt. eigenvalues --    0.04382   0.04666   0.05266   0.06370   0.08006
 Alpha virt. eigenvalues --    0.09367   0.10563   0.11306   0.12955   0.13256
 Alpha virt. eigenvalues --    0.13739   0.14656   0.15363   0.15740   0.15795
 Alpha virt. eigenvalues --    0.16951   0.17238   0.19185   0.21175   0.21647
 Alpha virt. eigenvalues --    0.22340   0.22801   0.23619   0.24719   0.25596
 Alpha virt. eigenvalues --    0.28881   0.30227   0.32690   0.33718   0.40168
 Alpha virt. eigenvalues --    0.41487   0.47575   0.48355   0.50056   0.50908
 Alpha virt. eigenvalues --    0.56182   0.56999   0.60037   0.61402   0.63396
 Alpha virt. eigenvalues --    0.67469   0.68473   0.70675   0.71359   0.71939
 Alpha virt. eigenvalues --    0.72405   0.75257   0.78820   0.79424   0.82182
 Alpha virt. eigenvalues --    0.87530   0.88716   0.91120   0.95302   0.98465
 Alpha virt. eigenvalues --    1.02974   1.15345   1.16810   1.30086   1.38355
 Alpha virt. eigenvalues --    1.44691   1.47950   1.50851   1.52025   1.52773
 Alpha virt. eigenvalues --    1.53374   1.55803   1.61408   1.62128   1.64581
 Alpha virt. eigenvalues --    1.65587   1.69968   1.71249   1.72142   1.80720
 Alpha virt. eigenvalues --    1.82655   1.83769   1.85433   1.91398   1.99361
 Alpha virt. eigenvalues --    2.05012   2.06059   2.07825   2.09338   2.13927
 Alpha virt. eigenvalues --    2.20297   2.24652   2.28772   2.39960   2.41958
 Alpha virt. eigenvalues --    2.52608   2.54550   2.55798   2.56806   2.57796
 Alpha virt. eigenvalues --    2.58736   2.62547   2.63877   2.64860   2.66453
 Alpha virt. eigenvalues --    2.68056   2.71212   2.76321   2.82472   2.88970
 Alpha virt. eigenvalues --    2.92797   2.97987   3.02780   3.04571   3.18773
 Alpha virt. eigenvalues --    3.28579   3.67510   3.84581   3.88406   3.89439
 Alpha virt. eigenvalues --    3.92371   3.92990   4.30568   4.33255  23.79224
 Alpha virt. eigenvalues --   24.07067  24.10004  24.27769
          Condensed to atoms (all electrons):
               1          2          3          4          5          6
     1  C    5.605750   0.383289   0.421563   0.406113   0.168776  -0.223198
     2  H    0.383289   0.566322  -0.027005  -0.030802  -0.051475  -0.006063
     3  H    0.421563  -0.027005   0.535004  -0.044370  -0.051539   0.018815
     4  H    0.406113  -0.030802  -0.044370   0.527312  -0.028793  -0.001162
     5  C    0.168776  -0.051475  -0.051539  -0.028793   4.997744   0.457551
     6  C   -0.223198  -0.006063   0.018815  -0.001162   0.457551   5.478457
     7  H    0.014902  -0.001796   0.001050  -0.002760   0.002671   0.344202
     8  H    0.001368  -0.000379  -0.001501   0.004858  -0.028276   0.376392
     9  C   -0.120888   0.004751  -0.007633   0.000373   0.100528  -0.051270
    10  H    0.023303   0.004163   0.000048   0.000880  -0.028453  -0.015642
    11  H    0.000102  -0.001293  -0.001547  -0.000531  -0.026381  -0.000884
    12  H   -0.013668  -0.000034  -0.002324  -0.000608  -0.107377   0.026240
               7          8          9         10         11         12
     1  C    0.014902   0.001368  -0.120888   0.023303   0.000102  -0.013668
     2  H   -0.001796  -0.000379   0.004751   0.004163  -0.001293  -0.000034
     3  H    0.001050  -0.001501  -0.007633   0.000048  -0.001547  -0.002324
     4  H   -0.002760   0.004858   0.000373   0.000880  -0.000531  -0.000608
     5  C    0.002671  -0.028276   0.100528  -0.028453  -0.026381  -0.107377
     6  C    0.344202   0.376392  -0.051270  -0.015642  -0.000884   0.026240
     7  H    0.509348  -0.016042   0.005268  -0.000060   0.003042   0.000083
     8  H   -0.016042   0.516165   0.011695  -0.002486  -0.000818   0.001834
     9  C    0.005268   0.011695   5.594057   0.386843   0.388001   0.449206
    10  H   -0.000060  -0.002486   0.386843   0.562952  -0.052049  -0.027986
    11  H    0.003042  -0.000818   0.388001  -0.052049   0.557602  -0.028498
    12  H    0.000083   0.001834   0.449206  -0.027986  -0.028498   0.544647
 Mulliken charges:
               1
     1  C   -0.667414
     2  H    0.160322
     3  H    0.159440
     4  H    0.169491
     5  C    0.595024
     6  C   -0.403438
     7  H    0.140093
     8  H    0.137190
     9  C   -0.760932
    10  H    0.148486
    11  H    0.163253
    12  H    0.158484
 Sum of Mulliken charges =   0.00000
 Mulliken charges with hydrogens summed into heavy atoms:
               1
     1  C   -0.178161
     5  C    0.595024
     6  C   -0.126155
     9  C   -0.290708
 Electronic spatial extent (au):  <R**2>=            330.3765
 Charge=              0.0000 electrons
 Dipole moment (field-independent basis, Debye):
    X=              0.0485    Y=             -0.5881    Z=              0.0200  Tot=              0.5904
 Quadrupole moment (field-independent basis, Debye-Ang):
   XX=            -25.6952   YY=            -26.5731   ZZ=            -28.2684
   XY=              0.0203   XZ=             -0.4264   YZ=              0.0443
 Traceless Quadrupole moment (field-independent basis, Debye-Ang):
   XX=              1.1504   YY=              0.2724   ZZ=             -1.4228
   XY=              0.0203   XZ=             -0.4264   YZ=              0.0443
 Octapole moment (field-independent basis, Debye-Ang**2):
  XXX=             -0.0993  YYY=             -0.9936  ZZZ=              0.6241  XYY=             -0.3279
  XXY=              1.8903  XXZ=             -0.1508  XZZ=              0.6462  YZZ=             -2.7227
  YYZ=             -0.4134  XYZ=             -0.9082
 Hexadecapole moment (field-independent basis, Debye-Ang**3):
 XXXX=           -226.7096 YYYY=           -190.2957 ZZZZ=            -46.8101 XXXY=             -1.0595
 XXXZ=              0.2770 YYYX=             -0.1858 YYYZ=              1.2213 ZZZX=             -1.1237
 ZZZY=             -0.3246 XXYY=            -69.2824 XXZZ=            -42.8773 YYZZ=            -42.5897
 XXYZ=             -0.5740 YYXZ=             -1.7234 ZZXY=              1.1056
 N-N= 1.188319664806D+02 E-N=-6.013087606123D+02  KE= 1.565186270853D+02
 No NMR shielding tensors so no spin-rotation constants.
 Leave Link  601 at Thu Dec 26 16:33:26 2019, MaxMem=  1342177280 cpu:               3.4 elap:               0.2
 (Enter /apps/cent7/gaussian/g16-A.03/g16-haswell/g16/l701.exe)
 ... and contract with generalized density number  0.
 Compute integral first derivatives.
 Leave Link  701 at Thu Dec 26 16:33:26 2019, MaxMem=  1342177280 cpu:               2.4 elap:               0.1
 (Enter /apps/cent7/gaussian/g16-A.03/g16-haswell/g16/l702.exe)
 L702 exits ... SP integral derivatives will be done elsewhere.
 Leave Link  702 at Thu Dec 26 16:33:27 2019, MaxMem=  1342177280 cpu:               1.3 elap:               0.1
 (Enter /apps/cent7/gaussian/g16-A.03/g16-haswell/g16/l703.exe)
 Integral derivatives from FoFJK, PRISM(SPDF).
 Compute integral first derivatives, UseDBF=F ICtDFT=           0.
 Calling FoFJK, ICntrl=      2127 FMM=F ISym2X=0 I1Cent= 0 IOpClX= 0 NMat=1 NMatS=1 NMatT=0.
 FoFJK:  IHMeth= 1 ICntrl=    2127 DoSepK=F KAlg= 0 I1Cent=           0 FoldK=F
 IRaf=         0 NMat=       1 IRICut=       1 DoRegI=T DoRafI=F ISym2E= 0 IDoP0=0 IntGTp=1.
 FoFCou: FMM=F IPFlag=           0 FMFlag=      100000 FMFlg1=         800
         NFxFlg=           0 DoJE=F BraDBF=F KetDBF=F FulRan=T
         wScrn=  0.000000 ICntrl=      2127 IOpCl=  0 I1Cent=           0 NGrid=           0
         NMat0=    1 NMatS0=      1 NMatT0=    0 NMatD0=    1 NMtDS0=    0 NMtDT0=    0
 Symmetry not used in FoFCou.
 Leave Link  703 at Thu Dec 26 16:33:27 2019, MaxMem=  1342177280 cpu:              16.0 elap:               0.7
 (Enter /apps/cent7/gaussian/g16-A.03/g16-haswell/g16/l716.exe)
 Dipole        = 1.90927742D-02-2.31370217D-01 7.85904869D-03
 ***** Axes restored to original set *****
 -------------------------------------------------------------------
 Center     Atomic                   Forces (Hartrees/Bohr)
 Number     Number              X              Y              Z
 -------------------------------------------------------------------
      1        6           0.018286009    0.012319842   -0.026974085
      2        1           0.003594125   -0.014154990    0.003259234
      3        1           0.003713287    0.005424319    0.014142787
      4        1          -0.013616183   -0.000748202    0.001090476
      5        6          -0.001406757    0.018437830   -0.005308261
      6        6           0.009802054   -0.036452657    0.007575463
      7        1           0.009318453    0.009335362   -0.005439106
      8        1          -0.013433602    0.005688413    0.003316868
      9        6          -0.026516479    0.014770520    0.020450342
     10        1           0.010046746   -0.009363368    0.006277663
     11        1          -0.006271055   -0.012865224   -0.009864672
     12        1           0.006483402    0.007608155   -0.008526710
 -------------------------------------------------------------------
 Cartesian Forces:  Max     0.036452657 RMS     0.013112871
 Leave Link  716 at Thu Dec 26 16:33:27 2019, MaxMem=  1342177280 cpu:               0.6 elap:               0.1
 (Enter /apps/cent7/gaussian/g16-A.03/g16-haswell/g16/l103.exe)

 GradGradGradGradGradGradGradGradGradGradGradGradGradGradGradGradGradGrad
 Berny optimization.
 FormGI is forming the generalized inverse of G from B-inverse, IUseBI=4.
 Internal  Forces:  Max     0.022758296 RMS     0.008163303
 Search for a local minimum.
 Step number   1 out of a maximum of   55
 All quantities printed in internal units (Hartrees-Bohrs-Radians)
 RMS Force = .81633D-02 SwitMx=.10000D-02 MixMth= 1
 Mixed Optimization -- RFO/linear search
 Second derivative matrix not updated -- first step.
 ITU=  0
     Eigenvalues ---    0.00237   0.00237   0.00850   0.02681   0.02681
     Eigenvalues ---    0.07243   0.07243   0.07243   0.07243   0.16000
     Eigenvalues ---    0.16000   0.16000   0.16000   0.16000   0.16000
     Eigenvalues ---    0.16000   0.16000   0.25000   0.25000   0.28519
     Eigenvalues ---    0.28519   0.37230   0.37230   0.37230   0.37230
     Eigenvalues ---    0.37230   0.37230   0.37230   0.37230   0.53930
 RFO step:  Lambda=-1.49078422D-02 EMin= 2.36824211D-03
 Linear search not attempted -- first point.
 Iteration  1 RMS(Cart)=  0.07967611 RMS(Int)=  0.00704276
 Iteration  2 RMS(Cart)=  0.00764628 RMS(Int)=  0.00011846
 Iteration  3 RMS(Cart)=  0.00007249 RMS(Int)=  0.00009794
 Iteration  4 RMS(Cart)=  0.00000001 RMS(Int)=  0.00009794
 ITry= 1 IFail=0 DXMaxC= 3.13D-01 DCOld= 1.00D+10 DXMaxT= 3.00D-01 DXLimC= 3.00D+00 Rises=F
 Variable       Old X    -DE/DX   Delta X   Delta X   Delta X     New X
                                 (Linear)    (Quad)   (Total)
    R1        2.02201   0.01454   0.00000   0.03756   0.03756   2.05957
    R2        2.02201   0.01534   0.00000   0.03962   0.03962   2.06163
    R3        2.02201   0.01362   0.00000   0.03517   0.03517   2.05717
    R4        2.91018  -0.01226   0.00000  -0.04084  -0.04084   2.86934
    R5        2.56096  -0.02276   0.00000  -0.04106  -0.04106   2.51989
    R6        2.91018  -0.01490   0.00000  -0.04964  -0.04964   2.86054
    R7        2.02201   0.00993   0.00000   0.02566   0.02566   2.04766
    R8        2.02201   0.01062   0.00000   0.02743   0.02743   2.04943
    R9        2.02201   0.01504   0.00000   0.03883   0.03883   2.06084
   R10        2.02201   0.01677   0.00000   0.04330   0.04330   2.06531
   R11        2.02201   0.01306   0.00000   0.03372   0.03372   2.05573
    A1        1.91063  -0.00324   0.00000  -0.01676  -0.01702   1.89361
    A2        1.91063  -0.00231   0.00000  -0.01304  -0.01311   1.89753
    A3        1.91063   0.00427   0.00000   0.02541   0.02524   1.93587
    A4        1.91063  -0.00213   0.00000  -0.01415  -0.01417   1.89647
    A5        1.91063   0.00297   0.00000   0.01691   0.01677   1.92740
    A6        1.91063   0.00044   0.00000   0.00164   0.00160   1.91223
    A7        2.09836   0.00358   0.00000   0.01351   0.01350   2.11185
    A8        2.09241  -0.01021   0.00000  -0.03855  -0.03856   2.05385
    A9        2.09241   0.00663   0.00000   0.02504   0.02503   2.11744
   A10        2.09836   0.00183   0.00000   0.01045   0.01044   2.10880
   A11        2.09241   0.00239   0.00000   0.01368   0.01367   2.10609
   A12        2.09241  -0.00422   0.00000  -0.02412  -0.02413   2.06829
   A13        1.91063   0.00028   0.00000  -0.00126  -0.00125   1.90938
   A14        1.91063   0.00491   0.00000   0.02860   0.02845   1.93909
   A15        1.91063   0.00128   0.00000   0.00965   0.00949   1.92012
   A16        1.91063  -0.00360   0.00000  -0.02521  -0.02519   1.88544
   A17        1.91063  -0.00101   0.00000  -0.00681  -0.00681   1.90382
   A18        1.91063  -0.00186   0.00000  -0.00497  -0.00527   1.90536
    D1       -3.14159  -0.00003   0.00000   0.00621   0.00619  -3.13540
    D2        0.00000   0.00019   0.00000   0.01572   0.01559   0.01560
    D3       -1.04719   0.00044   0.00000   0.01159   0.01174  -1.03545
    D4        2.09440   0.00066   0.00000   0.02111   0.02115   2.11555
    D5        1.04720  -0.00009   0.00000   0.00562   0.00566   1.05286
    D6       -2.09439   0.00014   0.00000   0.01514   0.01506  -2.07933
    D7       -2.87503  -0.00844   0.00000  -0.20031  -0.20020  -3.07522
    D8        0.26656  -0.00867   0.00000  -0.20575  -0.20563   0.06093
    D9        0.26656  -0.00867   0.00000  -0.20983  -0.20995   0.05662
   D10       -2.87503  -0.00889   0.00000  -0.21527  -0.21538  -3.09041
   D11       -0.71999  -0.00063   0.00000  -0.04955  -0.04952  -0.76951
   D12        1.37441  -0.00186   0.00000  -0.06369  -0.06380   1.31061
   D13       -2.81438  -0.00035   0.00000  -0.04635  -0.04621  -2.86059
   D14        2.42160  -0.00041   0.00000  -0.04007  -0.04008   2.38152
   D15       -1.76719  -0.00164   0.00000  -0.05421  -0.05436  -1.82155
   D16        0.32721  -0.00013   0.00000  -0.03687  -0.03677   0.29044
         Item               Value     Threshold  Converged?
 Maximum Force            0.022758     0.000450     NO 
 RMS     Force            0.008163     0.000300     NO 
 Maximum Displacement     0.313379     0.001800     NO 
 RMS     Displacement     0.082281     0.001200     NO 
 Predicted change in Energy=-9.026460D-03
 Lowest energy point so far.  Saving SCF results.
 GradGradGradGradGradGradGradGradGradGradGradGradGradGradGradGradGradGrad

 Leave Link  103 at Thu Dec 26 16:33:27 2019, MaxMem=  1342177280 cpu:               0.8 elap:               0.1
 (Enter /apps/cent7/gaussian/g16-A.03/g16-haswell/g16/l202.exe)
                          Input orientation:                          
 ---------------------------------------------------------------------
 Center     Atomic      Atomic             Coordinates (Angstroms)
 Number     Number       Type             X           Y           Z
 ---------------------------------------------------------------------
      1          6           0       -1.825997   -7.630581   -1.599598
      2          1           0       -1.467358   -8.659750   -1.595129
      3          1           0       -1.468681   -7.135629   -0.695411
      4          1           0       -2.914465   -7.639822   -1.584639
      5          6           0       -1.340753   -6.892780   -2.834785
      6          6           0       -1.657725   -5.613831   -3.039625
      7          1           0       -1.361740   -5.107485   -3.950747
      8          1           0       -2.222588   -5.058413   -2.298943
      9          6           0       -0.497298   -7.663227   -3.827951
     10          1           0        0.246114   -8.253339   -3.290919
     11          1           0       -1.111434   -8.348479   -4.417638
     12          1           0        0.012119   -6.973751   -4.497667
 ---------------------------------------------------------------------
                    Distance matrix (angstroms):
                    1          2          3          4          5
     1  C    0.000000
     2  H    1.089877   0.000000
     3  H    1.090966   1.769870   0.000000
     4  H    1.088609   1.770446   1.770658   0.000000
     5  C    1.518387   2.162165   2.156911   2.144179   0.000000
     6  C    2.483802   3.376452   2.801240   2.793030   1.333469
     7  H    3.479864   4.263646   3.836929   3.797651   2.105491
     8  H    2.694887   3.746379   2.730297   2.766333   2.104677
     9  C    2.594623   2.630508   3.321861   3.297832   1.513732
    10  H    2.746277   2.444762   3.305519   3.643769   2.139468
    11  H    2.994550   2.861840   3.931107   3.432054   2.162653
    12  H    3.494124   3.668266   4.083642   4.182616   2.145226
                    6          7          8          9         10
     6  C    0.000000
     7  H    1.083577   0.000000
     8  H    1.084513   1.863310   0.000000
     9  C    2.483561   2.700770   3.478441   0.000000
    10  H    3.264162   3.594018   4.157650   1.090549   0.000000
    11  H    3.110571   3.284004   4.067931   1.092915   1.766772
    12  H    2.600702   2.381084   3.673802   1.087843   1.774356
                   11         12
    11  H    0.000000
    12  H    1.777260   0.000000
 Stoichiometry    C4H8
 Framework group  C1[X(C4H8)]
 Deg. of freedom    30
 Full point group                 C1      NOp   1
 RotChk:  IX=0 Diff= 1.77D-02
 Largest Abelian subgroup         C1      NOp   1
 Largest concise Abelian subgroup C1      NOp   1
                         Standard orientation:                         
 ---------------------------------------------------------------------
 Center     Atomic      Atomic             Coordinates (Angstroms)
 Number     Number       Type             X           Y           Z
 ---------------------------------------------------------------------
      1          6           0        1.296499   -0.675434    0.004464
      2          1           0        1.102919   -1.747928   -0.006288
      3          1           0        1.899026   -0.423722   -0.869498
      4          1           0        1.864228   -0.431842    0.900799
      5          6           0       -0.002899    0.110059   -0.003459
      6          6           0        0.000625    1.443519    0.000233
      7          1           0       -0.926811    2.001067    0.056282
      8          1           0        0.933577    1.994392   -0.047820
      9          6           0       -1.298112   -0.673400   -0.003052
     10          1           0       -1.223599   -1.496827   -0.714188
     11          1           0       -1.501871   -1.096264    0.983929
     12          1           0       -2.124143   -0.027339   -0.292327
 ---------------------------------------------------------------------
 Rotational constants (GHZ):           9.3305516           8.1525422           4.6014194
 Leave Link  202 at Thu Dec 26 16:33:28 2019, MaxMem=  1342177280 cpu:               1.0 elap:               0.1
 (Enter /apps/cent7/gaussian/g16-A.03/g16-haswell/g16/l301.exe)
 Standard basis: 6-311++G(d,p) (5D, 7F)
 Ernie: Thresh=  0.10000D-02 Tol=  0.10000D-05 Strict=F.
 There are   148 symmetry adapted cartesian basis functions of A   symmetry.
 There are   144 symmetry adapted basis functions of A   symmetry.
   144 basis functions,   216 primitive gaussians,   148 cartesian basis functions
    16 alpha electrons       16 beta electrons
       nuclear repulsion energy       119.4902354581 Hartrees.
 IExCor= 4336 DFT=T Ex+Corr=M062X ExCW=0 ScaHFX=  0.540000
 ScaDFX=  1.000000  1.000000  1.000000  1.000000 ScalE2=  1.000000  1.000000
 IRadAn=      5 IRanWt=     -1 IRanGd=            0 ICorTp=0 IEmpDi=  4
 NAtoms=   12 NActive=   12 NUniq=   12 SFac= 1.00D+00 NAtFMM=   60 NAOKFM=F Big=F
 Integral buffers will be    131072 words long.
 Raffenetti 2 integral format.
 Two-electron integral symmetry is turned on.
 Leave Link  301 at Thu Dec 26 16:33:28 2019, MaxMem=  1342177280 cpu:               1.2 elap:               0.1
 (Enter /apps/cent7/gaussian/g16-A.03/g16-haswell/g16/l302.exe)
 NPDir=0 NMtPBC=     1 NCelOv=     1 NCel=       1 NClECP=     1 NCelD=      1
         NCelK=      1 NCelE2=     1 NClLst=     1 CellRange=     0.0.
 One-electron integrals computed using PRISM.
 One-electron integral symmetry used in STVInt
 NBasis=   144 RedAO= T EigKep=  2.43D-05  NBF=   144
 NBsUse=   144 1.00D-06 EigRej= -1.00D+00 NBFU=   144
 Precomputing XC quadrature grid using
 IXCGrd= 4 IRadAn=           5 IRanWt=          -1 IRanGd=           0 AccXCQ= 0.00D+00.
 Generated NRdTot=       0 NPtTot=           0 NUsed=           0 NTot=          32
 NSgBfM=   148   148   148   148   148 MxSgAt=    12 MxSgA2=    12.
 Leave Link  302 at Thu Dec 26 16:33:28 2019, MaxMem=  1342177280 cpu:               3.1 elap:               0.2
 (Enter /apps/cent7/gaussian/g16-A.03/g16-haswell/g16/l303.exe)
 DipDrv:  MaxL=1.
 Leave Link  303 at Thu Dec 26 16:33:28 2019, MaxMem=  1342177280 cpu:               0.9 elap:               0.1
 (Enter /apps/cent7/gaussian/g16-A.03/g16-haswell/g16/l401.exe)
 Initial guess from the checkpoint file:  "methylpropene.chk"
 B after Tr=    -0.000000   -0.000000    0.000000
         Rot=    0.999990   -0.002405   -0.000159    0.003834 Ang=  -0.52 deg.
 Guess basis will be translated and rotated to current coordinates.
 JPrj=2 DoOrth=T DoCkMO=T.
 Generating alternative initial guess.
 ExpMin= 3.60D-02 ExpMax= 4.56D+03 ExpMxC= 6.82D+02 IAcc=3 IRadAn=         5 AccDes= 0.00D+00
 Harris functional with IExCor= 1009 and IRadAn=       5 diagonalized for initial guess.
 HarFok:  IExCor= 1009 AccDes= 0.00D+00 IRadAn=         5 IDoV= 1 UseB2=F ITyADJ=14
 ICtDFT=  3500011 ScaDFX=  1.000000  1.000000  1.000000  1.000000
 FoFCou: FMM=F IPFlag=           0 FMFlag=      100000 FMFlg1=           0
         NFxFlg=           0 DoJE=T BraDBF=F KetDBF=T FulRan=T
         wScrn=  0.000000 ICntrl=       500 IOpCl=  0 I1Cent=   200000004 NGrid=           0
         NMat0=    1 NMatS0=      1 NMatT0=    0 NMatD0=    1 NMtDS0=    0 NMtDT0=    0
 Petite list used in FoFCou.
 Harris En= -157.184173659204    
 Leave Link  401 at Thu Dec 26 16:33:28 2019, MaxMem=  1342177280 cpu:               6.8 elap:               0.3
 (Enter /apps/cent7/gaussian/g16-A.03/g16-haswell/g16/l502.exe)
 Keep R1 ints in memory in canonical form, NReq=77925564.
 FoFCou: FMM=F IPFlag=           0 FMFlag=           0 FMFlg1=           0
         NFxFlg=           0 DoJE=F BraDBF=F KetDBF=F FulRan=T
         wScrn=  0.000000 ICntrl=       600 IOpCl=  0 I1Cent=           0 NGrid=           0
         NMat0=    1 NMatS0=  10440 NMatT0=    0 NMatD0=    1 NMtDS0=    0 NMtDT0=    0
 Symmetry not used in FoFCou.
 Two-electron integral symmetry not used.
 Closed shell SCF:
 Using DIIS extrapolation, IDIIS=  1040.
 NGot=  1342177280 LenX=  1287626260 LenY=  1287603915
 Requested convergence on RMS density matrix=1.00D-08 within 128 cycles.
 Requested convergence on MAX density matrix=1.00D-06.
 Requested convergence on             energy=1.00D-06.
 No special actions if energy rises.

 Cycle   1  Pass 1  IDiag  1:
 E= -157.169427121393    
 DIIS: error= 6.14D-03 at cycle   1 NSaved=   1.
 NSaved= 1 IEnMin= 1 EnMin= -157.169427121393     IErMin= 1 ErrMin= 6.14D-03
 ErrMax= 6.14D-03  0.00D+00 EMaxC= 1.00D-01 BMatC= 4.01D-03 BMatP= 4.01D-03
 IDIUse=3 WtCom= 9.39D-01 WtEn= 6.14D-02
 Coeff-Com:  0.100D+01
 Coeff-En:   0.100D+01
 Coeff:      0.100D+01
 Gap=     0.425 Goal=   None    Shift=    0.000
 GapD=    0.425 DampG=2.000 DampE=1.000 DampFc=2.0000 IDamp=-1.
 RMSDP=1.47D-03 MaxDP=3.77D-02              OVMax= 2.81D-02

 Cycle   2  Pass 1  IDiag  1:
 E= -157.175558663056     Delta-E=       -0.006131541663 Rises=F Damp=F
 DIIS: error= 1.48D-03 at cycle   2 NSaved=   2.
 NSaved= 2 IEnMin= 2 EnMin= -157.175558663056     IErMin= 2 ErrMin= 1.48D-03
 ErrMax= 1.48D-03  0.00D+00 EMaxC= 1.00D-01 BMatC= 2.42D-04 BMatP= 4.01D-03
 IDIUse=3 WtCom= 9.85D-01 WtEn= 1.48D-02
 Coeff-Com: -0.417D-01 0.104D+01
 Coeff-En:   0.000D+00 0.100D+01
 Coeff:     -0.410D-01 0.104D+01
 Gap=     0.297 Goal=   None    Shift=    0.000
 RMSDP=2.86D-04 MaxDP=1.02D-02 DE=-6.13D-03 OVMax= 1.00D-02

 Cycle   3  Pass 1  IDiag  1:
 E= -157.175899974081     Delta-E=       -0.000341311025 Rises=F Damp=F
 DIIS: error= 1.11D-03 at cycle   3 NSaved=   3.
 NSaved= 3 IEnMin= 3 EnMin= -157.175899974081     IErMin= 3 ErrMin= 1.11D-03
 ErrMax= 1.11D-03  0.00D+00 EMaxC= 1.00D-01 BMatC= 1.41D-04 BMatP= 2.42D-04
 IDIUse=3 WtCom= 9.89D-01 WtEn= 1.11D-02
 Coeff-Com: -0.730D-01 0.467D+00 0.606D+00
 Coeff-En:   0.000D+00 0.000D+00 0.100D+01
 Coeff:     -0.721D-01 0.462D+00 0.610D+00
 Gap=     0.298 Goal=   None    Shift=    0.000
 RMSDP=7.86D-05 MaxDP=2.17D-03 DE=-3.41D-04 OVMax= 3.61D-03

 Cycle   4  Pass 1  IDiag  1:
 E= -157.176039262526     Delta-E=       -0.000139288445 Rises=F Damp=F
 DIIS: error= 2.33D-04 at cycle   4 NSaved=   4.
 NSaved= 4 IEnMin= 4 EnMin= -157.176039262526     IErMin= 4 ErrMin= 2.33D-04
 ErrMax= 2.33D-04  0.00D+00 EMaxC= 1.00D-01 BMatC= 4.24D-06 BMatP= 1.41D-04
 IDIUse=3 WtCom= 9.98D-01 WtEn= 2.33D-03
 Coeff-Com: -0.828D-02-0.935D-02 0.940D-01 0.924D+00
 Coeff-En:   0.000D+00 0.000D+00 0.000D+00 0.100D+01
 Coeff:     -0.826D-02-0.932D-02 0.938D-01 0.924D+00
 Gap=     0.298 Goal=   None    Shift=    0.000
 RMSDP=3.02D-05 MaxDP=5.28D-04 DE=-1.39D-04 OVMax= 1.75D-03

 Cycle   5  Pass 1  IDiag  1:
 E= -157.176044707967     Delta-E=       -0.000005445441 Rises=F Damp=F
 DIIS: error= 1.76D-04 at cycle   5 NSaved=   5.
 NSaved= 5 IEnMin= 5 EnMin= -157.176044707967     IErMin= 5 ErrMin= 1.76D-04
 ErrMax= 1.76D-04  0.00D+00 EMaxC= 1.00D-01 BMatC= 2.64D-06 BMatP= 4.24D-06
 IDIUse=3 WtCom= 9.98D-01 WtEn= 1.76D-03
 Coeff-Com:  0.565D-02-0.751D-01-0.374D-01 0.541D+00 0.566D+00
 Coeff-En:   0.000D+00 0.000D+00 0.000D+00 0.000D+00 0.100D+01
 Coeff:      0.564D-02-0.749D-01-0.373D-01 0.540D+00 0.566D+00
 Gap=     0.298 Goal=   None    Shift=    0.000
 RMSDP=1.30D-05 MaxDP=1.75D-04 DE=-5.45D-06 OVMax= 7.48D-04

 Cycle   6  Pass 1  IDiag  1:
 E= -157.176047668578     Delta-E=       -0.000002960611 Rises=F Damp=F
 DIIS: error= 2.14D-05 at cycle   6 NSaved=   6.
 NSaved= 6 IEnMin= 6 EnMin= -157.176047668578     IErMin= 6 ErrMin= 2.14D-05
 ErrMax= 2.14D-05  0.00D+00 EMaxC= 1.00D-01 BMatC= 2.00D-08 BMatP= 2.64D-06
 IDIUse=1 WtCom= 1.00D+00 WtEn= 0.00D+00
 Coeff-Com:  0.116D-02-0.107D-01-0.982D-02 0.354D-01 0.721D-01 0.912D+00
 Coeff:      0.116D-02-0.107D-01-0.982D-02 0.354D-01 0.721D-01 0.912D+00
 Gap=     0.298 Goal=   None    Shift=    0.000
 RMSDP=3.51D-06 MaxDP=6.69D-05 DE=-2.96D-06 OVMax= 1.36D-04

 Cycle   7  Pass 1  IDiag  1:
 E= -157.176047707595     Delta-E=       -0.000000039017 Rises=F Damp=F
 DIIS: error= 7.70D-06 at cycle   7 NSaved=   7.
 NSaved= 7 IEnMin= 7 EnMin= -157.176047707595     IErMin= 7 ErrMin= 7.70D-06
 ErrMax= 7.70D-06  0.00D+00 EMaxC= 1.00D-01 BMatC= 5.02D-09 BMatP= 2.00D-08
 IDIUse=1 WtCom= 1.00D+00 WtEn= 0.00D+00
 Coeff-Com: -0.945D-04 0.354D-02-0.211D-03-0.424D-01-0.319D-01 0.334D+00
 Coeff-Com:  0.737D+00
 Coeff:     -0.945D-04 0.354D-02-0.211D-03-0.424D-01-0.319D-01 0.334D+00
 Coeff:      0.737D+00
 Gap=     0.298 Goal=   None    Shift=    0.000
 RMSDP=1.23D-06 MaxDP=1.92D-05 DE=-3.90D-08 OVMax= 4.29D-05

 Cycle   8  Pass 1  IDiag  1:
 E= -157.176047714509     Delta-E=       -0.000000006914 Rises=F Damp=F
 DIIS: error= 1.51D-06 at cycle   8 NSaved=   8.
 NSaved= 8 IEnMin= 8 EnMin= -157.176047714509     IErMin= 8 ErrMin= 1.51D-06
 ErrMax= 1.51D-06  0.00D+00 EMaxC= 1.00D-01 BMatC= 1.77D-10 BMatP= 5.02D-09
 IDIUse=1 WtCom= 1.00D+00 WtEn= 0.00D+00
 Coeff-Com: -0.113D-03 0.161D-02 0.594D-03-0.119D-01-0.113D-01 0.946D-02
 Coeff-Com:  0.161D+00 0.851D+00
 Coeff:     -0.113D-03 0.161D-02 0.594D-03-0.119D-01-0.113D-01 0.946D-02
 Coeff:      0.161D+00 0.851D+00
 Gap=     0.298 Goal=   None    Shift=    0.000
 RMSDP=1.78D-07 MaxDP=4.72D-06 DE=-6.91D-09 OVMax= 9.86D-06

 Cycle   9  Pass 1  IDiag  1:
 E= -157.176047714801     Delta-E=       -0.000000000292 Rises=F Damp=F
 DIIS: error= 3.76D-07 at cycle   9 NSaved=   9.
 NSaved= 9 IEnMin= 9 EnMin= -157.176047714801     IErMin= 9 ErrMin= 3.76D-07
 ErrMax= 3.76D-07  0.00D+00 EMaxC= 1.00D-01 BMatC= 6.35D-12 BMatP= 1.77D-10
 IDIUse=1 WtCom= 1.00D+00 WtEn= 0.00D+00
 Coeff-Com: -0.246D-05-0.922D-04 0.407D-04 0.174D-02 0.124D-02-0.220D-01
 Coeff-Com: -0.361D-01 0.925D-01 0.963D+00
 Coeff:     -0.246D-05-0.922D-04 0.407D-04 0.174D-02 0.124D-02-0.220D-01
 Coeff:     -0.361D-01 0.925D-01 0.963D+00
 Gap=     0.298 Goal=   None    Shift=    0.000
 RMSDP=7.84D-08 MaxDP=1.40D-06 DE=-2.92D-10 OVMax= 2.35D-06

 Cycle  10  Pass 1  IDiag  1:
 E= -157.176047714814     Delta-E=       -0.000000000013 Rises=F Damp=F
 DIIS: error= 4.09D-08 at cycle  10 NSaved=  10.
 NSaved=10 IEnMin=10 EnMin= -157.176047714814     IErMin=10 ErrMin= 4.09D-08
 ErrMax= 4.09D-08  0.00D+00 EMaxC= 1.00D-01 BMatC= 1.81D-13 BMatP= 6.35D-12
 IDIUse=1 WtCom= 1.00D+00 WtEn= 0.00D+00
 Coeff-Com:  0.335D-05-0.608D-04-0.102D-04 0.567D-03 0.390D-03-0.233D-02
 Coeff-Com: -0.878D-02-0.151D-01 0.925D-01 0.933D+00
 Coeff:      0.335D-05-0.608D-04-0.102D-04 0.567D-03 0.390D-03-0.233D-02
 Coeff:     -0.878D-02-0.151D-01 0.925D-01 0.933D+00
 Gap=     0.298 Goal=   None    Shift=    0.000
 RMSDP=1.69D-08 MaxDP=3.92D-07 DE=-1.34D-11 OVMax= 2.38D-07

 Cycle  11  Pass 1  IDiag  1:
 E= -157.176047714814     Delta-E=        0.000000000000 Rises=F Damp=F
 DIIS: error= 8.94D-09 at cycle  11 NSaved=  11.
 NSaved=11 IEnMin=10 EnMin= -157.176047714814     IErMin=11 ErrMin= 8.94D-09
 ErrMax= 8.94D-09  0.00D+00 EMaxC= 1.00D-01 BMatC= 1.49D-14 BMatP= 1.81D-13
 IDIUse=1 WtCom= 1.00D+00 WtEn= 0.00D+00
 Coeff-Com:  0.919D-06-0.105D-04-0.384D-05 0.591D-04 0.311D-04 0.437D-03
 Coeff-Com: -0.353D-03-0.770D-02-0.219D-01 0.216D+00 0.814D+00
 Coeff:      0.919D-06-0.105D-04-0.384D-05 0.591D-04 0.311D-04 0.437D-03
 Coeff:     -0.353D-03-0.770D-02-0.219D-01 0.216D+00 0.814D+00
 Gap=     0.298 Goal=   None    Shift=    0.000
 RMSDP=3.78D-09 MaxDP=7.63D-08 DE= 0.00D+00 OVMax= 5.16D-08

 SCF Done:  E(RM062X) =  -157.176047715     A.U. after   11 cycles
            NFock= 11  Conv=0.38D-08     -V/T= 2.0047
 KE= 1.564451925160D+02 PE=-6.025857237869D+02 EE= 1.694742480980D+02
 Leave Link  502 at Thu Dec 26 16:33:32 2019, MaxMem=  1342177280 cpu:              62.8 elap:               3.4
 (Enter /apps/cent7/gaussian/g16-A.03/g16-haswell/g16/l701.exe)
 ... and contract with generalized density number  0.
 Compute integral first derivatives.
 Leave Link  701 at Thu Dec 26 16:33:32 2019, MaxMem=  1342177280 cpu:               2.4 elap:               0.1
 (Enter /apps/cent7/gaussian/g16-A.03/g16-haswell/g16/l702.exe)
 L702 exits ... SP integral derivatives will be done elsewhere.
 Leave Link  702 at Thu Dec 26 16:33:32 2019, MaxMem=  1342177280 cpu:               0.8 elap:               0.0
 (Enter /apps/cent7/gaussian/g16-A.03/g16-haswell/g16/l703.exe)
 Integral derivatives from FoFJK, PRISM(SPDF).
 Compute integral first derivatives, UseDBF=F ICtDFT=           0.
 Calling FoFJK, ICntrl=      2127 FMM=F ISym2X=0 I1Cent= 0 IOpClX= 0 NMat=1 NMatS=1 NMatT=0.
 FoFJK:  IHMeth= 1 ICntrl=    2127 DoSepK=F KAlg= 0 I1Cent=           0 FoldK=F
 IRaf=         0 NMat=       1 IRICut=       1 DoRegI=T DoRafI=F ISym2E= 0 IDoP0=0 IntGTp=1.
 FoFCou: FMM=F IPFlag=           0 FMFlag=      100000 FMFlg1=         800
         NFxFlg=           0 DoJE=F BraDBF=F KetDBF=F FulRan=T
         wScrn=  0.000000 ICntrl=      2127 IOpCl=  0 I1Cent=           0 NGrid=           0
         NMat0=    1 NMatS0=      1 NMatT0=    0 NMatD0=    1 NMtDS0=    0 NMtDT0=    0
 Symmetry not used in FoFCou.
 Leave Link  703 at Thu Dec 26 16:33:32 2019, MaxMem=  1342177280 cpu:              14.0 elap:               0.6
 (Enter /apps/cent7/gaussian/g16-A.03/g16-haswell/g16/l716.exe)
 Dipole        = 2.41099678D-02-2.15862388D-01 1.27935719D-02
 ***** Axes restored to original set *****
 -------------------------------------------------------------------
 Center     Atomic                   Forces (Hartrees/Bohr)
 Number     Number              X              Y              Z
 -------------------------------------------------------------------
      1        6           0.004041786    0.001815400   -0.005874807
      2        1          -0.000667093   -0.000809287    0.001229282
      3        1          -0.000638004   -0.000522091    0.001177519
      4        1          -0.001775542   -0.001263157    0.002133762
      5        6           0.000105770    0.002019248   -0.002327463
      6        6           0.001684622   -0.005014594    0.001326147
      7        1           0.001400179    0.002352069    0.001453144
      8        1          -0.001975536    0.000998274   -0.001849555
      9        6          -0.004883225    0.004098817    0.006130704
     10        1           0.001973566   -0.001401030   -0.001090171
     11        1           0.000023325   -0.001409829    0.000314324
     12        1           0.000710152   -0.000863821   -0.002622885
 -------------------------------------------------------------------
 Cartesian Forces:  Max     0.006130704 RMS     0.002476508
 Leave Link  716 at Thu Dec 26 16:33:33 2019, MaxMem=  1342177280 cpu:               0.8 elap:               0.0
 (Enter /apps/cent7/gaussian/g16-A.03/g16-haswell/g16/l103.exe)

 GradGradGradGradGradGradGradGradGradGradGradGradGradGradGradGradGradGrad
 Berny optimization.
 Using GEDIIS/GDIIS optimizer.
 FormGI is forming the generalized inverse of G from B-inverse, IUseBI=4.
 Internal  Forces:  Max     0.003488635 RMS     0.001637026
 Search for a local minimum.
 Step number   2 out of a maximum of   55
 All quantities printed in internal units (Hartrees-Bohrs-Radians)
 RMS Force = .16370D-02 SwitMx=.10000D-02 MixMth= 1
 Mixed Optimization -- RFO/linear search
 Update second derivatives using D2CorX and points    1    2
 DE= -8.99D-03 DEPred=-9.03D-03 R= 9.96D-01
 TightC=F SS=  1.41D+00  RLast= 4.59D-01 DXNew= 5.0454D-01 1.3776D+00
 Trust test= 9.96D-01 RLast= 4.59D-01 DXMaxT set to 5.05D-01
 ITU=  1  0
 Use linear search instead of GDIIS.
     Eigenvalues ---    0.00235   0.00238   0.00880   0.02679   0.03040
     Eigenvalues ---    0.07003   0.07019   0.07142   0.07204   0.15057
     Eigenvalues ---    0.16000   0.16000   0.16000   0.16000   0.16000
     Eigenvalues ---    0.16000   0.16287   0.24180   0.25001   0.27975
     Eigenvalues ---    0.28578   0.36552   0.37230   0.37230   0.37230
     Eigenvalues ---    0.37230   0.37230   0.37230   0.37544   0.53483
 RFO step:  Lambda=-1.63902796D-03 EMin= 2.35110246D-03
 Quartic linear search produced a step of  0.24686.
 Iteration  1 RMS(Cart)=  0.09879284 RMS(Int)=  0.01104348
 Iteration  2 RMS(Cart)=  0.01286277 RMS(Int)=  0.00018535
 Iteration  3 RMS(Cart)=  0.00015994 RMS(Int)=  0.00011352
 Iteration  4 RMS(Cart)=  0.00000004 RMS(Int)=  0.00011352
 ITry= 1 IFail=0 DXMaxC= 3.04D-01 DCOld= 1.00D+10 DXMaxT= 5.05D-01 DXLimC= 3.00D+00 Rises=F
 Variable       Old X    -DE/DX   Delta X   Delta X   Delta X     New X
                                 (Linear)    (Quad)   (Total)
    R1        2.05957   0.00055   0.00927  -0.00630   0.00297   2.06254
    R2        2.06163   0.00053   0.00978  -0.00682   0.00296   2.06459
    R3        2.05717   0.00182   0.00868  -0.00160   0.00708   2.06425
    R4        2.86934  -0.00101  -0.01008   0.00458  -0.00550   2.86383
    R5        2.51989  -0.00200  -0.01014   0.00419  -0.00595   2.51394
    R6        2.86054  -0.00322  -0.01225  -0.00301  -0.01526   2.84528
    R7        2.04766   0.00026   0.00633  -0.00469   0.00164   2.04930
    R8        2.04943   0.00028   0.00677  -0.00501   0.00176   2.05119
    R9        2.06084   0.00157   0.00959  -0.00322   0.00637   2.06721
   R10        2.06531   0.00070   0.01069  -0.00705   0.00364   2.06895
   R11        2.05573   0.00140   0.00832  -0.00266   0.00566   2.06139
    A1        1.89361  -0.00135  -0.00420  -0.00754  -0.01183   1.88178
    A2        1.89753  -0.00208  -0.00324  -0.01188  -0.01528   1.88225
    A3        1.93587   0.00135   0.00623   0.00447   0.01057   1.94644
    A4        1.89647  -0.00200  -0.00350  -0.01191  -0.01551   1.88096
    A5        1.92740   0.00099   0.00414   0.00325   0.00729   1.93469
    A6        1.91223   0.00294   0.00039   0.02270   0.02296   1.93519
    A7        2.11185   0.00149   0.00333   0.00434   0.00765   2.11951
    A8        2.05385  -0.00349  -0.00952  -0.00864  -0.01817   2.03568
    A9        2.11744   0.00200   0.00618   0.00426   0.01042   2.12786
   A10        2.10880   0.00125   0.00258   0.00716   0.00972   2.11852
   A11        2.10609   0.00125   0.00338   0.00643   0.00978   2.11587
   A12        2.06829  -0.00249  -0.00596  -0.01353  -0.01950   2.04878
   A13        1.90938   0.00262  -0.00031   0.02135   0.02083   1.93022
   A14        1.93909  -0.00089   0.00702  -0.01685  -0.00980   1.92928
   A15        1.92012   0.00293   0.00234   0.02269   0.02478   1.94490
   A16        1.88544  -0.00163  -0.00622  -0.01164  -0.01780   1.86765
   A17        1.90382  -0.00184  -0.00168  -0.00540  -0.00753   1.89629
   A18        1.90536  -0.00131  -0.00130  -0.01073  -0.01206   1.89331
    D1       -3.13540   0.00009   0.00153  -0.00729  -0.00570  -3.14110
    D2        0.01560   0.00017   0.00385  -0.00170   0.00214   0.01774
    D3       -1.03545  -0.00007   0.00290  -0.01167  -0.00874  -1.04419
    D4        2.11555   0.00001   0.00522  -0.00608  -0.00089   2.11465
    D5        1.05286  -0.00007   0.00140  -0.01003  -0.00862   1.04424
    D6       -2.07933   0.00001   0.00372  -0.00444  -0.00078  -2.08011
    D7       -3.07522  -0.00214  -0.04942  -0.02497  -0.07432   3.13365
    D8        0.06093  -0.00189  -0.05076  -0.01240  -0.06309  -0.00216
    D9        0.05662  -0.00225  -0.05183  -0.03083  -0.08273  -0.02611
   D10       -3.09041  -0.00201  -0.05317  -0.01827  -0.07151   3.12126
   D11       -0.76951  -0.00019  -0.01222  -0.19898  -0.21099  -0.98049
   D12        1.31061  -0.00109  -0.01575  -0.21018  -0.22594   1.08467
   D13       -2.86059  -0.00136  -0.01141  -0.21956  -0.23112  -3.09171
   D14        2.38152  -0.00011  -0.00989  -0.19337  -0.20308   2.17844
   D15       -1.82155  -0.00100  -0.01342  -0.20457  -0.21804  -2.03959
   D16        0.29044  -0.00128  -0.00908  -0.21395  -0.22322   0.06722
         Item               Value     Threshold  Converged?
 Maximum Force            0.003489     0.000450     NO 
 RMS     Force            0.001637     0.000300     NO 
 Maximum Displacement     0.304304     0.001800     NO 
 RMS     Displacement     0.107493     0.001200     NO 
 Predicted change in Energy=-1.437829D-03
 Lowest energy point so far.  Saving SCF results.
 GradGradGradGradGradGradGradGradGradGradGradGradGradGradGradGradGradGrad

 Leave Link  103 at Thu Dec 26 16:33:33 2019, MaxMem=  1342177280 cpu:               0.7 elap:               0.1
 (Enter /apps/cent7/gaussian/g16-A.03/g16-haswell/g16/l202.exe)
                          Input orientation:                          
 ---------------------------------------------------------------------
 Center     Atomic      Atomic             Coordinates (Angstroms)
 Number     Number       Type             X           Y           Z
 ---------------------------------------------------------------------
      1          6           0       -1.845303   -7.638534   -1.626310
      2          1           0       -1.509308   -8.676949   -1.634236
      3          1           0       -1.491069   -7.179599   -0.700283
      4          1           0       -2.937365   -7.640238   -1.601068
      5          6           0       -1.334174   -6.879555   -2.834350
      6          6           0       -1.626261   -5.595262   -3.021509
      7          1           0       -1.253997   -5.051116   -3.882523
      8          1           0       -2.242952   -5.049516   -2.314374
      9          6           0       -0.501781   -7.658180   -3.818152
     10          1           0        0.357682   -8.114660   -3.318544
     11          1           0       -1.087213   -8.472861   -4.256607
     12          1           0       -0.138066   -7.020619   -4.625095
 ---------------------------------------------------------------------
                    Distance matrix (angstroms):
                    1          2          3          4          5
     1  C    0.000000
     2  H    1.091448   0.000000
     3  H    1.092533   1.764839   0.000000
     4  H    1.092356   1.764998   1.765043   0.000000
     5  C    1.515475   2.168311   2.160760   2.160983   0.000000
     6  C    2.483852   3.381567   2.813625   2.813996   1.330320
     7  H    3.483515   4.273949   3.835791   3.839573   2.109095
     8  H    2.708242   3.762857   2.776306   2.775402   2.108387
     9  C    2.570915   2.611989   3.305879   3.293607   1.505656
    10  H    2.818421   2.576571   3.338789   3.745950   2.149955
    11  H    2.861689   2.663953   3.805662   3.341887   2.149983
    12  H    3.505594   3.683608   4.154520   4.167102   2.158087
                    6          7          8          9         10
     6  C    0.000000
     7  H    1.084445   0.000000
     8  H    1.085444   1.853950   0.000000
     9  C    2.480872   2.714177   3.478240   0.000000
    10  H    3.220501   3.507261   4.143280   1.093919   0.000000
    11  H    3.177517   3.446171   4.102109   1.094841   1.759543
    12  H    2.611102   2.382363   3.695298   1.090840   1.774758
                   11         12
    11  H    0.000000
    12  H    1.773604   0.000000
 Stoichiometry    C4H8
 Framework group  C1[X(C4H8)]
 Deg. of freedom    30
 Full point group                 C1      NOp   1
 RotChk:  IX=0 Diff= 4.57D-02
 Largest Abelian subgroup         C1      NOp   1
 Largest concise Abelian subgroup C1      NOp   1
                         Standard orientation:                         
 ---------------------------------------------------------------------
 Center     Atomic      Atomic             Coordinates (Angstroms)
 Number     Number       Type             X           Y           Z
 ---------------------------------------------------------------------
      1          6           0        1.290683   -0.666727    0.000012
      2          1           0        1.107925   -1.742733   -0.008351
      3          1           0        1.896458   -0.423698   -0.876117
      4          1           0        1.881696   -0.434467    0.888831
      5          6           0       -0.006067    0.117533   -0.006431
      6          6           0       -0.012479    1.447815    0.001315
      7          1           0       -0.940870    2.008144   -0.010663
      8          1           0        0.912896    2.014997    0.014527
      9          6           0       -1.280169   -0.684716    0.001232
     10          1           0       -1.302398   -1.379604   -0.843335
     11          1           0       -1.349621   -1.286647    0.913116
     12          1           0       -2.157894   -0.039431   -0.054776
 ---------------------------------------------------------------------
 Rotational constants (GHZ):           9.2630857           8.2591752           4.6158917
 Leave Link  202 at Thu Dec 26 16:33:33 2019, MaxMem=  1342177280 cpu:               0.8 elap:               0.1
 (Enter /apps/cent7/gaussian/g16-A.03/g16-haswell/g16/l301.exe)
 Standard basis: 6-311++G(d,p) (5D, 7F)
 Ernie: Thresh=  0.10000D-02 Tol=  0.10000D-05 Strict=F.
 There are   148 symmetry adapted cartesian basis functions of A   symmetry.
 There are   144 symmetry adapted basis functions of A   symmetry.
   144 basis functions,   216 primitive gaussians,   148 cartesian basis functions
    16 alpha electrons       16 beta electrons
       nuclear repulsion energy       119.6032909618 Hartrees.
 IExCor= 4336 DFT=T Ex+Corr=M062X ExCW=0 ScaHFX=  0.540000
 ScaDFX=  1.000000  1.000000  1.000000  1.000000 ScalE2=  1.000000  1.000000
 IRadAn=      5 IRanWt=     -1 IRanGd=            0 ICorTp=0 IEmpDi=  4
 NAtoms=   12 NActive=   12 NUniq=   12 SFac= 1.00D+00 NAtFMM=   60 NAOKFM=F Big=F
 Integral buffers will be    131072 words long.
 Raffenetti 2 integral format.
 Two-electron integral symmetry is turned on.
 Leave Link  301 at Thu Dec 26 16:33:33 2019, MaxMem=  1342177280 cpu:               1.2 elap:               0.1
 (Enter /apps/cent7/gaussian/g16-A.03/g16-haswell/g16/l302.exe)
 NPDir=0 NMtPBC=     1 NCelOv=     1 NCel=       1 NClECP=     1 NCelD=      1
         NCelK=      1 NCelE2=     1 NClLst=     1 CellRange=     0.0.
 One-electron integrals computed using PRISM.
 One-electron integral symmetry used in STVInt
 NBasis=   144 RedAO= T EigKep=  2.20D-05  NBF=   144
 NBsUse=   144 1.00D-06 EigRej= -1.00D+00 NBFU=   144
 Precomputing XC quadrature grid using
 IXCGrd= 4 IRadAn=           5 IRanWt=          -1 IRanGd=           0 AccXCQ= 0.00D+00.
 Generated NRdTot=       0 NPtTot=           0 NUsed=           0 NTot=          32
 NSgBfM=   148   148   148   148   148 MxSgAt=    12 MxSgA2=    12.
 Leave Link  302 at Thu Dec 26 16:33:33 2019, MaxMem=  1342177280 cpu:               3.0 elap:               0.1
 (Enter /apps/cent7/gaussian/g16-A.03/g16-haswell/g16/l303.exe)
 DipDrv:  MaxL=1.
 Leave Link  303 at Thu Dec 26 16:33:33 2019, MaxMem=  1342177280 cpu:               0.9 elap:               0.1
 (Enter /apps/cent7/gaussian/g16-A.03/g16-haswell/g16/l401.exe)
 Initial guess from the checkpoint file:  "methylpropene.chk"
 B after Tr=     0.000000    0.000000   -0.000000
         Rot=    0.999946   -0.007549   -0.005550   -0.004451 Ang=  -1.19 deg.
 Guess basis will be translated and rotated to current coordinates.
 JPrj=2 DoOrth=T DoCkMO=T.
 Generating alternative initial guess.
 ExpMin= 3.60D-02 ExpMax= 4.56D+03 ExpMxC= 6.82D+02 IAcc=3 IRadAn=         5 AccDes= 0.00D+00
 Harris functional with IExCor= 1009 and IRadAn=       5 diagonalized for initial guess.
 HarFok:  IExCor= 1009 AccDes= 0.00D+00 IRadAn=         5 IDoV= 1 UseB2=F ITyADJ=14
 ICtDFT=  3500011 ScaDFX=  1.000000  1.000000  1.000000  1.000000
 FoFCou: FMM=F IPFlag=           0 FMFlag=      100000 FMFlg1=           0
         NFxFlg=           0 DoJE=T BraDBF=F KetDBF=T FulRan=T
         wScrn=  0.000000 ICntrl=       500 IOpCl=  0 I1Cent=   200000004 NGrid=           0
         NMat0=    1 NMatS0=      1 NMatT0=    0 NMatD0=    1 NMtDS0=    0 NMtDT0=    0
 Petite list used in FoFCou.
 Harris En= -157.185042047616    
 Leave Link  401 at Thu Dec 26 16:33:33 2019, MaxMem=  1342177280 cpu:               7.4 elap:               0.3
 (Enter /apps/cent7/gaussian/g16-A.03/g16-haswell/g16/l502.exe)
 Keep R1 ints in memory in canonical form, NReq=77925564.
 FoFCou: FMM=F IPFlag=           0 FMFlag=           0 FMFlg1=           0
         NFxFlg=           0 DoJE=F BraDBF=F KetDBF=F FulRan=T
         wScrn=  0.000000 ICntrl=       600 IOpCl=  0 I1Cent=           0 NGrid=           0
         NMat0=    1 NMatS0=  10440 NMatT0=    0 NMatD0=    1 NMtDS0=    0 NMtDT0=    0
 Symmetry not used in FoFCou.
 Two-electron integral symmetry not used.
 Closed shell SCF:
 Using DIIS extrapolation, IDIIS=  1040.
 NGot=  1342177280 LenX=  1287626260 LenY=  1287603915
 Requested convergence on RMS density matrix=1.00D-08 within 128 cycles.
 Requested convergence on MAX density matrix=1.00D-06.
 Requested convergence on             energy=1.00D-06.
 No special actions if energy rises.

 Cycle   1  Pass 1  IDiag  1:
 E= -157.168069217778    
 DIIS: error= 7.26D-03 at cycle   1 NSaved=   1.
 NSaved= 1 IEnMin= 1 EnMin= -157.168069217778     IErMin= 1 ErrMin= 7.26D-03
 ErrMax= 7.26D-03  0.00D+00 EMaxC= 1.00D-01 BMatC= 5.36D-03 BMatP= 5.36D-03
 IDIUse=3 WtCom= 9.27D-01 WtEn= 7.26D-02
 Coeff-Com:  0.100D+01
 Coeff-En:   0.100D+01
 Coeff:      0.100D+01
 Gap=     0.423 Goal=   None    Shift=    0.000
 GapD=    0.423 DampG=2.000 DampE=1.000 DampFc=2.0000 IDamp=-1.
 RMSDP=9.22D-04 MaxDP=1.55D-02              OVMax= 2.76D-02

 Cycle   2  Pass 1  IDiag  1:
 E= -157.176930225279     Delta-E=       -0.008861007501 Rises=F Damp=F
 DIIS: error= 1.53D-03 at cycle   2 NSaved=   2.
 NSaved= 2 IEnMin= 2 EnMin= -157.176930225279     IErMin= 2 ErrMin= 1.53D-03
 ErrMax= 1.53D-03  0.00D+00 EMaxC= 1.00D-01 BMatC= 1.66D-04 BMatP= 5.36D-03
 IDIUse=3 WtCom= 9.85D-01 WtEn= 1.53D-02
 Coeff-Com: -0.175D+00 0.117D+01
 Coeff-En:   0.000D+00 0.100D+01
 Coeff:     -0.172D+00 0.117D+01
 Gap=     0.299 Goal=   None    Shift=    0.000
 RMSDP=2.02D-04 MaxDP=4.42D-03 DE=-8.86D-03 OVMax= 7.83D-03

 Cycle   3  Pass 1  IDiag  1:
 E= -157.177372949454     Delta-E=       -0.000442724175 Rises=F Damp=F
 DIIS: error= 2.36D-04 at cycle   3 NSaved=   3.
 NSaved= 3 IEnMin= 3 EnMin= -157.177372949454     IErMin= 3 ErrMin= 2.36D-04
 ErrMax= 2.36D-04  0.00D+00 EMaxC= 1.00D-01 BMatC= 7.46D-06 BMatP= 1.66D-04
 IDIUse=3 WtCom= 9.98D-01 WtEn= 2.36D-03
 Coeff-Com: -0.323D-01 0.151D+00 0.881D+00
 Coeff-En:   0.000D+00 0.000D+00 0.100D+01
 Coeff:     -0.323D-01 0.151D+00 0.882D+00
 Gap=     0.299 Goal=   None    Shift=    0.000
 RMSDP=4.01D-05 MaxDP=7.71D-04 DE=-4.43D-04 OVMax= 1.25D-03

 Cycle   4  Pass 1  IDiag  1:
 E= -157.177383333067     Delta-E=       -0.000010383613 Rises=F Damp=F
 DIIS: error= 1.43D-04 at cycle   4 NSaved=   4.
 NSaved= 4 IEnMin= 4 EnMin= -157.177383333067     IErMin= 4 ErrMin= 1.43D-04
 ErrMax= 1.43D-04  0.00D+00 EMaxC= 1.00D-01 BMatC= 2.31D-06 BMatP= 7.46D-06
 IDIUse=3 WtCom= 9.99D-01 WtEn= 1.43D-03
 Coeff-Com:  0.102D-01-0.994D-01 0.345D+00 0.744D+00
 Coeff-En:   0.000D+00 0.000D+00 0.000D+00 0.100D+01
 Coeff:      0.101D-01-0.993D-01 0.345D+00 0.745D+00
 Gap=     0.299 Goal=   None    Shift=    0.000
 RMSDP=1.52D-05 MaxDP=3.16D-04 DE=-1.04D-05 OVMax= 5.60D-04

 Cycle   5  Pass 1  IDiag  1:
 E= -157.177385995726     Delta-E=       -0.000002662659 Rises=F Damp=F
 DIIS: error= 2.24D-05 at cycle   5 NSaved=   5.
 NSaved= 5 IEnMin= 5 EnMin= -157.177385995726     IErMin= 5 ErrMin= 2.24D-05
 ErrMax= 2.24D-05  0.00D+00 EMaxC= 1.00D-01 BMatC= 3.96D-08 BMatP= 2.31D-06
 IDIUse=1 WtCom= 1.00D+00 WtEn= 0.00D+00
 Coeff-Com:  0.316D-02-0.266D-01 0.521D-01 0.171D+00 0.800D+00
 Coeff:      0.316D-02-0.266D-01 0.521D-01 0.171D+00 0.800D+00
 Gap=     0.299 Goal=   None    Shift=    0.000
 RMSDP=3.46D-06 MaxDP=4.37D-05 DE=-2.66D-06 OVMax= 1.24D-04

 Cycle   6  Pass 1  IDiag  1:
 E= -157.177386049478     Delta-E=       -0.000000053752 Rises=F Damp=F
 DIIS: error= 1.11D-05 at cycle   6 NSaved=   6.
 NSaved= 6 IEnMin= 6 EnMin= -157.177386049478     IErMin= 6 ErrMin= 1.11D-05
 ErrMax= 1.11D-05  0.00D+00 EMaxC= 1.00D-01 BMatC= 1.20D-08 BMatP= 3.96D-08
 IDIUse=1 WtCom= 1.00D+00 WtEn= 0.00D+00
 Coeff-Com:  0.272D-03-0.698D-03-0.154D-01-0.841D-02 0.351D+00 0.673D+00
 Coeff:      0.272D-03-0.698D-03-0.154D-01-0.841D-02 0.351D+00 0.673D+00
 Gap=     0.299 Goal=   None    Shift=    0.000
 RMSDP=1.38D-06 MaxDP=2.80D-05 DE=-5.38D-08 OVMax= 6.53D-05

 Cycle   7  Pass 1  IDiag  1:
 E= -157.177386064031     Delta-E=       -0.000000014553 Rises=F Damp=F
 DIIS: error= 4.81D-06 at cycle   7 NSaved=   7.
 NSaved= 7 IEnMin= 7 EnMin= -157.177386064031     IErMin= 7 ErrMin= 4.81D-06
[...]
   D10       -3.14158  -0.00000   0.00000  -0.00001  -0.00001   3.14159
   D11       -1.03036  -0.00000   0.00000  -0.00004  -0.00004  -1.03041
   D12        1.03047  -0.00000   0.00000  -0.00006  -0.00006   1.03041
   D13        3.14154   0.00000   0.00000   0.00005   0.00005  -3.14159
   D14        2.11119  -0.00000   0.00000  -0.00001  -0.00001   2.11119
   D15       -2.11116  -0.00000   0.00000  -0.00003  -0.00003  -2.11119
   D16       -0.00009   0.00000   0.00000   0.00009   0.00009  -0.00000
         Item               Value     Threshold  Converged?
 Maximum Force            0.000017     0.000450     YES
 RMS     Force            0.000007     0.000300     YES
 Maximum Displacement     0.000394     0.001800     YES
 RMS     Displacement     0.000117     0.001200     YES
 Predicted change in Energy=-9.141704D-09
 Optimization completed.
    -- Stationary point found.
                           ----------------------------
                           !   Optimized Parameters   !
                           ! (Angstroms and Degrees)  !
 --------------------------                            --------------------------
 ! Name  Definition              Value          Derivative Info.                !
 --------------------------------------------------------------------------------
 ! R1    R(1,2)                  1.0944         -DE/DX =    0.0                 !
 ! R2    R(1,3)                  1.0902         -DE/DX =    0.0                 !
 ! R3    R(1,4)                  1.0944         -DE/DX =    0.0                 !
 ! R4    R(1,5)                  1.5041         -DE/DX =    0.0                 !
 ! R5    R(5,6)                  1.3309         -DE/DX =    0.0                 !
 ! R6    R(5,9)                  1.5041         -DE/DX =    0.0                 !
 ! R7    R(6,7)                  1.0844         -DE/DX =    0.0                 !
 ! R8    R(6,8)                  1.0844         -DE/DX =    0.0                 !
 ! R9    R(9,10)                 1.0944         -DE/DX =    0.0                 !
 ! R10   R(9,11)                 1.0944         -DE/DX =    0.0                 !
 ! R11   R(9,12)                 1.0902         -DE/DX =    0.0                 !
 ! A1    A(2,1,3)              108.5563         -DE/DX =    0.0                 !
 ! A2    A(2,1,4)              106.8872         -DE/DX =    0.0                 !
 ! A3    A(2,1,5)              110.4877         -DE/DX =    0.0                 !
 ! A4    A(3,1,4)              108.5608         -DE/DX =    0.0                 !
 ! A5    A(3,1,5)              111.703          -DE/DX =    0.0                 !
 ! A6    A(4,1,5)              110.4946         -DE/DX =    0.0                 !
 ! A7    A(1,5,6)              122.3048         -DE/DX =    0.0                 !
 ! A8    A(1,5,9)              115.3901         -DE/DX =    0.0                 !
 ! A9    A(6,5,9)              122.3051         -DE/DX =    0.0                 !
 ! A10   A(5,6,7)              121.3755         -DE/DX =    0.0                 !
 ! A11   A(5,6,8)              121.3762         -DE/DX =    0.0                 !
 ! A12   A(7,6,8)              117.2483         -DE/DX =    0.0                 !
 ! A13   A(5,9,10)             110.4944         -DE/DX =    0.0                 !
 ! A14   A(5,9,11)             110.488          -DE/DX =    0.0                 !
 ! A15   A(5,9,12)             111.7031         -DE/DX =    0.0                 !
 ! A16   A(10,9,11)            106.8841         -DE/DX =    0.0                 !
 ! A17   A(10,9,12)            108.5629         -DE/DX =    0.0                 !
 ! A18   A(11,9,12)            108.557          -DE/DX =    0.0                 !
 ! D1    D(2,1,5,6)           -120.953          -DE/DX =    0.0                 !
 ! D2    D(2,1,5,9)             59.0449         -DE/DX =    0.0                 !
 ! D3    D(3,1,5,6)              0.0014         -DE/DX =    0.0                 !
 ! D4    D(3,1,5,9)           -180.0007         -DE/DX =    0.0                 !
 ! D5    D(4,1,5,6)            120.9663         -DE/DX =    0.0                 !
 ! D6    D(4,1,5,9)            -59.0358         -DE/DX =    0.0                 !
 ! D7    D(1,5,6,7)            179.9815         -DE/DX =    0.0                 !
 ! D8    D(1,5,6,8)             -0.0014         -DE/DX =    0.0                 !
 ! D9    D(9,5,6,7)             -0.0162         -DE/DX =    0.0                 !
 ! D10   D(9,5,6,8)            180.0008         -DE/DX =    0.0                 !
 ! D11   D(1,5,9,10)           -59.0354         -DE/DX =    0.0                 !
 ! D12   D(1,5,9,11)            59.0415         -DE/DX =    0.0                 !
 ! D13   D(1,5,9,12)          -180.0029         -DE/DX =    0.0                 !
 ! D14   D(6,5,9,10)           120.9625         -DE/DX =    0.0                 !
 ! D15   D(6,5,9,11)          -120.9606         -DE/DX =    0.0                 !
 ! D16   D(6,5,9,12)            -0.005          -DE/DX =    0.0                 !
 --------------------------------------------------------------------------------
 GradGradGradGradGradGradGradGradGradGradGradGradGradGradGradGradGradGrad

 Leave Link  103 at Thu Dec 26 16:35:05 2019, MaxMem=  1342177280 cpu:               0.4 elap:               0.0
 (Enter /apps/cent7/gaussian/g16-A.03/g16-haswell/g16/l9999.exe)

 ----------------------------------------------------------------------

 Electric dipole moment (input orientation):
 (Debye = 10**-18 statcoulomb cm , SI units = C m)
                  (au)            (Debye)         (10**-30 SI)
   Tot        0.219131D+00      0.556977D+00      0.185787D+01
   x          0.202886D-01      0.515685D-01      0.172014D+00
   y         -0.217564D+00     -0.552993D+00     -0.184459D+01
   z          0.165156D-01      0.419785D-01      0.140025D+00

 Dipole polarizability, Alpha (input orientation).
 (esu units = cm**3 , SI units = C**2 m**2 J**-1)
 Alpha(0;0):
               (au)            (10**-24 esu)      (10**-40 SI)
   iso        0.494860D+02      0.733307D+01      0.815914D+01
   aniso      0.199599D+02      0.295775D+01      0.329094D+01
   xx         0.409148D+02      0.606295D+01      0.674595D+01
   yx        -0.221059D+01     -0.327575D+00     -0.364477D+00
   yy         0.611786D+02      0.906573D+01      0.100870D+02
   zx        -0.395744D+01     -0.586432D+00     -0.652493D+00
   zy        -0.151292D+01     -0.224191D+00     -0.249446D+00
   zz         0.463646D+02      0.687053D+01      0.764450D+01

 ----------------------------------------------------------------------

 Dipole orientation:
     6         -4.40593916         -4.57260519         13.76441157
     1         -3.05860234         -3.59828669         14.99420321
     1         -5.31675984         -3.17652864         12.55367164
     1         -5.84066223         -5.41454887         14.99305733
     6         -3.09202252         -6.58389002         12.24537519
     6         -3.09104882         -6.58324741          9.73041204
     1         -2.13374304         -8.04764851          8.66350691
     1         -4.04707589         -5.11804129          8.66350579
     6         -1.77921959         -8.59587288         13.76440335
     1         -0.34540660         -7.75450227         14.99448742
     1         -3.12743690         -9.57071241         14.99286146
     1         -0.86759288         -9.99140177         12.55368963

 Electric dipole moment (dipole orientation):
 (Debye = 10**-18 statcoulomb cm , SI units = C m)
                  (au)            (Debye)         (10**-30 SI)
   Tot        0.219131D+00      0.556977D+00      0.185787D+01
   x          0.000000D+00      0.000000D+00      0.000000D+00
   y          0.000000D+00      0.000000D+00      0.000000D+00
   z          0.219131D+00      0.556977D+00      0.185787D+01

 Dipole polarizability, Alpha (dipole orientation).
 (esu units = cm**3 , SI units = C**2 m**2 J**-1)
 Alpha(0;0):
               (au)            (10**-24 esu)      (10**-40 SI)
   iso        0.494860D+02      0.733307D+01      0.815914D+01
   aniso      0.199599D+02      0.295775D+01      0.329094D+01
   xx         0.414856D+02      0.614754D+01      0.684006D+01
   yx        -0.453874D+01     -0.672572D+00     -0.748338D+00
   yy         0.454741D+02      0.673857D+01      0.749767D+01
   zx        -0.881548D-02     -0.130632D-02     -0.145348D-02
   zy        -0.576804D-02     -0.854735D-03     -0.951021D-03
   zz         0.614983D+02      0.911311D+01      0.101397D+02

 ----------------------------------------------------------------------
 1\1\GINC-BROWN-A439\Freq\RM062X\6-311++G(d,p)\C4H8\FINEJ\26-Dec-2019\0
 \\#P Geom=AllCheck Guess=TCheck SCRF=Check GenChk RM062X/6-311++G(d,p)
  Freq\\Title Card Required\\0,1\C,-1.8453961434,-7.6326815426,-1.63757
 48299\H,-1.0337732593,-8.1748892017,-1.1426392039\H,-2.3197078942,-6.9
 761994047,-0.90774958\H,-2.5764550097,-8.3802336224,-1.9606295648\C,-1
 .3210488898,-6.8638571284,-2.8192480629\C,-1.4437283788,-5.54244176,-2
 .9192632657\H,-1.0596969113,-5.0031765497,-3.7781033251\H,-1.931597473
 6,-4.9605249515,-2.1451664192\C,-0.6484689992,-7.6912904499,-3.8800653
 28\H,0.2025507637,-8.2356032293,-3.4592047436\H,-1.3401366196,-8.44069
 17847,-4.2771883628\H,-0.2923475848,-7.075498185,-4.7062179742\\Versio
 n=ES64L-G16RevA.03\State=1-A\HF=-157.180771\RMSD=1.908e-09\RMSF=1.221e
 -05\ZeroPoint=0.1084036\Thermal=0.1084036\Dipole=0.0202886,-0.2175642,
 0.0165156\DipoleDeriv=0.0926939,0.0089351,0.0814417,-0.0067659,-0.0172
 064,0.0515076,0.0853806,0.0219359,-0.0294888,-0.0461002,0.0801477,-0.0
 700125,0.0488185,0.0068774,0.0597862,-0.0161964,0.0847079,0.0223016,0.
 0365474,0.0251985,0.0749407,0.0638689,-0.0122366,-0.0974004,0.0652446,
 -0.0244902,-0.0372484,0.0021715,-0.1173022,-0.0064012,-0.0850334,-0.03
 80576,-0.0061281,-0.060458,-0.02929,0.0189865,-0.106998,-0.0597399,-0.
 2039584,-0.059714,0.3614853,-0.0340528,-0.2039437,-0.0340523,0.17009,-
 0.278837,-0.0105195,-0.1445258,-0.010637,-0.282408,0.0014836,-0.144520
 4,0.0015468,-0.0848864,0.115021,-0.0242643,0.0959314,-0.00367,0.025002
 5,0.0414218,0.0907567,0.0800906,-0.0284897,0.1041472,0.055284,0.096509
 1,0.0347975,0.0192586,-0.0296813,0.1016715,-0.0684091,-0.0118597,0.086
 9007,0.0245118,0.0884637,0.04019,-0.0202765,-0.0363545,0.0845165,-0.00
 67822,-0.0206414,-0.0345908,0.1149621,-0.0256088,0.0746696,0.00388,0.0
 08166,-0.0775583,0.0214785,0.0138197,-0.0202864,-0.091957,-0.045256,-0
 .0526011,-0.0408299,-0.0629387,0.0069302,-0.0780138,0.0441815,0.049330
 7,-0.0052563,0.0584761,-0.0439232,-0.005489,0.1041908,0.0681765,0.0312
 781,-0.0567649\Polar=40.9148382,-2.2105877,61.1785519,-3.9574362,-1.51
 29175,46.3646357\Quadrupole=-0.7618649,0.3811669,0.3806979,-0.1718097,
 -0.8452083,-0.0799841\PG=C01 [X(C4H8)]\NImag=0\\0.54281750,-0.02558860
 ,0.55509003,-0.00077534,0.04430729,0.52932759,-0.19372986,0.09822977,-
 0.08671726,0.20957252,0.09961538,-0.10665781,0.05611339,-0.10629585,0.
 11672784,-0.08815389,0.05695644,-0.10025877,0.09584378,-0.06608797,0.1
 0691876,-0.09844680,0.07191803,0.07859383,-0.00969485,0.01362138,0.016
 69190,0.10237438,0.07355648,-0.15057718,-0.11279124,0.00461075,-0.0093
 3085,-0.00993004,-0.07856738,0.16118748,0.07818341,-0.10970254,-0.1671
 2873,-0.00586770,0.00970080,0.01104075,-0.08796401,0.11909235,0.181291
 31,-0.16403467,-0.12029963,-0.05259645,-0.01700552,-0.01703164,-0.0075
 1876,0.01089263,0.01046935,0.00387141,0.17609557,-0.12024040,-0.165549
 61,-0.05801636,0.01114134,0.01167019,0.00472611,-0.01311943,-0.0124729
 6,-0.00463326,0.13344134,0.18115242,-0.05152338,-0.05613593,-0.0710951
 8,-0.00935895,-0.01045725,-0.00523786,-0.01502875,-0.01249616,-0.00640
 132,0.05781259,0.05833013,0.07599533,-0.09526821,-0.02129968,0.0429279
 3,0.01153475,0.01250304,-0.01995856,-0.00646082,-0.00793754,0.01049816
 ,-0.00637751,-0.01116718,0.01935279,0.27153209,-0.02351642,-0.11864085
 ,0.05520726,-0.00574747,-0.01272758,0.01347868,0.00764373,0.01115714,-
 0.01770341,-0.00713948,-0.01574433,0.01923267,-0.06549621,0.85809370,0
 .04348163,0.05102434,-0.17013548,0.00615054,0.00921084,-0.01149555,0.0
 0658739,0.01167977,-0.01730556,-0.00318643,-0.00332181,0.00944019,-0.1
 3435469,-0.04361573,0.45587585,0.00812472,-0.01227837,0.00455602,-0.00
 065898,-0.00139578,0.00186647,-0.00011969,-0.00078893,-0.00061482,-0.0
 0048954,-0.00124569,0.00081905,-0.07181418,0.04680940,0.01860157,0.235
 52546,-0.00010928,-0.02075115,0.00764285,-0.00119181,0.00007536,0.0002
 4044,0.00060150,0.00094056,-0.00150907,0.00048342,0.00031533,0.0009780
 4,0.04681695,-0.55384733,0.03661628,-0.07506124,0.85181059,0.00150458,
 0.03059023,-0.00160133,0.00091734,0.00237247,-0.00251815,-0.00096278,0
 .00111372,0.00098602,0.00128308,0.00248930,-0.00292780,0.01859849,0.03
 661181,-0.09997012,-0.22359344,-0.04512305,0.53976462,0.00998212,0.001
 93027,0.00486469,-0.00080473,-0.00151808,0.00120818,-0.00003650,0.0000
 4269,-0.00029538,0.00037857,0.00127681,-0.00170936,0.00453177,0.002514
 99,-0.00097785,-0.07590142,-0.04862181,0.09135914,0.06895827,0.0025901
 3,-0.00360194,-0.00076969,-0.00047006,-0.00075198,0.00083848,-0.000044
 03,0.00022801,-0.00002118,-0.00019444,-0.00036503,0.00051381,-0.011750
 88,-0.01204088,0.02625898,-0.04608501,-0.12279530,0.10911960,0.0513156
 5,0.12887905,0.00470260,0.00047974,0.00383734,-0.00048929,-0.00046205,
 0.00072722,-0.00027365,-0.00018450,0.00037490,0.00009368,0.00101490,-0
 .00084452,0.00259810,-0.00062198,-0.00039310,0.09071712,0.11388673,-0.
 23340387,-0.09928004,-0.12321002,0.24108973,-0.00607250,-0.00157013,-0
 .00357732,0.00033733,0.00093733,-0.00049149,0.00047130,0.00010033,-0.0
 0014941,0.00002422,-0.00103535,0.00057147,0.00222715,0.00072520,0.0038
 1666,-0.09753352,0.07121685,0.10215641,-0.00177969,0.00571974,0.005532
 78,0.09273966,-0.00000655,0.00081367,-0.00224083,-0.00012469,0.0002902
 1,0.00003846,-0.00049671,-0.00023112,0.00109634,-0.00002394,0.00004714
 ,0.00025515,0.01498222,-0.01325667,-0.02383933,0.06868876,-0.13422553,
 -0.10437745,-0.00677341,0.00957550,0.01085239,-0.07762009,0.14144297,-
 0.00396980,0.00070465,-0.00087025,0.00013598,0.00062336,-0.00019512,0.
 00000014,-0.00002949,0.00041262,-0.00004354,-0.00042452,0.00036184,0.0
 0024160,0.00304701,0.00312775,0.10279583,-0.10915017,-0.20035992,0.008
 65980,-0.01270105,-0.01123285,-0.11185509,0.11670467,0.20476222,-0.003
 98708,0.00625904,0.01189102,0.00044887,0.00015510,-0.00053253,0.000361
 86,-0.00107675,0.00150517,0.00034349,0.00070242,-0.00042561,-0.1055813
 1,0.03447467,0.04838872,0.00474563,0.00599846,0.00634487,-0.00601729,-
 0.00186422,-0.00360840,0.01021020,0.00069802,0.00474645,0.53379367,-0.
 00706178,0.01125166,0.01128156,-0.00020179,0.00014700,0.00014652,-0.00
 193920,-0.00148535,0.00428483,-0.00001654,0.00024606,0.00026698,0.0322
 5895,-0.12408236,-0.04860204,0.01816659,-0.02253323,-0.02637170,-0.000
 30290,0.00084263,-0.00169085,0.00135983,-0.00348186,0.00152317,0.02310
 640,0.55032702,0.01523141,-0.01383375,-0.02210461,-0.00026805,-0.00094
 683,0.00104766,0.00172126,0.00265838,-0.00289637,-0.00041982,-0.000669
 45,0.00105405,0.04894539,-0.05278666,-0.15439784,0.00329082,-0.0034236
 0,0.00355918,-0.00399750,0.00125640,-0.00095442,0.00457956,0.00277086,
 0.00348922,0.00398222,-0.04655757,0.54314104,0.00047638,-0.00002007,-0
 .00054631,-0.00001489,-0.00022951,0.00080521,0.00041392,-0.00011594,0.
 00012164,-0.00011100,0.00007516,-0.00008350,-0.01024444,0.00772997,-0.
 00522635,-0.00063791,-0.00037421,0.00182485,-0.00017229,-0.00003248,-0
 .00012436,0.00056658,0.00041592,0.00023805,-0.20565794,0.10102927,-0.0
 8017936,0.22241606,-0.00071861,0.00018052,0.00070191,0.00005565,0.0005
 7171,-0.00036852,-0.00033015,-0.00010207,-0.00006529,-0.00012617,0.000
 09368,-0.00007477,0.01539045,-0.01347804,0.00634997,0.00124491,-0.0000
 9367,-0.00261953,0.00106859,0.00028034,0.00043676,-0.00131487,-0.00080
 880,-0.00100367,0.10115615,-0.10688597,0.05410354,-0.11296562,0.117395
 52,-0.00027333,-0.00020945,0.00098641,-0.00013734,0.00021244,-0.000456
 18,-0.00031203,-0.00000295,0.00020478,-0.00007837,0.00003418,-0.000071
 19,0.02020395,-0.01174896,0.01104044,0.00083990,-0.00124267,-0.0023702
 4,0.00044638,-0.00013336,0.00032465,-0.00138651,-0.00082072,-0.0005880
 2,-0.07878309,0.05245206,-0.08814141,0.08739333,-0.05445662,0.09343883
 ,0.00044352,0.00018871,-0.00047877,-0.00015958,-0.00012876,-0.00004541
 ,0.00010832,0.00008715,-0.00021453,-0.00003529,-0.00018565,-0.00006334
 ,0.01206330,0.01166018,0.00639015,-0.00114503,0.00116279,0.00119507,0.
 00048510,0.00019858,0.00023032,-0.00117122,0.00030963,-0.00064513,-0.1
 5306961,-0.11636008,-0.05898047,-0.01685920,-0.01791658,-0.00870057,0.
 16588314,-0.00018857,0.00027976,0.00099432,0.00007371,0.00009399,0.000
 03982,0.00030653,0.00001501,0.00024927,0.00022900,0.00060099,-0.000390
 70,-0.01022250,-0.01675808,-0.00726198,0.00147611,0.00015065,-0.002544
 11,-0.00095277,0.00003123,-0.00063512,0.00161701,-0.00040245,0.0005564
 3,-0.11793226,-0.16581479,-0.06295236,0.01042300,0.01174912,0.00612463
 ,0.12581046,0.18185842,-0.00048250,-0.00012429,0.00092041,-0.00005082,
 -0.00006695,-0.00002269,0.00021783,0.00019678,0.00039344,0.00070367,0.
 00034911,-0.00046495,-0.01547394,-0.01598592,-0.00799420,0.00169728,-0
 .00027717,-0.00210720,-0.00032840,-0.00016002,-0.00008342,0.00108568,-
 0.00042577,0.00074357,-0.06001468,-0.06402488,-0.08173831,-0.00833792,
 -0.00885374,-0.00546554,0.06486738,0.07314029,0.08545600,-0.00030512,0
 .00253065,0.00185796,0.00017494,-0.00023260,0.00028512,0.00013626,-0.0
 0038022,0.00092606,0.00031905,0.00035663,-0.00036302,-0.00614259,-0.00
 965855,0.01032864,-0.00009553,-0.00092162,-0.00062761,0.00037609,0.000
 61701,-0.00009884,-0.00001951,-0.00004914,-0.00030429,-0.07559048,-0.0
 5003874,0.06609454,0.00982472,0.01445624,-0.01921232,-0.00654344,-0.01
 063972,0.01611643,0.07786562,0.00166824,-0.00183711,-0.00243046,-0.000
 07954,-0.00010808,-0.00007842,0.00040571,0.00067131,-0.00078884,0.0002
 0873,0.00000612,-0.00002197,0.00592237,0.01132527,-0.01449929,0.000469
 26,0.00095371,-0.00126130,0.00001998,-0.00028163,0.00013400,-0.0001358
 5,0.00023691,0.00014961,-0.05167704,-0.13853083,0.12038104,-0.00593551
 ,-0.00890234,0.00979143,-0.00482643,-0.01180386,0.01623255,0.05396007,
 0.14827053,0.00207460,-0.00405673,-0.00187741,-0.00015823,-0.00021224,
 0.00044992,0.00072887,0.00069338,-0.00097185,0.00007896,0.00012168,0.0
 0019141,0.00642077,0.01488523,-0.01779239,-0.00097579,0.00136139,0.000
 94881,0.00005035,-0.00099195,0.00055834,-0.00028274,-0.00001376,0.0003
 4895,0.06650585,0.11729190,-0.20205819,0.00411473,0.00584996,-0.008902
 51,-0.00355471,-0.00732050,0.01036289,-0.07500266,-0.12760836,0.218742
 04\\-0.00001009,-0.00003802,0.00000384,0.00000560,0.00001002,-0.000001
 23,-0.00000043,0.00000489,0.00000772,0.00000341,0.00001102,-0.00000147
 ,-0.00000037,0.00003406,-0.00000813,-0.00001712,-0.00001186,-0.0000009
 1,0.00001265,0.00000156,0.,0.00000223,-0.00000271,0.00000074,0.0000308
 6,-0.00001785,0.00000253,-0.00001066,0.00000847,-0.00000139,-0.0000109
 7,0.00000090,-0.00000091,-0.00000512,-0.00000049,-0.00000081\\\@


 THEREFORE SHALL EVIL COME UPON THEE...
 THOU SHALT NOT KNOW FROM WHENCE IT RISETH...
 AND MISCHIEF SHALL FALL UPON THEE...
 THOU SHALT NOT BE ABLE TO PUT IT OFF...
 AND DESOLATION SHALL COME UPON THEE SUDDENLY...
 WHICH THOU SHALT NOT KNOW...

                                         ISAIAH 47.11
 Job cpu time:       0 days  0 hours  9 minutes 17.1 seconds.
 Elapsed time:       0 days  0 hours  0 minutes 23.8 seconds.
 File lengths (MBytes):  RWF=     26 Int=      0 D2E=      0 Chk=      3 Scr=      1
 Normal termination of Gaussian 16 at Thu Dec 26 16:35:05 2019.
real 104.27
user 2008.68
sys 25.34
Machine:
brown-a439
brown-a439
brown-a439
brown-a439
brown-a439
brown-a439
brown-a439
brown-a439
brown-a439
brown-a439
brown-a439
brown-a439
brown-a439
brown-a439
brown-a439
brown-a439
brown-a439
brown-a439
brown-a439
brown-a439
brown-a439
brown-a439
brown-a439
brown-a439
