 Entering Gaussian System, Link 0=g16
 Input=methanol.com
 Output=methanol.log
 Initial command:
 /apps/cent7/gaussian/g16-A.03/g16-haswell/g16/l1.exe "/scratch/brown/finej/0062_qm/train2/Gau-412604.inp" -scrdir="/scratch/brown/finej/0062_qm/train2/"
 Entering Link 1 = /apps/cent7/gaussian/g16-A.03/g16-haswell/g16/l1.exe PID=    412605.
  
 Copyright (c) 1988,1990,1992,1993,1995,1998,2003,2009,2016,
            Gaussian, Inc.  All Rights Reserved.
  
 This is part of the Gaussian(R) 16 program.  It is based on
 the Gaussian(R) 09 system (copyright 2009, Gaussian, Inc.),
 the Gaussian(R) 03 system (copyright 2003, Gaussian, Inc.),
 the Gaussian(R) 98 system (copyright 1998, Gaussian, Inc.),
 the Gaussian(R) 94 system (copyright 1995, Gaussian, Inc.),
 the Gaussian 92(TM) system (copyright 1992, Gaussian, Inc.),
 the Gaussian 90(TM) system (copyright 1990, Gaussian, Inc.),
 the Gaussian 88(TM) system (copyright 1988, Gaussian, Inc.),
 the Gaussian 86(TM) system (copyright 1986, Carnegie Mellon
 University), and the Gaussian 82(TM) system (copyright 1983,
 Carnegie Mellon University). Gaussian is a federally registered
 trademark of Gaussian, Inc.
  
 This software contains proprietary and confidential information,
 including trade secrets, belonging to Gaussian, Inc.
  
 This software is provided under written license and may be
 used, copied, transmitted, or stored only in accord with that
 written license.
  
 The following legend is applicable only to US Government
 contracts under FAR:
  
                    RESTRICTED RIGHTS LEGEND
  
 Use, reproduction and disclosure by the US Government is
 subject to restrictions as set forth in subparagraphs (a)
 and (c) of the Commercial Computer Software - Restricted
 Rights clause in FAR 52.227-19.
  
 Gaussian, Inc.
 340 Quinnipiac St., Bldg. 40, Wallingford CT 06492
  
  
 ---------------------------------------------------------------
 Warning -- This program may not be used in any manner that
 competes with the business of Gaussian, Inc. or will provide
 assistance to any competitor of Gaussian, Inc.  The licensee
 of this program is prohibited from giving any competitor of
 Gaussian, Inc. access to this program.  By using this program,
 the user acknowledges that Gaussian, Inc. is engaged in the
 business of creating and licensing software in the field of
 computational chemistry and represents and warrants to the
 licensee that it is not a competitor of Gaussian, Inc. and that
 it will not use this program in any manner prohibited above.
 ---------------------------------------------------------------
  

 Cite this work as:
 Gaussian 16, Revision A.03,
 M. J. Frisch, G. W. Trucks, H. B. Schlegel, G. E. Scuseria, 
 M. A. Robb, J. R. Cheeseman, G. Scalmani, V. Barone, 
 G. A. Petersson, H. Nakatsuji, X. Li, M. Caricato, A. V. Marenich, 
 J. Bloino, B. G. Janesko, R. Gomperts, B. Mennucci, H. P. Hratchian, 
 J. V. Ortiz, A. F. Izmaylov, J. L. Sonnenberg, D. Williams-Young, 
 F. Ding, F. Lipparini, F. Egidi, J. Goings, B. Peng, A. Petrone, 
 T. Henderson, D. Ranasinghe, V. G. Zakrzewski, J. Gao, N. Rega, 
 G. Zheng, W. Liang, M. Hada, M. Ehara, K. Toyota, R. Fukuda, 
 J. Hasegawa, M. Ishida, T. Nakajima, Y. Honda, O. Kitao, H. Nakai, 
 T. Vreven, K. Throssell, J. A. Montgomery, Jr., J. E. Peralta, 
 F. Ogliaro, M. J. Bearpark, J. J. Heyd, E. N. Brothers, K. N. Kudin, 
 V. N. Staroverov, T. A. Keith, R. Kobayashi, J. Normand, 
 K. Raghavachari, A. P. Rendell, J. C. Burant, S. S. Iyengar, 
 J. Tomasi, M. Cossi, J. M. Millam, M. Klene, C. Adamo, R. Cammi, 
 J. W. Ochterski, R. L. Martin, K. Morokuma, O. Farkas, 
 J. B. Foresman, and D. J. Fox, Gaussian, Inc., Wallingford CT, 2016.
 
 ******************************************
 Gaussian 16:  ES64L-G16RevA.03 25-Dec-2016
                13-Oct-2019 
 ******************************************
 %chk=methanol.chk
 %nprocshared=24
 Will use up to   24 processors via shared memory.
 %mem=10GB
 -------------------------------------------------------------------
 #P opt freq m062x/6-311++g(d,p) geom=connectivity temperature=0.001
 -------------------------------------------------------------------
 1/18=20,19=15,26=3,38=1,57=2,112=-1000/1,3;
 2/9=110,12=2,17=6,18=5,40=1/2;
 3/5=4,6=6,7=1111,11=2,25=1,30=1,71=1,74=-55/1,2,3;
 4//1;
 5/5=2,38=5/2;
 6/7=2,8=2,9=2,10=2,28=1/1;
 7//1,2,3,16;
 1/18=20,19=15,26=3/3(2);
 2/9=110/2;
 99//99;
 2/9=110/2;
 3/5=4,6=6,7=1111,11=2,25=1,30=1,71=1,74=-55/1,2,3;
 4/5=5,16=3,69=1/1;
 5/5=2,38=5/2;
 7//1,2,3,16;
 1/18=20,19=15,26=3/3(-5);
 2/9=110/2;
 6/7=2,8=2,9=2,10=2,19=2,28=1/1;
 99/9=1/99;
 Leave Link    1 at Sun Oct 13 19:43:18 2019, MaxMem=  1342177280 cpu:               2.8 elap:               0.5
 (Enter /apps/cent7/gaussian/g16-A.03/g16-haswell/g16/l101.exe)
 -------------------
 Title Card Required
 -------------------
 Symbolic Z-matrix:
 Charge =  0 Multiplicity = 1
 C                    -0.12989   0.07215   0.77283 
 H                     0.22672  -0.93668   0.77291 
 H                     0.22678   0.57659   1.64646 
 H                    -1.19989   0.0722    0.77281 
 O                     0.34684   0.74615  -0.39479 
 H                     0.02689   1.65127  -0.39486 
 
 ITRead=  0  0  0  0  0  0
 MicOpt= -1 -1 -1 -1 -1 -1
 NAtoms=      6 NQM=        6 NQMF=       0 NMMI=      0 NMMIF=      0
                NMic=       0 NMicF=      0.
                    Isotopes and Nuclear Properties:
 (Nuclear quadrupole moments (NQMom) in fm**2, nuclear magnetic moments (NMagM)
  in nuclear magnetons)

  Atom         1           2           3           4           5           6
 IAtWgt=          12           1           1           1          16           1
 AtmWgt=  12.0000000   1.0078250   1.0078250   1.0078250  15.9949146   1.0078250
 NucSpn=           0           1           1           1           0           1
 AtZEff=  -0.0000000  -0.0000000  -0.0000000  -0.0000000  -0.0000000  -0.0000000
 NQMom=    0.0000000   0.0000000   0.0000000   0.0000000   0.0000000   0.0000000
 NMagM=    0.0000000   2.7928460   2.7928460   2.7928460   0.0000000   2.7928460
 AtZNuc=   6.0000000   1.0000000   1.0000000   1.0000000   8.0000000   1.0000000
 Leave Link  101 at Sun Oct 13 19:43:23 2019, MaxMem=  1342177280 cpu:              20.1 elap:               4.2
 (Enter /apps/cent7/gaussian/g16-A.03/g16-haswell/g16/l103.exe)

 GradGradGradGradGradGradGradGradGradGradGradGradGradGradGradGradGradGrad
 Berny optimization.
 Initialization pass.
                           ----------------------------
                           !    Initial Parameters    !
                           ! (Angstroms and Degrees)  !
 --------------------------                            --------------------------
 ! Name  Definition              Value          Derivative Info.                !
 --------------------------------------------------------------------------------
 ! R1    R(1,2)                  1.07           estimate D2E/DX2                !
 ! R2    R(1,3)                  1.07           estimate D2E/DX2                !
 ! R3    R(1,4)                  1.07           estimate D2E/DX2                !
 ! R4    R(1,5)                  1.43           estimate D2E/DX2                !
 ! R5    R(5,6)                  0.96           estimate D2E/DX2                !
 ! A1    A(2,1,3)              109.4712         estimate D2E/DX2                !
 ! A2    A(2,1,4)              109.4712         estimate D2E/DX2                !
 ! A3    A(2,1,5)              109.4712         estimate D2E/DX2                !
 ! A4    A(3,1,4)              109.4712         estimate D2E/DX2                !
 ! A5    A(3,1,5)              109.4712         estimate D2E/DX2                !
 ! A6    A(4,1,5)              109.4712         estimate D2E/DX2                !
 ! A7    A(1,5,6)              109.4712         estimate D2E/DX2                !
 ! D1    D(2,1,5,6)            180.0            estimate D2E/DX2                !
 ! D2    D(3,1,5,6)            -60.0            estimate D2E/DX2                !
 ! D3    D(4,1,5,6)             60.0            estimate D2E/DX2                !
 --------------------------------------------------------------------------------
 Trust Radius=3.00D-01 FncErr=1.00D-07 GrdErr=1.00D-06 EigMax=2.50D+02 EigMin=1.00D-04
 Number of steps in this run=     25 maximum allowed number of steps=    100.
 GradGradGradGradGradGradGradGradGradGradGradGradGradGradGradGradGradGrad

 Leave Link  103 at Sun Oct 13 19:43:23 2019, MaxMem=  1342177280 cpu:               1.4 elap:               0.3
 (Enter /apps/cent7/gaussian/g16-A.03/g16-haswell/g16/l202.exe)
                          Input orientation:                          
 ---------------------------------------------------------------------
 Center     Atomic      Atomic             Coordinates (Angstroms)
 Number     Number       Type             X           Y           Z
 ---------------------------------------------------------------------
      1          6           0       -0.129891    0.072146    0.772833
      2          1           0        0.226722   -0.936678    0.772909
      3          1           0        0.226782    0.576588    1.646459
      4          1           0       -1.199891    0.072203    0.772808
      5          8           0        0.346839    0.746151   -0.394791
      6          1           0        0.026887    1.651265   -0.394859
 ---------------------------------------------------------------------
                    Distance matrix (angstroms):
                    1          2          3          4          5
     1  C    0.000000
     2  H    1.070000   0.000000
     3  H    1.070000   1.747303   0.000000
     4  H    1.070000   1.747303   1.747303   0.000000
     5  O    1.430000   2.051796   2.051796   2.051796   0.000000
     6  H    1.970203   2.846237   2.315570   2.315570   0.960000
                    6
     6  H    0.000000
 Stoichiometry    CH4O
 Framework group  CS[SG(CH2O),X(H2)]
 Deg. of freedom     8
 Full point group                 CS      NOp   2
 Largest Abelian subgroup         CS      NOp   2
 Largest concise Abelian subgroup CS      NOp   2
                         Standard orientation:                         
 ---------------------------------------------------------------------
 Center     Atomic      Atomic             Coordinates (Angstroms)
 Number     Number       Type             X           Y           Z
 ---------------------------------------------------------------------
      1          6           0       -0.050283    0.673333    0.000000
      2          1           0       -1.059089    1.030000    0.000000
      3          1           0        0.454120    1.030000    0.873651
      4          1           0        0.454120    1.030000   -0.873651
      5          8           0       -0.050283   -0.756667   -0.000000
      6          1           0        0.854814   -1.076667   -0.000000
 ---------------------------------------------------------------------
 Rotational constants (GHZ):         132.1289217          24.7246673          23.8518956
 Leave Link  202 at Sun Oct 13 19:43:23 2019, MaxMem=  1342177280 cpu:               2.7 elap:               0.5
 (Enter /apps/cent7/gaussian/g16-A.03/g16-haswell/g16/l301.exe)
 Standard basis: 6-311++G(d,p) (5D, 7F)
 Ernie: Thresh=  0.10000D-02 Tol=  0.10000D-05 Strict=F.
 There are    53 symmetry adapted cartesian basis functions of A'  symmetry.
 There are    21 symmetry adapted cartesian basis functions of A"  symmetry.
 There are    51 symmetry adapted basis functions of A'  symmetry.
 There are    21 symmetry adapted basis functions of A"  symmetry.
    72 basis functions,   108 primitive gaussians,    74 cartesian basis functions
     9 alpha electrons        9 beta electrons
       nuclear repulsion energy        40.4273550289 Hartrees.
 IExCor= 4336 DFT=T Ex+Corr=M062X ExCW=0 ScaHFX=  0.540000
 ScaDFX=  1.000000  1.000000  1.000000  1.000000 ScalE2=  1.000000  1.000000
 IRadAn=      5 IRanWt=     -1 IRanGd=            0 ICorTp=0 IEmpDi=  4
 NAtoms=    6 NActive=    6 NUniq=    5 SFac= 1.44D+00 NAtFMM=   60 NAOKFM=F Big=F
 Integral buffers will be    131072 words long.
 Raffenetti 2 integral format.
 Two-electron integral symmetry is turned on.
 Leave Link  301 at Sun Oct 13 19:43:24 2019, MaxMem=  1342177280 cpu:               2.2 elap:               0.5
 (Enter /apps/cent7/gaussian/g16-A.03/g16-haswell/g16/l302.exe)
 NPDir=0 NMtPBC=     1 NCelOv=     1 NCel=       1 NClECP=     1 NCelD=      1
         NCelK=      1 NCelE2=     1 NClLst=     1 CellRange=     0.0.
 One-electron integrals computed using PRISM.
 One-electron integral symmetry used in STVInt
 NBasis=    72 RedAO= T EigKep=  1.04D-03  NBF=    51    21
 NBsUse=    72 1.00D-06 EigRej= -1.00D+00 NBFU=    51    21
 Precomputing XC quadrature grid using
 IXCGrd= 4 IRadAn=           5 IRanWt=          -1 IRanGd=           0 AccXCQ= 0.00D+00.
 Generated NRdTot=       0 NPtTot=           0 NUsed=           0 NTot=          32
 NSgBfM=    74    74    74    74    74 MxSgAt=     6 MxSgA2=     6.
 Leave Link  302 at Sun Oct 13 19:43:26 2019, MaxMem=  1342177280 cpu:              12.2 elap:               2.5
 (Enter /apps/cent7/gaussian/g16-A.03/g16-haswell/g16/l303.exe)
 DipDrv:  MaxL=1.
 Leave Link  303 at Sun Oct 13 19:43:27 2019, MaxMem=  1342177280 cpu:               1.9 elap:               0.4
 (Enter /apps/cent7/gaussian/g16-A.03/g16-haswell/g16/l401.exe)
 ExpMin= 3.60D-02 ExpMax= 8.59D+03 ExpMxC= 1.30D+03 IAcc=3 IRadAn=         5 AccDes= 0.00D+00
 Harris functional with IExCor= 1009 and IRadAn=       5 diagonalized for initial guess.
 HarFok:  IExCor= 1009 AccDes= 0.00D+00 IRadAn=         5 IDoV= 1 UseB2=F ITyADJ=14
 ICtDFT=  3500011 ScaDFX=  1.000000  1.000000  1.000000  1.000000
 FoFCou: FMM=F IPFlag=           0 FMFlag=      100000 FMFlg1=           0
         NFxFlg=           0 DoJE=T BraDBF=F KetDBF=T FulRan=T
         wScrn=  0.000000 ICntrl=       500 IOpCl=  0 I1Cent=   200000004 NGrid=           0
         NMat0=    1 NMatS0=      1 NMatT0=    0 NMatD0=    1 NMtDS0=    0 NMtDT0=    0
 Petite list used in FoFCou.
 Harris En= -115.683810586740    
 JPrj=0 DoOrth=F DoCkMO=F.
 Initial guess orbital symmetries:
       Occupied  (A') (A') (A') (A') (A') (A") (A') (A') (A")
       Virtual   (A') (A') (A') (A") (A') (A') (A") (A') (A') (A')
                 (A") (A') (A') (A") (A') (A') (A') (A") (A') (A')
                 (A') (A") (A') (A') (A') (A') (A") (A') (A") (A')
                 (A") (A') (A") (A') (A") (A') (A') (A") (A') (A')
                 (A') (A") (A') (A') (A') (A") (A') (A") (A') (A')
                 (A') (A") (A") (A') (A') (A") (A') (A') (A") (A')
                 (A') (A') (A')
 The electronic state of the initial guess is 1-A'.
 Leave Link  401 at Sun Oct 13 19:43:30 2019, MaxMem=  1342177280 cpu:              17.0 elap:               3.5
 (Enter /apps/cent7/gaussian/g16-A.03/g16-haswell/g16/l502.exe)
 Keep R1 ints in memory in symmetry-blocked form, NReq=24992130.
 FoFCou: FMM=F IPFlag=           0 FMFlag=           0 FMFlg1=           0
         NFxFlg=           0 DoJE=F BraDBF=F KetDBF=F FulRan=T
         wScrn=  0.000000 ICntrl=       600 IOpCl=  0 I1Cent=           0 NGrid=           0
         NMat0=    1 NMatS0=   2628 NMatT0=    0 NMatD0=    1 NMtDS0=    0 NMtDT0=    0
 Petite list used in FoFCou.
 Closed shell SCF:
 Using DIIS extrapolation, IDIIS=  1040.
 NGot=  1342177280 LenX=  1340370397 LenY=  1340364480
 Requested convergence on RMS density matrix=1.00D-08 within 128 cycles.
 Requested convergence on MAX density matrix=1.00D-06.
 Requested convergence on             energy=1.00D-06.
 No special actions if energy rises.

 Cycle   1  Pass 1  IDiag  1:
 E= -115.618131389505    
 DIIS: error= 4.33D-02 at cycle   1 NSaved=   1.
 NSaved= 1 IEnMin= 1 EnMin= -115.618131389505     IErMin= 1 ErrMin= 4.33D-02
 ErrMax= 4.33D-02  0.00D+00 EMaxC= 1.00D-01 BMatC= 1.16D-01 BMatP= 1.16D-01
 IDIUse=3 WtCom= 5.67D-01 WtEn= 4.33D-01
 Coeff-Com:  0.100D+01
 Coeff-En:   0.100D+01
 Coeff:      0.100D+01
 Gap=     0.286 Goal=   None    Shift=    0.000
 GapD=    0.286 DampG=1.000 DampE=0.500 DampFc=0.5000 IDamp=-1.
 Damping current iteration by 5.00D-01
 RMSDP=5.22D-03 MaxDP=8.51D-02              OVMax= 1.33D-01

 Cycle   2  Pass 1  IDiag  1:
 E= -115.659225202291     Delta-E=       -0.041093812785 Rises=F Damp=T
 DIIS: error= 9.23D-03 at cycle   2 NSaved=   2.
 NSaved= 2 IEnMin= 2 EnMin= -115.659225202291     IErMin= 2 ErrMin= 9.23D-03
 ErrMax= 9.23D-03  0.00D+00 EMaxC= 1.00D-01 BMatC= 7.10D-03 BMatP= 1.16D-01
 IDIUse=3 WtCom= 9.08D-01 WtEn= 9.23D-02
 Coeff-Com: -0.349D-01 0.103D+01
 Coeff-En:   0.000D+00 0.100D+01
 Coeff:     -0.317D-01 0.103D+01
 Gap=     0.362 Goal=   None    Shift=    0.000
 RMSDP=9.34D-04 MaxDP=1.39D-02 DE=-4.11D-02 OVMax= 7.74D-02

 Cycle   3  Pass 1  IDiag  1:
 E= -115.700967723206     Delta-E=       -0.041742520916 Rises=F Damp=F
 DIIS: error= 5.35D-03 at cycle   3 NSaved=   3.
 NSaved= 3 IEnMin= 3 EnMin= -115.700967723206     IErMin= 3 ErrMin= 5.35D-03
 ErrMax= 5.35D-03  0.00D+00 EMaxC= 1.00D-01 BMatC= 2.33D-03 BMatP= 7.10D-03
 IDIUse=3 WtCom= 9.46D-01 WtEn= 5.35D-02
 Coeff-Com: -0.692D-01 0.355D+00 0.714D+00
 Coeff-En:   0.000D+00 0.000D+00 0.100D+01
 Coeff:     -0.655D-01 0.336D+00 0.730D+00
 Gap=     0.351 Goal=   None    Shift=    0.000
 RMSDP=4.10D-04 MaxDP=8.17D-03 DE=-4.17D-02 OVMax= 1.21D-02

 Cycle   4  Pass 1  IDiag  1:
 E= -115.702292575958     Delta-E=       -0.001324852752 Rises=F Damp=F
 DIIS: error= 2.03D-03 at cycle   4 NSaved=   4.
 NSaved= 4 IEnMin= 4 EnMin= -115.702292575958     IErMin= 4 ErrMin= 2.03D-03
 ErrMax= 2.03D-03  0.00D+00 EMaxC= 1.00D-01 BMatC= 3.48D-04 BMatP= 2.33D-03
 IDIUse=3 WtCom= 9.80D-01 WtEn= 2.03D-02
 Coeff-Com: -0.240D-01 0.700D-01 0.326D+00 0.628D+00
 Coeff-En:   0.000D+00 0.000D+00 0.690D-01 0.931D+00
 Coeff:     -0.235D-01 0.685D-01 0.321D+00 0.634D+00
 Gap=     0.351 Goal=   None    Shift=    0.000
 RMSDP=1.45D-04 MaxDP=3.68D-03 DE=-1.32D-03 OVMax= 4.54D-03

 Cycle   5  Pass 1  IDiag  1:
 E= -115.702562491027     Delta-E=       -0.000269915069 Rises=F Damp=F
 DIIS: error= 3.16D-04 at cycle   5 NSaved=   5.
 NSaved= 5 IEnMin= 5 EnMin= -115.702562491027     IErMin= 5 ErrMin= 3.16D-04
 ErrMax= 3.16D-04  0.00D+00 EMaxC= 1.00D-01 BMatC= 3.35D-06 BMatP= 3.48D-04
 IDIUse=3 WtCom= 9.97D-01 WtEn= 3.16D-03
 Coeff-Com: -0.270D-02 0.337D-02 0.481D-01 0.152D+00 0.799D+00
 Coeff-En:   0.000D+00 0.000D+00 0.000D+00 0.000D+00 0.100D+01
 Coeff:     -0.270D-02 0.336D-02 0.480D-01 0.151D+00 0.800D+00
 Gap=     0.351 Goal=   None    Shift=    0.000
 RMSDP=1.73D-05 MaxDP=3.06D-04 DE=-2.70D-04 OVMax= 3.98D-04

 Cycle   6  Pass 1  IDiag  1:
 E= -115.702564953866     Delta-E=       -0.000002462839 Rises=F Damp=F
 DIIS: error= 1.44D-05 at cycle   6 NSaved=   6.
 NSaved= 6 IEnMin= 6 EnMin= -115.702564953866     IErMin= 6 ErrMin= 1.44D-05
 ErrMax= 1.44D-05  0.00D+00 EMaxC= 1.00D-01 BMatC= 1.83D-08 BMatP= 3.35D-06
 IDIUse=1 WtCom= 1.00D+00 WtEn= 0.00D+00
 Coeff-Com:  0.897D-03-0.179D-02-0.109D-01-0.251D-01-0.841D-01 0.112D+01
 Coeff:      0.897D-03-0.179D-02-0.109D-01-0.251D-01-0.841D-01 0.112D+01
 Gap=     0.351 Goal=   None    Shift=    0.000
 RMSDP=3.35D-06 MaxDP=3.62D-05 DE=-2.46D-06 OVMax= 7.69D-05

 Cycle   7  Pass 1  IDiag  1:
 E= -115.702564988794     Delta-E=       -0.000000034928 Rises=F Damp=F
 DIIS: error= 1.89D-06 at cycle   7 NSaved=   7.
 NSaved= 7 IEnMin= 7 EnMin= -115.702564988794     IErMin= 7 ErrMin= 1.89D-06
 ErrMax= 1.89D-06  0.00D+00 EMaxC= 1.00D-01 BMatC= 3.08D-10 BMatP= 1.83D-08
 IDIUse=1 WtCom= 1.00D+00 WtEn= 0.00D+00
 Coeff-Com: -0.331D-04 0.704D-04-0.116D-04-0.245D-03-0.576D-02-0.555D-01
 Coeff-Com:  0.106D+01
 Coeff:     -0.331D-04 0.704D-04-0.116D-04-0.245D-03-0.576D-02-0.555D-01
 Coeff:      0.106D+01
 Gap=     0.351 Goal=   None    Shift=    0.000
 RMSDP=4.70D-07 MaxDP=7.88D-06 DE=-3.49D-08 OVMax= 1.39D-05

 Cycle   8  Pass 1  IDiag  1:
 E= -115.702564989471     Delta-E=       -0.000000000676 Rises=F Damp=F
 DIIS: error= 3.60D-07 at cycle   8 NSaved=   8.
 NSaved= 8 IEnMin= 8 EnMin= -115.702564989471     IErMin= 8 ErrMin= 3.60D-07
 ErrMax= 3.60D-07  0.00D+00 EMaxC= 1.00D-01 BMatC= 1.07D-11 BMatP= 3.08D-10
 IDIUse=1 WtCom= 1.00D+00 WtEn= 0.00D+00
 Coeff-Com: -0.247D-04 0.503D-04 0.256D-03 0.534D-03 0.168D-02-0.313D-01
 Coeff-Com:  0.287D-01 0.100D+01
 Coeff:     -0.247D-04 0.503D-04 0.256D-03 0.534D-03 0.168D-02-0.313D-01
 Coeff:      0.287D-01 0.100D+01
 Gap=     0.351 Goal=   None    Shift=    0.000
 RMSDP=8.85D-08 MaxDP=1.22D-06 DE=-6.76D-10 OVMax= 2.99D-06

 Cycle   9  Pass 1  IDiag  1:
 E= -115.702564989495     Delta-E=       -0.000000000024 Rises=F Damp=F
 DIIS: error= 8.49D-08 at cycle   9 NSaved=   9.
 NSaved= 9 IEnMin= 9 EnMin= -115.702564989495     IErMin= 9 ErrMin= 8.49D-08
 ErrMax= 8.49D-08  0.00D+00 EMaxC= 1.00D-01 BMatC= 4.81D-13 BMatP= 1.07D-11
 IDIUse=1 WtCom= 1.00D+00 WtEn= 0.00D+00
 Coeff-Com:  0.127D-06 0.490D-06 0.116D-04 0.869D-05 0.136D-03-0.809D-04
 Coeff-Com: -0.289D-01 0.502D-01 0.979D+00
 Coeff:      0.127D-06 0.490D-06 0.116D-04 0.869D-05 0.136D-03-0.809D-04
 Coeff:     -0.289D-01 0.502D-01 0.979D+00
 Gap=     0.351 Goal=   None    Shift=    0.000
 RMSDP=1.61D-08 MaxDP=1.75D-07 DE=-2.40D-11 OVMax= 5.93D-07

 Cycle  10  Pass 1  IDiag  1:
 E= -115.702564989496     Delta-E=       -0.000000000001 Rises=F Damp=F
 DIIS: error= 3.11D-08 at cycle  10 NSaved=  10.
 NSaved=10 IEnMin=10 EnMin= -115.702564989496     IErMin=10 ErrMin= 3.11D-08
 ErrMax= 3.11D-08  0.00D+00 EMaxC= 1.00D-01 BMatC= 3.05D-14 BMatP= 4.81D-13
 IDIUse=1 WtCom= 1.00D+00 WtEn= 0.00D+00
 Coeff-Com:  0.117D-05-0.223D-05-0.776D-05-0.194D-04-0.438D-04 0.157D-02
 Coeff-Com: -0.550D-02-0.393D-01 0.815D-01 0.962D+00
 Coeff:      0.117D-05-0.223D-05-0.776D-05-0.194D-04-0.438D-04 0.157D-02
 Coeff:     -0.550D-02-0.393D-01 0.815D-01 0.962D+00
 Gap=     0.351 Goal=   None    Shift=    0.000
 RMSDP=3.60D-09 MaxDP=3.18D-08 DE=-7.67D-13 OVMax= 1.29D-07

 SCF Done:  E(RM062X) =  -115.702564989     A.U. after   10 cycles
            NFock= 10  Conv=0.36D-08     -V/T= 2.0027
 KE= 1.153856756745D+02 PE=-3.525182645898D+02 EE= 8.100266889697D+01
 Leave Link  502 at Sun Oct 13 19:43:53 2019, MaxMem=  1342177280 cpu:             108.2 elap:              22.6
 (Enter /apps/cent7/gaussian/g16-A.03/g16-haswell/g16/l601.exe)
 Copying SCF densities to generalized density rwf, IOpCl= 0 IROHF=0.

 **********************************************************************

            Population analysis using the SCF density.

 **********************************************************************

 Orbital symmetries:
       Occupied  (A') (A') (A') (A') (A') (A") (A') (A') (A")
       Virtual   (A') (A') (A") (A') (A') (A') (A") (A') (A') (A')
                 (A") (A') (A") (A') (A') (A') (A') (A') (A") (A')
                 (A') (A") (A') (A') (A') (A') (A") (A') (A") (A')
                 (A") (A') (A") (A') (A") (A') (A') (A") (A') (A')
                 (A') (A") (A') (A') (A') (A") (A') (A") (A') (A')
                 (A') (A") (A") (A') (A') (A") (A') (A') (A") (A')
                 (A') (A') (A')
 The electronic state is 1-A'.
 Alpha  occ. eigenvalues --  -19.61837 -10.57358  -1.13846  -0.78451  -0.58451
 Alpha  occ. eigenvalues --   -0.52182  -0.50440  -0.41009  -0.35403
 Alpha virt. eigenvalues --   -0.00308   0.01909   0.03387   0.04038   0.07544
 Alpha virt. eigenvalues --    0.09347   0.10567   0.13320   0.19418   0.21724
 Alpha virt. eigenvalues --    0.21805   0.22139   0.23646   0.24097   0.26929
 Alpha virt. eigenvalues --    0.29479   0.37131   0.45905   0.46420   0.57433
 Alpha virt. eigenvalues --    0.61538   0.69370   0.69975   0.72929   0.91479
 Alpha virt. eigenvalues --    1.00887   1.04855   1.10331   1.19072   1.26486
 Alpha virt. eigenvalues --    1.43207   1.47635   1.50809   1.57776   1.59602
 Alpha virt. eigenvalues --    1.60453   1.73182   1.73941   1.85340   2.04792
 Alpha virt. eigenvalues --    2.07997   2.16021   2.25747   2.43476   2.49289
 Alpha virt. eigenvalues --    2.50088   2.57741   2.59281   2.69574   2.90200
 Alpha virt. eigenvalues --    3.00735   3.13487   3.26479   3.35239   3.80891
 Alpha virt. eigenvalues --    3.88961   3.96799   4.05667   5.13196   5.45126
 Alpha virt. eigenvalues --    5.73568  24.04337  50.00752
          Condensed to atoms (all electrons):
               1          2          3          4          5          6
     1  C    4.954185   0.417228   0.407668   0.407668   0.172198  -0.033919
     2  H    0.417228   0.550003  -0.039468  -0.039468  -0.057429   0.008769
     3  H    0.407668  -0.039468   0.599661  -0.046224  -0.050517  -0.007167
     4  H    0.407668  -0.039468  -0.046224   0.599661  -0.050517  -0.007167
     5  O    0.172198  -0.057429  -0.050517  -0.050517   8.058574   0.296930
     6  H   -0.033919   0.008769  -0.007167  -0.007167   0.296930   0.480746
 Mulliken charges:
               1
     1  C   -0.325029
     2  H    0.160365
     3  H    0.136047
     4  H    0.136047
     5  O   -0.369239
     6  H    0.261808
 Sum of Mulliken charges =  -0.00000
 Mulliken charges with hydrogens summed into heavy atoms:
               1
     1  C    0.107430
     5  O   -0.107430
 Electronic spatial extent (au):  <R**2>=             84.2860
 Charge=              0.0000 electrons
 Dipole moment (field-independent basis, Debye):
    X=              1.5513    Y=              1.2177    Z=             -0.0000  Tot=              1.9722
 Quadrupole moment (field-independent basis, Debye-Ang):
   XX=            -11.7772   YY=            -13.4656   ZZ=            -13.8226
   XY=             -2.3892   XZ=             -0.0000   YZ=             -0.0000
 Traceless Quadrupole moment (field-independent basis, Debye-Ang):
   XX=              1.2446   YY=             -0.4438   ZZ=             -0.8008
   XY=             -2.3892   XZ=             -0.0000   YZ=             -0.0000
 Octapole moment (field-independent basis, Debye-Ang**2):
  XXX=              1.2193  YYY=             -2.9978  ZZZ=             -0.0000  XYY=              2.4801
  XXY=             -1.8108  XXZ=             -0.0000  XZZ=              0.8467  YZZ=             -0.0081
  YYZ=             -0.0000  XYZ=             -0.0000
 Hexadecapole moment (field-independent basis, Debye-Ang**3):
 XXXX=            -19.3061 YYYY=            -63.8791 ZZZZ=            -19.9697 XXXY=             -1.4006
 XXXZ=              0.0000 YYYX=             -2.1046 YYYZ=             -0.0000 ZZZX=              0.0000
 ZZZY=             -0.0000 XXYY=            -12.4711 XXZZ=             -6.8757 YYZZ=            -14.6777
 XXYZ=             -0.0000 YYXZ=             -0.0000 ZZXY=              0.8245
 N-N= 4.042735502887D+01 E-N=-3.525182649110D+02  KE= 1.153856756745D+02
 Symmetry A'   KE= 1.087235700897D+02
 Symmetry A"   KE= 6.662105584837D+00
 No NMR shielding tensors so no spin-rotation constants.
 Leave Link  601 at Sun Oct 13 19:43:58 2019, MaxMem=  1342177280 cpu:              22.0 elap:               4.5
 (Enter /apps/cent7/gaussian/g16-A.03/g16-haswell/g16/l701.exe)
 ... and contract with generalized density number  0.
 Compute integral first derivatives.
 Leave Link  701 at Sun Oct 13 19:44:01 2019, MaxMem=  1342177280 cpu:              17.2 elap:               3.5
 (Enter /apps/cent7/gaussian/g16-A.03/g16-haswell/g16/l702.exe)
 L702 exits ... SP integral derivatives will be done elsewhere.
 Leave Link  702 at Sun Oct 13 19:44:02 2019, MaxMem=  1342177280 cpu:               2.1 elap:               0.4
 (Enter /apps/cent7/gaussian/g16-A.03/g16-haswell/g16/l703.exe)
 Integral derivatives from FoFJK, PRISM(SPDF).
 Compute integral first derivatives, UseDBF=F ICtDFT=           0.
 Calling FoFJK, ICntrl=      2127 FMM=F ISym2X=1 I1Cent= 0 IOpClX= 0 NMat=1 NMatS=1 NMatT=0.
 FoFJK:  IHMeth= 1 ICntrl=    2127 DoSepK=F KAlg= 0 I1Cent=           0 FoldK=F
 IRaf=         0 NMat=       1 IRICut=       1 DoRegI=T DoRafI=F ISym2E= 1 IDoP0=0 IntGTp=1.
 FoFCou: FMM=F IPFlag=           0 FMFlag=      100000 FMFlg1=         800
         NFxFlg=           0 DoJE=F BraDBF=F KetDBF=F FulRan=T
         wScrn=  0.000000 ICntrl=      2127 IOpCl=  0 I1Cent=           0 NGrid=           0
         NMat0=    1 NMatS0=      1 NMatT0=    0 NMatD0=    1 NMtDS0=    0 NMtDT0=    0
 Petite list used in FoFCou.
 Leave Link  703 at Sun Oct 13 19:44:06 2019, MaxMem=  1342177280 cpu:              21.2 elap:               4.4
 (Enter /apps/cent7/gaussian/g16-A.03/g16-haswell/g16/l716.exe)
 Dipole        = 6.10346288D-01 4.79080715D-01-1.01969070D-15
 ***** Axes restored to original set *****
 -------------------------------------------------------------------
 Center     Atomic                   Forces (Hartrees/Bohr)
 Number     Number              X              Y              Z
 -------------------------------------------------------------------
      1        6           0.003948504    0.019579469   -0.017751728
      2        1           0.006218380   -0.010784755   -0.003928252
      3        1           0.004718813    0.004485911    0.016023065
      4        1          -0.016770442   -0.003111391    0.002863696
      5        8           0.002320289   -0.007857218    0.000747178
      6        1          -0.000435545   -0.002312016    0.002046041
 -------------------------------------------------------------------
 Cartesian Forces:  Max     0.019579469 RMS     0.009309906
 Leave Link  716 at Sun Oct 13 19:44:06 2019, MaxMem=  1342177280 cpu:               1.8 elap:               0.4
 (Enter /apps/cent7/gaussian/g16-A.03/g16-haswell/g16/l103.exe)

 GradGradGradGradGradGradGradGradGradGradGradGradGradGradGradGradGradGrad
 Berny optimization.
 FormGI is forming the generalized inverse of G from B-inverse, IUseBI=4.
 Internal  Forces:  Max     0.016769755 RMS     0.008146503
 Search for a local minimum.
 Step number   1 out of a maximum of   25
 All quantities printed in internal units (Hartrees-Bohrs-Radians)
 RMS Force = .81465D-02 SwitMx=.10000D-02 MixMth= 1
 Mixed Optimization -- RFO/linear search
 Second derivative matrix not updated -- first step.
 The second derivative matrix:
                          R1        R2        R3        R4        R5
           R1           0.37230
           R2           0.00000   0.37230
           R3           0.00000   0.00000   0.37230
           R4           0.00000   0.00000   0.00000   0.40989
           R5           0.00000   0.00000   0.00000   0.00000   0.55473
           A1           0.00000   0.00000   0.00000   0.00000   0.00000
           A2           0.00000   0.00000   0.00000   0.00000   0.00000
           A3           0.00000   0.00000   0.00000   0.00000   0.00000
           A4           0.00000   0.00000   0.00000   0.00000   0.00000
           A5           0.00000   0.00000   0.00000   0.00000   0.00000
           A6           0.00000   0.00000   0.00000   0.00000   0.00000
           A7           0.00000   0.00000   0.00000   0.00000   0.00000
           D1           0.00000   0.00000   0.00000   0.00000   0.00000
           D2           0.00000   0.00000   0.00000   0.00000   0.00000
           D3           0.00000   0.00000   0.00000   0.00000   0.00000
                          A1        A2        A3        A4        A5
           A1           0.16000
           A2           0.00000   0.16000
           A3           0.00000   0.00000   0.16000
           A4           0.00000   0.00000   0.00000   0.16000
           A5           0.00000   0.00000   0.00000   0.00000   0.16000
           A6           0.00000   0.00000   0.00000   0.00000   0.00000
           A7           0.00000   0.00000   0.00000   0.00000   0.00000
           D1           0.00000   0.00000   0.00000   0.00000   0.00000
           D2           0.00000   0.00000   0.00000   0.00000   0.00000
           D3           0.00000   0.00000   0.00000   0.00000   0.00000
                          A6        A7        D1        D2        D3
           A6           0.16000
           A7           0.00000   0.16000
           D1           0.00000   0.00000   0.01295
           D2           0.00000   0.00000   0.00000   0.01295
           D3           0.00000   0.00000   0.00000   0.00000   0.01295
 ITU=  0
     Eigenvalues ---    0.01295   0.10344   0.10344   0.16000   0.16000
     Eigenvalues ---    0.16000   0.16000   0.37230   0.37230   0.37230
     Eigenvalues ---    0.40989   0.55473
 RFO step:  Lambda=-3.61625291D-03 EMin= 1.29493787D-02
 Linear search not attempted -- first point.
 Iteration  1 RMS(Cart)=  0.03796364 RMS(Int)=  0.00104842
 Iteration  2 RMS(Cart)=  0.00075614 RMS(Int)=  0.00075737
 Iteration  3 RMS(Cart)=  0.00000117 RMS(Int)=  0.00075736
 Iteration  4 RMS(Cart)=  0.00000000 RMS(Int)=  0.00075736
 ITry= 1 IFail=0 DXMaxC= 7.04D-02 DCOld= 1.00D+10 DXMaxT= 3.00D-01 DXLimC= 3.00D+00 Rises=F
 ClnCor:  largest displacement from symmetrization is 3.90D-09 for atom     4.
 Variable       Old X    -DE/DX   Delta X   Delta X   Delta X     New X
                                 (Linear)    (Quad)   (Total)
    R1        2.02201   0.01224   0.00000   0.03256   0.03256   2.05457
    R2        2.02201   0.01677   0.00000   0.04461   0.04461   2.06662
    R3        2.02201   0.01677   0.00000   0.04461   0.04461   2.06662
    R4        2.70231  -0.00645   0.00000  -0.01559  -0.01559   2.68672
    R5        1.81414  -0.00203   0.00000  -0.00364  -0.00364   1.81050
    A1        1.91063  -0.00091   0.00000  -0.01210  -0.01184   1.89880
    A2        1.91063  -0.00091   0.00000  -0.01210  -0.01184   1.89880
    A3        1.91063  -0.01009   0.00000  -0.06820  -0.06794   1.84270
    A4        1.91063  -0.00176   0.00000   0.00235   0.00071   1.91134
    A5        1.91063   0.00683   0.00000   0.04502   0.04420   1.95483
    A6        1.91063   0.00683   0.00000   0.04502   0.04420   1.95483
    A7        1.91063  -0.00429   0.00000  -0.02622  -0.02622   1.88441
    D1       -3.14159   0.00000   0.00000   0.00000  -0.00000   3.14159
    D2       -1.04720  -0.00311   0.00000  -0.02901  -0.03048  -1.07768
    D3        1.04720   0.00311   0.00000   0.02901   0.03048   1.07768
         Item               Value     Threshold  Converged?
 Maximum Force            0.016770     0.000450     NO 
 RMS     Force            0.008147     0.000300     NO 
 Maximum Displacement     0.070351     0.001800     NO 
 RMS     Displacement     0.038025     0.001200     NO 
 Predicted change in Energy=-1.850814D-03
 Lowest energy point so far.  Saving SCF results.
 GradGradGradGradGradGradGradGradGradGradGradGradGradGradGradGradGradGrad

 Leave Link  103 at Sun Oct 13 19:44:18 2019, MaxMem=  1342177280 cpu:              57.0 elap:              11.9
 (Enter /apps/cent7/gaussian/g16-A.03/g16-haswell/g16/l202.exe)
                          Input orientation:                          
 ---------------------------------------------------------------------
 Center     Atomic      Atomic             Coordinates (Angstroms)
 Number     Number       Type             X           Y           Z
 ---------------------------------------------------------------------
      1          6           0       -0.137744    0.096434    0.771635
      2          1           0        0.243961   -0.920955    0.735680
      3          1           0        0.227848    0.577881    1.682967
      4          1           0       -1.230665    0.062240    0.789818
      5          8           0        0.355902    0.731118   -0.400911
      6          1           0        0.038147    1.634959   -0.403832
 ---------------------------------------------------------------------
                    Distance matrix (angstroms):
                    1          2          3          4          5
     1  C    0.000000
     2  H    1.087232   0.000000
     3  H    1.093607   1.773168   0.000000
     4  H    1.093607   1.773168   1.786298   0.000000
     5  O    1.421750   2.008411   2.093425   2.093425   0.000000
     6  H    1.944150   2.805984   2.346941   2.346941   0.958074
                    6
     6  H    0.000000
 Stoichiometry    CH4O
 Framework group  CS[SG(CH2O),X(H2)]
 Deg. of freedom     8
 Full point group                 CS      NOp   2
 RotChk:  IX=0 Diff= 4.19D-02
 Largest Abelian subgroup         CS      NOp   2
 Largest concise Abelian subgroup CS      NOp   2
                         Standard orientation:                         
 ---------------------------------------------------------------------
 Center     Atomic      Atomic             Coordinates (Angstroms)
 Number     Number       Type             X           Y           Z
 ---------------------------------------------------------------------
      1          6           0       -0.045778    0.665548   -0.000000
      2          1           0       -1.093068    0.957536   -0.000000
      3          1           0        0.434199    1.075282    0.893149
      4          1           0        0.434199    1.075282   -0.893149
      5          8           0       -0.045778   -0.756202    0.000000
      6          1           0        0.865565   -1.051768    0.000000
 ---------------------------------------------------------------------
 Rotational constants (GHZ):         128.0907110          24.8250489          23.9660691
 Leave Link  202 at Sun Oct 13 19:44:19 2019, MaxMem=  1342177280 cpu:               2.3 elap:               0.5
 (Enter /apps/cent7/gaussian/g16-A.03/g16-haswell/g16/l301.exe)
 Standard basis: 6-311++G(d,p) (5D, 7F)
 Ernie: Thresh=  0.10000D-02 Tol=  0.10000D-05 Strict=F.
 There are    53 symmetry adapted cartesian basis functions of A'  symmetry.
 There are    21 symmetry adapted cartesian basis functions of A"  symmetry.
 There are    51 symmetry adapted basis functions of A'  symmetry.
 There are    21 symmetry adapted basis functions of A"  symmetry.
    72 basis functions,   108 primitive gaussians,    74 cartesian basis functions
     9 alpha electrons        9 beta electrons
       nuclear repulsion energy        40.3293753485 Hartrees.
 IExCor= 4336 DFT=T Ex+Corr=M062X ExCW=0 ScaHFX=  0.540000
 ScaDFX=  1.000000  1.000000  1.000000  1.000000 ScalE2=  1.000000  1.000000
 IRadAn=      5 IRanWt=     -1 IRanGd=            0 ICorTp=0 IEmpDi=  4
 NAtoms=    6 NActive=    6 NUniq=    5 SFac= 1.44D+00 NAtFMM=   60 NAOKFM=F Big=F
 Integral buffers will be    131072 words long.
 Raffenetti 2 integral format.
 Two-electron integral symmetry is turned on.
 Leave Link  301 at Sun Oct 13 19:44:19 2019, MaxMem=  1342177280 cpu:               2.4 elap:               0.5
 (Enter /apps/cent7/gaussian/g16-A.03/g16-haswell/g16/l302.exe)
 NPDir=0 NMtPBC=     1 NCelOv=     1 NCel=       1 NClECP=     1 NCelD=      1
         NCelK=      1 NCelE2=     1 NClLst=     1 CellRange=     0.0.
 One-electron integrals computed using PRISM.
 One-electron integral symmetry used in STVInt
 NBasis=    72 RedAO= T EigKep=  1.06D-03  NBF=    51    21
 NBsUse=    72 1.00D-06 EigRej= -1.00D+00 NBFU=    51    21
 Precomputing XC quadrature grid using
 IXCGrd= 4 IRadAn=           5 IRanWt=          -1 IRanGd=           0 AccXCQ= 0.00D+00.
 Generated NRdTot=       0 NPtTot=           0 NUsed=           0 NTot=          32
 NSgBfM=    74    74    74    74    74 MxSgAt=     6 MxSgA2=     6.
 Leave Link  302 at Sun Oct 13 19:44:24 2019, MaxMem=  1342177280 cpu:              24.3 elap:               5.0
 (Enter /apps/cent7/gaussian/g16-A.03/g16-haswell/g16/l303.exe)
 DipDrv:  MaxL=1.
 Leave Link  303 at Sun Oct 13 19:44:25 2019, MaxMem=  1342177280 cpu:               5.2 elap:               1.1
 (Enter /apps/cent7/gaussian/g16-A.03/g16-haswell/g16/l401.exe)
 Initial guess from the checkpoint file:  "methanol.chk"
 B after Tr=     0.000000    0.000000   -0.000000
         Rot=    0.999963    0.000000   -0.000000   -0.008545 Ang=  -0.98 deg.
 Guess basis will be translated and rotated to current coordinates.
 JPrj=2 DoOrth=T DoCkMO=T.
 Initial guess orbital symmetries:
       Occupied  (A') (A') (A') (A') (A') (A") (A') (A') (A")
       Virtual   (A') (A') (A") (A') (A') (A') (A") (A') (A') (A')
                 (A") (A') (A") (A') (A') (A') (A') (A') (A") (A')
                 (A') (A") (A') (A') (A') (A') (A") (A') (A") (A')
                 (A") (A') (A") (A') (A") (A') (A') (A") (A') (A')
                 (A') (A") (A') (A') (A') (A") (A') (A") (A') (A')
                 (A') (A") (A") (A') (A') (A") (A') (A') (A") (A')
                 (A') (A') (A')
 The electronic state of the initial guess is 1-A'.
 Generating alternative initial guess.
 ExpMin= 3.60D-02 ExpMax= 8.59D+03 ExpMxC= 1.30D+03 IAcc=3 IRadAn=         5 AccDes= 0.00D+00
 Harris functional with IExCor= 1009 and IRadAn=       5 diagonalized for initial guess.
 HarFok:  IExCor= 1009 AccDes= 0.00D+00 IRadAn=         5 IDoV= 1 UseB2=F ITyADJ=14
 ICtDFT=  3500011 ScaDFX=  1.000000  1.000000  1.000000  1.000000
 FoFCou: FMM=F IPFlag=           0 FMFlag=      100000 FMFlg1=           0
         NFxFlg=           0 DoJE=T BraDBF=F KetDBF=T FulRan=T
         wScrn=  0.000000 ICntrl=       500 IOpCl=  0 I1Cent=   200000004 NGrid=           0
         NMat0=    1 NMatS0=      1 NMatT0=    0 NMatD0=    1 NMtDS0=    0 NMtDT0=    0
 Petite list used in FoFCou.
 Harris En= -115.681315514419    
 Leave Link  401 at Sun Oct 13 19:44:36 2019, MaxMem=  1342177280 cpu:              48.4 elap:              10.1
 (Enter /apps/cent7/gaussian/g16-A.03/g16-haswell/g16/l502.exe)
 Keep R1 ints in memory in symmetry-blocked form, NReq=24992130.
 FoFCou: FMM=F IPFlag=           0 FMFlag=           0 FMFlg1=           0
         NFxFlg=           0 DoJE=F BraDBF=F KetDBF=F FulRan=T
         wScrn=  0.000000 ICntrl=       600 IOpCl=  0 I1Cent=           0 NGrid=           0
         NMat0=    1 NMatS0=   2628 NMatT0=    0 NMatD0=    1 NMtDS0=    0 NMtDT0=    0
 Petite list used in FoFCou.
 Closed shell SCF:
 Using DIIS extrapolation, IDIIS=  1040.
 NGot=  1342177280 LenX=  1340370397 LenY=  1340364480
 Requested convergence on RMS density matrix=1.00D-08 within 128 cycles.
 Requested convergence on MAX density matrix=1.00D-06.
 Requested convergence on             energy=1.00D-06.
 No special actions if energy rises.

 Cycle   1  Pass 1  IDiag  1:
 E= -115.703581617643    
 DIIS: error= 2.38D-03 at cycle   1 NSaved=   1.
 NSaved= 1 IEnMin= 1 EnMin= -115.703581617643     IErMin= 1 ErrMin= 2.38D-03
 ErrMax= 2.38D-03  0.00D+00 EMaxC= 1.00D-01 BMatC= 5.59D-04 BMatP= 5.59D-04
 IDIUse=3 WtCom= 9.76D-01 WtEn= 2.38D-02
 Coeff-Com:  0.100D+01
 Coeff-En:   0.100D+01
 Coeff:      0.100D+01
 Gap=     0.354 Goal=   None    Shift=    0.000
 GapD=    0.354 DampG=1.000 DampE=1.000 DampFc=1.0000 IDamp=-1.
 RMSDP=4.50D-04 MaxDP=5.64D-03              OVMax= 8.48D-03

 Cycle   2  Pass 1  IDiag  1:
 E= -115.704151794291     Delta-E=       -0.000570176648 Rises=F Damp=F
 DIIS: error= 8.63D-04 at cycle   2 NSaved=   2.
 NSaved= 2 IEnMin= 2 EnMin= -115.704151794291     IErMin= 2 ErrMin= 8.63D-04
 ErrMax= 8.63D-04  0.00D+00 EMaxC= 1.00D-01 BMatC= 6.06D-05 BMatP= 5.59D-04
 IDIUse=3 WtCom= 9.91D-01 WtEn= 8.63D-03
 Coeff-Com:  0.108D+00 0.892D+00
 Coeff-En:   0.000D+00 0.100D+01
 Coeff:      0.107D+00 0.893D+00
 Gap=     0.352 Goal=   None    Shift=    0.000
 RMSDP=1.20D-04 MaxDP=2.80D-03 DE=-5.70D-04 OVMax= 3.34D-03

 Cycle   3  Pass 1  IDiag  1:
 E= -115.704180610651     Delta-E=       -0.000028816359 Rises=F Damp=F
 DIIS: error= 6.34D-04 at cycle   3 NSaved=   3.
 NSaved= 3 IEnMin= 3 EnMin= -115.704180610651     IErMin= 3 ErrMin= 6.34D-04
 ErrMax= 6.34D-04  0.00D+00 EMaxC= 1.00D-01 BMatC= 3.74D-05 BMatP= 6.06D-05
 IDIUse=3 WtCom= 9.94D-01 WtEn= 6.34D-03
 Coeff-Com: -0.376D-01 0.441D+00 0.597D+00
 Coeff-En:   0.000D+00 0.287D+00 0.713D+00
 Coeff:     -0.374D-01 0.440D+00 0.598D+00
 Gap=     0.353 Goal=   None    Shift=    0.000
 RMSDP=4.69D-05 MaxDP=9.07D-04 DE=-2.88D-05 OVMax= 1.46D-03

 Cycle   4  Pass 1  IDiag  1:
 E= -115.704208906783     Delta-E=       -0.000028296132 Rises=F Damp=F
 DIIS: error= 1.10D-04 at cycle   4 NSaved=   4.
 NSaved= 4 IEnMin= 4 EnMin= -115.704208906783     IErMin= 4 ErrMin= 1.10D-04
 ErrMax= 1.10D-04  0.00D+00 EMaxC= 1.00D-01 BMatC= 9.83D-07 BMatP= 3.74D-05
 IDIUse=3 WtCom= 9.99D-01 WtEn= 1.10D-03
 Coeff-Com: -0.163D-01 0.118D+00 0.209D+00 0.689D+00
 Coeff-En:   0.000D+00 0.000D+00 0.000D+00 0.100D+01
 Coeff:     -0.163D-01 0.118D+00 0.209D+00 0.689D+00
 Gap=     0.352 Goal=   None    Shift=    0.000
 RMSDP=1.16D-05 MaxDP=1.86D-04 DE=-2.83D-05 OVMax= 2.95D-04

 Cycle   5  Pass 1  IDiag  1:
 E= -115.704209581954     Delta-E=       -0.000000675171 Rises=F Damp=F
 DIIS: error= 4.23D-05 at cycle   5 NSaved=   5.
 NSaved= 5 IEnMin= 5 EnMin= -115.704209581954     IErMin= 5 ErrMin= 4.23D-05
 ErrMax= 4.23D-05  0.00D+00 EMaxC= 1.00D-01 BMatC= 1.12D-07 BMatP= 9.83D-07
 IDIUse=1 WtCom= 1.00D+00 WtEn= 0.00D+00
 Coeff-Com: -0.149D-02-0.155D-01-0.220D-02 0.248D+00 0.772D+00
 Coeff:     -0.149D-02-0.155D-01-0.220D-02 0.248D+00 0.772D+00
 Gap=     0.352 Goal=   None    Shift=    0.000
 RMSDP=4.33D-06 MaxDP=5.97D-05 DE=-6.75D-07 OVMax= 1.22D-04

 Cycle   6  Pass 1  IDiag  1:
 E= -115.704209687034     Delta-E=       -0.000000105080 Rises=F Damp=F
 DIIS: error= 5.63D-06 at cycle   6 NSaved=   6.
 NSaved= 6 IEnMin= 6 EnMin= -115.704209687034     IErMin= 6 ErrMin= 5.63D-06
 ErrMax= 5.63D-06  0.00D+00 EMaxC= 1.00D-01 BMatC= 2.56D-09 BMatP= 1.12D-07
 IDIUse=1 WtCom= 1.00D+00 WtEn= 0.00D+00
 Coeff-Com:  0.767D-03-0.111D-01-0.135D-01 0.160D-02 0.137D+00 0.885D+00
 Coeff:      0.767D-03-0.111D-01-0.135D-01 0.160D-02 0.137D+00 0.885D+00
 Gap=     0.352 Goal=   None    Shift=    0.000
 RMSDP=9.97D-07 MaxDP=1.02D-05 DE=-1.05D-07 OVMax= 2.55D-05

 Cycle   7  Pass 1  IDiag  1:
 E= -115.704209689961     Delta-E=       -0.000000002927 Rises=F Damp=F
 DIIS: error= 9.56D-07 at cycle   7 NSaved=   7.
 NSaved= 7 IEnMin= 7 EnMin= -115.704209689961     IErMin= 7 ErrMin= 9.56D-07
 ErrMax= 9.56D-07  0.00D+00 EMaxC= 1.00D-01 BMatC= 2.90D-11 BMatP= 2.56D-09
 IDIUse=1 WtCom= 1.00D+00 WtEn= 0.00D+00
 Coeff-Com:  0.375D-04 0.573D-03 0.117D-03-0.502D-02-0.229D-01-0.213D-01
 Coeff-Com:  0.105D+01
 Coeff:      0.375D-04 0.573D-03 0.117D-03-0.502D-02-0.229D-01-0.213D-01
 Coeff:      0.105D+01
 Gap=     0.352 Goal=   None    Shift=    0.000
 RMSDP=1.77D-07 MaxDP=1.64D-06 DE=-2.93D-09 OVMax= 6.45D-06

 Cycle   8  Pass 1  IDiag  1:
 E= -115.704209690033     Delta-E=       -0.000000000072 Rises=F Damp=F
 DIIS: error= 1.74D-07 at cycle   8 NSaved=   8.
 NSaved= 8 IEnMin= 8 EnMin= -115.704209690033     IErMin= 8 ErrMin= 1.74D-07
 ErrMax= 1.74D-07  0.00D+00 EMaxC= 1.00D-01 BMatC= 1.96D-12 BMatP= 2.90D-11
 IDIUse=1 WtCom= 1.00D+00 WtEn= 0.00D+00
 Coeff-Com: -0.202D-04 0.406D-03 0.367D-03-0.454D-03-0.652D-02-0.366D-01
 Coeff-Com:  0.958D-01 0.947D+00
 Coeff:     -0.202D-04 0.406D-03 0.367D-03-0.454D-03-0.652D-02-0.366D-01
 Coeff:      0.958D-01 0.947D+00
 Gap=     0.352 Goal=   None    Shift=    0.000
 RMSDP=2.97D-08 MaxDP=4.20D-07 DE=-7.17D-11 OVMax= 1.02D-06

 Cycle   9  Pass 1  IDiag  1:
 E= -115.704209690036     Delta-E=       -0.000000000003 Rises=F Damp=F
 DIIS: error= 1.80D-08 at cycle   9 NSaved=   9.
 NSaved= 9 IEnMin= 9 EnMin= -115.704209690036     IErMin= 9 ErrMin= 1.80D-08
 ErrMax= 1.80D-08  0.00D+00 EMaxC= 1.00D-01 BMatC= 4.02D-14 BMatP= 1.96D-12
 IDIUse=1 WtCom= 1.00D+00 WtEn= 0.00D+00
 Coeff-Com: -0.142D-05-0.196D-04-0.788D-05 0.218D-03 0.102D-02-0.167D-03
 Coeff-Com: -0.344D-01 0.766D-02 0.103D+01
 Coeff:     -0.142D-05-0.196D-04-0.788D-05 0.218D-03 0.102D-02-0.167D-03
 Coeff:     -0.344D-01 0.766D-02 0.103D+01
 Gap=     0.352 Goal=   None    Shift=    0.000
 RMSDP=6.97D-09 MaxDP=5.53D-08 DE=-2.70D-12 OVMax= 2.18D-07

 SCF Done:  E(RM062X) =  -115.704209690     A.U. after    9 cycles
            NFock=  9  Conv=0.70D-08     -V/T= 2.0034
 KE= 1.153172445807D+02 PE=-3.522558193180D+02 EE= 8.090498969872D+01
 Leave Link  502 at Sun Oct 13 19:45:20 2019, MaxMem=  1342177280 cpu:             213.4 elap:              44.5
 (Enter /apps/cent7/gaussian/g16-A.03/g16-haswell/g16/l701.exe)
 ... and contract with generalized density number  0.
 Compute integral first derivatives.
 Leave Link  701 at Sun Oct 13 19:45:23 2019, MaxMem=  1342177280 cpu:              14.8 elap:               3.1
 (Enter /apps/cent7/gaussian/g16-A.03/g16-haswell/g16/l702.exe)
 L702 exits ... SP integral derivatives will be done elsewhere.
 Leave Link  702 at Sun Oct 13 19:45:23 2019, MaxMem=  1342177280 cpu:               1.7 elap:               0.3
 (Enter /apps/cent7/gaussian/g16-A.03/g16-haswell/g16/l703.exe)
 Integral derivatives from FoFJK, PRISM(SPDF).
 Compute integral first derivatives, UseDBF=F ICtDFT=           0.
 Calling FoFJK, ICntrl=      2127 FMM=F ISym2X=1 I1Cent= 0 IOpClX= 0 NMat=1 NMatS=1 NMatT=0.
 FoFJK:  IHMeth= 1 ICntrl=    2127 DoSepK=F KAlg= 0 I1Cent=           0 FoldK=F
 IRaf=         0 NMat=       1 IRICut=       1 DoRegI=T DoRafI=F ISym2E= 1 IDoP0=0 IntGTp=1.
 FoFCou: FMM=F IPFlag=           0 FMFlag=      100000 FMFlg1=         800
         NFxFlg=           0 DoJE=F BraDBF=F KetDBF=F FulRan=T
         wScrn=  0.000000 ICntrl=      2127 IOpCl=  0 I1Cent=           0 NGrid=           0
         NMat0=    1 NMatS0=      1 NMatT0=    0 NMatD0=    1 NMtDS0=    0 NMtDT0=    0
 Petite list used in FoFCou.
 Leave Link  703 at Sun Oct 13 19:45:28 2019, MaxMem=  1342177280 cpu:              21.8 elap:               4.6
 (Enter /apps/cent7/gaussian/g16-A.03/g16-haswell/g16/l716.exe)
 Dipole        = 6.03860817D-01 4.59429737D-01-1.03418834D-15
 ***** Axes restored to original set *****
 -------------------------------------------------------------------
 Center     Atomic                   Forces (Hartrees/Bohr)
 Number     Number              X              Y              Z
 -------------------------------------------------------------------
      1        6           0.003407656    0.000079214   -0.005610435
      2        1          -0.000646127   -0.001604625    0.001981524
      3        1          -0.000021553    0.000262004    0.000376612
      4        1          -0.000423826    0.000119785    0.000130273
      5        8          -0.002665124   -0.000128026    0.004426062
      6        1           0.000348974    0.001271648   -0.001304035
 -------------------------------------------------------------------
 Cartesian Forces:  Max     0.005610435 RMS     0.002115875
 Leave Link  716 at Sun Oct 13 19:45:28 2019, MaxMem=  1342177280 cpu:               1.8 elap:               0.3
 (Enter /apps/cent7/gaussian/g16-A.03/g16-haswell/g16/l103.exe)

 GradGradGradGradGradGradGradGradGradGradGradGradGradGradGradGradGradGrad
 Berny optimization.
 Using GEDIIS/GDIIS optimizer.
 FormGI is forming the generalized inverse of G from B-inverse, IUseBI=4.
 Internal  Forces:  Max     0.003802517 RMS     0.001577266
 Search for a local minimum.
 Step number   2 out of a maximum of   25
 All quantities printed in internal units (Hartrees-Bohrs-Radians)
 RMS Force = .15773D-02 SwitMx=.10000D-02 MixMth= 1
 Mixed Optimization -- RFO/linear search
 Update second derivatives using D2CorX and points    1    2
 DE= -1.64D-03 DEPred=-1.85D-03 R= 8.89D-01
 TightC=F SS=  1.41D+00  RLast= 1.29D-01 DXNew= 5.0454D-01 3.8705D-01
 Trust test= 8.89D-01 RLast= 1.29D-01 DXMaxT set to 3.87D-01
 The second derivative matrix:
                          R1        R2        R3        R4        R5
           R1           0.36178
           R2          -0.01093   0.36249
           R3          -0.01093  -0.00981   0.36249
           R4           0.01186   0.01512   0.01512   0.40159
           R5          -0.00187  -0.00354  -0.00354  -0.00080   0.55607
           A1           0.00674   0.00927   0.00927  -0.00351  -0.00115
           A2           0.00674   0.00927   0.00927  -0.00351  -0.00115
           A3          -0.00186  -0.00693  -0.00693  -0.00697   0.00486
           A4          -0.00398  -0.00585  -0.00585   0.00137   0.00108
           A5          -0.00326  -0.00211  -0.00211   0.00598  -0.00190
           A6          -0.00326  -0.00211  -0.00211   0.00598  -0.00190
           A7          -0.00538  -0.00959  -0.00959  -0.00118   0.00320
           D1          -0.00000  -0.00000  -0.00000   0.00000   0.00000
           D2          -0.00965  -0.01445  -0.01445   0.00285   0.00288
           D3           0.00965   0.01445   0.01445  -0.00285  -0.00288
                          A1        A2        A3        A4        A5
           A1           0.15898
           A2          -0.00102   0.15898
           A3          -0.00613  -0.00613   0.17588
           A4           0.00003   0.00003   0.00487   0.16041
           A5           0.00396   0.00396  -0.00471  -0.00265   0.16004
           A6           0.00396   0.00396  -0.00471  -0.00265   0.00004
           A7          -0.00240  -0.00240   0.01201   0.00242  -0.00497
           D1           0.00000   0.00000   0.00000  -0.00000  -0.00000
           D2          -0.00029  -0.00029   0.01264   0.00128  -0.00664
           D3           0.00029   0.00029  -0.01264  -0.00128   0.00664
                          A6        A7        D1        D2        D3
           A6           0.16004
           A7          -0.00497   0.16760
           D1          -0.00000   0.00000   0.01295
           D2          -0.00664   0.00652   0.00000   0.01679
           D3           0.00664  -0.00652  -0.00000  -0.00384   0.01679
 ITU=  1  0
 Use linear search instead of GDIIS.
     Eigenvalues ---    0.01295   0.10382   0.10616   0.15547   0.16000
     Eigenvalues ---    0.16000   0.19189   0.33588   0.37230   0.37330
     Eigenvalues ---    0.41130   0.55640
 RFO step:  Lambda=-1.50388150D-04 EMin= 1.29493787D-02
 Quartic linear search produced a step of -0.07654.
 Iteration  1 RMS(Cart)=  0.00807661 RMS(Int)=  0.00007647
 Iteration  2 RMS(Cart)=  0.00005234 RMS(Int)=  0.00005556
 Iteration  3 RMS(Cart)=  0.00000000 RMS(Int)=  0.00005556
 ITry= 1 IFail=0 DXMaxC= 1.61D-02 DCOld= 1.00D+10 DXMaxT= 3.87D-01 DXLimC= 3.00D+00 Rises=F
 ClnCor:  largest displacement from symmetrization is 1.12D-08 for atom     4.
 Variable       Old X    -DE/DX   Delta X   Delta X   Delta X     New X
                                 (Linear)    (Quad)   (Total)
    R1        2.05457   0.00121  -0.00249   0.00690   0.00440   2.05897
    R2        2.06662   0.00042  -0.00341   0.00639   0.00298   2.06959
    R3        2.06662   0.00042  -0.00341   0.00639   0.00298   2.06959
    R4        2.68672  -0.00287   0.00119  -0.00832  -0.00713   2.67959
    R5        1.81050   0.00109   0.00028   0.00137   0.00165   1.81215
    A1        1.89880  -0.00099   0.00091  -0.00540  -0.00454   1.89426
    A2        1.89880  -0.00099   0.00091  -0.00540  -0.00454   1.89426
    A3        1.84270   0.00380   0.00520   0.01554   0.02070   1.86339
    A4        1.91134  -0.00049  -0.00005  -0.00591  -0.00587   1.90547
    A5        1.95483  -0.00062  -0.00338   0.00072  -0.00263   1.95220
    A6        1.95483  -0.00062  -0.00338   0.00072  -0.00263   1.95220
    A7        1.88441   0.00272   0.00201   0.01256   0.01457   1.89898
    D1       -3.14159  -0.00000  -0.00000   0.00000  -0.00000  -3.14159
    D2       -1.07768   0.00079   0.00233   0.00335   0.00580  -1.07188
    D3        1.07768  -0.00079  -0.00233  -0.00335  -0.00580   1.07188
         Item               Value     Threshold  Converged?
 Maximum Force            0.003803     0.000450     NO 
 RMS     Force            0.001577     0.000300     NO 
 Maximum Displacement     0.016087     0.001800     NO 
 RMS     Displacement     0.008048     0.001200     NO 
 Predicted change in Energy=-8.614266D-05
 Lowest energy point so far.  Saving SCF results.
 GradGradGradGradGradGradGradGradGradGradGradGradGradGradGradGradGradGrad

 Leave Link  103 at Sun Oct 13 19:45:39 2019, MaxMem=  1342177280 cpu:              51.2 elap:              10.6
 (Enter /apps/cent7/gaussian/g16-A.03/g16-haswell/g16/l202.exe)
                          Input orientation:                          
 ---------------------------------------------------------------------
 Center     Atomic      Atomic             Coordinates (Angstroms)
 Number     Number       Type             X           Y           Z
 ---------------------------------------------------------------------
      1          6           0       -0.134486    0.093799    0.767836
      2          1           0        0.241444   -0.928582    0.744193
      3          1           0        0.228573    0.577156    1.681059
      4          1           0       -1.229007    0.061844    0.788481
      5          8           0        0.352891    0.735860   -0.398733
      6          1           0        0.038032    1.641600   -0.407479
 ---------------------------------------------------------------------
                    Distance matrix (angstroms):
                    1          2          3          4          5
     1  C    0.000000
     2  H    1.089562   0.000000
     3  H    1.095181   1.773451   0.000000
     4  H    1.095181   1.773451   1.785156   0.000000
     5  O    1.417978   2.022144   2.089539   2.089539   0.000000
     6  H    1.951106   2.823749   2.351880   2.351880   0.958946
                    6
     6  H    0.000000
 Stoichiometry    CH4O
 Framework group  CS[SG(CH2O),X(H2)]
 Deg. of freedom     8
 Full point group                 CS      NOp   2
 RotChk:  IX=0 Diff= 1.07D-02
 Largest Abelian subgroup         CS      NOp   2
 Largest concise Abelian subgroup CS      NOp   2
                         Standard orientation:                         
 ---------------------------------------------------------------------
 Center     Atomic      Atomic             Coordinates (Angstroms)
 Number     Number       Type             X           Y           Z
 ---------------------------------------------------------------------
      1          6           0       -0.046513    0.663406    0.000000
      2          1           0       -1.089766    0.977678   -0.000000
      3          1           0        0.439846    1.071061    0.892578
      4          1           0        0.439846    1.071061   -0.892578
      5          8           0       -0.046513   -0.754571   -0.000000
      6          1           0        0.861253   -1.063666    0.000000
 ---------------------------------------------------------------------
 Rotational constants (GHZ):         128.3170335          24.8587842          24.0007531
 Leave Link  202 at Sun Oct 13 19:45:40 2019, MaxMem=  1342177280 cpu:               2.4 elap:               0.5
 (Enter /apps/cent7/gaussian/g16-A.03/g16-haswell/g16/l301.exe)
 Standard basis: 6-311++G(d,p) (5D, 7F)
 Ernie: Thresh=  0.10000D-02 Tol=  0.10000D-05 Strict=F.
 There are    53 symmetry adapted cartesian basis functions of A'  symmetry.
 There are    21 symmetry adapted cartesian basis functions of A"  symmetry.
 There are    51 symmetry adapted basis functions of A'  symmetry.
 There are    21 symmetry adapted basis functions of A"  symmetry.
    72 basis functions,   108 primitive gaussians,    74 cartesian basis functions
     9 alpha electrons        9 beta electrons
       nuclear repulsion energy        40.3436330965 Hartrees.
 IExCor= 4336 DFT=T Ex+Corr=M062X ExCW=0 ScaHFX=  0.540000
 ScaDFX=  1.000000  1.000000  1.000000  1.000000 ScalE2=  1.000000  1.000000
 IRadAn=      5 IRanWt=     -1 IRanGd=            0 ICorTp=0 IEmpDi=  4
 NAtoms=    6 NActive=    6 NUniq=    5 SFac= 1.44D+00 NAtFMM=   60 NAOKFM=F Big=F
 Integral buffers will be    131072 words long.
 Raffenetti 2 integral format.
 Two-electron integral symmetry is turned on.
 Leave Link  301 at Sun Oct 13 19:45:40 2019, MaxMem=  1342177280 cpu:               3.1 elap:               0.7
 (Enter /apps/cent7/gaussian/g16-A.03/g16-haswell/g16/l302.exe)
 NPDir=0 NMtPBC=     1 NCelOv=     1 NCel=       1 NClECP=     1 NCelD=      1
         NCelK=      1 NCelE2=     1 NClLst=     1 CellRange=     0.0.
 One-electron integrals computed using PRISM.
 One-electron integral symmetry used in STVInt
 NBasis=    72 RedAO= T EigKep=  1.06D-03  NBF=    51    21
 NBsUse=    72 1.00D-06 EigRej= -1.00D+00 NBFU=    51    21
 Precomputing XC quadrature grid using
 IXCGrd= 4 IRadAn=           5 IRanWt=          -1 IRanGd=           0 AccXCQ= 0.00D+00.
 Generated NRdTot=       0 NPtTot=           0 NUsed=           0 NTot=          32
 NSgBfM=    74    74    74    74    74 MxSgAt=     6 MxSgA2=     6.
 Leave Link  302 at Sun Oct 13 19:45:45 2019, MaxMem=  1342177280 cpu:              24.3 elap:               5.0
 (Enter /apps/cent7/gaussian/g16-A.03/g16-haswell/g16/l303.exe)
 DipDrv:  MaxL=1.
 Leave Link  303 at Sun Oct 13 19:45:47 2019, MaxMem=  1342177280 cpu:               6.0 elap:               1.3
 (Enter /apps/cent7/gaussian/g16-A.03/g16-haswell/g16/l401.exe)
 Initial guess from the checkpoint file:  "methanol.chk"
 B after Tr=    -0.000000   -0.000000    0.000000
         Rot=    0.999998   -0.000000   -0.000000    0.002059 Ang=   0.24 deg.
 Guess basis will be translated and rotated to current coordinates.
 JPrj=2 DoOrth=T DoCkMO=T.
 Initial guess orbital symmetries:
       Occupied  (A') (A') (A') (A') (A') (A") (A') (A') (A")
       Virtual   (A') (A') (A") (A') (A') (A') (A") (A') (A') (A')
                 (A") (A') (A") (A') (A') (A') (A') (A') (A") (A')
                 (A') (A") (A') (A') (A') (A') (A") (A') (A") (A')
                 (A") (A') (A") (A') (A") (A') (A") (A') (A') (A')
                 (A') (A") (A') (A') (A') (A") (A") (A') (A') (A')
                 (A') (A") (A") (A') (A') (A") (A') (A') (A") (A')
                 (A') (A') (A')
 The electronic state of the initial guess is 1-A'.
 Leave Link  401 at Sun Oct 13 19:45:52 2019, MaxMem=  1342177280 cpu:              26.1 elap:               5.4
 (Enter /apps/cent7/gaussian/g16-A.03/g16-haswell/g16/l502.exe)
 Keep R1 ints in memory in symmetry-blocked form, NReq=24992130.
 FoFCou: FMM=F IPFlag=           0 FMFlag=           0 FMFlg1=           0
         NFxFlg=           0 DoJE=F BraDBF=F KetDBF=F FulRan=T
         wScrn=  0.000000 ICntrl=       600 IOpCl=  0 I1Cent=           0 NGrid=           0
         NMat0=    1 NMatS0=   2628 NMatT0=    0 NMatD0=    1 NMtDS0=    0 NMtDT0=    0
 Petite list used in FoFCou.
 Closed shell SCF:
 Using DIIS extrapolation, IDIIS=  1040.
 NGot=  1342177280 LenX=  1340370397 LenY=  1340364480
 Requested convergence on RMS density matrix=1.00D-08 within 128 cycles.
 Requested convergence on MAX density matrix=1.00D-06.
 Requested convergence on             energy=1.00D-06.
 No special actions if energy rises.

 Cycle   1  Pass 1  IDiag  1:
 E= -115.704266632772    
 DIIS: error= 5.53D-04 at cycle   1 NSaved=   1.
 NSaved= 1 IEnMin= 1 EnMin= -115.704266632772     IErMin= 1 ErrMin= 5.53D-04
 ErrMax= 5.53D-04  0.00D+00 EMaxC= 1.00D-01 BMatC= 2.87D-05 BMatP= 2.87D-05
 IDIUse=3 WtCom= 9.94D-01 WtEn= 5.53D-03
 Coeff-Com:  0.100D+01
 Coeff-En:   0.100D+01
 Coeff:      0.100D+01
 Gap=     0.351 Goal=   None    Shift=    0.000
 RMSDP=1.23D-04 MaxDP=1.47D-03              OVMax= 2.07D-03

 Cycle   2  Pass 1  IDiag  1:
 E= -115.704299485175     Delta-E=       -0.000032852403 Rises=F Damp=F
 DIIS: error= 1.03D-04 at cycle   2 NSaved=   2.
 NSaved= 2 IEnMin= 2 EnMin= -115.704299485175     IErMin= 2 ErrMin= 1.03D-04
 ErrMax= 1.03D-04  0.00D+00 EMaxC= 1.00D-01 BMatC= 8.26D-07 BMatP= 2.87D-05
 IDIUse=3 WtCom= 9.99D-01 WtEn= 1.03D-03
 Coeff-Com: -0.673D-01 0.107D+01
 Coeff-En:   0.000D+00 0.100D+01
 Coeff:     -0.672D-01 0.107D+01
 Gap=     0.352 Goal=   None    Shift=    0.000
 RMSDP=2.53D-05 MaxDP=2.94D-04 DE=-3.29D-05 OVMax= 4.23D-04

 Cycle   3  Pass 1  IDiag  1:
 E= -115.704300364918     Delta-E=       -0.000000879743 Rises=F Damp=F
 DIIS: error= 7.76D-05 at cycle   3 NSaved=   3.
 NSaved= 3 IEnMin= 3 EnMin= -115.704300364918     IErMin= 3 ErrMin= 7.76D-05
 ErrMax= 7.76D-05  0.00D+00 EMaxC= 1.00D-01 BMatC= 3.11D-07 BMatP= 8.26D-07
 IDIUse=1 WtCom= 1.00D+00 WtEn= 0.00D+00
 Coeff-Com: -0.444D-01 0.415D+00 0.630D+00
 Coeff:     -0.444D-01 0.415D+00 0.630D+00
 Gap=     0.352 Goal=   None    Shift=    0.000
 RMSDP=5.84D-06 MaxDP=1.48D-04 DE=-8.80D-07 OVMax= 1.63D-04

 Cycle   4  Pass 1  IDiag  1:
 E= -115.704300638638     Delta-E=       -0.000000273720 Rises=F Damp=F
 DIIS: error= 1.47D-05 at cycle   4 NSaved=   4.
 NSaved= 4 IEnMin= 4 EnMin= -115.704300638638     IErMin= 4 ErrMin= 1.47D-05
 ErrMax= 1.47D-05  0.00D+00 EMaxC= 1.00D-01 BMatC= 1.73D-08 BMatP= 3.11D-07
 IDIUse=1 WtCom= 1.00D+00 WtEn= 0.00D+00
 Coeff-Com: -0.501D-02 0.300D-02 0.171D+00 0.831D+00
 Coeff:     -0.501D-02 0.300D-02 0.171D+00 0.831D+00
 Gap=     0.352 Goal=   None    Shift=    0.000
 RMSDP=1.73D-06 MaxDP=3.38D-05 DE=-2.74D-07 OVMax= 3.71D-05

 Cycle   5  Pass 1  IDiag  1:
 E= -115.704300652361     Delta-E=       -0.000000013723 Rises=F Damp=F
 DIIS: error= 6.66D-06 at cycle   5 NSaved=   5.
 NSaved= 5 IEnMin= 5 EnMin= -115.704300652361     IErMin= 5 ErrMin= 6.66D-06
 ErrMax= 6.66D-06  0.00D+00 EMaxC= 1.00D-01 BMatC= 2.99D-09 BMatP= 1.73D-08
 IDIUse=1 WtCom= 1.00D+00 WtEn= 0.00D+00
 Coeff-Com:  0.690D-04-0.227D-01 0.399D-01 0.373D+00 0.610D+00
 Coeff:      0.690D-04-0.227D-01 0.399D-01 0.373D+00 0.610D+00
 Gap=     0.352 Goal=   None    Shift=    0.000
 RMSDP=6.41D-07 MaxDP=1.20D-05 DE=-1.37D-08 OVMax= 1.73D-05

 Cycle   6  Pass 1  IDiag  1:
 E= -115.704300654666     Delta-E=       -0.000000002305 Rises=F Damp=F
 DIIS: error= 1.77D-06 at cycle   6 NSaved=   6.
 NSaved= 6 IEnMin= 6 EnMin= -115.704300654666     IErMin= 6 ErrMin= 1.77D-06
 ErrMax= 1.77D-06  0.00D+00 EMaxC= 1.00D-01 BMatC= 1.71D-10 BMatP= 2.99D-09
 IDIUse=1 WtCom= 1.00D+00 WtEn= 0.00D+00
 Coeff-Com:  0.981D-03-0.998D-02-0.121D-01 0.110D-02 0.183D+00 0.837D+00
 Coeff:      0.981D-03-0.998D-02-0.121D-01 0.110D-02 0.183D+00 0.837D+00
 Gap=     0.352 Goal=   None    Shift=    0.000
 RMSDP=2.24D-07 MaxDP=3.79D-06 DE=-2.31D-09 OVMax= 6.03D-06

 Cycle   7  Pass 1  IDiag  1:
 E= -115.704300654835     Delta-E=       -0.000000000169 Rises=F Damp=F
 DIIS: error= 1.43D-07 at cycle   7 NSaved=   7.
 NSaved= 7 IEnMin= 7 EnMin= -115.704300654835     IErMin= 7 ErrMin= 1.43D-07
 ErrMax= 1.43D-07  0.00D+00 EMaxC= 1.00D-01 BMatC= 1.51D-12 BMatP= 1.71D-10
 IDIUse=1 WtCom= 1.00D+00 WtEn= 0.00D+00
 Coeff-Com: -0.847D-04 0.166D-02 0.497D-04-0.144D-01-0.374D-01-0.909D-01
 Coeff-Com:  0.114D+01
 Coeff:     -0.847D-04 0.166D-02 0.497D-04-0.144D-01-0.374D-01-0.909D-01
 Coeff:      0.114D+01
 Gap=     0.352 Goal=   None    Shift=    0.000
 RMSDP=4.84D-08 MaxDP=6.80D-07 DE=-1.69D-10 OVMax= 1.87D-06

 Cycle   8  Pass 1  IDiag  1:
 E= -115.704300654839     Delta-E=       -0.000000000005 Rises=F Damp=F
 DIIS: error= 3.04D-08 at cycle   8 NSaved=   8.
 NSaved= 8 IEnMin= 8 EnMin= -115.704300654839     IErMin= 8 ErrMin= 3.04D-08
 ErrMax= 3.04D-08  0.00D+00 EMaxC= 1.00D-01 BMatC= 5.37D-14 BMatP= 1.51D-12
 IDIUse=1 WtCom= 1.00D+00 WtEn= 0.00D+00
 Coeff-Com: -0.281D-04 0.367D-03 0.259D-03-0.133D-02-0.759D-02-0.307D-01
 Coeff-Com:  0.109D+00 0.930D+00
 Coeff:     -0.281D-04 0.367D-03 0.259D-03-0.133D-02-0.759D-02-0.307D-01
 Coeff:      0.109D+00 0.930D+00
 Gap=     0.352 Goal=   None    Shift=    0.000
 RMSDP=5.09D-09 MaxDP=7.50D-08 DE=-4.66D-12 OVMax= 1.81D-07

 SCF Done:  E(RM062X) =  -115.704300655     A.U. after    8 cycles
            NFock=  8  Conv=0.51D-08     -V/T= 2.0034
 KE= 1.153110775279D+02 PE=-3.522787925915D+02 EE= 8.091978131224D+01
 Leave Link  502 at Sun Oct 13 19:46:14 2019, MaxMem=  1342177280 cpu:             106.8 elap:              22.3
 (Enter /apps/cent7/gaussian/g16-A.03/g16-haswell/g16/l701.exe)
 ... and contract with generalized density number  0.
 Compute integral first derivatives.
 Leave Link  701 at Sun Oct 13 19:46:17 2019, MaxMem=  1342177280 cpu:              11.2 elap:               2.3
 (Enter /apps/cent7/gaussian/g16-A.03/g16-haswell/g16/l702.exe)
 L702 exits ... SP integral derivatives will be done elsewhere.
 Leave Link  702 at Sun Oct 13 19:46:17 2019, MaxMem=  1342177280 cpu:               2.0 elap:               0.4
 (Enter /apps/cent7/gaussian/g16-A.03/g16-haswell/g16/l703.exe)
 Integral derivatives from FoFJK, PRISM(SPDF).
 Compute integral first derivatives, UseDBF=F ICtDFT=           0.
 Calling FoFJK, ICntrl=      2127 FMM=F ISym2X=1 I1Cent= 0 IOpClX= 0 NMat=1 NMatS=1 NMatT=0.
 FoFJK:  IHMeth= 1 ICntrl=    2127 DoSepK=F KAlg= 0 I1Cent=           0 FoldK=F
 IRaf=         0 NMat=       1 IRICut=       1 DoRegI=T DoRafI=F ISym2E= 1 IDoP0=0 IntGTp=1.
 FoFCou: FMM=F IPFlag=           0 FMFlag=      100000 FMFlg1=         800
         NFxFlg=           0 DoJE=F BraDBF=F KetDBF=F FulRan=T
         wScrn=  0.000000 ICntrl=      2127 IOpCl=  0 I1Cent=           0 NGrid=           0
         NMat0=    1 NMatS0=      1 NMatT0=    0 NMatD0=    1 NMtDS0=    0 NMtDT0=    0
 Petite list used in FoFCou.
 Leave Link  703 at Sun Oct 13 19:46:19 2019, MaxMem=  1342177280 cpu:              11.4 elap:               2.3
 (Enter /apps/cent7/gaussian/g16-A.03/g16-haswell/g16/l716.exe)
 Dipole        = 6.04501344D-01 4.48269660D-01 3.32179196D-16
 ***** Axes restored to original set *****
 -------------------------------------------------------------------
 Center     Atomic                   Forces (Hartrees/Bohr)
 Number     Number              X              Y              Z
 -------------------------------------------------------------------
      1        6           0.000723909    0.001039079   -0.001782036
      2        1          -0.000210455    0.000432252    0.000094120
      3        1          -0.000225045   -0.000320489   -0.000126973
      4        1           0.000329766   -0.000124341    0.000212777
      5        8          -0.000657115   -0.000849746    0.001563653
      6        1           0.000038939   -0.000176755    0.000038458
 -------------------------------------------------------------------
 Cartesian Forces:  Max     0.001782036 RMS     0.000706771
 Leave Link  716 at Sun Oct 13 19:46:20 2019, MaxMem=  1342177280 cpu:               1.5 elap:               0.3
 (Enter /apps/cent7/gaussian/g16-A.03/g16-haswell/g16/l103.exe)

 GradGradGradGradGradGradGradGradGradGradGradGradGradGradGradGradGradGrad
 Berny optimization.
 Using GEDIIS/GDIIS optimizer.
 FormGI is forming the generalized inverse of G from B-inverse, IUseBI=4.
 Internal  Forces:  Max     0.001994724 RMS     0.000564379
 Search for a local minimum.
 Step number   3 out of a maximum of   25
 All quantities printed in internal units (Hartrees-Bohrs-Radians)
 RMS Force = .56438D-03 SwitMx=.10000D-02 MixMth= 2
 Mixed Optimization -- En-DIIS/RFO-DIIS
 Update second derivatives using D2CorX and points    1    2    3
 DE= -9.10D-05 DEPred=-8.61D-05 R= 1.06D+00
 TightC=F SS=  1.41D+00  RLast= 2.98D-02 DXNew= 6.5094D-01 8.9391D-02
 Trust test= 1.06D+00 RLast= 2.98D-02 DXMaxT set to 3.87D-01
 The second derivative matrix:
                          R1        R2        R3        R4        R5
           R1           0.37586
           R2          -0.00124   0.36923
           R3          -0.00124  -0.00307   0.36923
           R4           0.02799   0.02563   0.02563   0.35121
           R5           0.00453   0.00080   0.00080   0.00926   0.55894
           A1           0.00347   0.00700   0.00700  -0.01291  -0.00245
           A2           0.00347   0.00700   0.00700  -0.01291  -0.00245
           A3           0.00859   0.00025   0.00025   0.03554   0.00866
           A4           0.00095  -0.00264  -0.00264  -0.01362   0.00414
           A5          -0.00727  -0.00477  -0.00477   0.00191  -0.00384
           A6          -0.00727  -0.00477  -0.00477   0.00191  -0.00384
           A7           0.00531  -0.00227  -0.00227   0.02734   0.00758
           D1           0.00000   0.00000   0.00000  -0.00000   0.00000
           D2          -0.00196  -0.00931  -0.00931   0.00163   0.00684
           D3           0.00196   0.00931   0.00931  -0.00163  -0.00684
                          A1        A2        A3        A4        A5
           A1           0.15930
           A2          -0.00070   0.15930
           A3          -0.00618  -0.00618   0.17099
           A4          -0.00280  -0.00280   0.01768   0.15595
           A5           0.00498   0.00498  -0.00824  -0.00390   0.16130
           A6           0.00498   0.00498  -0.00824  -0.00390   0.00130
           A7          -0.00364  -0.00364   0.01332   0.01104  -0.00835
           D1          -0.00000  -0.00000   0.00000  -0.00000  -0.00000
           D2          -0.00294  -0.00294   0.02302   0.00097  -0.00884
           D3           0.00294   0.00294  -0.02302  -0.00097   0.00884
                          A6        A7        D1        D2        D3
           A6           0.16130
           A7          -0.00835   0.17227
           D1          -0.00000   0.00000   0.01295
           D2          -0.00884   0.01488   0.00000   0.01959
           D3           0.00884  -0.01488  -0.00000  -0.00664   0.01959
 ITU=  1  1  0
 Use linear search instead of GDIIS.
     Eigenvalues ---    0.01295   0.10493   0.10502   0.13910   0.16000
     Eigenvalues ---    0.16012   0.20281   0.32406   0.37230   0.37402
     Eigenvalues ---    0.41063   0.56048
 RFO step:  Lambda=-1.45029317D-05 EMin= 1.29493787D-02
 Quartic linear search produced a step of  0.06142.
 Iteration  1 RMS(Cart)=  0.00143500 RMS(Int)=  0.00000308
 Iteration  2 RMS(Cart)=  0.00000222 RMS(Int)=  0.00000221
 Iteration  3 RMS(Cart)=  0.00000000 RMS(Int)=  0.00000221
 ITry= 1 IFail=0 DXMaxC= 2.77D-03 DCOld= 1.00D+10 DXMaxT= 3.87D-01 DXLimC= 3.00D+00 Rises=F
 ClnCor:  largest displacement from symmetrization is 1.90D-09 for atom     4.
 Variable       Old X    -DE/DX   Delta X   Delta X   Delta X     New X
                                 (Linear)    (Quad)   (Total)
    R1        2.05897  -0.00048   0.00027  -0.00102  -0.00075   2.05822
    R2        2.06959  -0.00032   0.00018  -0.00054  -0.00035   2.06924
    R3        2.06959  -0.00032   0.00018  -0.00054  -0.00035   2.06924
    R4        2.67959  -0.00199  -0.00044  -0.00557  -0.00601   2.67358
    R5        1.81215  -0.00018   0.00010  -0.00032  -0.00022   1.81193
    A1        1.89426  -0.00019  -0.00028  -0.00166  -0.00194   1.89232
    A2        1.89426  -0.00019  -0.00028  -0.00166  -0.00194   1.89232
    A3        1.86339   0.00001   0.00127   0.00019   0.00146   1.86485
    A4        1.90547  -0.00025  -0.00036  -0.00161  -0.00198   1.90350
    A5        1.95220   0.00030  -0.00016   0.00227   0.00211   1.95431
    A6        1.95220   0.00030  -0.00016   0.00227   0.00211   1.95431
    A7        1.89898  -0.00007   0.00089  -0.00016   0.00074   1.89972
    D1        3.14159   0.00000  -0.00000  -0.00000   0.00000   3.14159
    D2       -1.07188  -0.00006   0.00036  -0.00062  -0.00027  -1.07215
    D3        1.07188   0.00006  -0.00036   0.00062   0.00027   1.07215
         Item               Value     Threshold  Converged?
 Maximum Force            0.001995     0.000450     NO 
 RMS     Force            0.000564     0.000300     NO 
 Maximum Displacement     0.002766     0.001800     NO 
 RMS     Displacement     0.001436     0.001200     NO 
 Predicted change in Energy=-7.545175D-06
 Lowest energy point so far.  Saving SCF results.
 GradGradGradGradGradGradGradGradGradGradGradGradGradGradGradGradGradGrad

 Leave Link  103 at Sun Oct 13 19:46:22 2019, MaxMem=  1342177280 cpu:               9.0 elap:               1.8
 (Enter /apps/cent7/gaussian/g16-A.03/g16-haswell/g16/l202.exe)
                          Input orientation:                          
 ---------------------------------------------------------------------
 Center     Atomic      Atomic             Coordinates (Angstroms)
 Number     Number       Type             X           Y           Z
 ---------------------------------------------------------------------
      1          6           0       -0.133953    0.094827    0.766372
      2          1           0        0.241005   -0.927521    0.744298
      3          1           0        0.228092    0.576513    1.680655
      4          1           0       -1.228214    0.061652    0.788858
      5          8           0        0.352458    0.735217   -0.397654
      6          1           0        0.038060    1.640988   -0.407172
 ---------------------------------------------------------------------
                    Distance matrix (angstroms):
                    1          2          3          4          5
     1  C    0.000000
     2  H    1.089163   0.000000
     3  H    1.094994   1.771737   0.000000
     4  H    1.094994   1.771737   1.783596   0.000000
     5  O    1.414797   2.020191   2.088067   2.088067   0.000000
     6  H    1.948694   2.822110   2.351221   2.351221   0.958831
                    6
     6  H    0.000000
 Stoichiometry    CH4O
 Framework group  CS[SG(CH2O),X(H2)]
 Deg. of freedom     8
 Full point group                 CS      NOp   2
 RotChk:  IX=0 Diff= 2.74D-04
 Largest Abelian subgroup         CS      NOp   2
 Largest concise Abelian subgroup CS      NOp   2
                         Standard orientation:                         
 ---------------------------------------------------------------------
 Center     Atomic      Atomic             Coordinates (Angstroms)
 Number     Number       Type             X           Y           Z
 ---------------------------------------------------------------------
      1          6           0       -0.046459    0.661543   -0.000000
      2          1           0       -1.088872    0.977222   -0.000000
      3          1           0        0.439167    1.071269    0.891798
      4          1           0        0.439167    1.071269   -0.891798
      5          8           0       -0.046459   -0.753255    0.000000
      6          1           0        0.860970   -1.062980    0.000000
 ---------------------------------------------------------------------
 Rotational constants (GHZ):         128.5342036          24.9393334          24.0770257
 Leave Link  202 at Sun Oct 13 19:46:22 2019, MaxMem=  1342177280 cpu:               0.4 elap:               0.1
 (Enter /apps/cent7/gaussian/g16-A.03/g16-haswell/g16/l301.exe)
 Standard basis: 6-311++G(d,p) (5D, 7F)
 Ernie: Thresh=  0.10000D-02 Tol=  0.10000D-05 Strict=F.
 There are    53 symmetry adapted cartesian basis functions of A'  symmetry.
 There are    21 symmetry adapted cartesian basis functions of A"  symmetry.
 There are    51 symmetry adapted basis functions of A'  symmetry.
 There are    21 symmetry adapted basis functions of A"  symmetry.
    72 basis functions,   108 primitive gaussians,    74 cartesian basis functions
     9 alpha electrons        9 beta electrons
       nuclear repulsion energy        40.3944516547 Hartrees.
 IExCor= 4336 DFT=T Ex+Corr=M062X ExCW=0 ScaHFX=  0.540000
 ScaDFX=  1.000000  1.000000  1.000000  1.000000 ScalE2=  1.000000  1.000000
 IRadAn=      5 IRanWt=     -1 IRanGd=            0 ICorTp=0 IEmpDi=  4
 NAtoms=    6 NActive=    6 NUniq=    5 SFac= 1.44D+00 NAtFMM=   60 NAOKFM=F Big=F
 Integral buffers will be    131072 words long.
 Raffenetti 2 integral format.
 Two-electron integral symmetry is turned on.
 Leave Link  301 at Sun Oct 13 19:46:22 2019, MaxMem=  1342177280 cpu:               3.2 elap:               0.7
 (Enter /apps/cent7/gaussian/g16-A.03/g16-haswell/g16/l302.exe)
 NPDir=0 NMtPBC=     1 NCelOv=     1 NCel=       1 NClECP=     1 NCelD=      1
         NCelK=      1 NCelE2=     1 NClLst=     1 CellRange=     0.0.
 One-electron integrals computed using PRISM.
 One-electron integral symmetry used in STVInt
 NBasis=    72 RedAO= T EigKep=  1.06D-03  NBF=    51    21
 NBsUse=    72 1.00D-06 EigRej= -1.00D+00 NBFU=    51    21
 Precomputing XC quadrature grid using
 IXCGrd= 4 IRadAn=           5 IRanWt=          -1 IRanGd=           0 AccXCQ= 0.00D+00.
 Generated NRdTot=       0 NPtTot=           0 NUsed=           0 NTot=          32
 NSgBfM=    74    74    74    74    74 MxSgAt=     6 MxSgA2=     6.
 Leave Link  302 at Sun Oct 13 19:46:26 2019, MaxMem=  1342177280 cpu:              19.8 elap:               4.1
 (Enter /apps/cent7/gaussian/g16-A.03/g16-haswell/g16/l303.exe)
 DipDrv:  MaxL=1.
[...]
                                                                                                                           X         
 
 ***** Axes restored to original set *****
 -------------------------------------------------------------------
 Center     Atomic                   Forces (Hartrees/Bohr)
 Number     Number              X              Y              Z
 -------------------------------------------------------------------
      1        6           0.000055916    0.000113471   -0.000156821
      2        1          -0.000043089    0.000110667    0.000006474
      3        1          -0.000070630   -0.000094994   -0.000002851
      4        1           0.000070651   -0.000045046    0.000083665
      5        8          -0.000051757   -0.000012971    0.000092008
      6        1           0.000038909   -0.000071127   -0.000022475
 -------------------------------------------------------------------
 Cartesian Forces:  Max     0.000156821 RMS     0.000074971
 Force constants in Cartesian coordinates: 
                1             2             3             4             5 
      1  0.568417D+00
      2 -0.273732D-01  0.591465D+00
      3  0.195630D-01  0.327234D-01  0.519880D+00
      4 -0.872523D-01  0.967970D-01  0.254132D-02  0.865293D-01
      5  0.900727D-01 -0.286481D+00 -0.114124D-01 -0.970708D-01  0.314163D+00
      6  0.642345D-02 -0.223932D-01 -0.490358D-01 -0.807436D-02  0.442888D-02
      7 -0.859929D-01 -0.435217D-01 -0.752154D-01  0.500490D-02  0.573860D-02
      8 -0.416742D-01 -0.111466D+00 -0.100594D+00 -0.121991D-01 -0.122453D-01
      9 -0.730929D-01 -0.963606D-01 -0.213704D+00 -0.706418D-03 -0.169125D-02
     10 -0.306354D+00 -0.756972D-03 -0.675086D-02 -0.101226D-01  0.143994D-04
     11  0.116338D-02 -0.536594D-01 -0.244935D-02  0.305794D-01  0.274569D-02
     12 -0.110486D-01 -0.530107D-03 -0.511497D-01  0.208131D-02 -0.935945D-03
     13 -0.922222D-01 -0.767453D-02  0.564292D-01  0.626579D-02  0.303150D-02
     14 -0.299204D-01 -0.123324D+00  0.851994D-01 -0.157771D-01 -0.189565D-01
     15  0.692724D-01  0.488719D-01 -0.201717D+00  0.173938D-02  0.700587D-02
     16  0.340491D-02 -0.174706D-01  0.343270D-02 -0.425049D-03 -0.178641D-02
     17  0.773177D-02 -0.165343D-01 -0.346680D-02 -0.232939D-02  0.773635D-03
     18 -0.111174D-01  0.376886D-01 -0.427366D-02  0.241877D-02  0.260484D-02
                6             7             8             9            10 
      6  0.578949D-01
      7  0.102467D-01  0.838297D-01
      8 -0.242686D-01  0.477506D-01  0.111284D+00
      9  0.678712D-03  0.759342D-01  0.101728D+00  0.247177D+00
     10 -0.158167D-02 -0.100087D-01  0.118179D-02 -0.140944D-02  0.333479D+00
     11  0.102096D-02 -0.162572D-01  0.115407D-02 -0.151188D-02  0.621840D-02
     12  0.815258D-03 -0.262683D-01  0.378647D-03  0.177792D-02 -0.201005D-02
     13 -0.911940D-02  0.713270D-02  0.419830D-02 -0.966024D-03 -0.722476D-02
     14  0.377203D-01  0.567593D-02  0.961406D-02 -0.100196D-02 -0.689876D-02
     15 -0.513201D-02  0.163356D-01  0.222640D-01 -0.361077D-01  0.113022D-01
     16  0.210529D-02  0.342182D-04  0.742645D-03  0.240593D-03  0.230984D-03
     17  0.349154D-02  0.613838D-03  0.165959D-02 -0.116248D-02  0.241139D-03
     18 -0.522111D-02 -0.103281D-02  0.492016D-03  0.178400D-03  0.449793D-03
               11            12            13            14            15 
     11  0.507135D-01
     12 -0.530960D-02  0.580976D-01
     13 -0.201622D-01  0.371143D-01  0.159716D+00
     14 -0.164945D-02  0.786894D-02 -0.136415D+00  0.616543D+00
     15  0.867519D-02 -0.104868D-01 -0.109633D+00 -0.107577D+00  0.285491D+00
     16 -0.154175D-02  0.131338D-03 -0.736680D-01  0.183335D+00  0.109835D-01
     17  0.695612D-03 -0.147193D-02  0.157022D+00 -0.482227D+00  0.207604D-01
     18 -0.425314D-03  0.945612D-03  0.261750D-01 -0.222094D-01 -0.320474D-01
               16            17            18 
     16  0.704229D-01
     17 -0.163279D+00  0.495633D+00
     18 -0.168934D-01 -0.181507D-01  0.404181D-01
 FormGI is forming the generalized inverse of G from B-inverse, IUseBI=4.
 Force constants in internal coordinates: 
                1             2             3             4             5 
      1  0.350109D+00
      2  0.325487D-02  0.333552D+00
      3  0.325487D-02  0.401329D-02  0.333552D+00
      4  0.109232D-01  0.159976D-01  0.159976D-01  0.375213D+00
      5 -0.196017D-02 -0.200618D-03 -0.200618D-03 -0.231190D-02  0.551252D+00
      6  0.590356D-02  0.767846D-02 -0.521713D-02 -0.286754D-01 -0.205474D-03
      7  0.590356D-02 -0.521713D-02  0.767846D-02 -0.286754D-01 -0.205474D-03
      8  0.357380D-02 -0.473372D-02 -0.473372D-02  0.299747D-01  0.599731D-02
      9 -0.449848D-02  0.784826D-02  0.784826D-02 -0.286449D-01  0.110723D-02
     10 -0.495905D-02 -0.607409D-03 -0.502513D-02  0.267538D-01 -0.323140D-02
     11 -0.495905D-02 -0.502513D-02 -0.607408D-03  0.267538D-01 -0.323140D-02
     12  0.313449D-02  0.401395D-03  0.401395D-03  0.460272D-01  0.136009D-01
     13  0.000000D+00 -0.579448D-02  0.579448D-02  0.000000D+00  0.000000D+00
     14  0.661734D-02  0.253159D-03 -0.634808D-02 -0.108461D-02  0.167003D-02
     15 -0.661734D-02  0.634808D-02 -0.253158D-03  0.108461D-02 -0.167003D-02
                6             7             8             9            10 
      6  0.716458D-01
      7  0.387526D-02  0.716458D-01
      8 -0.389169D-01 -0.389169D-01  0.139660D+00
      9  0.456923D-02  0.456923D-02 -0.582541D-03  0.732532D-01
     10 -0.366289D-01 -0.113803D-02 -0.302153D-01 -0.406883D-01  0.139071D+00
     11 -0.113803D-02 -0.366289D-01 -0.302153D-01 -0.406883D-01 -0.341816D-01
     12 -0.572429D-02 -0.572429D-02  0.205735D-01  0.953732D-03 -0.498000D-02
     13 -0.204549D-01  0.204549D-01  0.000000D+00  0.000000D+00 -0.189308D-01
     14  0.217743D-01  0.231596D-03  0.227697D-01 -0.177725D-01 -0.386780D-02
     15 -0.231596D-03 -0.217743D-01 -0.227697D-01  0.177725D-01  0.206162D-01
               11            12            13            14            15 
     11  0.139071D+00
     12 -0.498000D-02  0.173618D+00
     13  0.189308D-01  0.000000D+00  0.244874D-01
     14 -0.206162D-01  0.306610D-02 -0.110971D-01  0.274386D-01
     15  0.386780D-02 -0.306610D-02 -0.110971D-01 -0.139564D-01  0.274386D-01
 Leave Link  716 at Sun Oct 13 19:48:25 2019, MaxMem=  1342177280 cpu:              10.5 elap:               2.1
 (Enter /apps/cent7/gaussian/g16-A.03/g16-haswell/g16/l103.exe)

 GradGradGradGradGradGradGradGradGradGradGradGradGradGradGradGradGradGrad
 Berny optimization.
 Red2BG is reusing G-inverse.
 Internal  Forces:  Max     0.000120886 RMS     0.000077501
 Search for a local minimum.
 Step number   1 out of a maximum of    2
 All quantities printed in internal units (Hartrees-Bohrs-Radians)
 Second derivative matrix not updated -- analytic derivatives used.
 The second derivative matrix:
                          R1        R2        R3        R4        R5
           R1           0.35011
           R2           0.00325   0.33355
           R3           0.00325   0.00401   0.33355
           R4           0.01092   0.01600   0.01600   0.37521
           R5          -0.00196  -0.00020  -0.00020  -0.00231   0.55125
           A1           0.00590   0.00768  -0.00522  -0.02868  -0.00021
           A2           0.00590  -0.00522   0.00768  -0.02868  -0.00021
           A3           0.00357  -0.00473  -0.00473   0.02997   0.00600
           A4          -0.00450   0.00785   0.00785  -0.02864   0.00111
           A5          -0.00496  -0.00061  -0.00503   0.02675  -0.00323
           A6          -0.00496  -0.00503  -0.00061   0.02675  -0.00323
           A7           0.00313   0.00040   0.00040   0.04603   0.01360
           D1           0.00000  -0.00579   0.00579   0.00000  -0.00000
           D2           0.00662   0.00025  -0.00635  -0.00108   0.00167
           D3          -0.00662   0.00635  -0.00025   0.00108  -0.00167
                          A1        A2        A3        A4        A5
           A1           0.07165
           A2           0.00388   0.07165
           A3          -0.03892  -0.03892   0.13966
           A4           0.00457   0.00457  -0.00058   0.07325
           A5          -0.03663  -0.00114  -0.03022  -0.04069   0.13907
           A6          -0.00114  -0.03663  -0.03022  -0.04069  -0.03418
           A7          -0.00572  -0.00572   0.02057   0.00095  -0.00498
           D1          -0.02045   0.02045   0.00000  -0.00000  -0.01893
           D2           0.02177   0.00023   0.02277  -0.01777  -0.00387
           D3          -0.00023  -0.02177  -0.02277   0.01777   0.02062
                          A6        A7        D1        D2        D3
           A6           0.13907
           A7          -0.00498   0.17362
           D1           0.01893   0.00000   0.02449
           D2          -0.02062   0.00307  -0.01110   0.02744
           D3           0.00387  -0.00307  -0.01110  -0.01396   0.02744
 ITU=  0
     Eigenvalues ---    0.00233   0.08850   0.08854   0.13420   0.15246
     Eigenvalues ---    0.18688   0.19951   0.33079   0.33461   0.34981
     Eigenvalues ---    0.41141   0.55197
 Angle between quadratic step and forces=  23.77 degrees.
 Linear search not attempted -- first point.
 Iteration  1 RMS(Cart)=  0.00053848 RMS(Int)=  0.00000030
 Iteration  2 RMS(Cart)=  0.00000023 RMS(Int)=  0.00000014
 ITry= 1 IFail=0 DXMaxC= 9.45D-04 DCOld= 1.00D+10 DXMaxT= 3.00D-01 DXLimC= 3.00D+00 Rises=F
 ClnCor:  largest displacement from symmetrization is 3.32D-10 for atom     6.
 Variable       Old X    -DE/DX   Delta X   Delta X   Delta X     New X
                                 (Linear)    (Quad)   (Total)
    R1        2.05822  -0.00012   0.00000  -0.00029  -0.00029   2.05793
    R2        2.06924  -0.00007   0.00000  -0.00015  -0.00015   2.06909
    R3        2.06924  -0.00007   0.00000  -0.00015  -0.00015   2.06909
    R4        2.67358  -0.00010   0.00000  -0.00053  -0.00053   2.67305
    R5        1.81193  -0.00008   0.00000  -0.00015  -0.00015   1.81178
    A1        1.89232  -0.00006   0.00000  -0.00045  -0.00045   1.89187
    A2        1.89232  -0.00006   0.00000  -0.00045  -0.00045   1.89187
    A3        1.86485  -0.00004   0.00000  -0.00013  -0.00013   1.86472
    A4        1.90350  -0.00009   0.00000  -0.00064  -0.00064   1.90286
    A5        1.95431   0.00012   0.00000   0.00080   0.00080   1.95511
    A6        1.95431   0.00012   0.00000   0.00080   0.00080   1.95511
    A7        1.89972   0.00005   0.00000   0.00049   0.00049   1.90021
    D1        3.14159   0.00000   0.00000   0.00000   0.00000   3.14159
    D2       -1.07215  -0.00003   0.00000  -0.00018  -0.00018  -1.07232
    D3        1.07215   0.00003   0.00000   0.00018   0.00018   1.07232
         Item               Value     Threshold  Converged?
 Maximum Force            0.000121     0.000450     YES
 RMS     Force            0.000078     0.000300     YES
 Maximum Displacement     0.000945     0.001800     YES
 RMS     Displacement     0.000538     0.001200     YES
 Predicted change in Energy=-2.307670D-07
 Optimization completed.
    -- Stationary point found.
                           ----------------------------
                           !   Optimized Parameters   !
                           ! (Angstroms and Degrees)  !
 --------------------------                            --------------------------
 ! Name  Definition              Value          Derivative Info.                !
 --------------------------------------------------------------------------------
 ! R1    R(1,2)                  1.0892         -DE/DX =   -0.0001              !
 ! R2    R(1,3)                  1.095          -DE/DX =   -0.0001              !
 ! R3    R(1,4)                  1.095          -DE/DX =   -0.0001              !
 ! R4    R(1,5)                  1.4148         -DE/DX =   -0.0001              !
 ! R5    R(5,6)                  0.9588         -DE/DX =   -0.0001              !
 ! A1    A(2,1,3)              108.4217         -DE/DX =   -0.0001              !
 ! A2    A(2,1,4)              108.4217         -DE/DX =   -0.0001              !
 ! A3    A(2,1,5)              106.8482         -DE/DX =    0.0                 !
 ! A4    A(3,1,4)              109.0624         -DE/DX =   -0.0001              !
 ! A5    A(3,1,5)              111.9737         -DE/DX =    0.0001              !
 ! A6    A(4,1,5)              111.9737         -DE/DX =    0.0001              !
 ! A7    A(1,5,6)              108.8459         -DE/DX =    0.0001              !
 ! D1    D(2,1,5,6)            180.0            -DE/DX =    0.0                 !
 ! D2    D(3,1,5,6)            -61.4296         -DE/DX =    0.0                 !
 ! D3    D(4,1,5,6)             61.4296         -DE/DX =    0.0                 !
 --------------------------------------------------------------------------------
 GradGradGradGradGradGradGradGradGradGradGradGradGradGradGradGradGradGrad

 Leave Link  103 at Sun Oct 13 19:48:34 2019, MaxMem=  1342177280 cpu:              44.7 elap:               9.3
 (Enter /apps/cent7/gaussian/g16-A.03/g16-haswell/g16/l9999.exe)

 ----------------------------------------------------------------------

 Electric dipole moment (input orientation):
 (Debye = 10**-18 statcoulomb cm , SI units = C m)
                  (au)            (Debye)         (10**-30 SI)
   Tot        0.749785D+00      0.190576D+01      0.635694D+01
   x         -0.432880D+00     -0.110027D+01     -0.367011D+01
   y          0.309094D+00      0.785640D+00      0.262061D+01
   z          0.528444D+00      0.134317D+01      0.448033D+01

 Dipole polarizability, Alpha (input orientation).
 (esu units = cm**3 , SI units = C**2 m**2 J**-1)
 Alpha(0;0):
               (au)            (10**-24 esu)      (10**-40 SI)
   iso        0.181860D+02      0.269488D+01      0.299846D+01
   aniso      0.236111D+01      0.349881D+00      0.389295D+00
   xx         0.173529D+02      0.257144D+01      0.286111D+01
   yx         0.564118D-01      0.835937D-02      0.930106D-02
   yy         0.188452D+02      0.279257D+01      0.310716D+01
   zx        -0.361641D+00     -0.535897D-01     -0.596266D-01
   zy        -0.107001D+01     -0.158560D+00     -0.176421D+00
   zz         0.183597D+02      0.272063D+01      0.302711D+01

 ----------------------------------------------------------------------

 Dipole orientation:
     6          0.65749702         -0.47103216          1.24072411
     1          0.93372410         -2.09428026          0.00580128
     1          2.33247034         -0.26825454          2.43867904
     1         -0.99027074         -0.83368324          2.43867904
     8          0.29594492          1.65362828         -0.34140314
     1          0.04656194          3.11912705          0.69455402

 Electric dipole moment (dipole orientation):
 (Debye = 10**-18 statcoulomb cm , SI units = C m)
                  (au)            (Debye)         (10**-30 SI)
   Tot        0.749785D+00      0.190576D+01      0.635694D+01
   x          0.000000D+00      0.000000D+00      0.000000D+00
   y          0.000000D+00      0.000000D+00      0.000000D+00
   z          0.749785D+00      0.190576D+01      0.635694D+01

 Dipole polarizability, Alpha (dipole orientation).
 (esu units = cm**3 , SI units = C**2 m**2 J**-1)
 Alpha(0;0):
               (au)            (10**-24 esu)      (10**-40 SI)
   iso        0.181860D+02      0.269488D+01      0.299846D+01
   aniso      0.236111D+01      0.349881D+00      0.389295D+00
   xx         0.172218D+02      0.255201D+01      0.283950D+01
   yx        -0.413903D+00     -0.613341D-01     -0.682434D-01
   yy         0.195837D+02      0.290201D+01      0.322892D+01
   zx         0.652606D-01      0.967062D-02      0.107600D-01
   zy        -0.383504D+00     -0.568294D-01     -0.632313D-01
   zz         0.177523D+02      0.263062D+01      0.292696D+01

 ----------------------------------------------------------------------
 1\1\GINC-BROWN-FE02\Freq\RM062X\6-311++G(d,p)\C1H4O1\FINEJ\13-Oct-2019
 \0\\#P Geom=AllCheck Guess=TCheck SCRF=Check GenChk RM062X/6-311++G(d,
 p) Freq\\Title Card Required\\0,1\C,-0.1339534379,0.0948272133,0.76637
 2248\H,0.2410047543,-0.9275208448,0.7442978688\H,0.2280920653,0.576513
 3853,1.6806554186\H,-1.2282139242,0.061651567,0.7888576986\O,0.3524578
 678,0.7352169008,-0.3976539359\H,0.0380602857,1.6409879648,-0.40717162
 69\\Version=ES64L-G16RevA.03\State=1-A'\HF=-115.7043091\RMSD=4.298e-10
 \RMSF=7.497e-05\ZeroPoint=0.0517841\Thermal=0.0517842\Dipole=-0.43288,
 0.3090944,0.5284436\DipoleDeriv=0.3866962,0.1077512,-0.1030819,0.14013
 6,0.3835557,-0.2414794,-0.1217786,-0.1885951,0.6694125,0.0479481,0.072
 1018,0.0086847,0.0438752,-0.0994707,0.0312481,0.0249807,-0.014846,0.04
 65347,0.0201229,-0.0572204,-0.0555447,-0.0474552,-0.0063438,-0.0846689
 ,-0.0301072,-0.0261169,-0.1706991,-0.1953751,-0.0399119,0.0535172,-0.0
 043296,0.0419572,0.0269522,0.0018993,0.0424525,-0.0035022,-0.5720703,-
 0.1631392,0.0311764,-0.1936114,-0.5367359,0.2734917,0.0487689,0.223730
 6,-0.8194611,0.3126781,0.0804184,0.0652483,0.061385,0.2170375,-0.00554
 36,0.0762368,-0.036625,0.2777153\Polar=17.3529194,0.0564118,18.8452239
 ,-0.3616413,-1.0700135,18.3597166\Quadrupole=-0.7728406,1.842135,-1.06
 92944,-0.419639,0.5499251,-0.7156658\PG=CS [SG(C1H2O1),X(H2)]\NImag=0\
 \0.56841659,-0.02737321,0.59146458,0.01956303,0.03272335,0.51988027,-0
 .08725233,0.09679697,0.00254132,0.08652928,0.09007268,-0.28648096,-0.0
 1141240,-0.09707077,0.31416344,0.00642345,-0.02239316,-0.04903579,-0.0
 0807436,0.00442888,0.05789494,-0.08599286,-0.04352169,-0.07521539,0.00
 500490,0.00573860,0.01024670,0.08382975,-0.04167420,-0.11146617,-0.100
 59424,-0.01219909,-0.01224526,-0.02426856,0.04775055,0.11128372,-0.073
 09295,-0.09636060,-0.21370409,-0.00070642,-0.00169125,0.00067871,0.075
 93424,0.10172816,0.24717679,-0.30635408,-0.00075697,-0.00675086,-0.010
 12260,0.00001440,-0.00158167,-0.01000871,0.00118179,-0.00140944,0.3334
 7916,0.00116338,-0.05365937,-0.00244935,0.03057940,0.00274569,0.001020
 96,-0.01625723,0.00115407,-0.00151188,0.00621840,0.05071345,-0.0110485
 9,-0.00053011,-0.05114967,0.00208131,-0.00093595,0.00081526,-0.0262683
 3,0.00037865,0.00177792,-0.00201005,-0.00530960,0.05809764,-0.09222223
 ,-0.00767453,0.05642919,0.00626579,0.00303150,-0.00911940,0.00713270,0
 .00419830,-0.00096602,-0.00722476,-0.02016220,0.03711432,0.15971649,-0
 .02992041,-0.12332382,0.08519944,-0.01577712,-0.01895654,0.03772035,0.
 00567593,0.00961406,-0.00100196,-0.00689876,-0.00164945,0.00786894,-0.
 13641486,0.61654291,0.06927241,0.04887191,-0.20171706,0.00173938,0.007
 00587,-0.00513201,0.01633559,0.02226397,-0.03610774,0.01130223,0.00867
 519,-0.01048677,-0.10963308,-0.10757736,0.28549098,0.00340491,-0.01747
 056,0.00343270,-0.00042505,-0.00178641,0.00210529,0.00003422,0.0007426
 4,0.00024059,0.00023098,-0.00154175,0.00013134,-0.07366798,0.18333522,
 0.01098346,0.07042292,0.00773177,-0.01653426,-0.00346680,-0.00232939,0
 .00077363,0.00349154,0.00061384,0.00165959,-0.00116248,0.00024114,0.00
 069561,-0.00147193,0.15702179,-0.48222715,0.02076041,-0.16327915,0.495
 63257,-0.01111736,0.03768860,-0.00427366,0.00241877,0.00260484,-0.0052
 2111,-0.00103281,0.00049202,0.00017840,0.00044979,-0.00042531,0.000945
 61,0.02617500,-0.02220941,-0.03204739,-0.01689338,-0.01815074,0.040418
 15\\-0.00005592,-0.00011347,0.00015682,0.00004309,-0.00011067,-0.00000
 647,0.00007063,0.00009499,0.00000285,-0.00007065,0.00004505,-0.0000836
 7,0.00005176,0.00001297,-0.00009201,-0.00003891,0.00007113,0.00002247\
 \\@


 Not by the face shall a man be known, but by the mask.
                               -- Karen Blixen
 Job cpu time:       0 days  0 hours  8 minutes  1.3 seconds.
 Elapsed time:       0 days  0 hours  1 minutes 39.6 seconds.
 File lengths (MBytes):  RWF=      6 Int=      0 D2E=      0 Chk=      2 Scr=      1
 Normal termination of Gaussian 16 at Sun Oct 13 19:48:35 2019.
