Title Card Required                                                     
Freq      RM062X                                                      6-311++G(d,p)       
Number of atoms                            I               12
Info1-9                                    I   N=           9
          34          34        1002           0           0         100
           6          18        -502
Full Title                                 C   N=           2
Title Card Required     
Route                                      C   N=           6
#p opt freq m062x/6-311++g(d,p) geom=connectivity temperatur
e=0.001     
Charge                                     I                0
Multiplicity                               I                1
Number of electrons                        I               32
Number of alpha electrons                  I               16
Number of beta electrons                   I               16
Number of basis functions                  I              144
Number of independent functions            I              144
Number of point charges in /Mol/           I                0
Number of translation vectors              I                0
Atomic numbers                             I   N=          12
           6           1           1           1           6           6
           1           1           6           1           1           1
Nuclear charges                            R   N=          12
  6.00000000E+00  1.00000000E+00  1.00000000E+00  1.00000000E+00  6.00000000E+00
  6.00000000E+00  1.00000000E+00  1.00000000E+00  6.00000000E+00  1.00000000E+00
  1.00000000E+00  1.00000000E+00
Current cartesian coordinates              R   N=          36
  2.40243862E+00 -1.28197268E+00 -4.67486621E-06  2.48173569E+00 -2.51097948E+00
 -1.66140613E+00  4.06933619E+00 -7.12011307E-02  2.57233272E-05  2.48180328E+00
 -2.51140040E+00  1.66104277E+00 -1.45140142E-05  2.37018448E-01  4.59331226E-05
 -5.62541614E-05  2.75198187E+00  6.53287963E-05 -1.74962032E+00  3.81885430E+00
 -4.63146778E-04  1.74944252E+00  3.81892129E+00  8.92625015E-05 -2.40238589E+00
 -1.28205524E+00 -2.19879221E-05 -2.48168641E+00 -2.51135759E+00 -1.66115359E+00
 -2.48159144E+00 -2.51129840E+00  1.66124231E+00 -4.06931127E+00 -7.13729458E-02
  1.15203418E-04
Number of symbols in /Mol/                 I                0
Force Field                                I                0
Atom Types                                 C   N=          12
                                                            
                                                            
                        
Int Atom Types                             I   N=          12
           0           0           0           0           0           0
           0           0           0           0           0           0
MM charges                                 R   N=          12
  0.00000000E+00  0.00000000E+00  0.00000000E+00  0.00000000E+00  0.00000000E+00
  0.00000000E+00  0.00000000E+00  0.00000000E+00  0.00000000E+00  0.00000000E+00
  0.00000000E+00  0.00000000E+00
Integer atomic weights                     I   N=          12
          12           1           1           1          12          12
           1           1          12           1           1           1
Real atomic weights                        R   N=          12
  1.20000000E+01  1.00782504E+00  1.00782504E+00  1.00782504E+00  1.20000000E+01
  1.20000000E+01  1.00782504E+00  1.00782504E+00  1.20000000E+01  1.00782504E+00
  1.00782504E+00  1.00782504E+00
Atom fragment info                         I   N=          12
           0           0           0           0           0           0
           0           0           0           0           0           0
Atom residue num                           I   N=          12
           0           0           0           0           0           0
           0           0           0           0           0           0
Nuclear spins                              I   N=          12
           0           1           1           1           0           0
           1           1           0           1           1           1
Nuclear ZEff                               R   N=          12
 -3.60000000E+00 -1.00000000E+00 -1.00000000E+00 -1.00000000E+00 -3.60000000E+00
 -3.60000000E+00 -1.00000000E+00 -1.00000000E+00 -3.60000000E+00 -1.00000000E+00
 -1.00000000E+00 -1.00000000E+00
Nuclear ZNuc                               R   N=          12
  6.00000000E+00  1.00000000E+00  1.00000000E+00  1.00000000E+00  6.00000000E+00
  6.00000000E+00  1.00000000E+00  1.00000000E+00  6.00000000E+00  1.00000000E+00
  1.00000000E+00  1.00000000E+00
Nuclear QMom                               R   N=          12
  0.00000000E+00  0.00000000E+00  0.00000000E+00  0.00000000E+00  0.00000000E+00
  0.00000000E+00  0.00000000E+00  0.00000000E+00  0.00000000E+00  0.00000000E+00
  0.00000000E+00  0.00000000E+00
Nuclear GFac                               R   N=          12
  0.00000000E+00  2.79284600E+00  2.79284600E+00  2.79284600E+00  0.00000000E+00
  0.00000000E+00  2.79284600E+00  2.79284600E+00  0.00000000E+00  2.79284600E+00
  2.79284600E+00  2.79284600E+00
MicOpt                                     I   N=          12
          -1          -1          -1          -1          -1          -1
          -1          -1          -1          -1          -1          -1
Number of residues                         I                0
Number of secondary structures             I                0
Redundant internal dimensions              I   N=           4
          45          11          18          16
Redundant internal coordinate indices      I   N=         180
           1           2           0           0           1           3
           0           0           1           4           0           0
           1           5           0           0           5           6
           0           0           5           9           0           0
           6           7           0           0           6           8
           0           0           9          10           0           0
           9          11           0           0           9          12
           0           0           2           1           3           0
           2           1           4           0           2           1
           5           0           3           1           4           0
           3           1           5           0           4           1
           5           0           1           5           6           0
           1           5           9           0           6           5
           9           0           5           6           7           0
           5           6           8           0           7           6
           8           0           5           9          10           0
           5           9          11           0           5           9
          12           0          10           9          11           0
          10           9          12           0          11           9
          12           0           2           1           5           6
           2           1           5           9           3           1
           5           6           3           1           5           9
           4           1           5           6           4           1
           5           9           1           5           6           7
           1           5           6           8           9           5
           6           7           9           5           6           8
           1           5           9          10           1           5
           9          11           1           5           9          12
           6           5           9          10           6           5
           9          11           6           5           9          12
Redundant internal coordinates             R   N=          45
  2.06809103E+00  2.06022214E+00  2.06805944E+00  2.84237842E+00  2.51496342E+00
  2.84235344E+00  2.04919289E+00  2.04917195E+00  2.06805006E+00  2.06811783E+00
  2.06019219E+00  1.89466454E+00  1.86553309E+00  1.92837432E+00  1.89474295E+00
  1.94958434E+00  1.92849510E+00  2.13462068E+00  2.01393722E+00  2.13462741E+00
  2.11840225E+00  2.11841358E+00  2.04636944E+00  1.92849052E+00  1.92837953E+00
  1.94958740E+00  1.86547869E+00  1.89477945E+00  1.89467705E+00 -2.11102724E+00
  1.03052838E+00  2.51003768E-05  3.14158072E+00  2.11126017E+00 -1.03036952E+00
  3.14126970E+00 -2.51661511E-05 -2.83371462E-04 -3.14157823E+00 -1.03036243E+00
  1.03046863E+00  3.14154252E+00  2.11119319E+00 -2.11116106E+00 -8.71681211E-05
ZRed-IntVec                                I   N=          45
           0           0           0           0           0           0
           0           0           0           0           0           0
           0           0           0           0           0           0
           0           0           0           0           0           0
           0           0           0           0           0           0
           0           0           0           0           0           0
           0           0           0           0           0           0
           0           0           0
ZRed-FPVec                                 R   N=          45
  0.00000000E+00  0.00000000E+00  0.00000000E+00  0.00000000E+00  0.00000000E+00
  0.00000000E+00  0.00000000E+00  0.00000000E+00  0.00000000E+00  0.00000000E+00
  0.00000000E+00  0.00000000E+00  0.00000000E+00  0.00000000E+00  0.00000000E+00
  0.00000000E+00  0.00000000E+00  0.00000000E+00  0.00000000E+00  0.00000000E+00
  0.00000000E+00  0.00000000E+00  0.00000000E+00  0.00000000E+00  0.00000000E+00
  0.00000000E+00  0.00000000E+00  0.00000000E+00  0.00000000E+00  0.00000000E+00
  0.00000000E+00  0.00000000E+00  0.00000000E+00  0.00000000E+00  0.00000000E+00
  0.00000000E+00  0.00000000E+00  0.00000000E+00  0.00000000E+00  0.00000000E+00
  0.00000000E+00  0.00000000E+00  0.00000000E+00  0.00000000E+00  0.00000000E+00
ZRed-Constraint1                           R   N=          45
  2.06809103E+00  2.06022214E+00  2.06805944E+00  2.84237842E+00  2.51496342E+00
  2.84235344E+00  2.04919289E+00  2.04917195E+00  2.06805006E+00  2.06811783E+00
  2.06019219E+00  1.89466454E+00  1.86553309E+00  1.92837432E+00  1.89474295E+00
  1.94958434E+00  1.92849510E+00  2.13462068E+00  2.01393722E+00  2.13462741E+00
  2.11840225E+00  2.11841358E+00  2.04636944E+00  1.92849052E+00  1.92837953E+00
  1.94958740E+00  1.86547869E+00  1.89477945E+00  1.89467705E+00 -2.11102724E+00
  1.03052838E+00  2.51003724E-05  3.14158072E+00  2.11126017E+00 -1.03036952E+00
  3.14126970E+00 -2.51661599E-05 -2.83371462E-04 -3.14157823E+00 -1.03036243E+00
  1.03046863E+00  3.14154252E+00  2.11119319E+00 -2.11116106E+00 -8.71681199E-05
ZRed-Constraint2                           R   N=          45
  2.02200695E+00  2.02200695E+00  2.02200695E+00  2.91017823E+00  2.56095685E+00
  2.91017823E+00  2.02200695E+00  2.02200696E+00  2.02200696E+00  2.02200695E+00
  2.02200696E+00  1.91063292E+00  1.91063342E+00  1.91063292E+00  1.91063320E+00
  1.91063377E+00  1.91063319E+00  2.09835606E+00  2.09241462E+00  2.09241462E+00
  2.09835606E+00  2.09241462E+00  2.09241462E+00  1.91063293E+00  1.91063292E+00
  1.91063342E+00  1.91063376E+00  1.91063320E+00  1.91063319E+00 -3.14158874E+00
  3.90046256E-06 -1.04719389E+00  2.09439875E+00  1.04720146E+00 -2.09439120E+00
 -2.87502797E+00  2.66564692E-01  2.66564694E-01 -2.87502795E+00 -7.19989317E-01
  1.37440605E+00 -2.81438430E+00  2.42160332E+00 -1.76718662E+00  3.27208345E-01
SymInf integers                            I   N=          26
           1           1           1           1           1           0
           0           0           0           0           0           0
           0           0           0           0           0           0
           0           0           0           0           0           0
           0           0
RotTr to input orientation                 R   N=          12
 -4.70743872E-01  2.30341055E-02  8.81969181E-01 -9.21815657E-02  9.92903654E-01
 -7.51325058E-02 -8.77441033E-01 -1.16669467E-01 -4.65279991E-01 -2.47453840E+00
 -1.32061409E+01 -5.30976475E+00
Number of contracted shells                I               64
Number of primitive shells                 I              108
Pure/Cartesian d shells                    I                0
Pure/Cartesian f shells                    I                0
Highest angular momentum                   I                2
Largest degree of contraction              I                6
Shell types                                I   N=          64
           0          -1          -1          -1          -1          -2
           0           0           0           0           1           0
           0           0           0           1           0           0
           0           0           1           0          -1          -1
          -1          -1          -2           0          -1          -1
          -1          -1          -2           0           0           0
           0           1           0           0           0           0
           1           0          -1          -1          -1          -1
          -2           0           0           0           0           1
           0           0           0           0           1           0
           0           0           0           1
Number of primitives per shell             I   N=          64
           6           3           1           1           1           1
           3           1           1           1           1           3
           1           1           1           1           3           1
           1           1           1           6           3           1
           1           1           1           6           3           1
           1           1           1           3           1           1
           1           1           3           1           1           1
           1           6           3           1           1           1
           1           3           1           1           1           1
           3           1           1           1           1           3
           1           1           1           1
Shell to atom map                          I   N=          64
           1           1           1           1           1           1
           2           2           2           2           2           3
           3           3           3           3           4           4
           4           4           4           5           5           5
           5           5           5           6           6           6
           6           6           6           7           7           7
           7           7           8           8           8           8
           8           9           9           9           9           9
           9          10          10          10          10          10
          11          11          11          11          11          12
          12          12          12          12
Primitive exponents                        R   N=         108
  4.56324000E+03  6.82024000E+02  1.54973000E+02  4.44553000E+01  1.30290000E+01
  1.82773000E+00  2.09642000E+01  4.80331000E+00  1.45933000E+00  4.83456000E-01
  1.45585000E-01  4.38000000E-02  6.26000000E-01  3.38650000E+01  5.09479000E+00
  1.15879000E+00  3.25840000E-01  1.02741000E-01  3.60000000E-02  7.50000000E-01
  3.38650000E+01  5.09479000E+00  1.15879000E+00  3.25840000E-01  1.02741000E-01
  3.60000000E-02  7.50000000E-01  3.38650000E+01  5.09479000E+00  1.15879000E+00
  3.25840000E-01  1.02741000E-01  3.60000000E-02  7.50000000E-01  4.56324000E+03
  6.82024000E+02  1.54973000E+02  4.44553000E+01  1.30290000E+01  1.82773000E+00
  2.09642000E+01  4.80331000E+00  1.45933000E+00  4.83456000E-01  1.45585000E-01
  4.38000000E-02  6.26000000E-01  4.56324000E+03  6.82024000E+02  1.54973000E+02
  4.44553000E+01  1.30290000E+01  1.82773000E+00  2.09642000E+01  4.80331000E+00
  1.45933000E+00  4.83456000E-01  1.45585000E-01  4.38000000E-02  6.26000000E-01
  3.38650000E+01  5.09479000E+00  1.15879000E+00  3.25840000E-01  1.02741000E-01
  3.60000000E-02  7.50000000E-01  3.38650000E+01  5.09479000E+00  1.15879000E+00
  3.25840000E-01  1.02741000E-01  3.60000000E-02  7.50000000E-01  4.56324000E+03
  6.82024000E+02  1.54973000E+02  4.44553000E+01  1.30290000E+01  1.82773000E+00
  2.09642000E+01  4.80331000E+00  1.45933000E+00  4.83456000E-01  1.45585000E-01
  4.38000000E-02  6.26000000E-01  3.38650000E+01  5.09479000E+00  1.15879000E+00
  3.25840000E-01  1.02741000E-01  3.60000000E-02  7.50000000E-01  3.38650000E+01
  5.09479000E+00  1.15879000E+00  3.25840000E-01  1.02741000E-01  3.60000000E-02
  7.50000000E-01  3.38650000E+01  5.09479000E+00  1.15879000E+00  3.25840000E-01
  1.02741000E-01  3.60000000E-02  7.50000000E-01
Contraction coefficients                   R   N=         108
  1.96665025E-03  1.52306019E-02  7.61269097E-02  2.60801033E-01  6.16462078E-01
  2.21006028E-01  1.14660081E-01  9.19999648E-01 -3.03068213E-03  1.00000000E+00
  1.00000000E+00  1.00000000E+00  1.00000000E+00  2.54938145E-02  1.90373109E-01
  8.52161486E-01  1.00000000E+00  1.00000000E+00  1.00000000E+00  1.00000000E+00
  2.54938145E-02  1.90373109E-01  8.52161486E-01  1.00000000E+00  1.00000000E+00
  1.00000000E+00  1.00000000E+00  2.54938145E-02  1.90373109E-01  8.52161486E-01
  1.00000000E+00  1.00000000E+00  1.00000000E+00  1.00000000E+00  1.96665025E-03
  1.52306019E-02  7.61269097E-02  2.60801033E-01  6.16462078E-01  2.21006028E-01
  1.14660081E-01  9.19999648E-01 -3.03068213E-03  1.00000000E+00  1.00000000E+00
  1.00000000E+00  1.00000000E+00  1.96665025E-03  1.52306019E-02  7.61269097E-02
  2.60801033E-01  6.16462078E-01  2.21006028E-01  1.14660081E-01  9.19999648E-01
 -3.03068213E-03  1.00000000E+00  1.00000000E+00  1.00000000E+00  1.00000000E+00
  2.54938145E-02  1.90373109E-01  8.52161486E-01  1.00000000E+00  1.00000000E+00
  1.00000000E+00  1.00000000E+00  2.54938145E-02  1.90373109E-01  8.52161486E-01
  1.00000000E+00  1.00000000E+00  1.00000000E+00  1.00000000E+00  1.96665025E-03
  1.52306019E-02  7.61269097E-02  2.60801033E-01  6.16462078E-01  2.21006028E-01
  1.14660081E-01  9.19999648E-01 -3.03068213E-03  1.00000000E+00  1.00000000E+00
  1.00000000E+00  1.00000000E+00  2.54938145E-02  1.90373109E-01  8.52161486E-01
  1.00000000E+00  1.00000000E+00  1.00000000E+00  1.00000000E+00  2.54938145E-02
  1.90373109E-01  8.52161486E-01  1.00000000E+00  1.00000000E+00  1.00000000E+00
  1.00000000E+00  2.54938145E-02  1.90373109E-01  8.52161486E-01  1.00000000E+00
  1.00000000E+00  1.00000000E+00  1.00000000E+00
P(S=P) Contraction coefficients            R   N=         108
  0.00000000E+00  0.00000000E+00  0.00000000E+00  0.00000000E+00  0.00000000E+00
  0.00000000E+00  4.02486927E-02  2.37593957E-01  8.15853851E-01  1.00000000E+00
  1.00000000E+00  1.00000000E+00  0.00000000E+00  0.00000000E+00  0.00000000E+00
  0.00000000E+00  0.00000000E+00  0.00000000E+00  0.00000000E+00  0.00000000E+00
  0.00000000E+00  0.00000000E+00  0.00000000E+00  0.00000000E+00  0.00000000E+00
  0.00000000E+00  0.00000000E+00  0.00000000E+00  0.00000000E+00  0.00000000E+00
  0.00000000E+00  0.00000000E+00  0.00000000E+00  0.00000000E+00  0.00000000E+00
  0.00000000E+00  0.00000000E+00  0.00000000E+00  0.00000000E+00  0.00000000E+00
  4.02486927E-02  2.37593957E-01  8.15853851E-01  1.00000000E+00  1.00000000E+00
  1.00000000E+00  0.00000000E+00  0.00000000E+00  0.00000000E+00  0.00000000E+00
  0.00000000E+00  0.00000000E+00  0.00000000E+00  4.02486927E-02  2.37593957E-01
  8.15853851E-01  1.00000000E+00  1.00000000E+00  1.00000000E+00  0.00000000E+00
  0.00000000E+00  0.00000000E+00  0.00000000E+00  0.00000000E+00  0.00000000E+00
  0.00000000E+00  0.00000000E+00  0.00000000E+00  0.00000000E+00  0.00000000E+00
  0.00000000E+00  0.00000000E+00  0.00000000E+00  0.00000000E+00  0.00000000E+00
  0.00000000E+00  0.00000000E+00  0.00000000E+00  0.00000000E+00  0.00000000E+00
  4.02486927E-02  2.37593957E-01  8.15853851E-01  1.00000000E+00  1.00000000E+00
  1.00000000E+00  0.00000000E+00  0.00000000E+00  0.00000000E+00  0.00000000E+00
  0.00000000E+00  0.00000000E+00  0.00000000E+00  0.00000000E+00  0.00000000E+00
  0.00000000E+00  0.00000000E+00  0.00000000E+00  0.00000000E+00  0.00000000E+00
  0.00000000E+00  0.00000000E+00  0.00000000E+00  0.00000000E+00  0.00000000E+00
  0.00000000E+00  0.00000000E+00  0.00000000E+00
Coordinates of each shell                  R   N=         192
  2.40243862E+00 -1.28197268E+00 -4.67486621E-06  2.40243862E+00 -1.28197268E+00
 -4.67486621E-06  2.40243862E+00 -1.28197268E+00 -4.67486621E-06  2.40243862E+00
 -1.28197268E+00 -4.67486621E-06  2.40243862E+00 -1.28197268E+00 -4.67486621E-06
  2.40243862E+00 -1.28197268E+00 -4.67486621E-06  2.48173569E+00 -2.51097948E+00
 -1.66140613E+00  2.48173569E+00 -2.51097948E+00 -1.66140613E+00  2.48173569E+00
 -2.51097948E+00 -1.66140613E+00  2.48173569E+00 -2.51097948E+00 -1.66140613E+00
  2.48173569E+00 -2.51097948E+00 -1.66140613E+00  4.06933619E+00 -7.12011307E-02
  2.57233272E-05  4.06933619E+00 -7.12011307E-02  2.57233272E-05  4.06933619E+00
 -7.12011307E-02  2.57233272E-05  4.06933619E+00 -7.12011307E-02  2.57233272E-05
  4.06933619E+00 -7.12011307E-02  2.57233272E-05  2.48180328E+00 -2.51140040E+00
  1.66104277E+00  2.48180328E+00 -2.51140040E+00  1.66104277E+00  2.48180328E+00
 -2.51140040E+00  1.66104277E+00  2.48180328E+00 -2.51140040E+00  1.66104277E+00
  2.48180328E+00 -2.51140040E+00  1.66104277E+00 -1.45140142E-05  2.37018448E-01
  4.59331226E-05 -1.45140142E-05  2.37018448E-01  4.59331226E-05 -1.45140142E-05
  2.37018448E-01  4.59331226E-05 -1.45140142E-05  2.37018448E-01  4.59331226E-05
 -1.45140142E-05  2.37018448E-01  4.59331226E-05 -1.45140142E-05  2.37018448E-01
  4.59331226E-05 -5.62541614E-05  2.75198187E+00  6.53287963E-05 -5.62541614E-05
  2.75198187E+00  6.53287963E-05 -5.62541614E-05  2.75198187E+00  6.53287963E-05
 -5.62541614E-05  2.75198187E+00  6.53287963E-05 -5.62541614E-05  2.75198187E+00
  6.53287963E-05 -5.62541614E-05  2.75198187E+00  6.53287963E-05 -1.74962032E+00
  3.81885430E+00 -4.63146778E-04 -1.74962032E+00  3.81885430E+00 -4.63146778E-04
 -1.74962032E+00  3.81885430E+00 -4.63146778E-04 -1.74962032E+00  3.81885430E+00
 -4.63146778E-04 -1.74962032E+00  3.81885430E+00 -4.63146778E-04  1.74944252E+00
  3.81892129E+00  8.92625015E-05  1.74944252E+00  3.81892129E+00  8.92625015E-05
  1.74944252E+00  3.81892129E+00  8.92625015E-05  1.74944252E+00  3.81892129E+00
  8.92625015E-05  1.74944252E+00  3.81892129E+00  8.92625015E-05 -2.40238589E+00
 -1.28205524E+00 -2.19879221E-05 -2.40238589E+00 -1.28205524E+00 -2.19879221E-05
 -2.40238589E+00 -1.28205524E+00 -2.19879221E-05 -2.40238589E+00 -1.28205524E+00
 -2.19879221E-05 -2.40238589E+00 -1.28205524E+00 -2.19879221E-05 -2.40238589E+00
 -1.28205524E+00 -2.19879221E-05 -2.48168641E+00 -2.51135759E+00 -1.66115359E+00
 -2.48168641E+00 -2.51135759E+00 -1.66115359E+00 -2.48168641E+00 -2.51135759E+00
 -1.66115359E+00 -2.48168641E+00 -2.51135759E+00 -1.66115359E+00 -2.48168641E+00
 -2.51135759E+00 -1.66115359E+00 -2.48159144E+00 -2.51129840E+00  1.66124231E+00
 -2.48159144E+00 -2.51129840E+00  1.66124231E+00 -2.48159144E+00 -2.51129840E+00
  1.66124231E+00 -2.48159144E+00 -2.51129840E+00  1.66124231E+00 -2.48159144E+00
 -2.51129840E+00  1.66124231E+00 -4.06931127E+00 -7.13729458E-02  1.15203418E-04
 -4.06931127E+00 -7.13729458E-02  1.15203418E-04 -4.06931127E+00 -7.13729458E-02
  1.15203418E-04 -4.06931127E+00 -7.13729458E-02  1.15203418E-04 -4.06931127E+00
 -7.13729458E-02  1.15203418E-04
Num ILSW                                   I              100
ILSW                                       I   N=         100
           0           0           0           0           2           0
           0           0           0           0        4336          -1
           5           0           0           0           2           0
           0           0           0           0           1           0
           1           0           0           0           0           0
           0           0      100000           0          -1           0
           0           0           0           0           0           0
           0           0           0           1           0           0
           0 -2000000000           1           0           0           0
           0           0           4          52           0           0
           0           0          55           0           0           0
           0           0           0          12           0           1
           0           0           0           0           0           0
           0           0           0           0           0           0
           0           0           0           0           0           0
           0           0           0           0           0           0
           0           0           0           0
Num RLSW                                   I               52
RLSW                                       R   N=          52
  1.00000000E+00  1.00000000E+00  1.00000000E+00  1.00000000E+00  5.40000000E-01
  0.00000000E+00  0.00000000E+00  1.00000000E+00  0.00000000E+00  0.00000000E+00
  0.00000000E+00  0.00000000E+00  1.00000000E+00  0.00000000E+00  0.00000000E+00
  0.00000000E+00  0.00000000E+00  1.00000000E+00  0.00000000E+00  0.00000000E+00
  0.00000000E+00  0.00000000E+00  1.00000000E+00  0.00000000E+00  0.00000000E+00
  0.00000000E+00  0.00000000E+00  1.00000000E+00  0.00000000E+00  0.00000000E+00
  0.00000000E+00  0.00000000E+00  1.00000000E+00  0.00000000E+00  0.00000000E+00
  0.00000000E+00  0.00000000E+00  0.00000000E+00  1.00000000E+00  1.00000000E+00
  0.00000000E+00  1.00000000E+00  0.00000000E+00  0.00000000E+00  0.00000000E+00
  0.00000000E+00  0.00000000E+00  0.00000000E+00  0.00000000E+00  0.00000000E+00
  0.00000000E+00  0.00000000E+00
MxBond                                     I                4
NBond                                      I   N=          12
           4           1           1           1           3           3
           1           1           4           1           1           1
IBond                                      I   N=          48
           2           3           4           5           1           0
           0           0           1           0           0           0
           1           0           0           0           1           6
           9           0           5           7           8           0
           6           0           0           0           6           0
           0           0           5          10          11          12
           9           0           0           0           9           0
           0           0           9           0           0           0
RBond                                      R   N=          48
  1.00000000E+00  1.00000000E+00  1.00000000E+00  1.00000000E+00  1.00000000E+00
  0.00000000E+00  0.00000000E+00  0.00000000E+00  1.00000000E+00  0.00000000E+00
  0.00000000E+00  0.00000000E+00  1.00000000E+00  0.00000000E+00  0.00000000E+00
  0.00000000E+00  1.00000000E+00  2.00000000E+00  1.00000000E+00  0.00000000E+00
  2.00000000E+00  1.00000000E+00  1.00000000E+00  0.00000000E+00  1.00000000E+00
  0.00000000E+00  0.00000000E+00  0.00000000E+00  1.00000000E+00  0.00000000E+00
  0.00000000E+00  0.00000000E+00  1.00000000E+00  1.00000000E+00  1.00000000E+00
  1.00000000E+00  1.00000000E+00  0.00000000E+00  0.00000000E+00  0.00000000E+00
  1.00000000E+00  0.00000000E+00  0.00000000E+00  0.00000000E+00  1.00000000E+00
  0.00000000E+00  0.00000000E+00  0.00000000E+00
Virial Ratio                               R      2.004651745982128E+00
SCF Energy                                 R     -1.571807709611907E+02
Total Energy                               R     -1.571807709611907E+02
RMS Force                                  R      1.220668221123461E-05
RMS Density                                R      1.907723055446065E-09
NImag                                      I                0
Job Status                                 I                1
Nuclear derivative order                   I                2
External E-field                           R   N=          35
  0.00000000E+00  0.00000000E+00  0.00000000E+00  0.00000000E+00  0.00000000E+00
  0.00000000E+00  0.00000000E+00  0.00000000E+00  0.00000000E+00  0.00000000E+00
  0.00000000E+00  0.00000000E+00  0.00000000E+00  0.00000000E+00  0.00000000E+00
  0.00000000E+00  0.00000000E+00  0.00000000E+00  0.00000000E+00  0.00000000E+00
  0.00000000E+00  0.00000000E+00  0.00000000E+00  0.00000000E+00  0.00000000E+00
  0.00000000E+00  0.00000000E+00  0.00000000E+00  0.00000000E+00  0.00000000E+00
  0.00000000E+00  0.00000000E+00  0.00000000E+00  0.00000000E+00  0.00000000E+00
IOpCl                                      I                0
IROHF                                      I                0
Alpha Orbital Energies                     R   N=         144
 -1.05472910E+01 -1.05294638E+01 -1.05294474E+01 -1.05194052E+01 -9.08923052E-01
 -7.85266391E-01 -7.71472050E-01 -5.99666026E-01 -5.23744938E-01 -5.13560806E-01
 -5.01897879E-01 -4.50783031E-01 -4.34669846E-01 -4.26448780E-01 -3.96773159E-01
 -3.03427622E-01 -1.03668186E-03  1.76871248E-02  2.16842143E-02  2.21384143E-02
  4.00211847E-02  4.57191879E-02  5.44169695E-02  6.03068992E-02  7.12224180E-02
  7.94514877E-02  9.45772363E-02  1.00350973E-01  1.12501496E-01  1.22652810E-01
  1.34365535E-01  1.38138546E-01  1.45614435E-01  1.51673340E-01  1.56725272E-01
  1.64941987E-01  1.68019622E-01  1.72624370E-01  1.75567076E-01  2.12275602E-01
  2.22327153E-01  2.22824980E-01  2.26613908E-01  2.37671358E-01  2.39811956E-01