 Entering Gaussian System, Link 0=g16
 Input=methanol_p.com
 Output=methanol_p.log
 Initial command:
 /apps/cent7/gaussian/g16-A.03/g16-haswell/g16/l1.exe "/scratch/brown/finej/0062_qm/train2/Gau-420013.inp" -scrdir="/scratch/brown/finej/0062_qm/train2/"
 Entering Link 1 = /apps/cent7/gaussian/g16-A.03/g16-haswell/g16/l1.exe PID=    420014.
  
 Copyright (c) 1988,1990,1992,1993,1995,1998,2003,2009,2016,
            Gaussian, Inc.  All Rights Reserved.
  
 This is part of the Gaussian(R) 16 program.  It is based on
 the Gaussian(R) 09 system (copyright 2009, Gaussian, Inc.),
 the Gaussian(R) 03 system (copyright 2003, Gaussian, Inc.),
 the Gaussian(R) 98 system (copyright 1998, Gaussian, Inc.),
 the Gaussian(R) 94 system (copyright 1995, Gaussian, Inc.),
 the Gaussian 92(TM) system (copyright 1992, Gaussian, Inc.),
 the Gaussian 90(TM) system (copyright 1990, Gaussian, Inc.),
 the Gaussian 88(TM) system (copyright 1988, Gaussian, Inc.),
 the Gaussian 86(TM) system (copyright 1986, Carnegie Mellon
 University), and the Gaussian 82(TM) system (copyright 1983,
 Carnegie Mellon University). Gaussian is a federally registered
 trademark of Gaussian, Inc.
  
 This software contains proprietary and confidential information,
 including trade secrets, belonging to Gaussian, Inc.
  
 This software is provided under written license and may be
 used, copied, transmitted, or stored only in accord with that
 written license.
  
 The following legend is applicable only to US Government
 contracts under FAR:
  
                    RESTRICTED RIGHTS LEGEND
  
 Use, reproduction and disclosure by the US Government is
 subject to restrictions as set forth in subparagraphs (a)
 and (c) of the Commercial Computer Software - Restricted
 Rights clause in FAR 52.227-19.
  
 Gaussian, Inc.
 340 Quinnipiac St., Bldg. 40, Wallingford CT 06492
  
  
 ---------------------------------------------------------------
 Warning -- This program may not be used in any manner that
 competes with the business of Gaussian, Inc. or will provide
 assistance to any competitor of Gaussian, Inc.  The licensee
 of this program is prohibited from giving any competitor of
 Gaussian, Inc. access to this program.  By using this program,
 the user acknowledges that Gaussian, Inc. is engaged in the
 business of creating and licensing software in the field of
 computational chemistry and represents and warrants to the
 licensee that it is not a competitor of Gaussian, Inc. and that
 it will not use this program in any manner prohibited above.
 ---------------------------------------------------------------
  

 Cite this work as:
 Gaussian 16, Revision A.03,
 M. J. Frisch, G. W. Trucks, H. B. Schlegel, G. E. Scuseria, 
 M. A. Robb, J. R. Cheeseman, G. Scalmani, V. Barone, 
 G. A. Petersson, H. Nakatsuji, X. Li, M. Caricato, A. V. Marenich, 
 J. Bloino, B. G. Janesko, R. Gomperts, B. Mennucci, H. P. Hratchian, 
 J. V. Ortiz, A. F. Izmaylov, J. L. Sonnenberg, D. Williams-Young, 
 F. Ding, F. Lipparini, F. Egidi, J. Goings, B. Peng, A. Petrone, 
 T. Henderson, D. Ranasinghe, V. G. Zakrzewski, J. Gao, N. Rega, 
 G. Zheng, W. Liang, M. Hada, M. Ehara, K. Toyota, R. Fukuda, 
 J. Hasegawa, M. Ishida, T. Nakajima, Y. Honda, O. Kitao, H. Nakai, 
 T. Vreven, K. Throssell, J. A. Montgomery, Jr., J. E. Peralta, 
 F. Ogliaro, M. J. Bearpark, J. J. Heyd, E. N. Brothers, K. N. Kudin, 
 V. N. Staroverov, T. A. Keith, R. Kobayashi, J. Normand, 
 K. Raghavachari, A. P. Rendell, J. C. Burant, S. S. Iyengar, 
 J. Tomasi, M. Cossi, J. M. Millam, M. Klene, C. Adamo, R. Cammi, 
 J. W. Ochterski, R. L. Martin, K. Morokuma, O. Farkas, 
 J. B. Foresman, and D. J. Fox, Gaussian, Inc., Wallingford CT, 2016.
 
 ******************************************
 Gaussian 16:  ES64L-G16RevA.03 25-Dec-2016
                13-Oct-2019 
 ******************************************
 %chk=methanol_p.chk
 %nprocshared=24
 Will use up to   24 processors via shared memory.
 %mem=10GB
 -------------------------------------------------------------------
 #P opt freq m062x/6-311++g(d,p) geom=connectivity temperature=0.001
 -------------------------------------------------------------------
 1/18=20,19=15,26=3,38=1,57=2,112=-1000/1,3;
 2/9=110,12=2,17=6,18=5,40=1/2;
 3/5=4,6=6,7=1111,11=2,25=1,30=1,71=1,74=-55/1,2,3;
 4//1;
 5/5=2,38=5/2;
 6/7=2,8=2,9=2,10=2,28=1/1;
 7//1,2,3,16;
 1/18=20,19=15,26=3/3(2);
 2/9=110/2;
 99//99;
 2/9=110/2;
 3/5=4,6=6,7=1111,11=2,25=1,30=1,71=1,74=-55/1,2,3;
 4/5=5,16=3,69=1/1;
 5/5=2,38=5/2;
 7//1,2,3,16;
 1/18=20,19=15,26=3/3(-5);
 2/9=110/2;
 6/7=2,8=2,9=2,10=2,19=2,28=1/1;
 99/9=1/99;
 Leave Link    1 at Sun Oct 13 19:48:52 2019, MaxMem=  1342177280 cpu:               2.8 elap:               0.5
 (Enter /apps/cent7/gaussian/g16-A.03/g16-haswell/g16/l101.exe)
 -------------------
 Title Card Required
 -------------------
 Symbolic Z-matrix:
 Charge =  1 Multiplicity = 1
 C                    -0.12989   0.07215   0.77283 
 H                     0.22672  -0.93668   0.77291 
 H                     0.22678   0.57659   1.64646 
 H                    -1.19989   0.0722    0.77281 
 O                     0.34684   0.74615  -0.39479 
 H                    -0.2062    1.51078  -0.57112 
 H                     0.31467   0.1481   -1.14506 
 
 ITRead=  0  0  0  0  0  0  0
 MicOpt= -1 -1 -1 -1 -1 -1 -1
 NAtoms=      7 NQM=        7 NQMF=       0 NMMI=      0 NMMIF=      0
                NMic=       0 NMicF=      0.
                    Isotopes and Nuclear Properties:
 (Nuclear quadrupole moments (NQMom) in fm**2, nuclear magnetic moments (NMagM)
  in nuclear magnetons)

  Atom         1           2           3           4           5           6           7
 IAtWgt=          12           1           1           1          16           1           1
 AtmWgt=  12.0000000   1.0078250   1.0078250   1.0078250  15.9949146   1.0078250   1.0078250
 NucSpn=           0           1           1           1           0           1           1
 AtZEff=  -0.0000000  -0.0000000  -0.0000000  -0.0000000  -0.0000000  -0.0000000  -0.0000000
 NQMom=    0.0000000   0.0000000   0.0000000   0.0000000   0.0000000   0.0000000   0.0000000
 NMagM=    0.0000000   2.7928460   2.7928460   2.7928460   0.0000000   2.7928460   2.7928460
 AtZNuc=   6.0000000   1.0000000   1.0000000   1.0000000   8.0000000   1.0000000   1.0000000
 Leave Link  101 at Sun Oct 13 19:48:55 2019, MaxMem=  1342177280 cpu:              16.4 elap:               3.4
 (Enter /apps/cent7/gaussian/g16-A.03/g16-haswell/g16/l103.exe)

 GradGradGradGradGradGradGradGradGradGradGradGradGradGradGradGradGradGrad
 Berny optimization.
 Initialization pass.
                           ----------------------------
                           !    Initial Parameters    !
                           ! (Angstroms and Degrees)  !
 --------------------------                            --------------------------
 ! Name  Definition              Value          Derivative Info.                !
 --------------------------------------------------------------------------------
 ! R1    R(1,2)                  1.07           estimate D2E/DX2                !
 ! R2    R(1,3)                  1.07           estimate D2E/DX2                !
 ! R3    R(1,4)                  1.07           estimate D2E/DX2                !
 ! R4    R(1,5)                  1.43           estimate D2E/DX2                !
 ! R5    R(5,6)                  0.96           estimate D2E/DX2                !
 ! R6    R(5,7)                  0.96           estimate D2E/DX2                !
 ! A1    A(2,1,3)              109.4712         estimate D2E/DX2                !
 ! A2    A(2,1,4)              109.4712         estimate D2E/DX2                !
 ! A3    A(2,1,5)              109.4712         estimate D2E/DX2                !
 ! A4    A(3,1,4)              109.4712         estimate D2E/DX2                !
 ! A5    A(3,1,5)              109.4712         estimate D2E/DX2                !
 ! A6    A(4,1,5)              109.4712         estimate D2E/DX2                !
 ! A7    A(1,5,6)              109.4712         estimate D2E/DX2                !
 ! A8    A(1,5,7)              109.4712         estimate D2E/DX2                !
 ! A9    A(6,5,7)              109.4712         estimate D2E/DX2                !
 ! D1    D(2,1,5,6)            159.3626         estimate D2E/DX2                !
 ! D2    D(2,1,5,7)             39.3626         estimate D2E/DX2                !
 ! D3    D(3,1,5,6)            -80.6374         estimate D2E/DX2                !
 ! D4    D(3,1,5,7)            159.3626         estimate D2E/DX2                !
 ! D5    D(4,1,5,6)             39.3626         estimate D2E/DX2                !
 ! D6    D(4,1,5,7)            -80.6374         estimate D2E/DX2                !
 --------------------------------------------------------------------------------
 Trust Radius=3.00D-01 FncErr=1.00D-07 GrdErr=1.00D-06 EigMax=2.50D+02 EigMin=1.00D-04
 Number of steps in this run=     31 maximum allowed number of steps=    100.
 GradGradGradGradGradGradGradGradGradGradGradGradGradGradGradGradGradGrad

 Leave Link  103 at Sun Oct 13 19:48:56 2019, MaxMem=  1342177280 cpu:               1.6 elap:               0.2
 (Enter /apps/cent7/gaussian/g16-A.03/g16-haswell/g16/l202.exe)
                          Input orientation:                          
 ---------------------------------------------------------------------
 Center     Atomic      Atomic             Coordinates (Angstroms)
 Number     Number       Type             X           Y           Z
 ---------------------------------------------------------------------
      1          6           0       -0.129891    0.072146    0.772833
      2          1           0        0.226722   -0.936678    0.772909
      3          1           0        0.226782    0.576588    1.646459
      4          1           0       -1.199891    0.072203    0.772808
      5          8           0        0.346839    0.746151   -0.394791
      6          1           0       -0.206202    1.510777   -0.571123
      7          1           0        0.314669    0.148098   -1.145056
 ---------------------------------------------------------------------
                    Distance matrix (angstroms):
                    1          2          3          4          5
     1  C    0.000000
     2  H    1.070000   0.000000
     3  H    1.070000   1.747303   0.000000
     4  H    1.070000   1.747303   1.747303   0.000000
     5  O    1.430000   2.051796   2.051796   2.051796   0.000000
     6  H    1.970203   2.825577   2.444965   2.205235   0.960000
     7  H    1.970203   2.205235   2.825577   2.444965   0.960000
                    6          7
     6  H    0.000000
     7  H    1.567673   0.000000
 Stoichiometry    CH5O(1+)
 Framework group  C1[X(CH5O)]
 Deg. of freedom    15
 Full point group                 C1      NOp   1
 Largest Abelian subgroup         C1      NOp   1
 Largest concise Abelian subgroup C1      NOp   1
                         Standard orientation:                         
 ---------------------------------------------------------------------
 Center     Atomic      Atomic             Coordinates (Angstroms)
 Number     Number       Type             X           Y           Z
 ---------------------------------------------------------------------
      1          6           0       -0.731419    0.000000    0.013997
      2          1           0       -1.100637    0.995367   -0.119505
      3          1           0       -1.152489   -0.639811   -0.733158
      4          1           0       -1.007330   -0.355555    0.984746
      5          8           0        0.693503    0.000000   -0.106406
      6          1           0        1.050471   -0.783837    0.317592
      7          1           0        1.050471    0.783837    0.317592
 ---------------------------------------------------------------------
 Rotational constants (GHZ):         108.4919873          23.2020577          22.2857580
 Leave Link  202 at Sun Oct 13 19:48:56 2019, MaxMem=  1342177280 cpu:               2.5 elap:               0.5
 (Enter /apps/cent7/gaussian/g16-A.03/g16-haswell/g16/l301.exe)
 Standard basis: 6-311++G(d,p) (5D, 7F)
 Ernie: Thresh=  0.10000D-02 Tol=  0.10000D-05 Strict=F.
 There are    81 symmetry adapted cartesian basis functions of A   symmetry.
 There are    79 symmetry adapted basis functions of A   symmetry.
    79 basis functions,   117 primitive gaussians,    81 cartesian basis functions
     9 alpha electrons        9 beta electrons
       nuclear repulsion energy        47.4306418188 Hartrees.
 IExCor= 4336 DFT=T Ex+Corr=M062X ExCW=0 ScaHFX=  0.540000
 ScaDFX=  1.000000  1.000000  1.000000  1.000000 ScalE2=  1.000000  1.000000
 IRadAn=      5 IRanWt=     -1 IRanGd=            0 ICorTp=0 IEmpDi=  4
 NAtoms=    7 NActive=    7 NUniq=    7 SFac= 1.00D+00 NAtFMM=   60 NAOKFM=F Big=F
 Integral buffers will be    131072 words long.
 Raffenetti 2 integral format.
 Two-electron integral symmetry is turned on.
 Leave Link  301 at Sun Oct 13 19:48:57 2019, MaxMem=  1342177280 cpu:               2.8 elap:               0.6
 (Enter /apps/cent7/gaussian/g16-A.03/g16-haswell/g16/l302.exe)
 NPDir=0 NMtPBC=     1 NCelOv=     1 NCel=       1 NClECP=     1 NCelD=      1
         NCelK=      1 NCelE2=     1 NClLst=     1 CellRange=     0.0.
 One-electron integrals computed using PRISM.
 One-electron integral symmetry used in STVInt
 NBasis=    79 RedAO= T EigKep=  9.88D-04  NBF=    79
 NBsUse=    79 1.00D-06 EigRej= -1.00D+00 NBFU=    79
 Precomputing XC quadrature grid using
 IXCGrd= 4 IRadAn=           5 IRanWt=          -1 IRanGd=           0 AccXCQ= 0.00D+00.
 Generated NRdTot=       0 NPtTot=           0 NUsed=           0 NTot=          32
 NSgBfM=    81    81    81    81    81 MxSgAt=     7 MxSgA2=     7.
 Leave Link  302 at Sun Oct 13 19:49:02 2019, MaxMem=  1342177280 cpu:              24.6 elap:               5.1
 (Enter /apps/cent7/gaussian/g16-A.03/g16-haswell/g16/l303.exe)
 DipDrv:  MaxL=1.
 Leave Link  303 at Sun Oct 13 19:49:03 2019, MaxMem=  1342177280 cpu:               6.0 elap:               1.3
 (Enter /apps/cent7/gaussian/g16-A.03/g16-haswell/g16/l401.exe)
 ExpMin= 3.60D-02 ExpMax= 8.59D+03 ExpMxC= 1.30D+03 IAcc=3 IRadAn=         5 AccDes= 0.00D+00
 Harris functional with IExCor= 1009 and IRadAn=       5 diagonalized for initial guess.
 HarFok:  IExCor= 1009 AccDes= 0.00D+00 IRadAn=         5 IDoV= 1 UseB2=F ITyADJ=14
 ICtDFT=  3500011 ScaDFX=  1.000000  1.000000  1.000000  1.000000
 FoFCou: FMM=F IPFlag=           0 FMFlag=      100000 FMFlg1=           0
         NFxFlg=           0 DoJE=T BraDBF=F KetDBF=T FulRan=T
         wScrn=  0.000000 ICntrl=       500 IOpCl=  0 I1Cent=   200000004 NGrid=           0
         NMat0=    1 NMatS0=      1 NMatT0=    0 NMatD0=    1 NMtDS0=    0 NMtDT0=    0
 Petite list used in FoFCou.
 Harris En= -116.035743658686    
 JPrj=0 DoOrth=F DoCkMO=F.
 Leave Link  401 at Sun Oct 13 19:49:09 2019, MaxMem=  1342177280 cpu:              26.6 elap:               5.5
 (Enter /apps/cent7/gaussian/g16-A.03/g16-haswell/g16/l502.exe)
 Keep R1 ints in memory in canonical form, NReq=26724339.
 FoFCou: FMM=F IPFlag=           0 FMFlag=           0 FMFlg1=           0
         NFxFlg=           0 DoJE=F BraDBF=F KetDBF=F FulRan=T
         wScrn=  0.000000 ICntrl=       600 IOpCl=  0 I1Cent=           0 NGrid=           0
         NMat0=    1 NMatS0=   3160 NMatT0=    0 NMatD0=    1 NMtDS0=    0 NMtDT0=    0
 Symmetry not used in FoFCou.
 Two-electron integral symmetry not used.
 Closed shell SCF:
 Using DIIS extrapolation, IDIIS=  1040.
 NGot=  1342177280 LenX=  1337166843 LenY=  1337159841
 Requested convergence on RMS density matrix=1.00D-08 within 128 cycles.
 Requested convergence on MAX density matrix=1.00D-06.
 Requested convergence on             energy=1.00D-06.
 No special actions if energy rises.

 Cycle   1  Pass 1  IDiag  1:
 E= -115.953046914244    
 DIIS: error= 2.73D-02 at cycle   1 NSaved=   1.
 NSaved= 1 IEnMin= 1 EnMin= -115.953046914244     IErMin= 1 ErrMin= 2.73D-02
 ErrMax= 2.73D-02  0.00D+00 EMaxC= 1.00D-01 BMatC= 6.22D-02 BMatP= 6.22D-02
 IDIUse=3 WtCom= 7.27D-01 WtEn= 2.73D-01
 Coeff-Com:  0.100D+01
 Coeff-En:   0.100D+01
 Coeff:      0.100D+01
 Gap=     0.480 Goal=   None    Shift=    0.000
 GapD=    0.480 DampG=2.000 DampE=0.500 DampFc=1.0000 IDamp=-1.
 RMSDP=3.26D-03 MaxDP=7.04D-02              OVMax= 8.01D-02

 Cycle   2  Pass 1  IDiag  1:
 E= -115.980122689155     Delta-E=       -0.027075774910 Rises=F Damp=F
 DIIS: error= 1.89D-02 at cycle   2 NSaved=   2.
 NSaved= 2 IEnMin= 2 EnMin= -115.980122689155     IErMin= 2 ErrMin= 1.89D-02
 ErrMax= 1.89D-02  0.00D+00 EMaxC= 1.00D-01 BMatC= 1.56D-02 BMatP= 6.22D-02
 IDIUse=3 WtCom= 8.11D-01 WtEn= 1.89D-01
 Coeff-Com:  0.313D+00 0.687D+00
 Coeff-En:   0.981D-01 0.902D+00
 Coeff:      0.273D+00 0.727D+00
 Gap=     0.487 Goal=   None    Shift=    0.000
 RMSDP=1.31D-03 MaxDP=3.87D-02 DE=-2.71D-02 OVMax= 4.11D-02

 Cycle   3  Pass 1  IDiag  1:
 E= -115.992730903636     Delta-E=       -0.012608214482 Rises=F Damp=F
 DIIS: error= 5.74D-03 at cycle   3 NSaved=   3.
 NSaved= 3 IEnMin= 3 EnMin= -115.992730903636     IErMin= 3 ErrMin= 5.74D-03
 ErrMax= 5.74D-03  0.00D+00 EMaxC= 1.00D-01 BMatC= 1.38D-03 BMatP= 1.56D-02
 IDIUse=3 WtCom= 9.43D-01 WtEn= 5.74D-02
 Coeff-Com:  0.296D-01 0.247D+00 0.724D+00
 Coeff-En:   0.000D+00 0.000D+00 0.100D+01
 Coeff:      0.279D-01 0.233D+00 0.739D+00
 Gap=     0.477 Goal=   None    Shift=    0.000
 RMSDP=2.96D-04 MaxDP=8.29D-03 DE=-1.26D-02 OVMax= 9.33D-03

 Cycle   4  Pass 1  IDiag  1:
 E= -115.993846490606     Delta-E=       -0.001115586970 Rises=F Damp=F
 DIIS: error= 8.23D-04 at cycle   4 NSaved=   4.
 NSaved= 4 IEnMin= 4 EnMin= -115.993846490606     IErMin= 4 ErrMin= 8.23D-04
 ErrMax= 8.23D-04  0.00D+00 EMaxC= 1.00D-01 BMatC= 4.15D-05 BMatP= 1.38D-03
 IDIUse=3 WtCom= 9.92D-01 WtEn= 8.23D-03
 Coeff-Com:  0.189D-02 0.553D-01 0.241D+00 0.702D+00
 Coeff-En:   0.000D+00 0.000D+00 0.000D+00 0.100D+01
 Coeff:      0.188D-02 0.548D-01 0.239D+00 0.705D+00
 Gap=     0.477 Goal=   None    Shift=    0.000
 RMSDP=4.80D-05 MaxDP=1.29D-03 DE=-1.12D-03 OVMax= 1.73D-03

 Cycle   5  Pass 1  IDiag  1:
 E= -115.993871479702     Delta-E=       -0.000024989096 Rises=F Damp=F
 DIIS: error= 2.77D-04 at cycle   5 NSaved=   5.
 NSaved= 5 IEnMin= 5 EnMin= -115.993871479702     IErMin= 5 ErrMin= 2.77D-04
 ErrMax= 2.77D-04  0.00D+00 EMaxC= 1.00D-01 BMatC= 5.98D-06 BMatP= 4.15D-05
 IDIUse=3 WtCom= 9.97D-01 WtEn= 2.77D-03
 Coeff-Com: -0.199D-02 0.796D-02 0.609D-01 0.323D+00 0.611D+00
 Coeff-En:   0.000D+00 0.000D+00 0.000D+00 0.000D+00 0.100D+01
 Coeff:     -0.198D-02 0.794D-02 0.608D-01 0.322D+00 0.612D+00
 Gap=     0.477 Goal=   None    Shift=    0.000
 RMSDP=1.55D-05 MaxDP=4.04D-04 DE=-2.50D-05 OVMax= 4.66D-04

 Cycle   6  Pass 1  IDiag  1:
 E= -115.993875290445     Delta-E=       -0.000003810743 Rises=F Damp=F
 DIIS: error= 3.55D-05 at cycle   6 NSaved=   6.
 NSaved= 6 IEnMin= 6 EnMin= -115.993875290445     IErMin= 6 ErrMin= 3.55D-05
 ErrMax= 3.55D-05  0.00D+00 EMaxC= 1.00D-01 BMatC= 5.17D-08 BMatP= 5.98D-06
 IDIUse=1 WtCom= 1.00D+00 WtEn= 0.00D+00
 Coeff-Com:  0.308D-04-0.347D-02-0.152D-01-0.426D-01 0.838D-02 0.105D+01
 Coeff:      0.308D-04-0.347D-02-0.152D-01-0.426D-01 0.838D-02 0.105D+01
 Gap=     0.477 Goal=   None    Shift=    0.000
 RMSDP=3.38D-06 MaxDP=4.59D-05 DE=-3.81D-06 OVMax= 1.28D-04

 Cycle   7  Pass 1  IDiag  1:
 E= -115.993875355693     Delta-E=       -0.000000065247 Rises=F Damp=F
 DIIS: error= 4.32D-06 at cycle   7 NSaved=   7.
 NSaved= 7 IEnMin= 7 EnMin= -115.993875355693     IErMin= 7 ErrMin= 4.32D-06
 ErrMax= 4.32D-06  0.00D+00 EMaxC= 1.00D-01 BMatC= 1.17D-09 BMatP= 5.17D-08
 IDIUse=1 WtCom= 1.00D+00 WtEn= 0.00D+00
 Coeff-Com:  0.289D-04-0.321D-03-0.148D-02-0.552D-02-0.174D-01 0.198D-01
 Coeff-Com:  0.100D+01
 Coeff:      0.289D-04-0.321D-03-0.148D-02-0.552D-02-0.174D-01 0.198D-01
 Coeff:      0.100D+01
 Gap=     0.477 Goal=   None    Shift=    0.000
 RMSDP=5.27D-07 MaxDP=6.58D-06 DE=-6.52D-08 OVMax= 1.64D-05

 Cycle   8  Pass 1  IDiag  1:
 E= -115.993875357194     Delta-E=       -0.000000001501 Rises=F Damp=F
 DIIS: error= 5.30D-07 at cycle   8 NSaved=   8.
 NSaved= 8 IEnMin= 8 EnMin= -115.993875357194     IErMin= 8 ErrMin= 5.30D-07
 ErrMax= 5.30D-07  0.00D+00 EMaxC= 1.00D-01 BMatC= 2.56D-11 BMatP= 1.17D-09
 IDIUse=1 WtCom= 1.00D+00 WtEn= 0.00D+00
 Coeff-Com: -0.205D-06 0.689D-04 0.360D-03 0.966D-03-0.137D-02-0.316D-01
 Coeff-Com:  0.616D-01 0.970D+00
 Coeff:     -0.205D-06 0.689D-04 0.360D-03 0.966D-03-0.137D-02-0.316D-01
 Coeff:      0.616D-01 0.970D+00
 Gap=     0.477 Goal=   None    Shift=    0.000
 RMSDP=8.57D-08 MaxDP=1.09D-06 DE=-1.50D-09 OVMax= 2.58D-06

 Cycle   9  Pass 1  IDiag  1:
 E= -115.993875357229     Delta-E=       -0.000000000036 Rises=F Damp=F
 DIIS: error= 1.01D-07 at cycle   9 NSaved=   9.
 NSaved= 9 IEnMin= 9 EnMin= -115.993875357229     IErMin= 9 ErrMin= 1.01D-07
 ErrMax= 1.01D-07  0.00D+00 EMaxC= 1.00D-01 BMatC= 5.61D-13 BMatP= 2.56D-11
 IDIUse=1 WtCom= 1.00D+00 WtEn= 0.00D+00
 Coeff-Com: -0.540D-06 0.896D-05 0.414D-04 0.132D-03 0.427D-03-0.119D-02
 Coeff-Com: -0.199D-01 0.151D-01 0.101D+01
 Coeff:     -0.540D-06 0.896D-05 0.414D-04 0.132D-03 0.427D-03-0.119D-02
 Coeff:     -0.199D-01 0.151D-01 0.101D+01
 Gap=     0.477 Goal=   None    Shift=    0.000
 RMSDP=1.88D-08 MaxDP=2.74D-07 DE=-3.56D-11 OVMax= 6.92D-07

 Cycle  10  Pass 1  IDiag  1:
 E= -115.993875357231     Delta-E=       -0.000000000001 Rises=F Damp=F
 DIIS: error= 2.42D-08 at cycle  10 NSaved=  10.
 NSaved=10 IEnMin=10 EnMin= -115.993875357231     IErMin=10 ErrMin= 2.42D-08
 ErrMax= 2.42D-08  0.00D+00 EMaxC= 1.00D-01 BMatC= 4.28D-14 BMatP= 5.61D-13
 IDIUse=1 WtCom= 1.00D+00 WtEn= 0.00D+00
 Coeff-Com: -0.901D-07-0.192D-05-0.107D-04-0.264D-04 0.124D-03 0.146D-02
 Coeff-Com: -0.535D-02-0.499D-01 0.596D-01 0.994D+00
 Coeff:     -0.901D-07-0.192D-05-0.107D-04-0.264D-04 0.124D-03 0.146D-02
 Coeff:     -0.535D-02-0.499D-01 0.596D-01 0.994D+00
 Gap=     0.477 Goal=   None    Shift=    0.000
 RMSDP=3.82D-09 MaxDP=3.62D-08 DE=-1.25D-12 OVMax= 1.40D-07

 SCF Done:  E(RM062X) =  -115.993875357     A.U. after   10 cycles
            NFock= 10  Conv=0.38D-08     -V/T= 2.0013
 KE= 1.158399126901D+02 PE=-3.611795063141D+02 EE= 8.191507644795D+01
 Leave Link  502 at Sun Oct 13 19:49:40 2019, MaxMem=  1342177280 cpu:             150.3 elap:              31.3
 (Enter /apps/cent7/gaussian/g16-A.03/g16-haswell/g16/l601.exe)
 Copying SCF densities to generalized density rwf, IOpCl= 0 IROHF=0.

 **********************************************************************

            Population analysis using the SCF density.

 **********************************************************************

 Orbital symmetries:
       Occupied  (A) (A) (A) (A) (A) (A) (A) (A) (A)
       Virtual   (A) (A) (A) (A) (A) (A) (A) (A) (A) (A) (A) (A)
                 (A) (A) (A) (A) (A) (A) (A) (A) (A) (A) (A) (A)
                 (A) (A) (A) (A) (A) (A) (A) (A) (A) (A) (A) (A)
                 (A) (A) (A) (A) (A) (A) (A) (A) (A) (A) (A) (A)
                 (A) (A) (A) (A) (A) (A) (A) (A) (A) (A) (A) (A)
                 (A) (A) (A) (A) (A) (A) (A) (A) (A) (A)
 The electronic state is 1-A.
 Alpha  occ. eigenvalues --  -20.02442 -10.83483  -1.56127  -1.09045  -1.00938
 Alpha  occ. eigenvalues --   -0.88855  -0.83487  -0.72350  -0.69366
 Alpha virt. eigenvalues --   -0.21662  -0.15258  -0.13714  -0.11300  -0.09363
 Alpha virt. eigenvalues --   -0.08739  -0.07431  -0.06039  -0.03506  -0.02254
 Alpha virt. eigenvalues --   -0.01925   0.00124   0.01151   0.03424   0.03912
 Alpha virt. eigenvalues --    0.05483   0.05839   0.09981   0.13528   0.24351
 Alpha virt. eigenvalues --    0.25743   0.29453   0.33368   0.39299   0.47053
 Alpha virt. eigenvalues --    0.47347   0.50795   0.67583   0.70327   0.72486
 Alpha virt. eigenvalues --    0.76575   0.84808   0.87074   1.12208   1.17207
 Alpha virt. eigenvalues --    1.27386   1.27939   1.34639   1.34899   1.44352
 Alpha virt. eigenvalues --    1.47641   1.53668   1.56261   1.62653   1.75199
 Alpha virt. eigenvalues --    1.81794   1.88221   1.98182   2.03336   2.19241
 Alpha virt. eigenvalues --    2.23217   2.26516   2.34435   2.35975   2.43835
 Alpha virt. eigenvalues --    2.49282   2.65173   2.78194   3.01368   3.06133
 Alpha virt. eigenvalues --    3.36221   3.54104   3.64985   3.68201   3.70860
 Alpha virt. eigenvalues --    4.91395   5.37129   5.40967  23.79198  49.64274
          Condensed to atoms (all electrons):
               1          2          3          4          5          6
     1  C    5.141355   0.406079   0.402857   0.406965   0.094970  -0.019228
     2  H    0.406079   0.444762  -0.019909  -0.029710  -0.044119   0.004324
     3  H    0.402857  -0.019909   0.421800  -0.032270  -0.024997  -0.005889
     4  H    0.406965  -0.029710  -0.032270   0.472446  -0.041593  -0.002766
     5  O    0.094970  -0.044119  -0.024997  -0.041593   7.413197   0.345570
     6  H   -0.019228   0.004324  -0.005889  -0.002766   0.345570   0.308985
     7  H   -0.016062  -0.000508   0.001507  -0.002951   0.346232  -0.024355
               7
     1  C   -0.016062
     2  H   -0.000508
     3  H    0.001507
     4  H   -0.002951
     5  O    0.346232
     6  H   -0.024355
     7  H    0.309159
 Mulliken charges:
               1
     1  C   -0.416937
     2  H    0.239080
     3  H    0.256902
     4  H    0.229879
     5  O   -0.089261
     6  H    0.393358
     7  H    0.386979
 Sum of Mulliken charges =   1.00000
 Mulliken charges with hydrogens summed into heavy atoms:
               1
     1  C    0.308924
     5  O    0.691076
 Electronic spatial extent (au):  <R**2>=             81.4545
 Charge=              1.0000 electrons
 Dipole moment (field-independent basis, Debye):
    X=              1.4340    Y=              0.0189    Z=              1.5242  Tot=              2.0928
 Quadrupole moment (field-independent basis, Debye-Ang):
   XX=             -6.2480   YY=             -8.3158   ZZ=            -11.4719
   XY=             -0.0424   XZ=              1.9899   YZ=              0.0228
 Traceless Quadrupole moment (field-independent basis, Debye-Ang):
   XX=              2.4306   YY=              0.3628   ZZ=             -2.7934
   XY=             -0.0424   XZ=              1.9899   YZ=              0.0228
 Octapole moment (field-independent basis, Debye-Ang**2):
  XXX=              6.0739  YYY=              0.8991  ZZZ=              1.1070  XYY=              3.6593
  XXY=              0.0434  XXZ=              1.9410  XZZ=              0.5973  YZZ=             -0.8586
  YYZ=              0.7323  XYZ=             -0.1072
 Hexadecapole moment (field-independent basis, Debye-Ang**3):
 XXXX=            -48.8744 YYYY=            -14.2282 ZZZZ=            -15.8568 XXXY=             -0.0660
 XXXZ=              3.3320 YYYX=             -1.1132 YYYZ=              0.0604 ZZZX=              0.6172
 ZZZY=             -0.0842 XXYY=             -7.3787 XXZZ=            -10.9001 YYZZ=             -5.0571
 XXYZ=              0.2216 YYXZ=              2.0392 ZZXY=              1.0260
 N-N= 4.743064181879D+01 E-N=-3.611795061850D+02  KE= 1.158399126901D+02
 No NMR shielding tensors so no spin-rotation constants.
 Leave Link  601 at Sun Oct 13 19:49:44 2019, MaxMem=  1342177280 cpu:              16.3 elap:               3.4
 (Enter /apps/cent7/gaussian/g16-A.03/g16-haswell/g16/l701.exe)
 ... and contract with generalized density number  0.
 Compute integral first derivatives.
 Leave Link  701 at Sun Oct 13 19:49:47 2019, MaxMem=  1342177280 cpu:              15.4 elap:               3.2
 (Enter /apps/cent7/gaussian/g16-A.03/g16-haswell/g16/l702.exe)
 L702 exits ... SP integral derivatives will be done elsewhere.
 Leave Link  702 at Sun Oct 13 19:49:47 2019, MaxMem=  1342177280 cpu:               1.6 elap:               0.4
 (Enter /apps/cent7/gaussian/g16-A.03/g16-haswell/g16/l703.exe)
 Integral derivatives from FoFJK, PRISM(SPDF).
 Compute integral first derivatives, UseDBF=F ICtDFT=           0.
 Calling FoFJK, ICntrl=      2127 FMM=F ISym2X=0 I1Cent= 0 IOpClX= 0 NMat=1 NMatS=1 NMatT=0.
 FoFJK:  IHMeth= 1 ICntrl=    2127 DoSepK=F KAlg= 0 I1Cent=           0 FoldK=F
 IRaf=         0 NMat=       1 IRICut=       1 DoRegI=T DoRafI=F ISym2E= 0 IDoP0=0 IntGTp=1.
 FoFCou: FMM=F IPFlag=           0 FMFlag=      100000 FMFlg1=         800
         NFxFlg=           0 DoJE=F BraDBF=F KetDBF=F FulRan=T
         wScrn=  0.000000 ICntrl=      2127 IOpCl=  0 I1Cent=           0 NGrid=           0
         NMat0=    1 NMatS0=      1 NMatT0=    0 NMatD0=    1 NMtDS0=    0 NMtDT0=    0
 Symmetry not used in FoFCou.
 Leave Link  703 at Sun Oct 13 19:49:51 2019, MaxMem=  1342177280 cpu:              19.8 elap:               4.1
 (Enter /apps/cent7/gaussian/g16-A.03/g16-haswell/g16/l716.exe)
 Dipole        = 5.64180793D-01 7.44017717D-03 5.99666631D-01
 ***** Axes restored to original set *****
 -------------------------------------------------------------------
 Center     Atomic                   Forces (Hartrees/Bohr)
 Number     Number              X              Y              Z
 -------------------------------------------------------------------
      1        6          -0.013922409   -0.016510122    0.034494567
      2        1           0.008245787   -0.009658340   -0.004252586
      3        1           0.008250805    0.009268263    0.005717079
      4        1          -0.013590904   -0.000093526   -0.002364929
      5        8           0.010148072    0.004880065   -0.007938013
      6        1          -0.003114735    0.017608458   -0.007778400
      7        1           0.003983384   -0.005494798   -0.017877717
 -------------------------------------------------------------------
 Cartesian Forces:  Max     0.034494567 RMS     0.012244291
 Leave Link  716 at Sun Oct 13 19:49:52 2019, MaxMem=  1342177280 cpu:               2.3 elap:               0.5
 (Enter /apps/cent7/gaussian/g16-A.03/g16-haswell/g16/l103.exe)

 GradGradGradGradGradGradGradGradGradGradGradGradGradGradGradGradGradGrad
 Berny optimization.
 FormGI is forming the generalized inverse of G from B-inverse, IUseBI=4.
 Internal  Forces:  Max     0.039112109 RMS     0.012303225
 Search for a local minimum.
 Step number   1 out of a maximum of   31
 All quantities printed in internal units (Hartrees-Bohrs-Radians)
 RMS Force = .12303D-01 SwitMx=.10000D-02 MixMth= 1
 Mixed Optimization -- RFO/linear search
 Second derivative matrix not updated -- first step.
 ITU=  0
     Eigenvalues ---    0.01295   0.04656   0.07831   0.07831   0.16000
     Eigenvalues ---    0.16000   0.16000   0.16000   0.16000   0.37230
     Eigenvalues ---    0.37230   0.37230   0.40989   0.55473   0.55473
 RFO step:  Lambda=-1.04980302D-02 EMin= 1.29493787D-02
 Linear search not attempted -- first point.
 Iteration  1 RMS(Cart)=  0.06568672 RMS(Int)=  0.00426604
 Iteration  2 RMS(Cart)=  0.00301366 RMS(Int)=  0.00289054
 Iteration  3 RMS(Cart)=  0.00000536 RMS(Int)=  0.00289053
 Iteration  4 RMS(Cart)=  0.00000001 RMS(Int)=  0.00289053
 ITry= 1 IFail=0 DXMaxC= 1.06D-01 DCOld= 1.00D+10 DXMaxT= 3.00D-01 DXLimC= 3.00D+00 Rises=F
 Variable       Old X    -DE/DX   Delta X   Delta X   Delta X     New X
                                 (Linear)    (Quad)   (Total)
    R1        2.02201   0.01185   0.00000   0.03097   0.03097   2.05297
    R2        2.02201   0.01179   0.00000   0.03079   0.03079   2.05280
    R3        2.02201   0.01359   0.00000   0.03550   0.03550   2.05751
    R4        2.70231   0.03911   0.00000   0.09304   0.09304   2.79535
    R5        1.81414   0.01725   0.00000   0.03052   0.03052   1.84465
    R6        1.81414   0.01726   0.00000   0.03054   0.03054   1.84468
    A1        1.91063   0.00516   0.00000   0.01865   0.01662   1.92725
    A2        1.91063   0.00432   0.00000   0.02999   0.02999   1.94062
    A3        1.91063  -0.00731   0.00000  -0.04638  -0.04725   1.86338
    A4        1.91063   0.00541   0.00000   0.03870   0.03875   1.94938
    A5        1.91063  -0.00840   0.00000  -0.05159  -0.05245   1.85819
    A6        1.91063   0.00082   0.00000   0.01063   0.01065   1.92128
    A7        1.91063   0.01195   0.00000   0.09081   0.08521   1.99584
    A8        1.91063   0.01141   0.00000   0.08763   0.08202   1.99266
    A9        1.91063  -0.00635   0.00000   0.00415  -0.00469   1.90595
    D1        2.78140   0.00534   0.00000   0.09749   0.09868   2.88009
    D2        0.68701  -0.00118   0.00000  -0.01686  -0.01982   0.66719
    D3       -1.40739   0.00204   0.00000   0.06034   0.06332  -1.34407
    D4        2.78140  -0.00448   0.00000  -0.05401  -0.05518   2.72622
    D5        0.68701   0.00402   0.00000   0.08266   0.08471   0.77172
    D6       -1.40739  -0.00250   0.00000  -0.03169  -0.03379  -1.44118
         Item               Value     Threshold  Converged?
 Maximum Force            0.039112     0.000450     NO 
 RMS     Force            0.012303     0.000300     NO 
 Maximum Displacement     0.106263     0.001800     NO 
 RMS     Displacement     0.064828     0.001200     NO 
 Predicted change in Energy=-5.672809D-03
 Lowest energy point so far.  Saving SCF results.
 GradGradGradGradGradGradGradGradGradGradGradGradGradGradGradGradGradGrad

 Leave Link  103 at Sun Oct 13 19:49:55 2019, MaxMem=  1342177280 cpu:              16.0 elap:               3.4
 (Enter /apps/cent7/gaussian/g16-A.03/g16-haswell/g16/l202.exe)
                          Input orientation:                          
 ---------------------------------------------------------------------
 Center     Atomic      Atomic             Coordinates (Angstroms)
 Number     Number       Type             X           Y           Z
 ---------------------------------------------------------------------
      1          6           0       -0.162707    0.048165    0.811402
      2          1           0        0.244447   -0.958662    0.783809
      3          1           0        0.242465    0.597882    1.656202
      4          1           0       -1.251273    0.032185    0.826428
      5          8           0        0.318386    0.736457   -0.406356
      6          1           0       -0.157139    1.562728   -0.616159
      7          1           0        0.344849    0.170531   -1.201288
 ---------------------------------------------------------------------
                    Distance matrix (angstroms):
                    1          2          3          4          5
     1  C    0.000000
     2  H    1.086387   0.000000
     3  H    1.086296   1.784349   0.000000
     4  H    1.088787   1.794651   1.799942   0.000000
     5  O    1.479233   2.072532   2.068601   2.116503   0.000000
     6  H    2.081313   2.911802   2.500847   2.370812   0.976148
     7  H    2.079305   2.285994   2.891083   2.584256   0.976161
                    6          7
     6  H    0.000000
     7  H    1.591408   0.000000
 Stoichiometry    CH5O(1+)
 Framework group  C1[X(CH5O)]
 Deg. of freedom    15
 Full point group                 C1      NOp   1
 RotChk:  IX=0 Diff= 1.76D-02
 Largest Abelian subgroup         C1      NOp   1
 Largest concise Abelian subgroup C1      NOp   1
                         Standard orientation:                         
 ---------------------------------------------------------------------
 Center     Atomic      Atomic             Coordinates (Angstroms)
 Number     Number       Type             X           Y           Z
 ---------------------------------------------------------------------
      1          6           0       -0.769217   -0.001499    0.017115
      2          1           0       -1.097608    1.018052   -0.164301
      3          1           0       -1.135027   -0.662183   -0.763729
      4          1           0       -1.070839   -0.341969    1.006338
      5          8           0        0.706009   -0.000320   -0.091693
      6          1           0        1.137118   -0.796866    0.272347
      7          1           0        1.133585    0.794519    0.280194
 ---------------------------------------------------------------------
 Rotational constants (GHZ):         105.7425890          21.7614718          20.8789098
 Leave Link  202 at Sun Oct 13 19:49:55 2019, MaxMem=  1342177280 cpu:               1.9 elap:               0.3
 (Enter /apps/cent7/gaussian/g16-A.03/g16-haswell/g16/l301.exe)
 Standard basis: 6-311++G(d,p) (5D, 7F)
 Ernie: Thresh=  0.10000D-02 Tol=  0.10000D-05 Strict=F.
 There are    81 symmetry adapted cartesian basis functions of A   symmetry.
 There are    79 symmetry adapted basis functions of A   symmetry.
    79 basis functions,   117 primitive gaussians,    81 cartesian basis functions
     9 alpha electrons        9 beta electrons
       nuclear repulsion energy        46.2022465506 Hartrees.
 IExCor= 4336 DFT=T Ex+Corr=M062X ExCW=0 ScaHFX=  0.540000
 ScaDFX=  1.000000  1.000000  1.000000  1.000000 ScalE2=  1.000000  1.000000
 IRadAn=      5 IRanWt=     -1 IRanGd=            0 ICorTp=0 IEmpDi=  4
 NAtoms=    7 NActive=    7 NUniq=    7 SFac= 1.00D+00 NAtFMM=   60 NAOKFM=F Big=F
 Integral buffers will be    131072 words long.
 Raffenetti 2 integral format.
 Two-electron integral symmetry is turned on.
 Leave Link  301 at Sun Oct 13 19:49:56 2019, MaxMem=  1342177280 cpu:               2.9 elap:               0.6
 (Enter /apps/cent7/gaussian/g16-A.03/g16-haswell/g16/l302.exe)
 NPDir=0 NMtPBC=     1 NCelOv=     1 NCel=       1 NClECP=     1 NCelD=      1
         NCelK=      1 NCelE2=     1 NClLst=     1 CellRange=     0.0.
 One-electron integrals computed using PRISM.
 One-electron integral symmetry used in STVInt
 NBasis=    79 RedAO= T EigKep=  1.05D-03  NBF=    79
 NBsUse=    79 1.00D-06 EigRej= -1.00D+00 NBFU=    79
 Precomputing XC quadrature grid using
 IXCGrd= 4 IRadAn=           5 IRanWt=          -1 IRanGd=           0 AccXCQ= 0.00D+00.
 Generated NRdTot=       0 NPtTot=           0 NUsed=           0 NTot=          32
 NSgBfM=    81    81    81    81    81 MxSgAt=     7 MxSgA2=     7.
 Leave Link  302 at Sun Oct 13 19:50:00 2019, MaxMem=  1342177280 cpu:              18.8 elap:               4.0
 (Enter /apps/cent7/gaussian/g16-A.03/g16-haswell/g16/l303.exe)
 DipDrv:  MaxL=1.
 Leave Link  303 at Sun Oct 13 19:50:01 2019, MaxMem=  1342177280 cpu:               5.2 elap:               1.1
 (Enter /apps/cent7/gaussian/g16-A.03/g16-haswell/g16/l401.exe)
 Initial guess from the checkpoint file:  "methanol_p.chk"
 B after Tr=     0.000000    0.000000   -0.000000
         Rot=    0.999980    0.005725    0.002634    0.000692 Ang=   0.73 deg.
 Guess basis will be translated and rotated to current coordinates.
 JPrj=2 DoOrth=T DoCkMO=T.
 Generating alternative initial guess.
 ExpMin= 3.60D-02 ExpMax= 8.59D+03 ExpMxC= 1.30D+03 IAcc=3 IRadAn=         5 AccDes= 0.00D+00
 Harris functional with IExCor= 1009 and IRadAn=       5 diagonalized for initial guess.
 HarFok:  IExCor= 1009 AccDes= 0.00D+00 IRadAn=         5 IDoV= 1 UseB2=F ITyADJ=14
 ICtDFT=  3500011 ScaDFX=  1.000000  1.000000  1.000000  1.000000
 FoFCou: FMM=F IPFlag=           0 FMFlag=      100000 FMFlg1=           0
         NFxFlg=           0 DoJE=T BraDBF=F KetDBF=T FulRan=T
         wScrn=  0.000000 ICntrl=       500 IOpCl=  0 I1Cent=   200000004 NGrid=           0
         NMat0=    1 NMatS0=      1 NMatT0=    0 NMatD0=    1 NMtDS0=    0 NMtDT0=    0
 Petite list used in FoFCou.
 Harris En= -116.035454376749    
 Leave Link  401 at Sun Oct 13 19:50:06 2019, MaxMem=  1342177280 cpu:              23.0 elap:               4.8
 (Enter /apps/cent7/gaussian/g16-A.03/g16-haswell/g16/l502.exe)
 Keep R1 ints in memory in canonical form, NReq=26724339.
 FoFCou: FMM=F IPFlag=           0 FMFlag=           0 FMFlg1=           0
         NFxFlg=           0 DoJE=F BraDBF=F KetDBF=F FulRan=T
         wScrn=  0.000000 ICntrl=       600 IOpCl=  0 I1Cent=           0 NGrid=           0
         NMat0=    1 NMatS0=   3160 NMatT0=    0 NMatD0=    1 NMtDS0=    0 NMtDT0=    0
 Symmetry not used in FoFCou.
 Two-electron integral symmetry not used.
 Closed shell SCF:
 Using DIIS extrapolation, IDIIS=  1040.
 NGot=  1342177280 LenX=  1337166843 LenY=  1337159841
 Requested convergence on RMS density matrix=1.00D-08 within 128 cycles.
 Requested convergence on MAX density matrix=1.00D-06.
 Requested convergence on             energy=1.00D-06.
 No special actions if energy rises.

 Cycle   1  Pass 1  IDiag  1:
 E= -115.996603728386    
 DIIS: error= 5.90D-03 at cycle   1 NSaved=   1.
 NSaved= 1 IEnMin= 1 EnMin= -115.996603728386     IErMin= 1 ErrMin= 5.90D-03
 ErrMax= 5.90D-03  0.00D+00 EMaxC= 1.00D-01 BMatC= 3.06D-03 BMatP= 3.06D-03
 IDIUse=3 WtCom= 9.41D-01 WtEn= 5.90D-02
 Coeff-Com:  0.100D+01
 Coeff-En:   0.100D+01
 Coeff:      0.100D+01
 Gap=     0.575 Goal=   None    Shift=    0.000
 GapD=    0.575 DampG=2.000 DampE=1.000 DampFc=2.0000 IDamp=-1.
 RMSDP=9.87D-04 MaxDP=1.92D-02              OVMax= 1.79D-02

 Cycle   2  Pass 1  IDiag  1:
 E= -115.999629642901     Delta-E=       -0.003025914515 Rises=F Damp=F
 DIIS: error= 1.39D-03 at cycle   2 NSaved=   2.
 NSaved= 2 IEnMin= 2 EnMin= -115.999629642901     IErMin= 2 ErrMin= 1.39D-03
 ErrMax= 1.39D-03  0.00D+00 EMaxC= 1.00D-01 BMatC= 1.48D-04 BMatP= 3.06D-03
 IDIUse=3 WtCom= 9.86D-01 WtEn= 1.39D-02
 Coeff-Com:  0.787D-02 0.992D+00
 Coeff-En:   0.000D+00 0.100D+01
 Coeff:      0.776D-02 0.992D+00
 Gap=     0.476 Goal=   None    Shift=    0.000
 RMSDP=2.06D-04 MaxDP=5.73D-03 DE=-3.03D-03 OVMax= 6.00D-03

 Cycle   3  Pass 1  IDiag  1:
 E= -115.999760504908     Delta-E=       -0.000130862007 Rises=F Damp=F
 DIIS: error= 1.00D-03 at cycle   3 NSaved=   3.
 NSaved= 3 IEnMin= 3 EnMin= -115.999760504908     IErMin= 3 ErrMin= 1.00D-03
 ErrMax= 1.00D-03  0.00D+00 EMaxC= 1.00D-01 BMatC= 5.94D-05 BMatP= 1.48D-04
 IDIUse=3 WtCom= 9.90D-01 WtEn= 1.00D-02
 Coeff-Com: -0.506D-01 0.380D+00 0.670D+00
 Coeff-En:   0.000D+00 0.000D+00 0.100D+01
 Coeff:     -0.501D-01 0.376D+00 0.674D+00
 Gap=     0.474 Goal=   None    Shift=    0.000
 RMSDP=6.60D-05 MaxDP=1.79D-03 DE=-1.31D-04 OVMax= 2.12D-03

 Cycle   4  Pass 1  IDiag  1:
 E= -115.999814724654     Delta-E=       -0.000054219746 Rises=F Damp=F
 DIIS: error= 1.02D-04 at cycle   4 NSaved=   4.
 NSaved= 4 IEnMin= 4 EnMin= -115.999814724654     IErMin= 4 ErrMin= 1.02D-04
 ErrMax= 1.02D-04  0.00D+00 EMaxC= 1.00D-01 BMatC= 8.52D-07 BMatP= 5.94D-05
 IDIUse=3 WtCom= 9.99D-01 WtEn= 1.02D-03
 Coeff-Com: -0.545D-02-0.891D-02 0.672D-01 0.947D+00
 Coeff-En:   0.000D+00 0.000D+00 0.000D+00 0.100D+01
 Coeff:     -0.544D-02-0.891D-02 0.672D-01 0.947D+00
 Gap=     0.474 Goal=   None    Shift=    0.000
 RMSDP=1.65D-05 MaxDP=2.28D-04 DE=-5.42D-05 OVMax= 5.20D-04

 Cycle   5  Pass 1  IDiag  1:
 E= -115.999815860544     Delta-E=       -0.000001135889 Rises=F Damp=F
 DIIS: error= 4.22D-05 at cycle   5 NSaved=   5.
 NSaved= 5 IEnMin= 5 EnMin= -115.999815860544     IErMin= 5 ErrMin= 4.22D-05
 ErrMax= 4.22D-05  0.00D+00 EMaxC= 1.00D-01 BMatC= 1.57D-07 BMatP= 8.52D-07
 IDIUse=1 WtCom= 1.00D+00 WtEn= 0.00D+00
 Coeff-Com:  0.877D-03-0.247D-01-0.201D-01 0.303D+00 0.741D+00
 Coeff:      0.877D-03-0.247D-01-0.201D-01 0.303D+00 0.741D+00
 Gap=     0.474 Goal=   None    Shift=    0.000
 RMSDP=4.82D-06 MaxDP=8.45D-05 DE=-1.14D-06 OVMax= 1.29D-04

 Cycle   6  Pass 1  IDiag  1:
 E= -115.999815976644     Delta-E=       -0.000000116100 Rises=F Damp=F
 DIIS: error= 2.16D-05 at cycle   6 NSaved=   6.
 NSaved= 6 IEnMin= 6 EnMin= -115.999815976644     IErMin= 6 ErrMin= 2.16D-05
 ErrMax= 2.16D-05  0.00D+00 EMaxC= 1.00D-01 BMatC= 2.98D-08 BMatP= 1.57D-07
 IDIUse=1 WtCom= 1.00D+00 WtEn= 0.00D+00
 Coeff-Com:  0.130D-02-0.120D-01-0.195D-01 0.368D-01 0.329D+00 0.664D+00
 Coeff:      0.130D-02-0.120D-01-0.195D-01 0.368D-01 0.329D+00 0.664D+00
 Gap=     0.474 Goal=   None    Shift=    0.000
 RMSDP=1.50D-06 MaxDP=2.72D-05 DE=-1.16D-07 OVMax= 4.31D-05

 Cycle   7  Pass 1  IDiag  1:
 E= -115.999815998692     Delta-E=       -0.000000022048 Rises=F Damp=F
 DIIS: error= 2.39D-06 at cycle   7 NSaved=   7.
 NSaved= 7 IEnMin= 7 EnMin= -115.999815998692     IErMin= 7 ErrMin= 2.39D-06
 ErrMax= 2.39D-06  0.00D+00 EMaxC= 1.00D-01 BMatC= 3.83D-10 BMatP= 2.98D-08
 IDIUse=1 WtCom= 1.00D+00 WtEn= 0.00D+00
 Coeff-Com: -0.339D-04 0.105D-02 0.704D-03-0.123D-01-0.434D-01 0.288D-01
 Coeff-Com:  0.103D+01
 Coeff:     -0.339D-04 0.105D-02 0.704D-03-0.123D-01-0.434D-01 0.288D-01
 Coeff:      0.103D+01
 Gap=     0.474 Goal=   None    Shift=    0.000
 RMSDP=3.49D-07 MaxDP=4.37D-06 DE=-2.20D-08 OVMax= 1.34D-05

 Cycle   8  Pass 1  IDiag  1:
 E= -115.999815999227     Delta-E=       -0.000000000534 Rises=F Damp=F
 DIIS: error= 4.22D-07 at cycle   8 NSaved=   8.
 NSaved= 8 IEnMin= 8 EnMin= -115.999815999227     IErMin= 8 ErrMin= 4.22D-07
 ErrMax= 4.22D-07  0.00D+00 EMaxC= 1.00D-01 BMatC= 8.18D-12 BMatP= 3.83D-10
 IDIUse=1 WtCom= 1.00D+00 WtEn= 0.00D+00
 Coeff-Com: -0.250D-04 0.230D-03 0.419D-03-0.675D-03-0.773D-02-0.243D-01
 Coeff-Com: -0.921D-02 0.104D+01
 Coeff:     -0.250D-04 0.230D-03 0.419D-03-0.675D-03-0.773D-02-0.243D-01
 Coeff:     -0.921D-02 0.104D+01
 Gap=     0.474 Goal=   None    Shift=    0.000
 RMSDP=5.31D-08 MaxDP=7.01D-07 DE=-5.34D-10 OVMax= 2.14D-06

 Cycle   9  Pass 1  IDiag  1:
 E= -115.999815999240     Delta-E=       -0.000000000013 Rises=F Damp=F
 DIIS: error= 4.15D-08 at cycle   9 NSaved=   9.
 NSaved= 9 IEnMin= 9 EnMin= -115.999815999240     IErMin= 9 ErrMin= 4.15D-08
 ErrMax= 4.15D-08  0.00D+00 EMaxC= 1.00D-01 BMatC= 1.47D-13 BMatP= 8.18D-12
 IDIUse=1 WtCom= 1.00D+00 WtEn= 0.00D+00
 Coeff-Com:  0.209D-05-0.436D-04-0.334D-04 0.567D-03 0.167D-02-0.126D-02
 Coeff-Com: -0.358D-01 0.256D-02 0.103D+01
 Coeff:      0.209D-05-0.436D-04-0.334D-04 0.567D-03 0.167D-02-0.126D-02
 Coeff:     -0.358D-01 0.256D-02 0.103D+01
 Gap=     0.474 Goal=   None    Shift=    0.000
 RMSDP=1.19D-08 MaxDP=2.05D-07 DE=-1.34D-11 OVMax= 2.92D-07

 Cycle  10  Pass 1  IDiag  1:
 E= -115.999815999240     Delta-E=       -0.000000000000 Rises=F Damp=F
 DIIS: error= 4.57D-09 at cycle  10 NSaved=  10.
 NSaved=10 IEnMin=10 EnMin= -115.999815999240     IErMin=10 ErrMin= 4.57D-09
 ErrMax= 4.57D-09  0.00D+00 EMaxC= 1.00D-01 BMatC= 2.71D-15 BMatP= 1.47D-13
 IDIUse=1 WtCom= 1.00D+00 WtEn= 0.00D+00
 Coeff-Com:  0.513D-06-0.509D-05-0.777D-05 0.349D-04 0.163D-03 0.414D-03
 Coeff-Com:  0.143D-04-0.183D-01-0.427D-02 0.102D+01
 Coeff:      0.513D-06-0.509D-05-0.777D-05 0.349D-04 0.163D-03 0.414D-03
 Coeff:      0.143D-04-0.183D-01-0.427D-02 0.102D+01
 Gap=     0.474 Goal=   None    Shift=    0.000
 RMSDP=1.29D-09 MaxDP=1.78D-08 DE=-1.99D-13 OVMax= 3.88D-08

 SCF Done:  E(RM062X) =  -115.999815999     A.U. after   10 cycles
            NFock= 10  Conv=0.13D-08     -V/T= 2.0033
 KE= 1.156225471772D+02 PE=-3.587514297093D+02 EE= 8.092681998231D+01
 Leave Link  502 at Sun Oct 13 19:50:24 2019, MaxMem=  1342177280 cpu:              88.6 elap:              18.4
 (Enter /apps/cent7/gaussian/g16-A.03/g16-haswell/g16/l701.exe)
 ... and contract with generalized density number  0.
 Compute integral first derivatives.
 Leave Link  701 at Sun Oct 13 19:50:27 2019, MaxMem=  1342177280 cpu:              10.2 elap:               2.1
 (Enter /apps/cent7/gaussian/g16-A.03/g16-haswell/g16/l702.exe)
 L702 exits ... SP integral derivatives will be done elsewhere.
 Leave Link  702 at Sun Oct 13 19:50:27 2019, MaxMem=  1342177280 cpu:               2.2 elap:               0.4
 (Enter /apps/cent7/gaussian/g16-A.03/g16-haswell/g16/l703.exe)
 Integral derivatives from FoFJK, PRISM(SPDF).
 Compute integral first derivatives, UseDBF=F ICtDFT=           0.
 Calling FoFJK, ICntrl=      2127 FMM=F ISym2X=0 I1Cent= 0 IOpClX= 0 NMat=1 NMatS=1 NMatT=0.
 FoFJK:  IHMeth= 1 ICntrl=    2127 DoSepK=F KAlg= 0 I1Cent=           0 FoldK=F
 IRaf=         0 NMat=       1 IRICut=       1 DoRegI=T DoRafI=F ISym2E= 0 IDoP0=0 IntGTp=1.
 FoFCou: FMM=F IPFlag=           0 FMFlag=      100000 FMFlg1=         800
         NFxFlg=           0 DoJE=F BraDBF=F KetDBF=F FulRan=T
         wScrn=  0.000000 ICntrl=      2127 IOpCl=  0 I1Cent=           0 NGrid=           0
         NMat0=    1 NMatS0=      1 NMatT0=    0 NMatD0=    1 NMtDS0=    0 NMtDT0=    0
 Symmetry not used in FoFCou.
 Leave Link  703 at Sun Oct 13 19:50:31 2019, MaxMem=  1342177280 cpu:              17.3 elap:               3.6
 (Enter /apps/cent7/gaussian/g16-A.03/g16-haswell/g16/l716.exe)
 Dipole        = 6.04926382D-01 4.93090477D-03 5.32890304D-01
 ***** Axes restored to original set *****
 -------------------------------------------------------------------
 Center     Atomic                   Forces (Hartrees/Bohr)
 Number     Number              X              Y              Z
 -------------------------------------------------------------------
      1        6          -0.005438723   -0.007293698    0.015504365
      2        1           0.001861068    0.001077202   -0.002393210
      3        1           0.001247415    0.001771007   -0.002279093
      4        1           0.001052006    0.001230310   -0.003583561
      5        8          -0.002307724    0.001608159   -0.009048111
      6        1           0.002236966    0.001288182    0.001318647
      7        1           0.001348993    0.000318837    0.000480963
 -------------------------------------------------------------------
 Cartesian Forces:  Max     0.015504365 RMS     0.004676174
 Leave Link  716 at Sun Oct 13 19:50:31 2019, MaxMem=  1342177280 cpu:               1.4 elap:               0.3
 (Enter /apps/cent7/gaussian/g16-A.03/g16-haswell/g16/l103.exe)

 GradGradGradGradGradGradGradGradGradGradGradGradGradGradGradGradGradGrad
 Berny optimization.
 Using GEDIIS/GDIIS optimizer.
 FormGI is forming the generalized inverse of G from B-inverse, IUseBI=4.
 Internal  Forces:  Max     0.007879898 RMS     0.002666586
 Search for a local minimum.
 Step number   2 out of a maximum of   31
 All quantities printed in internal units (Hartrees-Bohrs-Radians)
 RMS Force = .26666D-02 SwitMx=.10000D-02 MixMth= 1
 Mixed Optimization -- RFO/linear search
 Update second derivatives using D2CorX and points    1    2
 DE= -5.94D-03 DEPred=-5.67D-03 R= 1.05D+00
 TightC=F SS=  1.41D+00  RLast= 2.47D-01 DXNew= 5.0454D-01 7.4079D-01
 Trust test= 1.05D+00 RLast= 2.47D-01 DXMaxT set to 5.05D-01
 ITU=  1  0
 Use linear search instead of GDIIS.
     Eigenvalues ---    0.01287   0.03659   0.07929   0.08349   0.13745
     Eigenvalues ---    0.16000   0.16000   0.16000   0.17183   0.37134
     Eigenvalues ---    0.37230   0.37679   0.38662   0.55472   0.56973
 RFO step:  Lambda=-9.83329802D-04 EMin= 1.28684152D-02
 Quartic linear search produced a step of  0.26300.
 Iteration  1 RMS(Cart)=  0.02834233 RMS(Int)=  0.00183349
 Iteration  2 RMS(Cart)=  0.00119544 RMS(Int)=  0.00138743
 Iteration  3 RMS(Cart)=  0.00000091 RMS(Int)=  0.00138743
 ITry= 1 IFail=0 DXMaxC= 6.61D-02 DCOld= 1.00D+10 DXMaxT= 5.05D-01 DXLimC= 3.00D+00 Rises=F
 Variable       Old X    -DE/DX   Delta X   Delta X   Delta X     New X
                                 (Linear)    (Quad)   (Total)
    R1        2.05297  -0.00024   0.00814  -0.00679   0.00135   2.05432
    R2        2.05280  -0.00041   0.00810  -0.00734   0.00076   2.05356
    R3        2.05751  -0.00112   0.00934  -0.01065  -0.00131   2.05620
    R4        2.79535   0.00788   0.02447   0.00623   0.03070   2.82604
    R5        1.84465  -0.00028   0.00803  -0.00665   0.00138   1.84603
    R6        1.84468  -0.00054   0.00803  -0.00724   0.00079   1.84547
    A1        1.92725   0.00284   0.00437   0.01824   0.02132   1.94857
    A2        1.94062   0.00355   0.00789   0.02227   0.02948   1.97010
    A3        1.86338  -0.00345  -0.01243  -0.01961  -0.03285   1.83053
    A4        1.94938   0.00379   0.01019   0.02479   0.03443   1.98381
    A5        1.85819  -0.00327  -0.01379  -0.01611  -0.03066   1.82752
    A6        1.92128  -0.00417   0.00280  -0.03390  -0.03163   1.88965
    A7        1.99584   0.00092   0.02241   0.00628   0.02590   2.02175
    A8        1.99266   0.00103   0.02157   0.00773   0.02652   2.01917
    A9        1.90595   0.00030  -0.00123   0.02817   0.02293   1.92888
    D1        2.88009   0.00149   0.02595   0.06583   0.09237   2.97245
    D2        0.66719  -0.00069  -0.00521   0.01325   0.00689   0.67408
    D3       -1.34407   0.00144   0.01665   0.06918   0.08704  -1.25704
    D4        2.72622  -0.00075  -0.01451   0.01660   0.00156   2.72778
    D5        0.77172   0.00166   0.02228   0.07009   0.09318   0.86490
    D6       -1.44118  -0.00052  -0.00889   0.01751   0.00771  -1.43347
         Item               Value     Threshold  Converged?
 Maximum Force            0.007880     0.000450     NO 
 RMS     Force            0.002667     0.000300     NO 
 Maximum Displacement     0.066090     0.001800     NO 
 RMS     Displacement     0.028286     0.001200     NO 
 Predicted change in Energy=-5.843969D-04
 Lowest energy point so far.  Saving SCF results.
 GradGradGradGradGradGradGradGradGradGradGradGradGradGradGradGradGradGrad

 Leave Link  103 at Sun Oct 13 19:50:43 2019, MaxMem=  1342177280 cpu:              57.6 elap:              12.0
 (Enter /apps/cent7/gaussian/g16-A.03/g16-haswell/g16/l202.exe)
                          Input orientation:                          
 ---------------------------------------------------------------------
 Center     Atomic      Atomic             Coordinates (Angstroms)
 Number     Number       Type             X           Y           Z
 ---------------------------------------------------------------------
      1          6           0       -0.174734    0.034997    0.831499
      2          1           0        0.264342   -0.958364    0.784221
      3          1           0        0.242826    0.619408    1.646985
      4          1           0       -1.262618    0.017683    0.818973
      5          8           0        0.297498    0.723111   -0.409448
      6          1           0       -0.122166    1.583242   -0.605267
      7          1           0        0.333880    0.169210   -1.212926
 ---------------------------------------------------------------------
                    Distance matrix (angstroms):
                    1          2          3          4          5
     1  C    0.000000
     2  H    1.087102   0.000000
     3  H    1.086696   1.798385   0.000000
     4  H    1.088094   1.812590   1.820450   0.000000
     5  O    1.495478   2.062354   2.059772   2.107275   0.000000
     6  H    2.112847   2.922298   2.476860   2.404176   0.976877
     7  H    2.111014   2.294528   2.896561   2.588509   0.976579
                    6          7
     6  H    0.000000
     7  H    1.605214   0.000000
 Stoichiometry    CH5O(1+)
 Framework group  C1[X(CH5O)]
 Deg. of freedom    15
 Full point group                 C1      NOp   1
 RotChk:  IX=0 Diff= 4.90D-02
 Largest Abelian subgroup         C1      NOp   1
 Largest concise Abelian subgroup C1      NOp   1
                         Standard orientation:                         
 ---------------------------------------------------------------------
 Center     Atomic      Atomic             Coordinates (Angstroms)
 Number     Number       Type             X           Y           Z
 ---------------------------------------------------------------------
      1          6           0       -0.785209   -0.001977    0.017467
      2          1           0       -1.082272    1.016099   -0.221419
      3          1           0       -1.112206   -0.704226   -0.744653
      4          1           0       -1.058735   -0.296220    1.028680
      5          8           0        0.706898   -0.000258   -0.082876
      6          1           0        1.156525   -0.803463    0.244209
      7          1           0        1.152758    0.801730    0.251387
 ---------------------------------------------------------------------
 Rotational constants (GHZ):         104.9438521          21.4946047          20.5851589
 Leave Link  202 at Sun Oct 13 19:50:43 2019, MaxMem=  1342177280 cpu:               2.0 elap:               0.5
 (Enter /apps/cent7/gaussian/g16-A.03/g16-haswell/g16/l301.exe)
 Standard basis: 6-311++G(d,p) (5D, 7F)
 Ernie: Thresh=  0.10000D-02 Tol=  0.10000D-05 Strict=F.
 There are    81 symmetry adapted cartesian basis functions of A   symmetry.
 There are    79 symmetry adapted basis functions of A   symmetry.
    79 basis functions,   117 primitive gaussians,    81 cartesian basis functions
     9 alpha electrons        9 beta electrons
       nuclear repulsion energy        45.9767494034 Hartrees.
 IExCor= 4336 DFT=T Ex+Corr=M062X ExCW=0 ScaHFX=  0.540000
 ScaDFX=  1.000000  1.000000  1.000000  1.000000 ScalE2=  1.000000  1.000000
 IRadAn=      5 IRanWt=     -1 IRanGd=            0 ICorTp=0 IEmpDi=  4
 NAtoms=    7 NActive=    7 NUniq=    7 SFac= 1.00D+00 NAtFMM=   60 NAOKFM=F Big=F
 Integral buffers will be    131072 words long.
 Raffenetti 2 integral format.
 Two-electron integral symmetry is turned on.
 Leave Link  301 at Sun Oct 13 19:50:44 2019, MaxMem=  1342177280 cpu:               2.8 elap:               0.5
 (Enter /apps/cent7/gaussian/g16-A.03/g16-haswell/g16/l302.exe)
 NPDir=0 NMtPBC=     1 NCelOv=     1 NCel=       1 NClECP=     1 NCelD=      1
         NCelK=      1 NCelE2=     1 NClLst=     1 CellRange=     0.0.
 One-electron integrals computed using PRISM.
 One-electron integral symmetry used in STVInt
 NBasis=    79 RedAO= T EigKep=  1.07D-03  NBF=    79
 NBsUse=    79 1.00D-06 EigRej= -1.00D+00 NBFU=    79
 Precomputing XC quadrature grid using
 IXCGrd= 4 IRadAn=           5 IRanWt=          -1 IRanGd=           0 AccXCQ= 0.00D+00.
 Generated NRdTot=       0 NPtTot=           0 NUsed=           0 NTot=          32
 NSgBfM=    81    81    81    81    81 MxSgAt=     7 MxSgA2=     7.
 Leave Link  302 at Sun Oct 13 19:50:48 2019, MaxMem=  1342177280 cpu:              21.4 elap:               4.4
 (Enter /apps/cent7/gaussian/g16-A.03/g16-haswell/g16/l303.exe)
 DipDrv:  MaxL=1.
 Leave Link  303 at Sun Oct 13 19:50:50 2019, MaxMem=  1342177280 cpu:               6.3 elap:               1.3
 (Enter /apps/cent7/gaussian/g16-A.03/g16-haswell/g16/l401.exe)
 Initial guess from the checkpoint file:  "methanol_p.chk"
 B after Tr=    -0.000000    0.000000    0.000000
         Rot=    0.999861    0.016682    0.000002   -0.000234 Ang=   1.91 deg.
 Guess basis will be translated and rotated to current coordinates.
 JPrj=2 DoOrth=T DoCkMO=T.
 Generating alternative initial guess.
 ExpMin= 3.60D-02 ExpMax= 8.59D+03 ExpMxC= 1.30D+03 IAcc=3 IRadAn=         5 AccDes= 0.00D+00
 Harris functional with IExCor= 1009 and IRadAn=       5 diagonalized for initial guess.
 HarFok:  IExCor= 1009 AccDes= 0.00D+00 IRadAn=         5 IDoV= 1 UseB2=F ITyADJ=14
 ICtDFT=  3500011 ScaDFX=  1.000000  1.000000  1.000000  1.000000
 FoFCou: FMM=F IPFlag=           0 FMFlag=      100000 FMFlg1=           0
         NFxFlg=           0 DoJE=T BraDBF=F KetDBF=T FulRan=T
         wScrn=  0.000000 ICntrl=       500 IOpCl=  0 I1Cent=   200000004 NGrid=           0
         NMat0=    1 NMatS0=      1 NMatT0=    0 NMatD0=    1 NMtDS0=    0 NMtDT0=    0
 Petite list used in FoFCou.
 Harris En= -116.033969266713    
 Leave Link  401 at Sun Oct 13 19:50:57 2019, MaxMem=  1342177280 cpu:              33.6 elap:               7.0
 (Enter /apps/cent7/gaussian/g16-A.03/g16-haswell/g16/l502.exe)
 Keep R1 ints in memory in canonical form, NReq=26724339.
 FoFCou: FMM=F IPFlag=           0 FMFlag=           0 FMFlg1=           0
         NFxFlg=           0 DoJE=F BraDBF=F KetDBF=F FulRan=T
         wScrn=  0.000000 ICntrl=       600 IOpCl=  0 I1Cent=           0 NGrid=           0
         NMat0=    1 NMatS0=   3160 NMatT0=    0 NMatD0=    1 NMtDS0=    0 NMtDT0=    0
 Symmetry not used in FoFCou.
 Two-electron integral symmetry not used.
 Closed shell SCF:
 Using DIIS extrapolation, IDIIS=  1040.
 NGot=  1342177280 LenX=  1337166843 LenY=  1337159841
 Requested convergence on RMS density matrix=1.00D-08 within 128 cycles.
 Requested convergence on MAX density matrix=1.00D-06.
 Requested convergence on             energy=1.00D-06.
 No special actions if energy rises.

 Cycle   1  Pass 1  IDiag  1:
 E= -115.999738491035    
 DIIS: error= 2.49D-03 at cycle   1 NSaved=   1.
 NSaved= 1 IEnMin= 1 EnMin= -115.999738491035     IErMin= 1 ErrMin= 2.49D-03
 ErrMax= 2.49D-03  0.00D+00 EMaxC= 1.00D-01 BMatC= 7.11D-04 BMatP= 7.11D-04
 IDIUse=3 WtCom= 9.75D-01 WtEn= 2.49D-02
 Coeff-Com:  0.100D+01
 Coeff-En:   0.100D+01
 Coeff:      0.100D+01
 Gap=     0.579 Goal=   None    Shift=    0.000
 GapD=    0.579 DampG=2.000 DampE=1.000 DampFc=2.0000 IDamp=-1.
 RMSDP=4.80D-04 MaxDP=9.02D-03              OVMax= 9.40D-03

 Cycle   2  Pass 1  IDiag  1:
 E= -116.000545306121     Delta-E=       -0.000806815086 Rises=F Damp=F
 DIIS: error= 4.33D-04 at cycle   2 NSaved=   2.
 NSaved= 2 IEnMin= 2 EnMin= -116.000545306121     IErMin= 2 ErrMin= 4.33D-04
 ErrMax= 4.33D-04  0.00D+00 EMaxC= 1.00D-01 BMatC= 2.15D-05 BMatP= 7.11D-04
 IDIUse=3 WtCom= 9.96D-01 WtEn= 4.33D-03
 Coeff-Com: -0.100D+00 0.110D+01
 Coeff-En:   0.000D+00 0.100D+01
 Coeff:     -0.997D-01 0.110D+01
 Gap=     0.476 Goal=   None    Shift=    0.000
 RMSDP=8.85D-05 MaxDP=1.48D-03 DE=-8.07D-04 OVMax= 2.64D-03

 Cycle   3  Pass 1  IDiag  1:
 E= -116.000573334555     Delta-E=       -0.000028028435 Rises=F Damp=F
 DIIS: error= 3.73D-04 at cycle   3 NSaved=   3.
 NSaved= 3 IEnMin= 3 EnMin= -116.000573334555     IErMin= 3 ErrMin= 3.73D-04
 ErrMax= 3.73D-04  0.00D+00 EMaxC= 1.00D-01 BMatC= 8.96D-06 BMatP= 2.15D-05
 IDIUse=3 WtCom= 9.96D-01 WtEn= 3.73D-03
 Coeff-Com: -0.589D-01 0.461D+00 0.598D+00
 Coeff-En:   0.000D+00 0.000D+00 0.100D+01
 Coeff:     -0.587D-01 0.460D+00 0.599D+00
 Gap=     0.476 Goal=   None    Shift=    0.000
 RMSDP=2.28D-05 MaxDP=5.00D-04 DE=-2.80D-05 OVMax= 8.31D-04

 Cycle   4  Pass 1  IDiag  1:
 E= -116.000579759756     Delta-E=       -0.000006425200 Rises=F Damp=F
 DIIS: error= 1.03D-04 at cycle   4 NSaved=   4.
 NSaved= 4 IEnMin= 4 EnMin= -116.000579759756     IErMin= 4 ErrMin= 1.03D-04
 ErrMax= 1.03D-04  0.00D+00 EMaxC= 1.00D-01 BMatC= 7.66D-07 BMatP= 8.96D-06
 IDIUse=3 WtCom= 9.99D-01 WtEn= 1.03D-03
 Coeff-Com: -0.936D-02 0.908D-02 0.210D+00 0.790D+00
 Coeff-En:   0.000D+00 0.000D+00 0.000D+00 0.100D+01
 Coeff:     -0.935D-02 0.907D-02 0.210D+00 0.790D+00
 Gap=     0.476 Goal=   None    Shift=    0.000
 RMSDP=8.03D-06 MaxDP=1.86D-04 DE=-6.43D-06 OVMax= 2.27D-04

 Cycle   5  Pass 1  IDiag  1:
 E= -116.000580349643     Delta-E=       -0.000000589887 Rises=F Damp=F
 DIIS: error= 1.57D-05 at cycle   5 NSaved=   5.
 NSaved= 5 IEnMin= 5 EnMin= -116.000580349643     IErMin= 5 ErrMin= 1.57D-05
 ErrMax= 1.57D-05  0.00D+00 EMaxC= 1.00D-01 BMatC= 1.93D-08 BMatP= 7.66D-07
 IDIUse=1 WtCom= 1.00D+00 WtEn= 0.00D+00
 Coeff-Com:  0.292D-02-0.331D-01-0.385D-02 0.982D-01 0.936D+00
 Coeff:      0.292D-02-0.331D-01-0.385D-02 0.982D-01 0.936D+00
 Gap=     0.476 Goal=   None    Shift=    0.000
 RMSDP=2.79D-06 MaxDP=5.19D-05 DE=-5.90D-07 OVMax= 8.70D-05

 Cycle   6  Pass 1  IDiag  1:
 E= -116.000580376178     Delta-E=       -0.000000026535 Rises=F Damp=F
 DIIS: error= 7.49D-06 at cycle   6 NSaved=   6.
 NSaved= 6 IEnMin= 6 EnMin= -116.000580376178     IErMin= 6 ErrMin= 7.49D-06
 ErrMax= 7.49D-06  0.00D+00 EMaxC= 1.00D-01 BMatC= 2.94D-09 BMatP= 1.93D-08
 IDIUse=1 WtCom= 1.00D+00 WtEn= 0.00D+00
 Coeff-Com:  0.131D-02-0.113D-01-0.946D-02-0.624D-02 0.330D+00 0.696D+00
 Coeff:      0.131D-02-0.113D-01-0.946D-02-0.624D-02 0.330D+00 0.696D+00
 Gap=     0.476 Goal=   None    Shift=    0.000
 RMSDP=5.93D-07 MaxDP=1.34D-05 DE=-2.65D-08 OVMax= 1.81D-05

 Cycle   7  Pass 1  IDiag  1:
 E= -116.000580379066     Delta-E=       -0.000000002888 Rises=F Damp=F
 DIIS: error= 7.76D-07 at cycle   7 NSaved=   7.
 NSaved= 7 IEnMin= 7 EnMin= -116.000580379066     IErMin= 7 ErrMin= 7.76D-07
 ErrMax= 7.76D-07  0.00D+00 EMaxC= 1.00D-01 BMatC= 6.08D-11 BMatP= 2.94D-09
 IDIUse=1 WtCom= 1.00D+00 WtEn= 0.00D+00
 Coeff-Com: -0.479D-04 0.105D-02-0.600D-03-0.801D-02-0.279D-01 0.674D-01
 Coeff-Com:  0.968D+00
 Coeff:     -0.479D-04 0.105D-02-0.600D-03-0.801D-02-0.279D-01 0.674D-01
 Coeff:      0.968D+00
 Gap=     0.476 Goal=   None    Shift=    0.000
 RMSDP=1.37D-07 MaxDP=2.75D-06 DE=-2.89D-09 OVMax= 5.34D-06

 Cycle   8  Pass 1  IDiag  1:
 E= -116.000580379168     Delta-E=       -0.000000000102 Rises=F Damp=F
 DIIS: error= 1.26D-07 at cycle   8 NSaved=   8.
 NSaved= 8 IEnMin= 8 EnMin= -116.000580379168     IErMin= 8 ErrMin= 1.26D-07
 ErrMax= 1.26D-07  0.00D+00 EMaxC= 1.00D-01 BMatC= 1.83D-12 BMatP= 6.08D-11
 IDIUse=1 WtCom= 1.00D+00 WtEn= 0.00D+00
 Coeff-Com: -0.551D-04 0.521D-03 0.168D-03-0.458D-03-0.156D-01-0.252D-01
 Coeff-Com:  0.342D-01 0.101D+01
 Coeff:     -0.551D-04 0.521D-03 0.168D-03-0.458D-03-0.156D-01-0.252D-01
 Coeff:      0.342D-01 0.101D+01
 Gap=     0.476 Goal=   None    Shift=    0.000
 RMSDP=2.51D-08 MaxDP=4.25D-07 DE=-1.02D-10 OVMax= 1.21D-06

 Cycle   9  Pass 1  IDiag  1:
 E= -116.000580379172     Delta-E=       -0.000000000004 Rises=F Damp=F
 DIIS: error= 1.93D-08 at cycle   9 NSaved=   9.
 NSaved= 9 IEnMin= 9 EnMin= -116.000580379172     IErMin= 9 ErrMin= 1.93D-08
 ErrMax= 1.93D-08  0.00D+00 EMaxC= 1.00D-01 BMatC= 3.57D-14 BMatP= 1.83D-12
 IDIUse=1 WtCom= 1.00D+00 WtEn= 0.00D+00
 Coeff-Com:  0.655D-05-0.756D-04-0.247D-04 0.290D-03 0.244D-02 0.228D-03
 Coeff-Com: -0.311D-01-0.617D-01 0.109D+01
 Coeff:      0.655D-05-0.756D-04-0.247D-04 0.290D-03 0.244D-02 0.228D-03
 Coeff:     -0.311D-01-0.617D-01 0.109D+01
 Gap=     0.476 Goal=   None    Shift=    0.000
 RMSDP=6.23D-09 MaxDP=1.22D-07 DE=-3.75D-12 OVMax= 1.39D-07

 SCF Done:  E(RM062X) =  -116.000580379     A.U. after    9 cycles
            NFock=  9  Conv=0.62D-08     -V/T= 2.0034
 KE= 1.156027467001D+02 PE=-3.583365538250D+02 EE= 8.075647734236D+01
 Leave Link  502 at Sun Oct 13 19:51:24 2019, MaxMem=  1342177280 cpu:             129.0 elap:              26.9
 (Enter /apps/cent7/gaussian/g16-A.03/g16-haswell/g16/l701.exe)
 ... and contract with generalized density number  0.
 Compute integral first derivatives.
 Leave Link  701 at Sun Oct 13 19:51:27 2019, MaxMem=  1342177280 cpu:              16.1 elap:               3.3
 (Enter /apps/cent7/gaussian/g16-A.03/g16-haswell/g16/l702.exe)
 L702 exits ... SP integral derivatives will be done elsewhere.
 Leave Link  702 at Sun Oct 13 19:51:27 2019, MaxMem=  1342177280 cpu:               2.2 elap:               0.4
 (Enter /apps/cent7/gaussian/g16-A.03/g16-haswell/g16/l703.exe)
 Integral derivatives from FoFJK, PRISM(SPDF).
 Compute integral first derivatives, UseDBF=F ICtDFT=           0.
 Calling FoFJK, ICntrl=      2127 FMM=F ISym2X=0 I1Cent= 0 IOpClX= 0 NMat=1 NMatS=1 NMatT=0.
 FoFJK:  IHMeth= 1 ICntrl=    2127 DoSepK=F KAlg= 0 I1Cent=           0 FoldK=F
 IRaf=         0 NMat=       1 IRICut=       1 DoRegI=T DoRafI=F ISym2E= 0 IDoP0=0 IntGTp=1.
 FoFCou: FMM=F IPFlag=           0 FMFlag=      100000 FMFlg1=         800
         NFxFlg=           0 DoJE=F BraDBF=F KetDBF=F FulRan=T
         wScrn=  0.000000 ICntrl=      2127 IOpCl=  0 I1Cent=           0 NGrid=           0
         NMat0=    1 NMatS0=      1 NMatT0=    0 NMatD0=    1 NMtDS0=    0 NMtDT0=    0
 Symmetry not used in FoFCou.
 Leave Link  703 at Sun Oct 13 19:51:33 2019, MaxMem=  1342177280 cpu:              26.9 elap:               5.6
 (Enter /apps/cent7/gaussian/g16-A.03/g16-haswell/g16/l716.exe)
 Dipole        = 6.09821008D-01 4.54372318D-03 4.82265976D-01
 ***** Axes restored to original set *****
 -------------------------------------------------------------------
 Center     Atomic                   Forces (Hartrees/Bohr)
 Number     Number              X              Y              Z
 -------------------------------------------------------------------
      1        6          -0.000976955   -0.001395663    0.003103863
      2        1          -0.000321977    0.000938074    0.000670038
      3        1          -0.001023965   -0.000695509   -0.000355101
      4        1           0.001335333   -0.000427962    0.000162263
      5        8          -0.000433120    0.001775733   -0.006678397
      6        1           0.001632280   -0.001276664    0.001316096
      7        1          -0.000211595    0.001081992    0.001781237
 -------------------------------------------------------------------
 Cartesian Forces:  Max     0.006678397 RMS     0.001902082
 Leave Link  716 at Sun Oct 13 19:51:33 2019, MaxMem=  1342177280 cpu:               2.3 elap:               0.4
 (Enter /apps/cent7/gaussian/g16-A.03/g16-haswell/g16/l103.exe)

 GradGradGradGradGradGradGradGradGradGradGradGradGradGradGradGradGradGrad
 Berny optimization.
 Using GEDIIS/GDIIS optimizer.
 FormGI is forming the generalized inverse of G from B-inverse, IUseBI=4.
 Internal  Forces:  Max     0.004011078 RMS     0.001234904
 Search for a local minimum.
 Step number   3 out of a maximum of   31
 All quantities printed in internal units (Hartrees-Bohrs-Radians)
 RMS Force = .12349D-02 SwitMx=.10000D-02 MixMth= 1
 Mixed Optimization -- RFO/linear search
 Update second derivatives using D2CorX and points    1    2    3
 DE= -7.64D-04 DEPred=-5.84D-04 R= 1.31D+00
 TightC=F SS=  1.41D+00  RLast= 1.82D-01 DXNew= 8.4853D-01 5.4726D-01
 Trust test= 1.31D+00 RLast= 1.82D-01 DXMaxT set to 5.47D-01
 ITU=  1  1  0
 Use linear search instead of GDIIS.
     Eigenvalues ---    0.01026   0.02891   0.08260   0.08638   0.15727
     Eigenvalues ---    0.15993   0.16000   0.16087   0.17456   0.34218
     Eigenvalues ---    0.37230   0.37260   0.39171   0.55475   0.58916
 RFO step:  Lambda=-1.82906884D-04 EMin= 1.02643441D-02
 Quartic linear search produced a step of  0.17104.
 Iteration  1 RMS(Cart)=  0.01857410 RMS(Int)=  0.00039160
 Iteration  2 RMS(Cart)=  0.00031922 RMS(Int)=  0.00018603
 Iteration  3 RMS(Cart)=  0.00000011 RMS(Int)=  0.00018603
 ITry= 1 IFail=0 DXMaxC= 4.99D-02 DCOld= 1.00D+10 DXMaxT= 5.47D-01 DXLimC= 3.00D+00 Rises=F
 Variable       Old X    -DE/DX   Delta X   Delta X   Delta X     New X
                                 (Linear)    (Quad)   (Total)
    R1        2.05432  -0.00102   0.00023  -0.00263  -0.00239   2.05193
    R2        2.05356  -0.00103   0.00013  -0.00267  -0.00254   2.05102
    R3        2.05620  -0.00133  -0.00022  -0.00346  -0.00368   2.05252
    R4        2.82604   0.00401   0.00525   0.01234   0.01759   2.84364
    R5        1.84603  -0.00209   0.00024  -0.00386  -0.00362   1.84241
    R6        1.84547  -0.00209   0.00014  -0.00384  -0.00370   1.84176
    A1        1.94857  -0.00050   0.00365  -0.00364  -0.00013   1.94845
    A2        1.97010  -0.00044   0.00504  -0.00326   0.00166   1.97176
    A3        1.83053   0.00064  -0.00562   0.00436  -0.00137   1.82916
    A4        1.98381  -0.00056   0.00589  -0.00413   0.00166   1.98546
    A5        1.82752   0.00084  -0.00524   0.00565   0.00031   1.82784
    A6        1.88965   0.00027  -0.00541   0.00284  -0.00266   1.88699
    A7        2.02175  -0.00022   0.00443   0.00248   0.00653   2.02828
    A8        2.01917   0.00001   0.00454   0.00407   0.00822   2.02739
    A9        1.92888   0.00044   0.00392   0.00708   0.01047   1.93935
    D1        2.97245   0.00057   0.01580   0.04271   0.05861   3.03107
    D2        0.67408   0.00011   0.00118   0.02471   0.02577   0.69985
    D3       -1.25704   0.00065   0.01489   0.04300   0.05801  -1.19902
    D4        2.72778   0.00019   0.00027   0.02500   0.02517   2.75295
    D5        0.86490   0.00060   0.01594   0.04272   0.05876   0.92366
    D6       -1.43347   0.00013   0.00132   0.02472   0.02592  -1.40755
         Item               Value     Threshold  Converged?
 Maximum Force            0.004011     0.000450     NO 
 RMS     Force            0.001235     0.000300     NO 
 Maximum Displacement     0.049867     0.001800     NO 
 RMS     Displacement     0.018605     0.001200     NO 
 Predicted change in Energy=-1.058498D-04
 Lowest energy point so far.  Saving SCF results.
 GradGradGradGradGradGradGradGradGradGradGradGradGradGradGradGradGradGrad

 Leave Link  103 at Sun Oct 13 19:51:46 2019, MaxMem=  1342177280 cpu:              60.7 elap:              12.7
 (Enter /apps/cent7/gaussian/g16-A.03/g16-haswell/g16/l202.exe)
                          Input orientation:                          
 ---------------------------------------------------------------------
 Center     Atomic      Atomic             Coordinates (Angstroms)
 Number     Number       Type             X           Y           Z
 ---------------------------------------------------------------------
      1          6           0       -0.177134    0.031295    0.835549
      2          1           0        0.273350   -0.955882    0.795777
      3          1           0        0.232498    0.625781    1.645965
      4          1           0       -1.262782    0.002830    0.819134
      5          8           0        0.291924    0.718755   -0.418155
      6          1           0       -0.095777    1.594682   -0.599774
      7          1           0        0.316949    0.171825   -1.224459
 ---------------------------------------------------------------------
                    Distance matrix (angstroms):
                    1          2          3          4          5
     1  C    0.000000
     2  H    1.085835   0.000000
     3  H    1.085351   1.796147   0.000000
     4  H    1.086145   1.810905   1.818675   0.000000
     5  O    1.504788   2.068425   2.067067   2.112000   0.000000
     6  H    2.123899   2.930733   2.467768   2.430883   0.974960
     7  H    2.123086   2.314082   2.907325   2.588509   0.974620
                    6          7
     6  H    0.000000
     7  H    1.607823   0.000000
 Stoichiometry    CH5O(1+)
 Framework group  C1[X(CH5O)]
 Deg. of freedom    15
 Full point group                 C1      NOp   1
 RotChk:  IX=0 Diff= 4.37D-02
 Largest Abelian subgroup         C1      NOp   1
 Largest concise Abelian subgroup C1      NOp   1
                         Standard orientation:                         
 ---------------------------------------------------------------------
 Center     Atomic      Atomic             Coordinates (Angstroms)
 Number     Number       Type             X           Y           Z
 ---------------------------------------------------------------------
      1          6           0       -0.790902   -0.001871    0.017132
      2          1           0       -1.088196    1.003297   -0.266223
      3          1           0       -1.113592   -0.735854   -0.714392
      4          1           0       -1.063469   -0.252601    1.038187
      5          8           0        0.710789   -0.000252   -0.079342
      6          1           0        1.163347   -0.804706    0.234653
      7          1           0        1.161010    0.803107    0.239717
 ---------------------------------------------------------------------
 Rotational constants (GHZ):         105.3912568          21.2810264          20.3724530
 Leave Link  202 at Sun Oct 13 19:51:47 2019, MaxMem=  1342177280 cpu:               1.8 elap:               0.4
 (Enter /apps/cent7/gaussian/g16-A.03/g16-haswell/g16/l301.exe)
 Standard basis: 6-311++G(d,p) (5D, 7F)
 Ernie: Thresh=  0.10000D-02 Tol=  0.10000D-05 Strict=F.
 There are    81 symmetry adapted cartesian basis functions of A   symmetry.
 There are    79 symmetry adapted basis functions of A   symmetry.
    79 basis functions,   117 primitive gaussians,    81 cartesian basis functions
     9 alpha electrons        9 beta electrons
       nuclear repulsion energy        45.8626215368 Hartrees.
 IExCor= 4336 DFT=T Ex+Corr=M062X ExCW=0 ScaHFX=  0.540000
 ScaDFX=  1.000000  1.000000  1.000000  1.000000 ScalE2=  1.000000  1.000000
 IRadAn=      5 IRanWt=     -1 IRanGd=            0 ICorTp=0 IEmpDi=  4
 NAtoms=    7 NActive=    7 NUniq=    7 SFac= 1.00D+00 NAtFMM=   60 NAOKFM=F Big=F
 Integral buffers will be    131072 words long.
 Raffenetti 2 integral format.
 Two-electron integral symmetry is turned on.
 Leave Link  301 at Sun Oct 13 19:51:47 2019, MaxMem=  1342177280 cpu:               1.8 elap:               0.3
 (Enter /apps/cent7/gaussian/g16-A.03/g16-haswell/g16/l302.exe)
 NPDir=0 NMtPBC=     1 NCelOv=     1 NCel=       1 NClECP=     1 NCelD=      1
         NCelK=      1 NCelE2=     1 NClLst=     1 CellRange=     0.0.
 One-electron integrals computed using PRISM.
 One-electron integral symmetry used in STVInt
 NBasis=    79 RedAO= T EigKep=  1.08D-03  NBF=    79
 NBsUse=    79 1.00D-06 EigRej= -1.00D+00 NBFU=    79
 Precomputing XC quadrature grid using
 IXCGrd= 4 IRadAn=           5 IRanWt=          -1 IRanGd=           0 AccXCQ= 0.00D+00.
 Generated NRdTot=       0 NPtTot=           0 NUsed=           0 NTot=          32
 NSgBfM=    81    81    81    81    81 MxSgAt=     7 MxSgA2=     7.
 Leave Link  302 at Sun Oct 13 19:51:51 2019, MaxMem=  1342177280 cpu:              22.0 elap:               4.6
 (Enter /apps/cent7/gaussian/g16-A.03/g16-haswell/g16/l303.exe)
 DipDrv:  MaxL=1.
 Leave Link  303 at Sun Oct 13 19:51:53 2019, MaxMem=  1342177280 cpu:               6.6 elap:               1.4
 (Enter /apps/cent7/gaussian/g16-A.03/g16-haswell/g16/l401.exe)
 Initial guess from the checkpoint file:  "methanol_p.chk"
 B after Tr=    -0.000000   -0.000000   -0.000000
         Rot=    0.999887    0.015061    0.000120   -0.000148 Ang=   1.73 deg.
 Guess basis will be translated and rotated to current coordinates.
 JPrj=2 DoOrth=T DoCkMO=T.
 Generating alternative initial guess.
 ExpMin= 3.60D-02 ExpMax= 8.59D+03 ExpMxC= 1.30D+03 IAcc=3 IRadAn=         5 AccDes= 0.00D+00
 Harris functional with IExCor= 1009 and IRadAn=       5 diagonalized for initial guess.
 HarFok:  IExCor= 1009 AccDes= 0.00D+00 IRadAn=         5 IDoV= 1 UseB2=F ITyADJ=14
 ICtDFT=  3500011 ScaDFX=  1.000000  1.000000  1.000000  1.000000
 FoFCou: FMM=F IPFlag=           0 FMFlag=      100000 FMFlg1=           0
         NFxFlg=           0 DoJE=T BraDBF=F KetDBF=T FulRan=T
         wScrn=  0.000000 ICntrl=       500 IOpCl=  0 I1Cent=   200000004 NGrid=           0
         NMat0=    1 NMatS0=      1 NMatT0=    0 NMatD0=    1 NMtDS0=    0 NMtDT0=    0
 Petite list used in FoFCou.
 Harris En= -116.033602335817    
 Leave Link  401 at Sun Oct 13 19:52:03 2019, MaxMem=  1342177280 cpu:              46.4 elap:               9.7
 (Enter /apps/cent7/gaussian/g16-A.03/g16-haswell/g16/l502.exe)
 Keep R1 ints in memory in canonical form, NReq=26724339.
 FoFCou: FMM=F IPFlag=           0 FMFlag=           0 FMFlg1=           0
         NFxFlg=           0 DoJE=F BraDBF=F KetDBF=F FulRan=T
         wScrn=  0.000000 ICntrl=       600 IOpCl=  0 I1Cent=           0 NGrid=           0
         NMat0=    1 NMatS0=   3160 NMatT0=    0 NMatD0=    1 NMtDS0=    0 NMtDT0=    0
 Symmetry not used in FoFCou.
 Two-electron integral symmetry not used.
 Closed shell SCF:
 Using DIIS extrapolation, IDIIS=  1040.
 NGot=  1342177280 LenX=  1337166843 LenY=  1337159841
 Requested convergence on RMS density matrix=1.00D-08 within 128 cycles.
 Requested convergence on MAX density matrix=1.00D-06.
 Requested convergence on             energy=1.00D-06.
 No special actions if energy rises.

 Cycle   1  Pass 1  IDiag  1:
 E= -116.000453958736    
 DIIS: error= 1.51D-03 at cycle   1 NSaved=   1.
 NSaved= 1 IEnMin= 1 EnMin= -116.000453958736     IErMin= 1 ErrMin= 1.51D-03
 ErrMax= 1.51D-03  0.00D+00 EMaxC= 1.00D-01 BMatC= 2.14D-04 BMatP= 2.14D-04
 IDIUse=3 WtCom= 9.85D-01 WtEn= 1.51D-02
 Coeff-Com:  0.100D+01
 Coeff-En:   0.100D+01
 Coeff:      0.100D+01
 Gap=     0.581 Goal=   None    Shift=    0.000
 GapD=    0.581 DampG=2.000 DampE=1.000 DampFc=2.0000 IDamp=-1.
 RMSDP=2.12D-04 MaxDP=3.22D-03              OVMax= 4.93D-03

 Cycle   2  Pass 1  IDiag  1:
 E= -116.000707132447     Delta-E=       -0.000253173711 Rises=F Damp=F
 DIIS: error= 3.33D-04 at cycle   2 NSaved=   2.
 NSaved= 2 IEnMin= 2 EnMin= -116.000707132447     IErMin= 2 ErrMin= 3.33D-04
 ErrMax= 3.33D-04  0.00D+00 EMaxC= 1.00D-01 BMatC= 6.75D-06 BMatP= 2.14D-04
 IDIUse=3 WtCom= 9.97D-01 WtEn= 3.33D-03
[...]
     21 -0.538047D-02 -0.997846D-02 -0.169231D-01 -0.100669D-02  0.292500D-03
                6             7             8             9            10 
      6  0.571446D-01
      7  0.123456D-01  0.812056D-01
      8 -0.200523D-01  0.637799D-01  0.164940D+00
      9  0.496430D-02  0.700635D-01  0.132979D+00  0.223547D+00
     10 -0.210368D-02 -0.412043D-02  0.155741D-02 -0.347145D-03  0.357193D+00
     11  0.856106D-03 -0.180077D-01  0.128509D-02 -0.108436D-03  0.229348D-01
     12  0.210433D-02 -0.228543D-01  0.393960D-03  0.419748D-02  0.171527D-01
     13 -0.986740D-02  0.255499D-02  0.287991D-02 -0.364970D-02 -0.250069D-03
     14  0.384695D-01  0.855928D-02  0.107035D-01 -0.143994D-01 -0.101722D-02
     15 -0.102988D-01  0.159168D-01  0.250425D-01 -0.307606D-01  0.190737D-02
     16  0.183206D-02  0.635056D-03  0.675222D-03 -0.922182D-03 -0.383507D-03
     17  0.359121D-03  0.435715D-03  0.133424D-02 -0.713600D-03 -0.189386D-03
     18 -0.566435D-02 -0.966598D-03  0.146080D-03 -0.575091D-03  0.346193D-03
     19 -0.130773D-02 -0.947907D-03 -0.911921D-03  0.126788D-02 -0.646046D-03
     20  0.112750D-02 -0.184664D-02 -0.278850D-02  0.403637D-02 -0.274382D-03
     21  0.715499D-03  0.182070D-02  0.317088D-02 -0.208204D-02  0.369306D-03
               11            12            13            14            15 
     11  0.520318D-01
     12 -0.375451D-02  0.590634D-01
     13 -0.172782D-01  0.350706D-01  0.133356D+00
     14 -0.504391D-02  0.111616D-01 -0.743294D-01  0.756999D+00
     15  0.778777D-02 -0.149614D-01  0.128117D-01  0.927004D-01  0.623601D+00
     16 -0.204788D-02  0.710931D-03 -0.508664D-01  0.149506D+00 -0.789384D-02
     17  0.533139D-03 -0.162327D-02  0.119367D+00 -0.445978D+00  0.358524D-01
     18  0.637535D-04  0.504716D-03 -0.104343D-01  0.535568D-01 -0.807061D-01
     19  0.717400D-03  0.176931D-02 -0.190369D-01 -0.462016D-01 -0.701098D-01
     20 -0.155463D-03  0.954077D-03 -0.270639D-01 -0.192522D+00 -0.176108D+00
     21 -0.910518D-03  0.146423D-02 -0.451292D-01 -0.191554D+00 -0.365989D+00
               16            17            18            19            20 
     16  0.476862D-01
     17 -0.127464D+00  0.462257D+00
     18  0.876697D-02 -0.449982D-01  0.683704D-01
     19  0.465950D-03  0.714899D-02  0.116231D-01  0.184346D-01
     20 -0.894623D-02 -0.121573D-01 -0.325619D-01  0.317534D-01  0.189162D+00
     21  0.160656D-03  0.288357D-02  0.121011D-01  0.491657D-01  0.196096D+00
               21 
     21  0.370713D+00
 FormGI is forming the generalized inverse of G from B-inverse, IUseBI=4.
 Force constants in internal coordinates: 
                1             2             3             4             5 
      1  0.362269D+00
      2  0.139391D-02  0.362255D+00
      3  0.119054D-02  0.119657D-02  0.359831D+00
      4  0.184992D-02  0.185049D-02  0.309685D-02  0.244641D+00
      5 -0.116819D-02  0.482862D-03  0.104128D-03  0.619004D-02  0.502970D+00
      6  0.481188D-03 -0.116843D-02  0.105110D-03  0.619509D-02  0.962125D-03
      7  0.394367D-02  0.394398D-02 -0.335209D-02 -0.309864D-01  0.455406D-03
      8  0.368187D-02 -0.318339D-02  0.482578D-02 -0.311605D-01  0.915725D-03
      9 -0.509268D-04 -0.256047D-02 -0.222487D-02  0.362155D-01  0.166564D-02
     10 -0.318325D-02  0.368447D-02  0.482990D-02 -0.311525D-01  0.128477D-02
     11 -0.256013D-02 -0.468300D-04 -0.222755D-02  0.362296D-01 -0.136451D-02
     12 -0.241083D-02 -0.241511D-02 -0.311885D-02  0.360651D-01 -0.332612D-02
     13 -0.150129D-03  0.714467D-03  0.691772D-03  0.932052D-02 -0.273790D-02
     14  0.715822D-03 -0.149271D-03  0.691183D-03  0.932938D-02 -0.270664D-03
     15 -0.419451D-03 -0.418793D-03 -0.572995D-03 -0.917989D-02  0.567849D-02
     16 -0.417304D-04 -0.328377D-02  0.315581D-02  0.470932D-02  0.273786D-02
     17 -0.724285D-05 -0.324970D-02  0.253467D-02 -0.140162D-02 -0.282207D-02
     18  0.324754D-02  0.770108D-05 -0.253568D-02  0.140096D-02  0.337913D-02
     19  0.328203D-02  0.417736D-04 -0.315681D-02 -0.470998D-02 -0.218080D-02
     20 -0.309383D-02  0.306337D-02  0.312520D-03  0.304935D-02  0.244839D-02
     21 -0.305934D-02  0.309744D-02 -0.308612D-03 -0.306159D-02 -0.311154D-02
                6             7             8             9            10 
      6  0.502951D+00
      7  0.452966D-03  0.539262D-01
      8  0.128478D-02  0.104284D-01  0.573129D-01
      9 -0.135656D-02 -0.435905D-01 -0.477833D-01  0.152805D+00
     10  0.916831D-03  0.104245D-01  0.109004D-01  0.107704D-02  0.573011D-01
     11  0.166475D-02 -0.436189D-01  0.107865D-02 -0.209769D-01 -0.477896D-01
     12 -0.333052D-02  0.563719D-03 -0.449790D-01 -0.252688D-01 -0.449599D-01
     13 -0.272436D-03 -0.286922D-02 -0.548640D-02  0.162076D-01  0.191060D-02
     14 -0.273551D-02 -0.287356D-02  0.191388D-02 -0.818234D-02 -0.548289D-02
     15  0.567766D-02  0.390331D-02  0.207004D-02 -0.557353D-02  0.207025D-02
     16  0.218130D-02 -0.114134D-01  0.826674D-02  0.233110D-02 -0.377520D-03
     17 -0.337782D-02 -0.112105D-01  0.895118D-02  0.223380D-02  0.306924D-03
     18  0.282315D-02  0.112129D-01 -0.305992D-03  0.106525D-01 -0.896225D-02
     19 -0.273597D-02  0.114159D-01  0.378454D-03  0.105552D-01 -0.827781D-02
     20  0.311206D-02 -0.101918D-03 -0.980877D-02 -0.123561D-01  0.913823D-02
     21 -0.244706D-02  0.101003D-03 -0.912432D-02 -0.124534D-01  0.982267D-02
               11            12            13            14            15 
     11  0.152864D+00
     12 -0.252383D-01  0.151589D+00
     13 -0.818997D-02 -0.451860D-03  0.928089D-01
     14  0.162232D-01 -0.470388D-03 -0.293209D-01  0.928202D-01
     15 -0.557528D-02  0.167648D-02 -0.440088D-01 -0.440172D-01  0.645949D-01
     16 -0.105599D-01  0.114513D-01  0.114367D-02 -0.502981D-03  0.239072D-02
     17 -0.106651D-01  0.984708D-02  0.240926D-03 -0.141436D-02 -0.192864D-02
     18 -0.222991D-02 -0.983640D-02  0.140458D-02 -0.234741D-03  0.192950D-02
     19 -0.233511D-02 -0.114406D-01  0.501834D-03 -0.114612D-02 -0.238986D-02
     20  0.124545D-01  0.796003D-03 -0.105767D-02  0.196413D-02  0.216029D-02
     21  0.123493D-01 -0.808179D-03 -0.196041D-02  0.105276D-02 -0.215908D-02
               16            17            18            19            20 
     16  0.134031D-01
     17  0.897341D-02  0.132661D-01
     18 -0.296815D-02 -0.725813D-02  0.132613D-01
     19 -0.739780D-02 -0.296542D-02  0.897129D-02  0.134037D-01
     20 -0.335500D-02 -0.771658D-02 -0.342553D-02 -0.778711D-02  0.144535D-01
     21 -0.778465D-02 -0.342388D-02 -0.771550D-02 -0.335473D-02  0.100919D-01
               21 
     21  0.144527D-01
 Leave Link  716 at Sun Oct 13 19:58:14 2019, MaxMem=  1342177280 cpu:               6.0 elap:               1.2
 (Enter /apps/cent7/gaussian/g16-A.03/g16-haswell/g16/l103.exe)

 GradGradGradGradGradGradGradGradGradGradGradGradGradGradGradGradGradGrad
 Berny optimization.
 Red2BG is reusing G-inverse.
 Internal  Forces:  Max     0.000066409 RMS     0.000033152
 Search for a local minimum.
 Step number   1 out of a maximum of    2
 All quantities printed in internal units (Hartrees-Bohrs-Radians)
 Second derivative matrix not updated -- analytic derivatives used.
 ITU=  0
     Eigenvalues ---    0.00131   0.01430   0.06154   0.06210   0.11377
     Eigenvalues ---    0.12314   0.12473   0.19430   0.20186   0.30395
     Eigenvalues ---    0.35963   0.36123   0.36461   0.50206   0.50464
 Angle between quadratic step and forces=  67.73 degrees.
 Linear search not attempted -- first point.
 Iteration  1 RMS(Cart)=  0.00047330 RMS(Int)=  0.00000020
 Iteration  2 RMS(Cart)=  0.00000018 RMS(Int)=  0.00000005
 ITry= 1 IFail=0 DXMaxC= 1.35D-03 DCOld= 1.00D+10 DXMaxT= 3.00D-01 DXLimC= 3.00D+00 Rises=F
 Variable       Old X    -DE/DX   Delta X   Delta X   Delta X     New X
                                 (Linear)    (Quad)   (Total)
    R1        2.05121  -0.00001   0.00000   0.00000   0.00000   2.05122
    R2        2.05121   0.00000   0.00000   0.00000   0.00000   2.05122
    R3        2.05251   0.00002   0.00000   0.00004   0.00004   2.05255
    R4        2.84003  -0.00006   0.00000  -0.00028  -0.00028   2.83975
    R5        1.84120   0.00005   0.00000   0.00011   0.00011   1.84132
    R6        1.84122   0.00005   0.00000   0.00010   0.00010   1.84132
    A1        1.94715   0.00001   0.00000  -0.00023  -0.00023   1.94691
    A2        1.97864  -0.00000   0.00000  -0.00011  -0.00011   1.97853
    A3        1.82821  -0.00006   0.00000  -0.00030  -0.00030   1.82791
    A4        1.97818   0.00002   0.00000   0.00035   0.00035   1.97854
    A5        1.82808  -0.00004   0.00000  -0.00017  -0.00017   1.82791
    A6        1.88957   0.00007   0.00000   0.00044   0.00044   1.89001
    A7        2.01984   0.00002   0.00000   0.00027   0.00027   2.02011
    A8        2.01970   0.00004   0.00000   0.00041   0.00041   2.02011
    A9        1.93909  -0.00004   0.00000  -0.00023  -0.00023   1.93886
    D1       -3.00993   0.00001   0.00000  -0.00059  -0.00059  -3.01052
    D2        0.96052   0.00001   0.00000  -0.00098  -0.00098   0.95954
    D3       -0.95860  -0.00002   0.00000  -0.00106  -0.00106  -0.95966
    D4        3.01185  -0.00003   0.00000  -0.00145  -0.00145   3.01040
    D5        1.15702   0.00001   0.00000  -0.00052  -0.00052   1.15650
    D6       -1.15571   0.00001   0.00000  -0.00090  -0.00090  -1.15662
         Item               Value     Threshold  Converged?
 Maximum Force            0.000066     0.000450     YES
 RMS     Force            0.000033     0.000300     YES
 Maximum Displacement     0.001355     0.001800     YES
 RMS     Displacement     0.000473     0.001200     YES
 Predicted change in Energy=-7.351029D-08
 Optimization completed.
    -- Stationary point found.
                           ----------------------------
                           !   Optimized Parameters   !
                           ! (Angstroms and Degrees)  !
 --------------------------                            --------------------------
 ! Name  Definition              Value          Derivative Info.                !
 --------------------------------------------------------------------------------
 ! R1    R(1,2)                  1.0855         -DE/DX =    0.0                 !
 ! R2    R(1,3)                  1.0855         -DE/DX =    0.0                 !
 ! R3    R(1,4)                  1.0861         -DE/DX =    0.0                 !
 ! R4    R(1,5)                  1.5029         -DE/DX =   -0.0001              !
 ! R5    R(5,6)                  0.9743         -DE/DX =    0.0001              !
 ! R6    R(5,7)                  0.9743         -DE/DX =    0.0                 !
 ! A1    A(2,1,3)              111.5634         -DE/DX =    0.0                 !
 ! A2    A(2,1,4)              113.3679         -DE/DX =    0.0                 !
 ! A3    A(2,1,5)              104.7488         -DE/DX =   -0.0001              !
 ! A4    A(3,1,4)              113.3416         -DE/DX =    0.0                 !
 ! A5    A(3,1,5)              104.7412         -DE/DX =    0.0                 !
 ! A6    A(4,1,5)              108.2644         -DE/DX =    0.0001              !
 ! A7    A(1,5,6)              115.7286         -DE/DX =    0.0                 !
 ! A8    A(1,5,7)              115.7204         -DE/DX =    0.0                 !
 ! A9    A(6,5,7)              111.1017         -DE/DX =    0.0                 !
 ! D1    D(2,1,5,6)           -172.4563         -DE/DX =    0.0                 !
 ! D2    D(2,1,5,7)             55.0336         -DE/DX =    0.0                 !
 ! D3    D(3,1,5,6)            -54.9236         -DE/DX =    0.0                 !
 ! D4    D(3,1,5,7)            172.5663         -DE/DX =    0.0                 !
 ! D5    D(4,1,5,6)             66.2926         -DE/DX =    0.0                 !
 ! D6    D(4,1,5,7)            -66.2175         -DE/DX =    0.0                 !
 --------------------------------------------------------------------------------
 GradGradGradGradGradGradGradGradGradGradGradGradGradGradGradGradGradGrad

 Leave Link  103 at Sun Oct 13 19:58:18 2019, MaxMem=  1342177280 cpu:              18.5 elap:               3.8
 (Enter /apps/cent7/gaussian/g16-A.03/g16-haswell/g16/l9999.exe)

 ----------------------------------------------------------------------

 Electric dipole moment (input orientation):
 (Debye = 10**-18 statcoulomb cm , SI units = C m)
                  (au)            (Debye)         (10**-30 SI)
   Tot        0.759533D+00      0.193054D+01      0.643959D+01
   x         -0.302606D+00     -0.769148D+00     -0.256560D+01
   y          0.282157D+00      0.717172D+00      0.239223D+01
   z         -0.636951D+00     -0.161897D+01     -0.540029D+01

 Dipole polarizability, Alpha (input orientation).
 (esu units = cm**3 , SI units = C**2 m**2 J**-1)
 Alpha(0;0):
               (au)            (10**-24 esu)      (10**-40 SI)
   iso        0.158917D+02      0.235491D+01      0.262019D+01
   aniso      0.235523D+01      0.349009D+00      0.388325D+00
   xx         0.145212D+02      0.215182D+01      0.239422D+01
   yx         0.599343D-02      0.888135D-03      0.988183D-03
   yy         0.162415D+02      0.240674D+01      0.267786D+01
   zx        -0.317225D+00     -0.470079D-01     -0.523034D-01
   zy        -0.476566D+00     -0.706199D-01     -0.785752D-01
   zz         0.169124D+02      0.250616D+01      0.278848D+01

 ----------------------------------------------------------------------

 Dipole orientation:
     6         -0.92284375         -0.59777358         -1.16510451
     1         -0.20372480          0.99172449         -2.24392050
     1         -0.83353507         -2.34159846         -2.24147527
     1         -2.76637861         -0.24937011         -0.33275777
     8          0.95152485         -0.95060459          0.93918771
     1          0.71180975         -2.45037637          1.97998235
     1          1.27345556          0.53385884          1.97976543

 Electric dipole moment (dipole orientation):
 (Debye = 10**-18 statcoulomb cm , SI units = C m)
                  (au)            (Debye)         (10**-30 SI)
   Tot        0.759533D+00      0.193054D+01      0.643959D+01
   x          0.000000D+00      0.000000D+00      0.000000D+00
   y          0.000000D+00      0.000000D+00      0.000000D+00
   z          0.759533D+00      0.193054D+01      0.643959D+01

 Dipole polarizability, Alpha (dipole orientation).
 (esu units = cm**3 , SI units = C**2 m**2 J**-1)
 Alpha(0;0):
               (au)            (10**-24 esu)      (10**-40 SI)
   iso        0.158917D+02      0.235491D+01      0.262019D+01
   aniso      0.235523D+01      0.349009D+00      0.388325D+00
   xx         0.151743D+02      0.224860D+01      0.250191D+01
   yx         0.156856D+00      0.232436D-01      0.258620D-01
   yy         0.159773D+02      0.236760D+01      0.263431D+01
   zx         0.114764D+01      0.170062D+00      0.189219D+00
   zy        -0.216372D+00     -0.320630D-01     -0.356749D-01
   zz         0.165235D+02      0.244852D+01      0.272435D+01

 ----------------------------------------------------------------------
 1\1\GINC-BROWN-FE02\Freq\RM062X\6-311++G(d,p)\C1H5O1(1+)\FINEJ\13-Oct-
 2019\0\\#P Geom=AllCheck Guess=TCheck SCRF=Check GenChk RM062X/6-311++
 G(d,p) Freq\\Title Card Required\\1,1\C,-0.1750846349,0.0242340611,0.8
 291170837\H,0.3323413257,-0.9352023087,0.8437860284\H,0.1693100467,0.6
 699711228,1.6307585398\H,-1.2567441756,-0.061200249,0.7799267089\O,0.3
 025394341,0.6904422503,-0.4305233498\H,0.0310953381,1.618908619,-0.547
 0308837\H,0.175570246,0.1821333347,-1.2519964173\\Version=ES64L-G16Rev
 A.03\State=1-A\HF=-116.0009653\RMSD=1.187e-09\RMSF=4.826e-05\ZeroPoint
 =0.0646481\Thermal=0.0646481\Dipole=-0.3026063,0.2821573,-0.6369509\Di
 poleDeriv=0.2924744,0.1097825,-0.1922623,0.1184418,0.3083692,-0.319044
 8,-0.2099726,-0.3208624,0.7504916,0.0997028,0.0235546,0.0448353,-0.000
 1043,0.1122429,0.0109851,0.0562115,-0.0289266,0.0701663,0.1112513,-0.0
 471453,0.0091592,-0.0383455,0.0623857,-0.0037919,0.0280426,0.0392723,0
 .108329,0.0674957,-0.0061095,0.0003989,0.0178654,0.1064402,0.0427857,-
 0.0484003,0.0378129,0.0385267,-0.3902698,-0.0607191,0.1260579,-0.07816
 47,-0.5037656,0.1915418,0.1616243,0.19509,-0.7661919,0.4060967,0.00080
 73,0.0265234,0.0049103,0.5590451,-0.0651932,0.0231783,-0.0076029,0.301
 0375,0.4132489,-0.0201706,-0.0147124,-0.0246031,0.3552825,0.1427172,-0
 .0106838,0.0852168,0.4976409\Polar=14.5212014,0.0059934,16.2414785,-0.
 3172252,-0.4765664,16.9124309\Quadrupole=-2.7423754,0.6197081,2.122667
 2,-0.1945982,-0.1982319,-0.9852189\PG=C01 [X(C1H5O1)]\NImag=0\\0.61730
 057,-0.03853523,0.59808533,0.06957656,0.11869382,0.43246888,-0.1218573
 5,0.13135375,-0.00206137,0.11909879,0.12025033,-0.27785732,0.00215976,
 -0.12933266,0.29344069,0.00328839,-0.01555387,-0.04896557,-0.00418725,
 -0.00520607,0.05714455,-0.08539422,-0.06148171,-0.07632566,0.00606696,
 0.00856120,0.01234560,0.08120556,-0.05744687,-0.16397669,-0.14168030,-
 0.01053361,-0.01149719,-0.02005232,0.06377985,0.16493952,-0.06728846,-
 0.12249384,-0.19929101,0.00087616,0.00069974,0.00496430,0.07006345,0.1
 3297918,0.22354692,-0.34344640,-0.02053984,-0.01732471,-0.00834649,-0.
 00247140,-0.00210368,-0.00412043,0.00155741,-0.00034714,0.35719295,-0.
 01348876,-0.05627362,-0.00393417,0.02717033,0.00762295,0.00085611,-0.0
 1800770,0.00128509,-0.00010844,0.02293482,0.05203182,-0.03168272,-0.00
 539917,-0.05237273,-0.00016650,-0.00173270,0.00210433,-0.02285431,0.00
 039396,0.00419748,0.01715267,-0.00375451,0.05906339,-0.07123764,-0.007
 04180,0.02119827,0.00548009,0.00346683,-0.00986740,0.00255499,0.002879
 91,-0.00364970,-0.00025007,-0.01727821,0.03507061,0.13335593,-0.018009
 19,-0.11148863,0.01006521,-0.01850759,-0.01267027,0.03846954,0.0085592
 8,0.01070353,-0.01439941,-0.00101722,-0.00504391,0.01116161,-0.0743294
 3,0.75699909,0.04359020,0.01231564,-0.12088582,0.00377753,0.00240914,-
 0.01029877,0.01591681,0.02504252,-0.03076057,0.00190737,0.00778777,-0.
 01496142,0.01281174,0.09270036,0.62360129,0.00356774,-0.01084706,-0.00
 265459,-0.00110506,-0.00087609,0.00183206,0.00063506,0.00067522,-0.000
 92218,-0.00038351,-0.00204788,0.00071093,-0.05086636,0.14950575,-0.007
 89384,0.04768617,0.00137067,-0.00694464,0.00823997,-0.00066890,0.00095
 553,0.00035912,0.00043571,0.00133424,-0.00071360,-0.00018939,0.0005331
 4,-0.00162327,0.11936663,-0.44597753,0.03585240,-0.12746372,0.46225659
 ,-0.01210351,0.02241588,0.00596937,0.00276812,0.00137763,-0.00566435,-
 0.00096660,0.00014608,-0.00057509,0.00034619,0.00006375,0.00050472,-0.
 01043430,0.05355678,-0.08070615,0.00876697,-0.04499820,0.06837037,0.00
 106729,0.00709190,0.00759150,0.00066306,0.00040179,-0.00130773,-0.0009
 4791,-0.00091192,0.00126788,-0.00064605,0.00071740,0.00176931,-0.01903
 694,-0.04620159,-0.07010980,0.00046595,0.00714899,0.01162312,0.0184346
 0,0.00585906,0.01845556,0.00645570,0.00051868,0.00000561,0.00112750,-0
 .00184664,-0.00278850,0.00403637,-0.00027438,-0.00015546,0.00095408,-0
 .02706393,-0.19252229,-0.17610784,-0.00894623,-0.01215733,-0.03256193,
 0.03175344,0.18916242,-0.00538047,-0.00997846,-0.01692313,-0.00100669,
 0.00029250,0.00071550,0.00182070,0.00317088,-0.00208204,0.00036931,-0.
 00091052,0.00146423,-0.04512922,-0.19155409,-0.36598857,0.00016066,0.0
 0288357,0.01210113,0.04916572,0.19609612,0.37071289\\0.00005406,-0.000
 06040,0.00003223,-0.00001447,-0.00001448,0.00002177,-0.00003622,0.0000
 0028,0.00001287,0.00001610,0.00003302,-0.00001524,-0.00003072,0.000092
 75,-0.00014366,0.00001245,-0.00004857,0.00003185,-0.00000121,-0.000002
 60,0.00006019\\\@


 I LOVE THOSE WHO LONG FOR THE IMPOSSIBLE.

                                 -- GOETHE
 Job cpu time:       0 days  0 hours  8 minutes  3.9 seconds.
 Elapsed time:       0 days  0 hours  1 minutes 40.3 seconds.
 File lengths (MBytes):  RWF=     10 Int=      0 D2E=      0 Chk=      2 Scr=      1
 Normal termination of Gaussian 16 at Sun Oct 13 19:58:18 2019.
