Title Card Required                                                     
Freq      RM062X                                                      6-311++G(d,p)       
Number of atoms                            I               13
Info1-9                                    I   N=           9
          36          36        1002           0           0         100
           6          18        -502
Full Title                                 C   N=           2
Title Card Required     
Route                                      C   N=           6
#p opt freq m062x/6-311++g(d,p) geom=connectivity temperatur
e=0.001     
Charge                                     I                1
Multiplicity                               I                1
Number of electrons                        I               32
Number of alpha electrons                  I               16
Number of beta electrons                   I               16
Number of basis functions                  I              151
Number of independent functions            I              151
Number of point charges in /Mol/           I                0
Number of translation vectors              I                0
Atomic numbers                             I   N=          13
           6           1           1           1           6           6
           1           1           1           6           1           1
           1
Nuclear charges                            R   N=          13
  6.00000000E+00  1.00000000E+00  1.00000000E+00  1.00000000E+00  6.00000000E+00
  6.00000000E+00  1.00000000E+00  1.00000000E+00  1.00000000E+00  6.00000000E+00
  1.00000000E+00  1.00000000E+00  1.00000000E+00
Current cartesian coordinates              R   N=          39
  2.55039072E+00  1.06517773E+00  2.93363882E-02  4.01478732E+00 -2.99386076E-01
  5.06214703E-01  2.85052299E+00  1.62311505E+00 -1.96712214E+00  2.69074395E+00
  2.80957353E+00  1.11909174E+00  5.67809233E-03  6.99887771E-03  3.05040419E-02
 -3.43206018E-01 -2.72435502E+00 -3.34120669E-02  1.19336696E+00 -3.70630581E+00
 -9.97200361E-01 -1.73417792E-01 -3.26585291E+00  1.98382002E+00 -2.20765223E+00
 -3.31631719E+00 -6.71968562E-01 -2.20132533E+00  1.66292081E+00  2.53020471E-02
 -2.86867130E+00  1.64310717E+00 -1.95550088E+00 -3.76315953E+00  8.43319851E-01
  1.10358147E+00 -1.80574516E+00  3.60429202E+00  5.68701543E-01
Number of symbols in /Mol/                 I                0
Force Field                                I                0
Atom Types                                 C   N=          13
                                                            
                                                            
                                    
Int Atom Types                             I   N=          13
           0           0           0           0           0           0
           0           0           0           0           0           0
           0
MM charges                                 R   N=          13
  0.00000000E+00  0.00000000E+00  0.00000000E+00  0.00000000E+00  0.00000000E+00
  0.00000000E+00  0.00000000E+00  0.00000000E+00  0.00000000E+00  0.00000000E+00
  0.00000000E+00  0.00000000E+00  0.00000000E+00
Integer atomic weights                     I   N=          13
          12           1           1           1          12          12
           1           1           1          12           1           1
           1
Real atomic weights                        R   N=          13
  1.20000000E+01  1.00782504E+00  1.00782504E+00  1.00782504E+00  1.20000000E+01
  1.20000000E+01  1.00782504E+00  1.00782504E+00  1.00782504E+00  1.20000000E+01
  1.00782504E+00  1.00782504E+00  1.00782504E+00
Atom fragment info                         I   N=          13
           0           0           0           0           0           0
           0           0           0           0           0           0
           0
Atom residue num                           I   N=          13
           0           0           0           0           0           0
           0           0           0           0           0           0
           0
Nuclear spins                              I   N=          13
           0           1           1           1           0           0
           1           1           1           0           1           1
           1
Nuclear ZEff                               R   N=          13
 -3.60000000E+00 -1.00000000E+00 -1.00000000E+00 -1.00000000E+00 -3.60000000E+00
 -3.60000000E+00 -1.00000000E+00 -1.00000000E+00 -1.00000000E+00 -3.60000000E+00
 -1.00000000E+00 -1.00000000E+00 -1.00000000E+00
Nuclear ZNuc                               R   N=          13
  6.00000000E+00  1.00000000E+00  1.00000000E+00  1.00000000E+00  6.00000000E+00
  6.00000000E+00  1.00000000E+00  1.00000000E+00  1.00000000E+00  6.00000000E+00
  1.00000000E+00  1.00000000E+00  1.00000000E+00
Nuclear QMom                               R   N=          13
  0.00000000E+00  0.00000000E+00  0.00000000E+00  0.00000000E+00  0.00000000E+00
  0.00000000E+00  0.00000000E+00  0.00000000E+00  0.00000000E+00  0.00000000E+00
  0.00000000E+00  0.00000000E+00  0.00000000E+00
Nuclear GFac                               R   N=          13
  0.00000000E+00  2.79284600E+00  2.79284600E+00  2.79284600E+00  0.00000000E+00
  0.00000000E+00  2.79284600E+00  2.79284600E+00  2.79284600E+00  0.00000000E+00
  2.79284600E+00  2.79284600E+00  2.79284600E+00
MicOpt                                     I   N=          13
          -1          -1          -1          -1          -1          -1
          -1          -1          -1          -1          -1          -1
          -1
Number of residues                         I                0
Number of secondary structures             I                0
Redundant internal dimensions              I   N=           4
          51          12          21          18
Redundant internal coordinate indices      I   N=         204
           1           2           0           0           1           3
           0           0           1           4           0           0
           1           5           0           0           5           6
           0           0           5          10           0           0
           6           7           0           0           6           8
           0           0           6           9           0           0
          10          11           0           0          10          12
           0           0          10          13           0           0
           2           1           3           0           2           1
           4           0           2           1           5           0
           3           1           4           0           3           1
           5           0           4           1           5           0
           1           5           6           0           1           5
          10           0           6           5          10           0
           5           6           7           0           5           6
           8           0           5           6           9           0
           7           6           8           0           7           6
           9           0           8           6           9           0
           5          10          11           0           5          10
          12           0           5          10          13           0
          11          10          12           0          11          10
          13           0          12          10          13           0
           2           1           5           6           2           1
           5          10           3           1           5           6
           3           1           5          10           4           1
           5           6           4           1           5          10
           1           5           6           7           1           5
           6           8           1           5           6           9
          10           5           6           7          10           5
           6           8          10           5           6           9
           1           5          10          11           1           5
          10          12           1           5          10          13
           6           5          10          11           6           5
          10          12           6           5          10          13
Redundant internal coordinates             R   N=          51
  2.05764543E+00  2.09456919E+00  2.06159707E+00  2.75595831E+00  2.75428748E+00
  2.75916085E+00  2.06256436E+00  2.09553652E+00  2.05774957E+00  2.09029268E+00
  2.06730702E+00  2.05443152E+00  1.87085445E+00  1.97161530E+00  1.98494008E+00
  1.84283330E+00  1.80800257E+00  1.96873733E+00  2.09175712E+00  2.10381374E+00
  2.08724214E+00  1.96990323E+00  1.79635573E+00  1.99023813E+00  1.84048603E+00
  1.97472915E+00  1.87318145E+00  1.82499286E+00  1.94484290E+00  1.99611438E+00
  1.82276366E+00  1.89766294E+00  1.96291784E+00 -2.83140791E-01  2.88789263E+00
  1.74151869E+00 -1.37063319E+00 -2.55772361E+00  6.13309809E-01 -5.06882369E-01
  1.46829208E+00 -2.79199737E+00  2.60555067E+00 -1.70246018E+00  3.20435670E-01
  1.77647382E+00 -2.54751813E+00 -2.97111895E-01 -1.33575387E+00  6.23439489E-01
  2.87384572E+00
ZRed-IntVec                                I   N=          51
           0           0           0           0           0           0
           0           0           0           0           0           0
           0           0           0           0           0           0
           0           0           0           0           0           0
           0           0           0           0           0           0
           0           0           0           0           0           0
           0           0           0           0           0           0
           0           0           0           0           0           0
           0           0           0
ZRed-FPVec                                 R   N=          51
  0.00000000E+00  0.00000000E+00  0.00000000E+00  0.00000000E+00  0.00000000E+00
  0.00000000E+00  0.00000000E+00  0.00000000E+00  0.00000000E+00  0.00000000E+00
  0.00000000E+00  0.00000000E+00  0.00000000E+00  0.00000000E+00  0.00000000E+00
  0.00000000E+00  0.00000000E+00  0.00000000E+00  0.00000000E+00  0.00000000E+00
  0.00000000E+00  0.00000000E+00  0.00000000E+00  0.00000000E+00  0.00000000E+00
  0.00000000E+00  0.00000000E+00  0.00000000E+00  0.00000000E+00  0.00000000E+00
  0.00000000E+00  0.00000000E+00  0.00000000E+00  0.00000000E+00  0.00000000E+00
  0.00000000E+00  0.00000000E+00  0.00000000E+00  0.00000000E+00  0.00000000E+00
  0.00000000E+00  0.00000000E+00  0.00000000E+00  0.00000000E+00  0.00000000E+00
  0.00000000E+00  0.00000000E+00  0.00000000E+00  0.00000000E+00  0.00000000E+00
  0.00000000E+00
ZRed-Constraint1                           R   N=          51
  2.05764543E+00  2.09456919E+00  2.06159707E+00  2.75595831E+00  2.75428748E+00
  2.75916085E+00  2.06256436E+00  2.09553652E+00  2.05774957E+00  2.09029268E+00
  2.06730702E+00  2.05443152E+00  1.87085445E+00  1.97161530E+00  1.98494008E+00
  1.84283330E+00  1.80800257E+00  1.96873733E+00  2.09175712E+00  2.10381374E+00
  2.08724214E+00  1.96990323E+00  1.79635573E+00  1.99023813E+00  1.84048603E+00
  1.97472915E+00  1.87318145E+00  1.82499286E+00  1.94484290E+00  1.99611438E+00
  1.82276366E+00  1.89766294E+00  1.96291784E+00 -2.83140791E-01  2.88789263E+00
  1.74151869E+00 -1.37063319E+00 -2.55772361E+00  6.13309809E-01 -5.06882369E-01
  1.46829208E+00 -2.79199737E+00  2.60555067E+00 -1.70246018E+00  3.20435670E-01
  1.77647382E+00 -2.54751813E+00 -2.97111895E-01 -1.33575387E+00  6.23439489E-01
  2.87384572E+00
ZRed-Constraint2                           R   N=          51
  2.02200695E+00  2.02200695E+00  2.02200695E+00  2.91017823E+00  2.91017823E+00
  2.56095685E+00  2.02200696E+00  2.02200695E+00  2.02200696E+00  2.02200696E+00
  2.02200694E+00  2.02200696E+00  1.91063292E+00  1.91063342E+00  1.91063292E+00
  1.91063320E+00  1.91063377E+00  1.91063319E+00  2.09241462E+00  2.09835606E+00
  2.09241462E+00  1.91063293E+00  1.91063292E+00  1.91063342E+00  1.91063376E+00
  1.91063320E+00  1.91063319E+00  1.91063292E+00  1.91063292E+00  1.91063342E+00
  1.91063377E+00  1.91063320E+00  1.91063320E+00  3.90046256E-06 -3.14158874E+00
  2.09439875E+00 -1.04719389E+00 -2.09439120E+00  1.04720146E+00 -7.19989317E-01
  1.37440605E+00 -2.81438430E+00  2.42160332E+00 -1.76718662E+00  3.27208345E-01
  1.93350001E+00 -2.25528994E+00 -1.60894963E-01 -1.20809264E+00  8.86302726E-01
  2.98069770E+00
SymInf integers                            I   N=          26
           1           1           1           1           1           0
           0           0           0           0           0           0
           0           0           0           0           0           0
           0           0           0           0           0           0
           0           0
RotTr to input orientation                 R   N=          12
 -8.59413225E-02 -7.54710789E-01  6.50404270E-01 -6.08372644E-01  5.56730525E-01
  5.65626952E-01 -7.88984673E-01 -3.47077437E-01 -5.06991556E-01 -2.52999298E+00
 -1.31771955E+01 -5.33747407E+00
Number of contracted shells                I               69
Number of primitive shells                 I              115
Pure/Cartesian d shells                    I                0
Pure/Cartesian f shells                    I                0
Highest angular momentum                   I                2
Largest degree of contraction              I                6
Shell types                                I   N=          69
           0          -1          -1          -1          -1          -2
           0           0           0           0           1           0
           0           0           0           1           0           0
           0           0           1           0          -1          -1
          -1          -1          -2           0          -1          -1
          -1          -1          -2           0           0           0
           0           1           0           0           0           0
           1           0           0           0           0           1
           0          -1          -1          -1          -1          -2
           0           0           0           0           1           0
           0           0           0           1           0           0
           0           0           1
Number of primitives per shell             I   N=          69
           6           3           1           1           1           1
           3           1           1           1           1           3
           1           1           1           1           3           1
           1           1           1           6           3           1
           1           1           1           6           3           1
           1           1           1           3           1           1
           1           1           3           1           1           1
           1           3           1           1           1           1
           6           3           1           1           1           1
           3           1           1           1           1           3
           1           1           1           1           3           1
           1           1           1
Shell to atom map                          I   N=          69
           1           1           1           1           1           1
           2           2           2           2           2           3
           3           3           3           3           4           4
           4           4           4           5           5           5
           5           5           5           6           6           6
           6           6           6           7           7           7
           7           7           8           8           8           8
           8           9           9           9           9           9
          10          10          10          10          10          10
          11          11          11          11          11          12
          12          12          12          12          13          13
          13          13          13
Primitive exponents                        R   N=         115
  4.56324000E+03  6.82024000E+02  1.54973000E+02  4.44553000E+01  1.30290000E+01
  1.82773000E+00  2.09642000E+01  4.80331000E+00  1.45933000E+00  4.83456000E-01
  1.45585000E-01  4.38000000E-02  6.26000000E-01  3.38650000E+01  5.09479000E+00
  1.15879000E+00  3.25840000E-01  1.02741000E-01  3.60000000E-02  7.50000000E-01
  3.38650000E+01  5.09479000E+00  1.15879000E+00  3.25840000E-01  1.02741000E-01
  3.60000000E-02  7.50000000E-01  3.38650000E+01  5.09479000E+00  1.15879000E+00
  3.25840000E-01  1.02741000E-01  3.60000000E-02  7.50000000E-01  4.56324000E+03
  6.82024000E+02  1.54973000E+02  4.44553000E+01  1.30290000E+01  1.82773000E+00
  2.09642000E+01  4.80331000E+00  1.45933000E+00  4.83456000E-01  1.45585000E-01
  4.38000000E-02  6.26000000E-01  4.56324000E+03  6.82024000E+02  1.54973000E+02
  4.44553000E+01  1.30290000E+01  1.82773000E+00  2.09642000E+01  4.80331000E+00
  1.45933000E+00  4.83456000E-01  1.45585000E-01  4.38000000E-02  6.26000000E-01
  3.38650000E+01  5.09479000E+00  1.15879000E+00  3.25840000E-01  1.02741000E-01
  3.60000000E-02  7.50000000E-01  3.38650000E+01  5.09479000E+00  1.15879000E+00
  3.25840000E-01  1.02741000E-01  3.60000000E-02  7.50000000E-01  3.38650000E+01
  5.09479000E+00  1.15879000E+00  3.25840000E-01  1.02741000E-01  3.60000000E-02
  7.50000000E-01  4.56324000E+03  6.82024000E+02  1.54973000E+02  4.44553000E+01
  1.30290000E+01  1.82773000E+00  2.09642000E+01  4.80331000E+00  1.45933000E+00
  4.83456000E-01  1.45585000E-01  4.38000000E-02  6.26000000E-01  3.38650000E+01
  5.09479000E+00  1.15879000E+00  3.25840000E-01  1.02741000E-01  3.60000000E-02
  7.50000000E-01  3.38650000E+01  5.09479000E+00  1.15879000E+00  3.25840000E-01
  1.02741000E-01  3.60000000E-02  7.50000000E-01  3.38650000E+01  5.09479000E+00
  1.15879000E+00  3.25840000E-01  1.02741000E-01  3.60000000E-02  7.50000000E-01
Contraction coefficients                   R   N=         115
  1.96665025E-03  1.52306019E-02  7.61269097E-02  2.60801033E-01  6.16462078E-01
  2.21006028E-01  1.14660081E-01  9.19999648E-01 -3.03068213E-03  1.00000000E+00
  1.00000000E+00  1.00000000E+00  1.00000000E+00  2.54938145E-02  1.90373109E-01
  8.52161486E-01  1.00000000E+00  1.00000000E+00  1.00000000E+00  1.00000000E+00
  2.54938145E-02  1.90373109E-01  8.52161486E-01  1.00000000E+00  1.00000000E+00
  1.00000000E+00  1.00000000E+00  2.54938145E-02  1.90373109E-01  8.52161486E-01
  1.00000000E+00  1.00000000E+00  1.00000000E+00  1.00000000E+00  1.96665025E-03
  1.52306019E-02  7.61269097E-02  2.60801033E-01  6.16462078E-01  2.21006028E-01
  1.14660081E-01  9.19999648E-01 -3.03068213E-03  1.00000000E+00  1.00000000E+00
  1.00000000E+00  1.00000000E+00  1.96665025E-03  1.52306019E-02  7.61269097E-02
  2.60801033E-01  6.16462078E-01  2.21006028E-01  1.14660081E-01  9.19999648E-01
 -3.03068213E-03  1.00000000E+00  1.00000000E+00  1.00000000E+00  1.00000000E+00
  2.54938145E-02  1.90373109E-01  8.52161486E-01  1.00000000E+00  1.00000000E+00
  1.00000000E+00  1.00000000E+00  2.54938145E-02  1.90373109E-01  8.52161486E-01
  1.00000000E+00  1.00000000E+00  1.00000000E+00  1.00000000E+00  2.54938145E-02
  1.90373109E-01  8.52161486E-01  1.00000000E+00  1.00000000E+00  1.00000000E+00
  1.00000000E+00  1.96665025E-03  1.52306019E-02  7.61269097E-02  2.60801033E-01
  6.16462078E-01  2.21006028E-01  1.14660081E-01  9.19999648E-01 -3.03068213E-03
  1.00000000E+00  1.00000000E+00  1.00000000E+00  1.00000000E+00  2.54938145E-02
  1.90373109E-01  8.52161486E-01  1.00000000E+00  1.00000000E+00  1.00000000E+00
  1.00000000E+00  2.54938145E-02  1.90373109E-01  8.52161486E-01  1.00000000E+00
  1.00000000E+00  1.00000000E+00  1.00000000E+00  2.54938145E-02  1.90373109E-01
  8.52161486E-01  1.00000000E+00  1.00000000E+00  1.00000000E+00  1.00000000E+00
P(S=P) Contraction coefficients            R   N=         115
  0.00000000E+00  0.00000000E+00  0.00000000E+00  0.00000000E+00  0.00000000E+00
  0.00000000E+00  4.02486927E-02  2.37593957E-01  8.15853851E-01  1.00000000E+00
  1.00000000E+00  1.00000000E+00  0.00000000E+00  0.00000000E+00  0.00000000E+00
  0.00000000E+00  0.00000000E+00  0.00000000E+00  0.00000000E+00  0.00000000E+00
  0.00000000E+00  0.00000000E+00  0.00000000E+00  0.00000000E+00  0.00000000E+00
  0.00000000E+00  0.00000000E+00  0.00000000E+00  0.00000000E+00  0.00000000E+00
  0.00000000E+00  0.00000000E+00  0.00000000E+00  0.00000000E+00  0.00000000E+00
  0.00000000E+00  0.00000000E+00  0.00000000E+00  0.00000000E+00  0.00000000E+00
  4.02486927E-02  2.37593957E-01  8.15853851E-01  1.00000000E+00  1.00000000E+00
  1.00000000E+00  0.00000000E+00  0.00000000E+00  0.00000000E+00  0.00000000E+00
  0.00000000E+00  0.00000000E+00  0.00000000E+00  4.02486927E-02  2.37593957E-01
  8.15853851E-01  1.00000000E+00  1.00000000E+00  1.00000000E+00  0.00000000E+00
  0.00000000E+00  0.00000000E+00  0.00000000E+00  0.00000000E+00  0.00000000E+00
  0.00000000E+00  0.00000000E+00  0.00000000E+00  0.00000000E+00  0.00000000E+00
  0.00000000E+00  0.00000000E+00  0.00000000E+00  0.00000000E+00  0.00000000E+00
  0.00000000E+00  0.00000000E+00  0.00000000E+00  0.00000000E+00  0.00000000E+00
  0.00000000E+00  0.00000000E+00  0.00000000E+00  0.00000000E+00  0.00000000E+00
  0.00000000E+00  0.00000000E+00  4.02486927E-02  2.37593957E-01  8.15853851E-01
  1.00000000E+00  1.00000000E+00  1.00000000E+00  0.00000000E+00  0.00000000E+00
  0.00000000E+00  0.00000000E+00  0.00000000E+00  0.00000000E+00  0.00000000E+00
  0.00000000E+00  0.00000000E+00  0.00000000E+00  0.00000000E+00  0.00000000E+00
  0.00000000E+00  0.00000000E+00  0.00000000E+00  0.00000000E+00  0.00000000E+00
  0.00000000E+00  0.00000000E+00  0.00000000E+00  0.00000000E+00  0.00000000E+00
Coordinates of each shell                  R   N=         207
  2.55039072E+00  1.06517773E+00  2.93363882E-02  2.55039072E+00  1.06517773E+00
  2.93363882E-02  2.55039072E+00  1.06517773E+00  2.93363882E-02  2.55039072E+00
  1.06517773E+00  2.93363882E-02  2.55039072E+00  1.06517773E+00  2.93363882E-02
  2.55039072E+00  1.06517773E+00  2.93363882E-02  4.01478732E+00 -2.99386076E-01
  5.06214703E-01  4.01478732E+00 -2.99386076E-01  5.06214703E-01  4.01478732E+00
 -2.99386076E-01  5.06214703E-01  4.01478732E+00 -2.99386076E-01  5.06214703E-01
  4.01478732E+00 -2.99386076E-01  5.06214703E-01  2.85052299E+00  1.62311505E+00
 -1.96712214E+00  2.85052299E+00  1.62311505E+00 -1.96712214E+00  2.85052299E+00
  1.62311505E+00 -1.96712214E+00  2.85052299E+00  1.62311505E+00 -1.96712214E+00
  2.85052299E+00  1.62311505E+00 -1.96712214E+00  2.69074395E+00  2.80957353E+00
  1.11909174E+00  2.69074395E+00  2.80957353E+00  1.11909174E+00  2.69074395E+00
  2.80957353E+00  1.11909174E+00  2.69074395E+00  2.80957353E+00  1.11909174E+00
  2.69074395E+00  2.80957353E+00  1.11909174E+00  5.67809233E-03  6.99887771E-03
  3.05040419E-02  5.67809233E-03  6.99887771E-03  3.05040419E-02  5.67809233E-03
  6.99887771E-03  3.05040419E-02  5.67809233E-03  6.99887771E-03  3.05040419E-02
  5.67809233E-03  6.99887771E-03  3.05040419E-02  5.67809233E-03  6.99887771E-03
  3.05040419E-02 -3.43206018E-01 -2.72435502E+00 -3.34120669E-02 -3.43206018E-01
 -2.72435502E+00 -3.34120669E-02 -3.43206018E-01 -2.72435502E+00 -3.34120669E-02
 -3.43206018E-01 -2.72435502E+00 -3.34120669E-02 -3.43206018E-01 -2.72435502E+00
 -3.34120669E-02 -3.43206018E-01 -2.72435502E+00 -3.34120669E-02  1.19336696E+00
 -3.70630581E+00 -9.97200361E-01  1.19336696E+00 -3.70630581E+00 -9.97200361E-01
  1.19336696E+00 -3.70630581E+00 -9.97200361E-01  1.19336696E+00 -3.70630581E+00
 -9.97200361E-01  1.19336696E+00 -3.70630581E+00 -9.97200361E-01 -1.73417792E-01
 -3.26585291E+00  1.98382002E+00 -1.73417792E-01 -3.26585291E+00  1.98382002E+00
 -1.73417792E-01 -3.26585291E+00  1.98382002E+00 -1.73417792E-01 -3.26585291E+00
  1.98382002E+00 -1.73417792E-01 -3.26585291E+00  1.98382002E+00 -2.20765223E+00
 -3.31631719E+00 -6.71968562E-01 -2.20765223E+00 -3.31631719E+00 -6.71968562E-01
 -2.20765223E+00 -3.31631719E+00 -6.71968562E-01 -2.20765223E+00 -3.31631719E+00
 -6.71968562E-01 -2.20765223E+00 -3.31631719E+00 -6.71968562E-01 -2.20132533E+00
  1.66292081E+00  2.53020471E-02 -2.20132533E+00  1.66292081E+00  2.53020471E-02
 -2.20132533E+00  1.66292081E+00  2.53020471E-02 -2.20132533E+00  1.66292081E+00
  2.53020471E-02 -2.20132533E+00  1.66292081E+00  2.53020471E-02 -2.20132533E+00
  1.66292081E+00  2.53020471E-02 -2.86867130E+00  1.64310717E+00 -1.95550088E+00
 -2.86867130E+00  1.64310717E+00 -1.95550088E+00 -2.86867130E+00  1.64310717E+00
 -1.95550088E+00 -2.86867130E+00  1.64310717E+00 -1.95550088E+00 -2.86867130E+00
  1.64310717E+00 -1.95550088E+00 -3.76315953E+00  8.43319851E-01  1.10358147E+00
 -3.76315953E+00  8.43319851E-01  1.10358147E+00 -3.76315953E+00  8.43319851E-01
  1.10358147E+00 -3.76315953E+00  8.43319851E-01  1.10358147E+00 -3.76315953E+00
  8.43319851E-01  1.10358147E+00 -1.80574516E+00  3.60429202E+00  5.68701543E-01
 -1.80574516E+00  3.60429202E+00  5.68701543E-01 -1.80574516E+00  3.60429202E+00
  5.68701543E-01 -1.80574516E+00  3.60429202E+00  5.68701543E-01 -1.80574516E+00
  3.60429202E+00  5.68701543E-01
Num ILSW                                   I              100
ILSW                                       I   N=         100
           0           0           0           0           2           0
           0           0           0           0        4336          -1
           5           0           0           0           2           0
           0           0           0           0           1           0
           1           0           0           0           0           0
           0           0      100000           0          -1           0
           0           0           0           0           0           0
           0           0           0           1           0           0
           0 -2000000000           1           0           0           0
           0           0           4          52           0           0
           0           0          55           0           0           0
           0           0           0          13           0           1
           0           0           0           0           0           0
           0           0           0           0           0           0
           0           0           0           0           0           0
           0           0           0           0           0           0
           0           0           0           0
Num RLSW                                   I               52
RLSW                                       R   N=          52
  1.00000000E+00  1.00000000E+00  1.00000000E+00  1.00000000E+00  5.40000000E-01
  0.00000000E+00  0.00000000E+00  1.00000000E+00  0.00000000E+00  0.00000000E+00
  0.00000000E+00  0.00000000E+00  1.00000000E+00  0.00000000E+00  0.00000000E+00
  0.00000000E+00  0.00000000E+00  1.00000000E+00  0.00000000E+00  0.00000000E+00
  0.00000000E+00  0.00000000E+00  1.00000000E+00  0.00000000E+00  0.00000000E+00
  0.00000000E+00  0.00000000E+00  1.00000000E+00  0.00000000E+00  0.00000000E+00
  0.00000000E+00  0.00000000E+00  1.00000000E+00  0.00000000E+00  0.00000000E+00
  0.00000000E+00  0.00000000E+00  0.00000000E+00  1.00000000E+00  1.00000000E+00
  0.00000000E+00  1.00000000E+00  0.00000000E+00  0.00000000E+00  0.00000000E+00
  0.00000000E+00  0.00000000E+00  0.00000000E+00  0.00000000E+00  0.00000000E+00
  0.00000000E+00  0.00000000E+00
MxBond                                     I                4
NBond                                      I   N=          13
           4           1           1           1           3           4
           1           1           1           4           1           1
           1
IBond                                      I   N=          52
           2           3           4           5           1           0
           0           0           1           0           0           0
           1           0           0           0           1           6
          10           0           5           7           8           9
           6           0           0           0           6           0
           0           0           6           0           0           0
           5          11          12          13          10           0
           0           0          10           0           0           0
          10           0           0           0
RBond                                      R   N=          52
  1.00000000E+00  1.00000000E+00  1.00000000E+00  1.00000000E+00  1.00000000E+00
  0.00000000E+00  0.00000000E+00  0.00000000E+00  1.00000000E+00  0.00000000E+00
  0.00000000E+00  0.00000000E+00  1.00000000E+00  0.00000000E+00  0.00000000E+00
  0.00000000E+00  1.00000000E+00  1.00000000E+00  2.00000000E+00  0.00000000E+00
  1.00000000E+00  1.00000000E+00  1.00000000E+00  1.00000000E+00  1.00000000E+00
  0.00000000E+00  0.00000000E+00  0.00000000E+00  1.00000000E+00  0.00000000E+00
  0.00000000E+00  0.00000000E+00  1.00000000E+00  0.00000000E+00  0.00000000E+00
  0.00000000E+00  2.00000000E+00  1.00000000E+00  1.00000000E+00  1.00000000E+00
  1.00000000E+00  0.00000000E+00  0.00000000E+00  0.00000000E+00  1.00000000E+00
  0.00000000E+00  0.00000000E+00  0.00000000E+00  1.00000000E+00  0.00000000E+00
  0.00000000E+00  0.00000000E+00
Virial Ratio                               R      2.004614001425343E+00
SCF Energy                                 R     -1.574956567600503E+02