 Entering Gaussian System, Link 0=/apps/cent7/gaussian/g16-A.03/g16-haswell/g16/g16
 Initial command:
 /apps/cent7/gaussian/g16-A.03/g16-haswell/g16/l1.exe "/scratch/brown/finej/gaussian/Gau-371677.inp" -scrdir="/scratch/brown/finej/gaussian/"
 Entering Link 1 = /apps/cent7/gaussian/g16-A.03/g16-haswell/g16/l1.exe PID=    371679.
  
 Copyright (c) 1988,1990,1992,1993,1995,1998,2003,2009,2016,
            Gaussian, Inc.  All Rights Reserved.
  
 This is part of the Gaussian(R) 16 program.  It is based on
 the Gaussian(R) 09 system (copyright 2009, Gaussian, Inc.),
 the Gaussian(R) 03 system (copyright 2003, Gaussian, Inc.),
 the Gaussian(R) 98 system (copyright 1998, Gaussian, Inc.),
 the Gaussian(R) 94 system (copyright 1995, Gaussian, Inc.),
 the Gaussian 92(TM) system (copyright 1992, Gaussian, Inc.),
 the Gaussian 90(TM) system (copyright 1990, Gaussian, Inc.),
 the Gaussian 88(TM) system (copyright 1988, Gaussian, Inc.),
 the Gaussian 86(TM) system (copyright 1986, Carnegie Mellon
 University), and the Gaussian 82(TM) system (copyright 1983,
 Carnegie Mellon University). Gaussian is a federally registered
 trademark of Gaussian, Inc.
  
 This software contains proprietary and confidential information,
 including trade secrets, belonging to Gaussian, Inc.
  
 This software is provided under written license and may be
 used, copied, transmitted, or stored only in accord with that
 written license.
  
 The following legend is applicable only to US Government
 contracts under FAR:
  
                    RESTRICTED RIGHTS LEGEND
  
 Use, reproduction and disclosure by the US Government is
 subject to restrictions as set forth in subparagraphs (a)
 and (c) of the Commercial Computer Software - Restricted
 Rights clause in FAR 52.227-19.
  
 Gaussian, Inc.
 340 Quinnipiac St., Bldg. 40, Wallingford CT 06492
  
  
 ---------------------------------------------------------------
 Warning -- This program may not be used in any manner that
 competes with the business of Gaussian, Inc. or will provide
 assistance to any competitor of Gaussian, Inc.  The licensee
 of this program is prohibited from giving any competitor of
 Gaussian, Inc. access to this program.  By using this program,
 the user acknowledges that Gaussian, Inc. is engaged in the
 business of creating and licensing software in the field of
 computational chemistry and represents and warrants to the
 licensee that it is not a competitor of Gaussian, Inc. and that
 it will not use this program in any manner prohibited above.
 ---------------------------------------------------------------
  

 Cite this work as:
 Gaussian 16, Revision A.03,
 M. J. Frisch, G. W. Trucks, H. B. Schlegel, G. E. Scuseria, 
 M. A. Robb, J. R. Cheeseman, G. Scalmani, V. Barone, 
 G. A. Petersson, H. Nakatsuji, X. Li, M. Caricato, A. V. Marenich, 
 J. Bloino, B. G. Janesko, R. Gomperts, B. Mennucci, H. P. Hratchian, 
 J. V. Ortiz, A. F. Izmaylov, J. L. Sonnenberg, D. Williams-Young, 
 F. Ding, F. Lipparini, F. Egidi, J. Goings, B. Peng, A. Petrone, 
 T. Henderson, D. Ranasinghe, V. G. Zakrzewski, J. Gao, N. Rega, 
 G. Zheng, W. Liang, M. Hada, M. Ehara, K. Toyota, R. Fukuda, 
 J. Hasegawa, M. Ishida, T. Nakajima, Y. Honda, O. Kitao, H. Nakai, 
 T. Vreven, K. Throssell, J. A. Montgomery, Jr., J. E. Peralta, 
 F. Ogliaro, M. J. Bearpark, J. J. Heyd, E. N. Brothers, K. N. Kudin, 
 V. N. Staroverov, T. A. Keith, R. Kobayashi, J. Normand, 
 K. Raghavachari, A. P. Rendell, J. C. Burant, S. S. Iyengar, 
 J. Tomasi, M. Cossi, J. M. Millam, M. Klene, C. Adamo, R. Cammi, 
 J. W. Ochterski, R. L. Martin, K. Morokuma, O. Farkas, 
 J. B. Foresman, and D. J. Fox, Gaussian, Inc., Wallingford CT, 2016.
 
 ******************************************
 Gaussian 16:  ES64L-G16RevA.03 25-Dec-2016
                26-Dec-2019 
 ******************************************
 %chk=methylpropene_p.chk
 %nprocshared=24
 Will use up to   24 processors via shared memory.
 %mem=10GB
 -------------------------------------------------------------------
 #p opt freq m062x/6-311++g(d,p) geom=connectivity temperature=0.001
 -------------------------------------------------------------------
 1/18=20,19=15,26=3,38=1,57=2,112=-1000/1,3;
 2/9=110,12=2,17=6,18=5,40=1/2;
 3/5=4,6=6,7=1111,11=2,25=1,30=1,71=1,74=-55/1,2,3;
 4//1;
 5/5=2,38=5/2;
 6/7=2,8=2,9=2,10=2,28=1/1;
 7//1,2,3,16;
 1/18=20,19=15,26=3/3(2);
 2/9=110/2;
 99//99;
 2/9=110/2;
 3/5=4,6=6,7=1111,11=2,25=1,30=1,71=1,74=-55/1,2,3;
 4/5=5,16=3,69=1/1;
 5/5=2,38=5/2;
 7//1,2,3,16;
 1/18=20,19=15,26=3/3(-5);
 2/9=110/2;
 6/7=2,8=2,9=2,10=2,19=2,28=1/1;
 99/9=1/99;
 Leave Link    1 at Thu Dec 26 16:33:28 2019, MaxMem=  1342177280 cpu:               0.8 elap:               0.0
 (Enter /apps/cent7/gaussian/g16-A.03/g16-haswell/g16/l101.exe)
 -------------------
 Title Card Required
 -------------------
 Symbolic Z-matrix:
 Charge =  1 Multiplicity = 1
 C                    -1.85703  -7.63945  -1.57243 
 H                    -1.50038  -8.64826  -1.57243 
 H                    -1.50036  -7.13505  -0.69877 
 H                    -2.92703  -7.63944  -1.57243 
 C                    -1.34369  -6.91349  -2.82983 
 C                    -0.4585   -7.66444  -3.84182 
 H                     0.24859  -8.27126  -3.31579 
 H                    -1.072    -8.28616  -4.45986 
 H                     0.06295  -6.95766  -4.45293 
 C                    -1.66824  -5.61609  -3.04886 
 H                    -0.79553  -5.00675  -2.93944 
 H                    -2.05673  -5.50803  -4.03997 
 H                    -2.40873  -5.30912  -2.34009 
 
 ITRead=  0  0  0  0  0  0  0  0  0  0  0  0  0
 MicOpt= -1 -1 -1 -1 -1 -1 -1 -1 -1 -1 -1 -1 -1
 NAtoms=     13 NQM=       13 NQMF=       0 NMMI=      0 NMMIF=      0
                NMic=       0 NMicF=      0.
                    Isotopes and Nuclear Properties:
 (Nuclear quadrupole moments (NQMom) in fm**2, nuclear magnetic moments (NMagM)
  in nuclear magnetons)

  Atom         1           2           3           4           5           6           7           8           9          10
 IAtWgt=          12           1           1           1          12          12           1           1           1          12
 AtmWgt=  12.0000000   1.0078250   1.0078250   1.0078250  12.0000000  12.0000000   1.0078250   1.0078250   1.0078250  12.0000000
 NucSpn=           0           1           1           1           0           0           1           1           1           0
 AtZEff=  -0.0000000  -0.0000000  -0.0000000  -0.0000000  -0.0000000  -0.0000000  -0.0000000  -0.0000000  -0.0000000  -0.0000000
 NQMom=    0.0000000   0.0000000   0.0000000   0.0000000   0.0000000   0.0000000   0.0000000   0.0000000   0.0000000   0.0000000
 NMagM=    0.0000000   2.7928460   2.7928460   2.7928460   0.0000000   0.0000000   2.7928460   2.7928460   2.7928460   0.0000000
 AtZNuc=   6.0000000   1.0000000   1.0000000   1.0000000   6.0000000   6.0000000   1.0000000   1.0000000   1.0000000   6.0000000

  Atom        11          12          13
 IAtWgt=           1           1           1
 AtmWgt=   1.0078250   1.0078250   1.0078250
 NucSpn=           1           1           1
 AtZEff=  -0.0000000  -0.0000000  -0.0000000
 NQMom=    0.0000000   0.0000000   0.0000000
 NMagM=    2.7928460   2.7928460   2.7928460
 AtZNuc=   1.0000000   1.0000000   1.0000000
 Leave Link  101 at Thu Dec 26 16:33:28 2019, MaxMem=  1342177280 cpu:               5.4 elap:               0.2
 (Enter /apps/cent7/gaussian/g16-A.03/g16-haswell/g16/l103.exe)

 GradGradGradGradGradGradGradGradGradGradGradGradGradGradGradGradGradGrad
 Berny optimization.
 Initialization pass.
                           ----------------------------
                           !    Initial Parameters    !
                           ! (Angstroms and Degrees)  !
 --------------------------                            --------------------------
 ! Name  Definition              Value          Derivative Info.                !
 --------------------------------------------------------------------------------
 ! R1    R(1,2)                  1.07           estimate D2E/DX2                !
 ! R2    R(1,3)                  1.07           estimate D2E/DX2                !
 ! R3    R(1,4)                  1.07           estimate D2E/DX2                !
 ! R4    R(1,5)                  1.54           estimate D2E/DX2                !
 ! R5    R(5,6)                  1.54           estimate D2E/DX2                !
 ! R6    R(5,10)                 1.3552         estimate D2E/DX2                !
 ! R7    R(6,7)                  1.07           estimate D2E/DX2                !
 ! R8    R(6,8)                  1.07           estimate D2E/DX2                !
 ! R9    R(6,9)                  1.07           estimate D2E/DX2                !
 ! R10   R(10,11)                1.07           estimate D2E/DX2                !
 ! R11   R(10,12)                1.07           estimate D2E/DX2                !
 ! R12   R(10,13)                1.07           estimate D2E/DX2                !
 ! A1    A(2,1,3)              109.4712         estimate D2E/DX2                !
 ! A2    A(2,1,4)              109.4712         estimate D2E/DX2                !
 ! A3    A(2,1,5)              109.4712         estimate D2E/DX2                !
 ! A4    A(3,1,4)              109.4712         estimate D2E/DX2                !
 ! A5    A(3,1,5)              109.4713         estimate D2E/DX2                !
 ! A6    A(4,1,5)              109.4712         estimate D2E/DX2                !
 ! A7    A(1,5,6)              119.8865         estimate D2E/DX2                !
 ! A8    A(1,5,10)             120.2269         estimate D2E/DX2                !
 ! A9    A(6,5,10)             119.8865         estimate D2E/DX2                !
 ! A10   A(5,6,7)              109.4712         estimate D2E/DX2                !
 ! A11   A(5,6,8)              109.4712         estimate D2E/DX2                !
 ! A12   A(5,6,9)              109.4712         estimate D2E/DX2                !
 ! A13   A(7,6,8)              109.4713         estimate D2E/DX2                !
 ! A14   A(7,6,9)              109.4712         estimate D2E/DX2                !
 ! A15   A(8,6,9)              109.4712         estimate D2E/DX2                !
 ! A16   A(5,10,11)            109.4712         estimate D2E/DX2                !
 ! A17   A(5,10,12)            109.4712         estimate D2E/DX2                !
 ! A18   A(5,10,13)            109.4712         estimate D2E/DX2                !
 ! A19   A(11,10,12)           109.4713         estimate D2E/DX2                !
 ! A20   A(11,10,13)           109.4712         estimate D2E/DX2                !
 ! A21   A(12,10,13)           109.4712         estimate D2E/DX2                !
 ! D1    D(2,1,5,6)              0.0002         estimate D2E/DX2                !
 ! D2    D(2,1,5,10)          -179.9998         estimate D2E/DX2                !
 ! D3    D(3,1,5,6)            120.0002         estimate D2E/DX2                !
 ! D4    D(3,1,5,10)           -59.9998         estimate D2E/DX2                !
 ! D5    D(4,1,5,6)           -119.9998         estimate D2E/DX2                !
 ! D6    D(4,1,5,10)            60.0002         estimate D2E/DX2                !
 ! D7    D(1,5,6,7)            -41.2523         estimate D2E/DX2                !
 ! D8    D(1,5,6,8)             78.7477         estimate D2E/DX2                !
 ! D9    D(1,5,6,9)           -161.2523         estimate D2E/DX2                !
 ! D10   D(10,5,6,7)           138.7477         estimate D2E/DX2                !
 ! D11   D(10,5,6,8)          -101.2523         estimate D2E/DX2                !
 ! D12   D(10,5,6,9)            18.7477         estimate D2E/DX2                !
 ! D13   D(1,5,10,11)          110.7814         estimate D2E/DX2                !
 ! D14   D(1,5,10,12)         -129.2186         estimate D2E/DX2                !
 ! D15   D(1,5,10,13)           -9.2186         estimate D2E/DX2                !
 ! D16   D(6,5,10,11)          -69.2186         estimate D2E/DX2                !
 ! D17   D(6,5,10,12)           50.7814         estimate D2E/DX2                !
 ! D18   D(6,5,10,13)          170.7814         estimate D2E/DX2                !
 --------------------------------------------------------------------------------
 Trust Radius=3.00D-01 FncErr=1.00D-07 GrdErr=1.00D-06 EigMax=2.50D+02 EigMin=1.00D-04
 Number of steps in this run=     61 maximum allowed number of steps=    100.
 GradGradGradGradGradGradGradGradGradGradGradGradGradGradGradGradGradGrad

 Leave Link  103 at Thu Dec 26 16:33:28 2019, MaxMem=  1342177280 cpu:               0.3 elap:               0.0
 (Enter /apps/cent7/gaussian/g16-A.03/g16-haswell/g16/l202.exe)
                          Input orientation:                          
 ---------------------------------------------------------------------
 Center     Atomic      Atomic             Coordinates (Angstroms)
 Number     Number       Type             X           Y           Z
 ---------------------------------------------------------------------
      1          6           0       -1.857033   -7.639451   -1.572426
      2          1           0       -1.500378   -8.648261   -1.572426
      3          1           0       -1.500360   -7.135053   -0.698775
      4          1           0       -2.927033   -7.639438   -1.572426
      5          6           0       -1.343691   -6.913495   -2.829831
      6          6           0       -0.458498   -7.664440   -3.841818
      7          1           0        0.248588   -8.271258   -3.315794
      8          1           0       -1.071999   -8.286159   -4.459864
      9          1           0        0.062952   -6.957662   -4.452927
     10          6           0       -1.668245   -5.616090   -3.048856
     11          1           0       -0.795529   -5.006749   -2.939443
     12          1           0       -2.056729   -5.508034   -4.039969
     13          1           0       -2.408729   -5.309119   -2.340088
 ---------------------------------------------------------------------
                    Distance matrix (angstroms):
                    1          2          3          4          5
     1  C    0.000000
     2  H    1.070000   0.000000
     3  H    1.070000   1.747302   0.000000
     4  H    1.070000   1.747303   1.747303   0.000000
     5  C    1.540000   2.148263   2.148263   2.148263   0.000000
     6  C    2.665832   2.683944   3.353274   3.353271   1.540000
     7  H    2.805735   2.498069   3.346427   3.677376   2.148263
     8  H    3.061341   2.941415   3.956556   3.492377   2.148263
     9  H    3.528238   3.687738   4.070512   4.207388   2.148263
    10  C    2.511867   3.376698   2.803269   2.803271   1.355200
    11  H    3.150658   3.952994   3.169710   3.652820   1.987002
    12  H    3.266739   4.032284   3.757700   3.374770   1.987002
    13  H    2.514780   3.544612   2.617838   2.507654   1.987002
                    6          7          8          9         10
     6  C    0.000000
     7  H    1.070000   0.000000
     8  H    1.070000   1.747303   0.000000
     9  H    1.070000   1.747303   1.747303   0.000000
    10  C    2.507591   3.285639   3.078267   2.601591   0.000000
    11  H    2.826869   3.448020   3.625279   2.614132   1.070000
    12  H    2.691410   3.670738   2.977244   2.600962   1.070000
    13  H    3.406777   4.097268   3.891410   3.645681   1.070000
                   11         12         13
    11  H    0.000000
    12  H    1.747303   0.000000
    13  H    1.747303   1.747303   0.000000
 Stoichiometry    C4H9(1+)
 Framework group  C1[X(C4H9)]
 Deg. of freedom    33
 Full point group                 C1      NOp   1
 Largest Abelian subgroup         C1      NOp   1
 Largest concise Abelian subgroup C1      NOp   1
                         Standard orientation:                         
 ---------------------------------------------------------------------
 Center     Atomic      Atomic             Coordinates (Angstroms)
 Number     Number       Type             X           Y           Z
 ---------------------------------------------------------------------
      1          6           0        1.341808   -0.705697    0.000000
      2          1           0        1.156613   -1.759548   -0.000004
      3          1           0        1.900332   -0.441712   -0.873649
      4          1           0        1.900328   -0.441717    0.873653
      5          6           0        0.000642    0.051187    0.000000
      6          6           0       -1.323869   -0.734479    0.000000
      7          1           0       -1.243695   -1.568748   -0.665183
      8          1           0       -1.530201   -1.085745    0.989414
      9          1           0       -2.117987   -0.094830   -0.324231
     10          6           0       -0.018016    1.406259   -0.000000
     11          1           0       -0.380820    1.757964   -0.943174
     12          1           0       -0.660714    1.754110    0.781561
     13          1           0        0.972756    1.776601    0.161612
 ---------------------------------------------------------------------
 Rotational constants (GHZ):           8.8022810           7.6731894           4.4313361
 Leave Link  202 at Thu Dec 26 16:33:28 2019, MaxMem=  1342177280 cpu:               0.3 elap:               0.0
 (Enter /apps/cent7/gaussian/g16-A.03/g16-haswell/g16/l301.exe)
 Standard basis: 6-311++G(d,p) (5D, 7F)
 Ernie: Thresh=  0.10000D-02 Tol=  0.10000D-05 Strict=F.
 There are   155 symmetry adapted cartesian basis functions of A   symmetry.
 There are   151 symmetry adapted basis functions of A   symmetry.
   151 basis functions,   225 primitive gaussians,   155 cartesian basis functions
    16 alpha electrons       16 beta electrons
       nuclear repulsion energy       127.5178290702 Hartrees.
 IExCor= 4336 DFT=T Ex+Corr=M062X ExCW=0 ScaHFX=  0.540000
 ScaDFX=  1.000000  1.000000  1.000000  1.000000 ScalE2=  1.000000  1.000000
 IRadAn=      5 IRanWt=     -1 IRanGd=            0 ICorTp=0 IEmpDi=  4
 NAtoms=   13 NActive=   13 NUniq=   13 SFac= 1.00D+00 NAtFMM=   60 NAOKFM=F Big=F
 Integral buffers will be    131072 words long.
 Raffenetti 2 integral format.
 Two-electron integral symmetry is turned on.
 Leave Link  301 at Thu Dec 26 16:33:28 2019, MaxMem=  1342177280 cpu:               1.2 elap:               0.1
 (Enter /apps/cent7/gaussian/g16-A.03/g16-haswell/g16/l302.exe)
 NPDir=0 NMtPBC=     1 NCelOv=     1 NCel=       1 NClECP=     1 NCelD=      1
         NCelK=      1 NCelE2=     1 NClLst=     1 CellRange=     0.0.
 One-electron integrals computed using PRISM.
 One-electron integral symmetry used in STVInt
 NBasis=   151 RedAO= T EigKep=  2.53D-05  NBF=   151
 NBsUse=   151 1.00D-06 EigRej= -1.00D+00 NBFU=   151
 Precomputing XC quadrature grid using
 IXCGrd= 4 IRadAn=           5 IRanWt=          -1 IRanGd=           0 AccXCQ= 0.00D+00.
 Generated NRdTot=       0 NPtTot=           0 NUsed=           0 NTot=          32
 NSgBfM=   155   155   155   155   155 MxSgAt=    13 MxSgA2=    13.
 Leave Link  302 at Thu Dec 26 16:33:29 2019, MaxMem=  1342177280 cpu:               3.3 elap:               0.2
 (Enter /apps/cent7/gaussian/g16-A.03/g16-haswell/g16/l303.exe)
 DipDrv:  MaxL=1.
 Leave Link  303 at Thu Dec 26 16:33:29 2019, MaxMem=  1342177280 cpu:               1.4 elap:               0.1
 (Enter /apps/cent7/gaussian/g16-A.03/g16-haswell/g16/l401.exe)
 ExpMin= 3.60D-02 ExpMax= 4.56D+03 ExpMxC= 6.82D+02 IAcc=3 IRadAn=         5 AccDes= 0.00D+00
 Harris functional with IExCor= 1009 and IRadAn=       5 diagonalized for initial guess.
 HarFok:  IExCor= 1009 AccDes= 0.00D+00 IRadAn=         5 IDoV= 1 UseB2=F ITyADJ=14
 ICtDFT=  3500011 ScaDFX=  1.000000  1.000000  1.000000  1.000000
 FoFCou: FMM=F IPFlag=           0 FMFlag=      100000 FMFlg1=           0
         NFxFlg=           0 DoJE=T BraDBF=F KetDBF=T FulRan=T
         wScrn=  0.000000 ICntrl=       500 IOpCl=  0 I1Cent=   200000004 NGrid=           0
         NMat0=    1 NMatS0=      1 NMatT0=    0 NMatD0=    1 NMtDS0=    0 NMtDT0=    0
 Petite list used in FoFCou.
 Harris En= -157.520951860757    
 JPrj=0 DoOrth=F DoCkMO=F.
 Leave Link  401 at Thu Dec 26 16:33:29 2019, MaxMem=  1342177280 cpu:               6.6 elap:               0.3
 (Enter /apps/cent7/gaussian/g16-A.03/g16-haswell/g16/l502.exe)
 Integral symmetry usage will be decided dynamically.
 Closed shell SCF:
 Using DIIS extrapolation, IDIIS=  1040.
 NGot=  1342177280 LenX=  1342123785 LenY=  1342099319
 Requested convergence on RMS density matrix=1.00D-08 within 128 cycles.
 Requested convergence on MAX density matrix=1.00D-06.
 Requested convergence on             energy=1.00D-06.
 No special actions if energy rises.
 Fock matrices will be formed incrementally for  20 cycles.

 Cycle   1  Pass 1  IDiag  1:
 FoFJK:  IHMeth= 1 ICntrl=       0 DoSepK=F KAlg= 0 I1Cent=           0 FoldK=F
 IRaf= 990000000 NMat=       1 IRICut=       1 DoRegI=T DoRafI=F ISym2E= 0 IDoP0=0 IntGTp=1.
 FoFCou: FMM=F IPFlag=           0 FMFlag=      100000 FMFlg1=           0
         NFxFlg=           0 DoJE=F BraDBF=F KetDBF=F FulRan=T
         wScrn=  0.000000 ICntrl=         0 IOpCl=  0 I1Cent=           0 NGrid=           0
         NMat0=    1 NMatS0=      1 NMatT0=    0 NMatD0=    1 NMtDS0=    0 NMtDT0=    0
 Symmetry not used in FoFCou.
 E= -157.310250339171    
 DIIS: error= 4.36D-02 at cycle   1 NSaved=   1.
 NSaved= 1 IEnMin= 1 EnMin= -157.310250339171     IErMin= 1 ErrMin= 4.36D-02
 ErrMax= 4.36D-02  0.00D+00 EMaxC= 1.00D-01 BMatC= 2.00D-01 BMatP= 2.00D-01
 IDIUse=3 WtCom= 5.64D-01 WtEn= 4.36D-01
 Coeff-Com:  0.100D+01
 Coeff-En:   0.100D+01
 Coeff:      0.100D+01
 Gap=     0.271 Goal=   None    Shift=    0.000
 GapD=    0.271 DampG=1.000 DampE=0.500 DampFc=0.5000 IDamp=-1.
 Damping current iteration by 5.00D-01
 RMSDP=4.80D-03 MaxDP=1.12D-01              OVMax= 1.42D-01

 Cycle   2  Pass 1  IDiag  1:
 RMSU=  2.40D-03    CP:  9.98D-01
 E= -157.398374811643     Delta-E=       -0.088124472472 Rises=F Damp=T
 DIIS: error= 8.70D-03 at cycle   2 NSaved=   2.
 NSaved= 2 IEnMin= 2 EnMin= -157.398374811643     IErMin= 2 ErrMin= 8.70D-03
 ErrMax= 8.70D-03  0.00D+00 EMaxC= 1.00D-01 BMatC= 1.04D-02 BMatP= 2.00D-01
 IDIUse=3 WtCom= 9.13D-01 WtEn= 8.70D-02
 Coeff-Com: -0.153D+00 0.115D+01
 Coeff-En:   0.000D+00 0.100D+01
 Coeff:     -0.139D+00 0.114D+01
 Gap=     0.343 Goal=   None    Shift=    0.000
 RMSDP=1.83D-03 MaxDP=3.41D-02 DE=-8.81D-02 OVMax= 6.27D-02

 Cycle   3  Pass 1  IDiag  1:
 RMSU=  1.47D-03    CP:  9.86D-01  1.45D+00
 E= -157.472867183799     Delta-E=       -0.074492372157 Rises=F Damp=F
 DIIS: error= 3.03D-03 at cycle   3 NSaved=   3.
 NSaved= 3 IEnMin= 3 EnMin= -157.472867183799     IErMin= 3 ErrMin= 3.03D-03
 ErrMax= 3.03D-03  0.00D+00 EMaxC= 1.00D-01 BMatC= 9.12D-04 BMatP= 1.04D-02
 IDIUse=3 WtCom= 9.70D-01 WtEn= 3.03D-02
 Coeff-Com: -0.488D-01 0.244D+00 0.805D+00
 Coeff-En:   0.000D+00 0.000D+00 0.100D+01
 Coeff:     -0.473D-01 0.237D+00 0.810D+00
 Gap=     0.340 Goal=   None    Shift=    0.000
 RMSDP=3.84D-04 MaxDP=1.47D-02 DE=-7.45D-02 OVMax= 1.16D-02

 Cycle   4  Pass 1  IDiag  1:
 RMSU=  3.68D-04    CP:  9.82D-01  1.49D+00  1.01D+00
 E= -157.473477431334     Delta-E=       -0.000610247535 Rises=F Damp=F
 DIIS: error= 2.17D-03 at cycle   4 NSaved=   4.
 NSaved= 4 IEnMin= 4 EnMin= -157.473477431334     IErMin= 4 ErrMin= 2.17D-03
 ErrMax= 2.17D-03  0.00D+00 EMaxC= 1.00D-01 BMatC= 2.42D-04 BMatP= 9.12D-04
 IDIUse=3 WtCom= 9.78D-01 WtEn= 2.17D-02
 Coeff-Com: -0.884D-02 0.243D-01 0.354D+00 0.631D+00
 Coeff-En:   0.000D+00 0.000D+00 0.184D+00 0.816D+00
 Coeff:     -0.864D-02 0.238D-01 0.350D+00 0.635D+00
 Gap=     0.342 Goal=   None    Shift=    0.000
 RMSDP=1.20D-04 MaxDP=3.49D-03 DE=-6.10D-04 OVMax= 5.68D-03

 Cycle   5  Pass 1  IDiag  1:
 RMSU=  7.82D-05    CP:  9.79D-01  1.47D+00  1.02D+00  8.00D-01
 E= -157.473731224946     Delta-E=       -0.000253793612 Rises=F Damp=F
 DIIS: error= 1.38D-04 at cycle   5 NSaved=   5.
 NSaved= 5 IEnMin= 5 EnMin= -157.473731224946     IErMin= 5 ErrMin= 1.38D-04
 ErrMax= 1.38D-04  0.00D+00 EMaxC= 1.00D-01 BMatC= 1.87D-06 BMatP= 2.42D-04
 IDIUse=3 WtCom= 9.99D-01 WtEn= 1.38D-03
 Coeff-Com:  0.527D-04-0.192D-02 0.243D-01 0.108D+00 0.870D+00
 Coeff-En:   0.000D+00 0.000D+00 0.000D+00 0.000D+00 0.100D+01
 Coeff:      0.526D-04-0.192D-02 0.243D-01 0.108D+00 0.870D+00
 Gap=     0.342 Goal=   None    Shift=    0.000
 RMSDP=2.40D-05 MaxDP=6.41D-04 DE=-2.54D-04 OVMax= 4.18D-04

 Cycle   6  Pass 1  IDiag  1:
 RMSU=  1.18D-05    CP:  9.80D-01  1.48D+00  1.03D+00  8.13D-01  8.83D-01
 E= -157.473733395756     Delta-E=       -0.000002170810 Rises=F Damp=F
 DIIS: error= 2.50D-05 at cycle   6 NSaved=   6.
 NSaved= 6 IEnMin= 6 EnMin= -157.473733395756     IErMin= 6 ErrMin= 2.50D-05
 ErrMax= 2.50D-05  0.00D+00 EMaxC= 1.00D-01 BMatC= 5.87D-08 BMatP= 1.87D-06
 IDIUse=1 WtCom= 1.00D+00 WtEn= 0.00D+00
 Coeff-Com:  0.344D-03-0.103D-02-0.192D-01-0.292D-01-0.740D-01 0.112D+01
 Coeff:      0.344D-03-0.103D-02-0.192D-01-0.292D-01-0.740D-01 0.112D+01
 Gap=     0.342 Goal=   None    Shift=    0.000
 RMSDP=5.55D-06 MaxDP=1.39D-04 DE=-2.17D-06 OVMax= 2.18D-04

 Cycle   7  Pass 1  IDiag  1:
 RMSU=  2.74D-06    CP:  9.80D-01  1.48D+00  1.03D+00  8.20D-01  8.87D-01
                    CP:  1.23D+00
 E= -157.473733539462     Delta-E=       -0.000000143706 Rises=F Damp=F
 DIIS: error= 6.91D-06 at cycle   7 NSaved=   7.
 NSaved= 7 IEnMin= 7 EnMin= -157.473733539462     IErMin= 7 ErrMin= 6.91D-06
 ErrMax= 6.91D-06  0.00D+00 EMaxC= 1.00D-01 BMatC= 5.14D-09 BMatP= 5.87D-08
 IDIUse=1 WtCom= 1.00D+00 WtEn= 0.00D+00
 Coeff-Com:  0.287D-04-0.104D-03-0.495D-02-0.871D-02-0.422D-01 0.237D+00
 Coeff-Com:  0.819D+00
 Coeff:      0.287D-04-0.104D-03-0.495D-02-0.871D-02-0.422D-01 0.237D+00
 Coeff:      0.819D+00
 Gap=     0.342 Goal=   None    Shift=    0.000
 RMSDP=8.45D-07 MaxDP=1.56D-05 DE=-1.44D-07 OVMax= 4.62D-05

 Cycle   8  Pass 1  IDiag  1:
 RMSU=  6.38D-07    CP:  9.80D-01  1.48D+00  1.03D+00  8.21D-01  8.84D-01
                    CP:  1.26D+00  9.72D-01
 E= -157.473733546335     Delta-E=       -0.000000006873 Rises=F Damp=F
 DIIS: error= 3.03D-06 at cycle   8 NSaved=   8.
 NSaved= 8 IEnMin= 8 EnMin= -157.473733546335     IErMin= 8 ErrMin= 3.03D-06
 ErrMax= 3.03D-06  0.00D+00 EMaxC= 1.00D-01 BMatC= 1.01D-09 BMatP= 5.14D-09
 IDIUse=1 WtCom= 1.00D+00 WtEn= 0.00D+00
 Coeff-Com: -0.493D-04 0.125D-03 0.750D-03 0.920D-03-0.564D-02-0.745D-01
 Coeff-Com:  0.288D+00 0.790D+00
 Coeff:     -0.493D-04 0.125D-03 0.750D-03 0.920D-03-0.564D-02-0.745D-01
 Coeff:      0.288D+00 0.790D+00
 Gap=     0.342 Goal=   None    Shift=    0.000
 RMSDP=4.52D-07 MaxDP=1.61D-05 DE=-6.87D-09 OVMax= 1.31D-05

 Cycle   9  Pass 1  IDiag  1:
 RMSU=  1.69D-07    CP:  9.80D-01  1.48D+00  1.03D+00  8.21D-01  8.82D-01
                    CP:  1.27D+00  1.04D+00  8.98D-01
 E= -157.473733547531     Delta-E=       -0.000000001196 Rises=F Damp=F
 DIIS: error= 4.65D-07 at cycle   9 NSaved=   9.
 NSaved= 9 IEnMin= 9 EnMin= -157.473733547531     IErMin= 9 ErrMin= 4.65D-07
 ErrMax= 4.65D-07  0.00D+00 EMaxC= 1.00D-01 BMatC= 1.66D-11 BMatP= 1.01D-09
 IDIUse=1 WtCom= 1.00D+00 WtEn= 0.00D+00
 Coeff-Com: -0.115D-04 0.314D-04 0.350D-03 0.613D-03 0.983D-03-0.257D-01
 Coeff-Com:  0.198D-01 0.141D+00 0.863D+00
 Coeff:     -0.115D-04 0.314D-04 0.350D-03 0.613D-03 0.983D-03-0.257D-01
 Coeff:      0.198D-01 0.141D+00 0.863D+00
 Gap=     0.342 Goal=   None    Shift=    0.000
 RMSDP=6.57D-08 MaxDP=2.48D-06 DE=-1.20D-09 OVMax= 2.26D-06

 Cycle  10  Pass 1  IDiag  1:
 RMSU=  4.76D-08    CP:  9.80D-01  1.48D+00  1.03D+00  8.21D-01  8.82D-01
                    CP:  1.27D+00  1.04D+00  9.07D-01  1.04D+00
 E= -157.473733547555     Delta-E=       -0.000000000024 Rises=F Damp=F
 DIIS: error= 7.82D-08 at cycle  10 NSaved=  10.
 NSaved=10 IEnMin=10 EnMin= -157.473733547555     IErMin=10 ErrMin= 7.82D-08
 ErrMax= 7.82D-08  0.00D+00 EMaxC= 1.00D-01 BMatC= 5.27D-13 BMatP= 1.66D-11
 IDIUse=1 WtCom= 1.00D+00 WtEn= 0.00D+00
 Coeff-Com:  0.142D-05-0.266D-05-0.676D-05 0.191D-04 0.306D-03 0.113D-02
 Coeff-Com: -0.107D-01-0.242D-01 0.762D-01 0.957D+00
 Coeff:      0.142D-05-0.266D-05-0.676D-05 0.191D-04 0.306D-03 0.113D-02
 Coeff:     -0.107D-01-0.242D-01 0.762D-01 0.957D+00
 Gap=     0.342 Goal=   None    Shift=    0.000
 RMSDP=1.46D-08 MaxDP=4.12D-07 DE=-2.39D-11 OVMax= 3.10D-07

 Cycle  11  Pass 1  IDiag  1:
 RMSU=  9.39D-09    CP:  9.80D-01  1.48D+00  1.03D+00  8.21D-01  8.82D-01
                    CP:  1.27D+00  1.04D+00  9.12D-01  1.08D+00  1.06D+00
 E= -157.473733547555     Delta-E=       -0.000000000000 Rises=F Damp=F
 DIIS: error= 9.17D-09 at cycle  11 NSaved=  11.
 NSaved=11 IEnMin=11 EnMin= -157.473733547555     IErMin=11 ErrMin= 9.17D-09
 ErrMax= 9.17D-09  0.00D+00 EMaxC= 1.00D-01 BMatC= 1.63D-14 BMatP= 5.27D-13
 IDIUse=1 WtCom= 1.00D+00 WtEn= 0.00D+00
 Coeff-Com:  0.534D-06-0.130D-05-0.103D-04-0.128D-04 0.217D-04 0.931D-03
 Coeff-Com: -0.239D-02-0.811D-02-0.118D-01 0.162D+00 0.859D+00
 Coeff:      0.534D-06-0.130D-05-0.103D-04-0.128D-04 0.217D-04 0.931D-03
 Coeff:     -0.239D-02-0.811D-02-0.118D-01 0.162D+00 0.859D+00
 Gap=     0.342 Goal=   None    Shift=    0.000
 RMSDP=3.30D-09 MaxDP=1.46D-07 DE=-3.41D-13 OVMax= 7.86D-08

 SCF Done:  E(RM062X) =  -157.473733548     A.U. after   11 cycles
            NFock= 11  Conv=0.33D-08     -V/T= 2.0025
 KE= 1.570754380006D+02 PE=-6.117356203695D+02 EE= 1.696686197512D+02
 Leave Link  502 at Thu Dec 26 16:33:33 2019, MaxMem=  1342177280 cpu:              93.7 elap:               4.0
 (Enter /apps/cent7/gaussian/g16-A.03/g16-haswell/g16/l601.exe)
 Copying SCF densities to generalized density rwf, IOpCl= 0 IROHF=0.

 **********************************************************************

            Population analysis using the SCF density.

 **********************************************************************

 Orbital symmetries:
       Occupied  (A) (A) (A) (A) (A) (A) (A) (A) (A) (A) (A) (A)
                 (A) (A) (A) (A)
       Virtual   (A) (A) (A) (A) (A) (A) (A) (A) (A) (A) (A) (A)
                 (A) (A) (A) (A) (A) (A) (A) (A) (A) (A) (A) (A)
                 (A) (A) (A) (A) (A) (A) (A) (A) (A) (A) (A) (A)
                 (A) (A) (A) (A) (A) (A) (A) (A) (A) (A) (A) (A)
                 (A) (A) (A) (A) (A) (A) (A) (A) (A) (A) (A) (A)
                 (A) (A) (A) (A) (A) (A) (A) (A) (A) (A) (A) (A)
                 (A) (A) (A) (A) (A) (A) (A) (A) (A) (A) (A) (A)
                 (A) (A) (A) (A) (A) (A) (A) (A) (A) (A) (A) (A)
                 (A) (A) (A) (A) (A) (A) (A) (A) (A) (A) (A) (A)
                 (A) (A) (A) (A) (A) (A) (A) (A) (A) (A) (A) (A)
                 (A) (A) (A) (A) (A) (A) (A) (A) (A) (A) (A) (A)
                 (A) (A) (A)
 The electronic state is 1-A.
 Alpha  occ. eigenvalues --  -10.87761 -10.74743 -10.74693 -10.74625  -1.17772
 Alpha  occ. eigenvalues --   -1.03341  -1.01911  -0.84258  -0.76063  -0.75841
 Alpha  occ. eigenvalues --   -0.74360  -0.68679  -0.68103  -0.65623  -0.65561
 Alpha  occ. eigenvalues --   -0.62737
 Alpha virt. eigenvalues --   -0.28521  -0.14926  -0.11098  -0.10930  -0.10839
 Alpha virt. eigenvalues --   -0.08995  -0.08316  -0.08108  -0.07812  -0.07466
 Alpha virt. eigenvalues --   -0.06821  -0.03425  -0.03278  -0.02728  -0.02166
 Alpha virt. eigenvalues --   -0.01818  -0.00567  -0.00323   0.01484   0.01920
 Alpha virt. eigenvalues --    0.02223   0.02727   0.03127   0.03865   0.04405
 Alpha virt. eigenvalues --    0.04789   0.05418   0.06239   0.06463   0.07360
 Alpha virt. eigenvalues --    0.07794   0.09553   0.11290   0.13048   0.13916
 Alpha virt. eigenvalues --    0.17899   0.19347   0.22315   0.28683   0.30193
 Alpha virt. eigenvalues --    0.30546   0.30764   0.33043   0.33828   0.38783
 Alpha virt. eigenvalues --    0.40054   0.41587   0.42500   0.49245   0.50201
 Alpha virt. eigenvalues --    0.51079   0.51480   0.51876   0.52347   0.52422
 Alpha virt. eigenvalues --    0.53413   0.56507   0.61537   0.63138   0.64364
 Alpha virt. eigenvalues --    0.72580   0.76837   0.78068   0.80281   0.82699
 Alpha virt. eigenvalues --    1.05897   1.12087   1.16778   1.22945   1.25082
 Alpha virt. eigenvalues --    1.29051   1.29901   1.31286   1.32044   1.33183
 Alpha virt. eigenvalues --    1.35900   1.38835   1.42591   1.43436   1.44014
 Alpha virt. eigenvalues --    1.48705   1.50096   1.52306   1.59565   1.60076
 Alpha virt. eigenvalues --    1.62000   1.63362   1.70214   1.72143   1.78269
 Alpha virt. eigenvalues --    1.80271   1.83741   1.90980   1.91311   1.95918
 Alpha virt. eigenvalues --    2.02125   2.07119   2.14143   2.15576   2.27643
 Alpha virt. eigenvalues --    2.29484   2.31483   2.34026   2.34771   2.36644
 Alpha virt. eigenvalues --    2.38118   2.39767   2.42305   2.43009   2.43169
 Alpha virt. eigenvalues --    2.46848   2.48028   2.50502   2.50891   2.57014
 Alpha virt. eigenvalues --    2.60378   2.71518   2.73259   2.76138   2.83367
 Alpha virt. eigenvalues --    2.93885   3.01205   3.46709   3.66057   3.67648
 Alpha virt. eigenvalues --    3.70494   3.71303   3.73296   3.75620   4.05686
 Alpha virt. eigenvalues --    4.11043  23.56622  23.85877  23.88062  24.08191
          Condensed to atoms (all electrons):
               1          2          3          4          5          6
     1  C    5.741090   0.371056   0.344440   0.372791   0.185527  -0.114344
     2  H    0.371056   0.487376  -0.023430  -0.019560  -0.050030  -0.015632
     3  H    0.344440  -0.023430   0.441094  -0.036510   0.027777   0.006260
     4  H    0.372791  -0.019560  -0.036510   0.449170  -0.007131   0.003492
     5  C    0.185527  -0.050030   0.027777  -0.007131   4.979881   0.172720
     6  C   -0.114344  -0.015632   0.006260   0.003492   0.172720   5.711158
     7  H    0.003165   0.002093  -0.000935   0.001986  -0.014057   0.367037
     8  H   -0.008511   0.002895   0.000636  -0.003776   0.039587   0.358186
     9  H    0.020784  -0.001791  -0.001158  -0.000146  -0.052592   0.363395
    10  C   -0.227500   0.028004  -0.004421  -0.001531  -0.074639  -0.213821
    11  H    0.000267   0.000802  -0.005670   0.002133   0.031561  -0.018728
    12  H    0.011488  -0.002199   0.002059  -0.003363   0.027981   0.008172
    13  H   -0.014883  -0.002160   0.003194   0.001777  -0.053428   0.026703
               7          8          9         10         11         12
     1  C    0.003165  -0.008511   0.020784  -0.227500   0.000267   0.011488
     2  H    0.002093   0.002895  -0.001791   0.028004   0.000802  -0.002199
     3  H   -0.000935   0.000636  -0.001158  -0.004421  -0.005670   0.002059
     4  H    0.001986  -0.003776  -0.000146  -0.001531   0.002133  -0.003363
     5  C   -0.014057   0.039587  -0.052592  -0.074639   0.031561   0.027981
     6  C    0.367037   0.358186   0.363395  -0.213821  -0.018728   0.008172
     7  H    0.463524  -0.031171  -0.026243   0.008210  -0.002255   0.001801
     8  H   -0.031171   0.425868  -0.020972  -0.016261   0.001097  -0.004528
     9  H   -0.026243  -0.020972   0.485119   0.015861   0.001235   0.002005
    10  C    0.008210  -0.016261   0.015861   6.058400   0.345917   0.316076
    11  H   -0.002255   0.001097   0.001235   0.345917   0.418256  -0.028731
    12  H    0.001801  -0.004528   0.002005   0.316076  -0.028731   0.442854
    13  H   -0.002812   0.001261  -0.002165   0.377485  -0.016126  -0.029568
              13
     1  C   -0.014883
     2  H   -0.002160
     3  H    0.003194
     4  H    0.001777
     5  C   -0.053428
     6  C    0.026703
     7  H   -0.002812
     8  H    0.001261
     9  H   -0.002165
    10  C    0.377485
    11  H   -0.016126
    12  H   -0.029568
    13  H    0.483936
 Mulliken charges:
               1
     1  C   -0.685370
     2  H    0.222577
     3  H    0.246663
     4  H    0.240668
     5  C    0.786842
     6  C   -0.654597
     7  H    0.229657
     8  H    0.255690
     9  H    0.216670
    10  C   -0.611780
    11  H    0.270243
    12  H    0.255953
    13  H    0.226785
 Sum of Mulliken charges =   1.00000
 Mulliken charges with hydrogens summed into heavy atoms:
               1
     1  C    0.024537
     5  C    0.786842
     6  C    0.047419
    10  C    0.141201
 Electronic spatial extent (au):  <R**2>=            324.8195
 Charge=              1.0000 electrons
 Dipole moment (field-independent basis, Debye):
    X=             -0.0719    Y=              0.5000    Z=              0.0003  Tot=              0.5051
 Quadrupole moment (field-independent basis, Debye-Ang):
   XX=            -17.5246   YY=            -18.0255   ZZ=            -22.2415
   XY=             -0.1936   XZ=             -0.1994   YZ=             -0.2703
 Traceless Quadrupole moment (field-independent basis, Debye-Ang):
   XX=              1.7392   YY=              1.2384   ZZ=             -2.9776
   XY=             -0.1936   XZ=             -0.1994   YZ=             -0.2703
 Octapole moment (field-independent basis, Debye-Ang**2):
  XXX=              1.5826  YYY=              3.5501  ZZZ=              0.2979  XYY=             -1.7362
  XXY=             -2.9760  XXZ=              0.5269  XZZ=             -0.2130  YZZ=              1.1447
  YYZ=             -0.7940  XYZ=              0.5111
 Hexadecapole moment (field-independent basis, Debye-Ang**3):
 XXXX=           -177.8883 YYYY=           -156.0941 ZZZZ=            -37.9446 XXXY=             -0.0822
 XXXZ=              0.2387 YYYX=             -0.8224 YYYZ=              0.7800 ZZZX=             -1.6460
 ZZZY=             -2.0845 XXYY=            -56.3118 XXZZ=            -33.5945 YYZZ=            -30.7174
 XXYZ=             -0.4690 YYXZ=              0.1189 ZZXY=             -0.2768
 N-N= 1.275178290702D+02 E-N=-6.117356204627D+02  KE= 1.570754380006D+02
 No NMR shielding tensors so no spin-rotation constants.
 Leave Link  601 at Thu Dec 26 16:33:33 2019, MaxMem=  1342177280 cpu:               2.4 elap:               0.1
 (Enter /apps/cent7/gaussian/g16-A.03/g16-haswell/g16/l701.exe)
 ... and contract with generalized density number  0.
 Compute integral first derivatives.
 Leave Link  701 at Thu Dec 26 16:33:33 2019, MaxMem=  1342177280 cpu:               3.2 elap:               0.2
 (Enter /apps/cent7/gaussian/g16-A.03/g16-haswell/g16/l702.exe)
 L702 exits ... SP integral derivatives will be done elsewhere.
 Leave Link  702 at Thu Dec 26 16:33:33 2019, MaxMem=  1342177280 cpu:               0.4 elap:               0.0
 (Enter /apps/cent7/gaussian/g16-A.03/g16-haswell/g16/l703.exe)
 Integral derivatives from FoFJK, PRISM(SPDF).
 Compute integral first derivatives, UseDBF=F ICtDFT=           0.
 Calling FoFJK, ICntrl=      2127 FMM=F ISym2X=0 I1Cent= 0 IOpClX= 0 NMat=1 NMatS=1 NMatT=0.
 FoFJK:  IHMeth= 1 ICntrl=    2127 DoSepK=F KAlg= 0 I1Cent=           0 FoldK=F
 IRaf=         0 NMat=       1 IRICut=       1 DoRegI=T DoRafI=F ISym2E= 0 IDoP0=0 IntGTp=1.
 FoFCou: FMM=F IPFlag=           0 FMFlag=      100000 FMFlg1=         800
         NFxFlg=           0 DoJE=F BraDBF=F KetDBF=F FulRan=T
         wScrn=  0.000000 ICntrl=      2127 IOpCl=  0 I1Cent=           0 NGrid=           0
         NMat0=    1 NMatS0=      1 NMatT0=    0 NMatD0=    1 NMtDS0=    0 NMtDT0=    0
 Symmetry not used in FoFCou.
 Leave Link  703 at Thu Dec 26 16:33:34 2019, MaxMem=  1342177280 cpu:              16.1 elap:               0.7
 (Enter /apps/cent7/gaussian/g16-A.03/g16-haswell/g16/l716.exe)
 Dipole        =-2.82733333D-02 1.96697745D-01 1.20329788D-04
 ***** Axes restored to original set *****
 -------------------------------------------------------------------
 Center     Atomic                   Forces (Hartrees/Bohr)
 Number     Number              X              Y              Z
 -------------------------------------------------------------------
      1        6           0.026609468    0.004156460   -0.048560639
      2        1           0.003266244   -0.012623219    0.002267510
      3        1           0.003773013    0.012823562    0.013618382
      4        1          -0.017970462    0.005033741    0.000316969
      5        6           0.030110722   -0.109994711    0.015722069
      6        6          -0.016472110    0.033511762    0.037362597
      7        1           0.007229970   -0.012823057    0.007670763
      8        1          -0.013045686   -0.012317463   -0.008138230
      9        1           0.004693920    0.008769845   -0.010925964
     10        6          -0.038928226    0.049052713    0.008469842
     11        1           0.019085931    0.013529260   -0.003916073
     12        1           0.000226110    0.007222805   -0.022038725
     13        1          -0.008578896    0.013658303    0.008151499
 -------------------------------------------------------------------
 Cartesian Forces:  Max     0.109994711 RMS     0.025976637
 Leave Link  716 at Thu Dec 26 16:33:34 2019, MaxMem=  1342177280 cpu:               1.2 elap:               0.1
 (Enter /apps/cent7/gaussian/g16-A.03/g16-haswell/g16/l103.exe)

 GradGradGradGradGradGradGradGradGradGradGradGradGradGradGradGradGradGrad
 Berny optimization.
 FormGI is forming the generalized inverse of G from B-inverse, IUseBI=4.
 Internal  Forces:  Max     0.088164480 RMS     0.016544181
 Search for a local minimum.
 Step number   1 out of a maximum of   61
 All quantities printed in internal units (Hartrees-Bohrs-Radians)
 RMS Force = .16544D-01 SwitMx=.10000D-02 MixMth= 1
 Mixed Optimization -- RFO/linear search
 Second derivative matrix not updated -- first step.
 ITU=  0
     Eigenvalues ---    0.00237   0.00237   0.01054   0.02681   0.07243
     Eigenvalues ---    0.07243   0.07243   0.07243   0.08601   0.08601
     Eigenvalues ---    0.16000   0.16000   0.16000   0.16000   0.16000
     Eigenvalues ---    0.16000   0.16000   0.16000   0.16000   0.25000
     Eigenvalues ---    0.25000   0.28519   0.28519   0.37230   0.37230
     Eigenvalues ---    0.37230   0.37230   0.37230   0.37230   0.37230
     Eigenvalues ---    0.37230   0.37230   0.53930
 RFO step:  Lambda=-3.37786548D-02 EMin= 2.36824211D-03
 Linear search not attempted -- first point.
 Iteration  1 RMS(Cart)=  0.06752147 RMS(Int)=  0.00138474
 Iteration  2 RMS(Cart)=  0.00124820 RMS(Int)=  0.00059584
 Iteration  3 RMS(Cart)=  0.00000150 RMS(Int)=  0.00059584
 Iteration  4 RMS(Cart)=  0.00000000 RMS(Int)=  0.00059584
 ITry= 1 IFail=0 DXMaxC= 2.18D-01 DCOld= 1.00D+10 DXMaxT= 3.00D-01 DXLimC= 3.00D+00 Rises=F
 Variable       Old X    -DE/DX   Delta X   Delta X   Delta X     New X
                                 (Linear)    (Quad)   (Total)
    R1        2.02201   0.01299   0.00000   0.03199   0.03199   2.05400
    R2        2.02201   0.01842   0.00000   0.04537   0.04537   2.06737
    R3        2.02201   0.01797   0.00000   0.04425   0.04425   2.06626
    R4        2.91018  -0.03607   0.00000  -0.11309  -0.11309   2.79709
    R5        2.91018  -0.03554   0.00000  -0.11141  -0.11141   2.79877
    R6        2.56096   0.08816   0.00000   0.15384   0.15384   2.71480
    R7        2.02201   0.01582   0.00000   0.03896   0.03896   2.06097
    R8        2.02201   0.01934   0.00000   0.04762   0.04762   2.06963
    R9        2.02201   0.01432   0.00000   0.03527   0.03527   2.05727
   R10        2.02201   0.02287   0.00000   0.05632   0.05632   2.07833
   R11        2.02201   0.02106   0.00000   0.05186   0.05186   2.07387
   R12        2.02201   0.01526   0.00000   0.03757   0.03757   2.05958
    A1        1.91063   0.00149   0.00000   0.01616   0.01625   1.92688
    A2        1.91063   0.00157   0.00000   0.01764   0.01765   1.92829
    A3        1.91063   0.00664   0.00000   0.04327   0.04332   1.95395
    A4        1.91063  -0.00086   0.00000  -0.02243  -0.02366   1.88698
    A5        1.91063  -0.00467   0.00000  -0.02886  -0.02935   1.88128
    A6        1.91063  -0.00418   0.00000  -0.02578  -0.02632   1.88431
    A7        2.09241  -0.00699   0.00000  -0.02463  -0.02463   2.06778
    A8        2.09836   0.00391   0.00000   0.01379   0.01379   2.11215
    A9        2.09241   0.00308   0.00000   0.01084   0.01084   2.10326
   A10        1.91063   0.00081   0.00000   0.00541   0.00490   1.91553
   A11        1.91063  -0.00595   0.00000  -0.03867  -0.03880   1.87183
   A12        1.91063   0.00335   0.00000   0.02403   0.02379   1.93442
   A13        1.91063  -0.00137   0.00000  -0.02051  -0.02095   1.88968
   A14        1.91063   0.00259   0.00000   0.02923   0.02866   1.93929
   A15        1.91063   0.00058   0.00000   0.00051   0.00066   1.91129
   A16        1.91063  -0.00316   0.00000  -0.02475  -0.02510   1.88553
   A17        1.91063   0.00216   0.00000   0.00870   0.00696   1.91760
   A18        1.91063   0.01549   0.00000   0.09087   0.08950   2.00013
   A19        1.91063  -0.00806   0.00000  -0.06338  -0.06407   1.84656
   A20        1.91063  -0.00423   0.00000  -0.01692  -0.01697   1.89366
   A21        1.91063  -0.00221   0.00000   0.00548   0.00308   1.91372
    D1        0.00000   0.00014   0.00000   0.00139   0.00142   0.00143
    D2       -3.14159   0.00010   0.00000   0.00042   0.00046  -3.14113
    D3        2.09440   0.00318   0.00000   0.03001   0.02945   2.12385
    D4       -1.04719   0.00314   0.00000   0.02904   0.02848  -1.01871
    D5       -2.09439  -0.00329   0.00000  -0.03092  -0.03039  -2.12479
    D6        1.04720  -0.00333   0.00000  -0.03189  -0.03136   1.01584
    D7       -0.71999   0.00315   0.00000   0.02306   0.02311  -0.69688
    D8        1.37441  -0.00168   0.00000  -0.02243  -0.02218   1.35223
    D9       -2.81438  -0.00257   0.00000  -0.03077  -0.03105  -2.84544
   D10        2.42160   0.00319   0.00000   0.02403   0.02407   2.44568
   D11       -1.76719  -0.00164   0.00000  -0.02146  -0.02122  -1.78840
   D12        0.32721  -0.00252   0.00000  -0.02980  -0.03009   0.29712
   D13        1.93350   0.00429   0.00000   0.03600   0.03574   1.96924
   D14       -2.25529  -0.00619   0.00000  -0.05145  -0.05206  -2.30735
   D15       -0.16089   0.00192   0.00000   0.01623   0.01712  -0.14377
   D16       -1.20809   0.00425   0.00000   0.03503   0.03475  -1.17334
   D17        0.88630  -0.00623   0.00000  -0.05243  -0.05305   0.83326
   D18        2.98070   0.00188   0.00000   0.01526   0.01614   2.99683
         Item               Value     Threshold  Converged?
 Maximum Force            0.088164     0.000450     NO 
 RMS     Force            0.016544     0.000300     NO 
 Maximum Displacement     0.218125     0.001800     NO 
 RMS     Displacement     0.067019     0.001200     NO 
 Predicted change in Energy=-1.865021D-02
 Lowest energy point so far.  Saving SCF results.
 GradGradGradGradGradGradGradGradGradGradGradGradGradGradGradGradGradGrad

 Leave Link  103 at Thu Dec 26 16:33:34 2019, MaxMem=  1342177280 cpu:               1.1 elap:               0.1
 (Enter /apps/cent7/gaussian/g16-A.03/g16-haswell/g16/l202.exe)
                          Input orientation:                          
 ---------------------------------------------------------------------
 Center     Atomic      Atomic             Coordinates (Angstroms)
 Number     Number       Type             X           Y           Z
 ---------------------------------------------------------------------
      1          6           0       -1.811726   -7.686151   -1.623297
      2          1           0       -1.448565   -8.710427   -1.603636
      3          1           0       -1.467470   -7.142403   -0.738607
      4          1           0       -2.904972   -7.667868   -1.629549
      5          6           0       -1.336077   -6.953238   -2.818058
      6          6           0       -0.473053   -7.667049   -3.787157
      7          1           0        0.237142   -8.298925   -3.252554
      8          1           0       -1.123307   -8.312719   -4.386943
      9          1           0        0.041636   -6.963200   -4.438983
     10          6           0       -1.700727   -5.581314   -3.038746
     11          1           0       -0.791687   -4.968779   -2.949228
     12          1           0       -2.049466   -5.449445   -4.070918
     13          1           0       -2.448412   -5.193692   -2.346969
 ---------------------------------------------------------------------
                    Distance matrix (angstroms):
                    1          2          3          4          5
     1  C    0.000000
     2  H    1.086929   0.000000
     3  H    1.094006   1.790903   0.000000
     4  H    1.093417   1.791291   1.770961   0.000000
     5  C    1.480154   2.138968   2.092167   2.093963   0.000000
     6  C    2.544544   2.609219   3.249273   3.251078   1.481043
     7  H    2.688463   2.393716   3.250105   3.592390   2.115343
     8  H    2.916204   2.830329   3.846874   3.345652   2.086830
     9  H    3.447564   3.648657   4.000288   4.131825   2.127344
    10  C    2.538928   3.451736   2.789632   2.791013   1.436611
    11  H    3.191032   4.030141   3.173038   3.673229   2.061952
    12  H    3.324188   4.133106   3.782740   3.407870   2.083262
    13  H    2.672344   3.730907   2.710452   2.616235   2.134296
                    6          7          8          9         10
     6  C    0.000000
     7  H    1.090616   0.000000
     8  H    1.095199   1.771397   0.000000
     9  H    1.088663   1.797219   1.783536   0.000000
    10  C    2.533297   3.344617   3.100262   2.627947   0.000000
    11  H    2.843293   3.498623   3.654987   2.625169   1.099803
    12  H    2.735575   3.744040   3.025885   2.607612   1.097445
    13  H    3.477597   4.204136   3.955468   3.702435   1.089880
                   11         12         13
    11  H    0.000000
    12  H    1.752494   0.000000
    13  H    1.777088   1.787895   0.000000
 Stoichiometry    C4H9(1+)
 Framework group  C1[X(C4H9)]
 Deg. of freedom    33
 Full point group                 C1      NOp   1
 RotChk:  IX=3 Diff= 1.11D+00
 Largest Abelian subgroup         C1      NOp   1
 Largest concise Abelian subgroup C1      NOp   1
                         Standard orientation:                         
 ---------------------------------------------------------------------
 Center     Atomic      Atomic             Coordinates (Angstroms)
 Number     Number       Type             X           Y           Z
 ---------------------------------------------------------------------
      1          6           0        1.417511    0.404945    0.000151
      2          1           0        2.074872   -0.460660   -0.004247
      3          1           0        1.595563    1.023552   -0.884424
      4          1           0        1.599192    1.018858    0.886528
      5          6           0       -0.010453    0.015359   -0.000443
      6          6           0       -0.349021   -1.426460   -0.004759
      7          1           0        0.332730   -1.963171   -0.665518
      8          1           0       -0.202030   -1.797604    1.015097
      9          1           0       -1.385076   -1.580017   -0.301740
     10          6           0       -1.048685    1.008285    0.004264
     11          1           0       -1.575830    0.954253   -0.959461
     12          1           0       -1.796927    0.761968    0.768364
     13          1           0       -0.698607    2.030053    0.150123
 ---------------------------------------------------------------------
 Rotational constants (GHZ):           8.2983573           8.2429549           4.4800867
 Leave Link  202 at Thu Dec 26 16:33:34 2019, MaxMem=  1342177280 cpu:               0.3 elap:               0.0
 (Enter /apps/cent7/gaussian/g16-A.03/g16-haswell/g16/l301.exe)
 Standard basis: 6-311++G(d,p) (5D, 7F)
 Ernie: Thresh=  0.10000D-02 Tol=  0.10000D-05 Strict=F.
 There are   155 symmetry adapted cartesian basis functions of A   symmetry.
 There are   151 symmetry adapted basis functions of A   symmetry.
   151 basis functions,   225 primitive gaussians,   155 cartesian basis functions
    16 alpha electrons       16 beta electrons
       nuclear repulsion energy       127.2219264265 Hartrees.
 IExCor= 4336 DFT=T Ex+Corr=M062X ExCW=0 ScaHFX=  0.540000
 ScaDFX=  1.000000  1.000000  1.000000  1.000000 ScalE2=  1.000000  1.000000
 IRadAn=      5 IRanWt=     -1 IRanGd=            0 ICorTp=0 IEmpDi=  4
 NAtoms=   13 NActive=   13 NUniq=   13 SFac= 1.00D+00 NAtFMM=   60 NAOKFM=F Big=F
 Integral buffers will be    131072 words long.
 Raffenetti 2 integral format.
 Two-electron integral symmetry is turned on.
 Leave Link  301 at Thu Dec 26 16:33:34 2019, MaxMem=  1342177280 cpu:               1.3 elap:               0.1
 (Enter /apps/cent7/gaussian/g16-A.03/g16-haswell/g16/l302.exe)
 NPDir=0 NMtPBC=     1 NCelOv=     1 NCel=       1 NClECP=     1 NCelD=      1
         NCelK=      1 NCelE2=     1 NClLst=     1 CellRange=     0.0.
 One-electron integrals computed using PRISM.
 One-electron integral symmetry used in STVInt
 NBasis=   151 RedAO= T EigKep=  2.90D-05  NBF=   151
 NBsUse=   151 1.00D-06 EigRej= -1.00D+00 NBFU=   151
 Precomputing XC quadrature grid using
 IXCGrd= 4 IRadAn=           5 IRanWt=          -1 IRanGd=           0 AccXCQ= 0.00D+00.
 Generated NRdTot=       0 NPtTot=           0 NUsed=           0 NTot=          32
 NSgBfM=   155   155   155   155   155 MxSgAt=    13 MxSgA2=    13.
 Leave Link  302 at Thu Dec 26 16:33:35 2019, MaxMem=  1342177280 cpu:               3.0 elap:               0.1
 (Enter /apps/cent7/gaussian/g16-A.03/g16-haswell/g16/l303.exe)
 DipDrv:  MaxL=1.
 Leave Link  303 at Thu Dec 26 16:33:35 2019, MaxMem=  1342177280 cpu:               0.6 elap:               0.0
 (Enter /apps/cent7/gaussian/g16-A.03/g16-haswell/g16/l401.exe)
 Initial guess from the checkpoint file:  "methylpropene_p.chk"
 B after Tr=    -0.000000    0.000000    0.000000
         Rot=    0.920761    0.001314   -0.000553   -0.390125 Ang=  45.92 deg.
 Guess basis will be translated and rotated to current coordinates.
 JPrj=2 DoOrth=T DoCkMO=T.
 Generating alternative initial guess.
 ExpMin= 3.60D-02 ExpMax= 4.56D+03 ExpMxC= 6.82D+02 IAcc=3 IRadAn=         5 AccDes= 0.00D+00
 Harris functional with IExCor= 1009 and IRadAn=       5 diagonalized for initial guess.
 HarFok:  IExCor= 1009 AccDes= 0.00D+00 IRadAn=         5 IDoV= 1 UseB2=F ITyADJ=14
 ICtDFT=  3500011 ScaDFX=  1.000000  1.000000  1.000000  1.000000
 FoFCou: FMM=F IPFlag=           0 FMFlag=      100000 FMFlg1=           0
         NFxFlg=           0 DoJE=T BraDBF=F KetDBF=T FulRan=T
         wScrn=  0.000000 ICntrl=       500 IOpCl=  0 I1Cent=   200000004 NGrid=           0
         NMat0=    1 NMatS0=      1 NMatT0=    0 NMatD0=    1 NMtDS0=    0 NMtDT0=    0
 Petite list used in FoFCou.
 Harris En= -157.524488912558    
 Leave Link  401 at Thu Dec 26 16:33:35 2019, MaxMem=  1342177280 cpu:               7.4 elap:               0.3
 (Enter /apps/cent7/gaussian/g16-A.03/g16-haswell/g16/l502.exe)
 Integral symmetry usage will be decided dynamically.
 Closed shell SCF:
 Using DIIS extrapolation, IDIIS=  1040.
 NGot=  1342177280 LenX=  1342123785 LenY=  1342099319
 Requested convergence on RMS density matrix=1.00D-08 within 128 cycles.
 Requested convergence on MAX density matrix=1.00D-06.
 Requested convergence on             energy=1.00D-06.
 No special actions if energy rises.
 Fock matrices will be formed incrementally for  20 cycles.

 Cycle   1  Pass 1  IDiag  1:
 FoFJK:  IHMeth= 1 ICntrl=       0 DoSepK=F KAlg= 0 I1Cent=           0 FoldK=F
 IRaf= 990000000 NMat=       1 IRICut=       1 DoRegI=T DoRafI=F ISym2E= 0 IDoP0=0 IntGTp=1.
 FoFCou: FMM=F IPFlag=           0 FMFlag=      100000 FMFlg1=           0
         NFxFlg=           0 DoJE=F BraDBF=F KetDBF=F FulRan=T
         wScrn=  0.000000 ICntrl=         0 IOpCl=  0 I1Cent=           0 NGrid=           0
         NMat0=    1 NMatS0=      1 NMatT0=    0 NMatD0=    1 NMtDS0=    0 NMtDT0=    0
 Symmetry not used in FoFCou.
 E= -157.486440007138    
 DIIS: error= 7.21D-03 at cycle   1 NSaved=   1.
 NSaved= 1 IEnMin= 1 EnMin= -157.486440007138     IErMin= 1 ErrMin= 7.21D-03
 ErrMax= 7.21D-03  0.00D+00 EMaxC= 1.00D-01 BMatC= 5.50D-03 BMatP= 5.50D-03
 IDIUse=3 WtCom= 9.28D-01 WtEn= 7.21D-02
 Coeff-Com:  0.100D+01
 Coeff-En:   0.100D+01
 Coeff:      0.100D+01
 Gap=     0.568 Goal=   None    Shift=    0.000
 GapD=    0.568 DampG=2.000 DampE=1.000 DampFc=2.0000 IDamp=-1.
 RMSDP=1.62D-03 MaxDP=7.68D-02              OVMax= 2.97D-02

 Cycle   2  Pass 1  IDiag  1:
 RMSU=  1.60D-03    CP:  9.85D-01
 E= -157.492656533975     Delta-E=       -0.006216526837 Rises=F Damp=F
 DIIS: error= 2.18D-03 at cycle   2 NSaved=   2.
 NSaved= 2 IEnMin= 2 EnMin= -157.492656533975     IErMin= 2 ErrMin= 2.18D-03
 ErrMax= 2.18D-03  0.00D+00 EMaxC= 1.00D-01 BMatC= 5.15D-04 BMatP= 5.50D-03
 IDIUse=3 WtCom= 9.78D-01 WtEn= 2.18D-02
 Coeff-Com:  0.985D-01 0.902D+00
 Coeff-En:   0.000D+00 0.100D+01
 Coeff:      0.963D-01 0.904D+00
 Gap=     0.356 Goal=   None    Shift=    0.000
 RMSDP=3.87D-04 MaxDP=1.77D-02 DE=-6.22D-03 OVMax= 9.91D-03

 Cycle   3  Pass 1  IDiag  1:
 RMSU=  3.35D-04    CP:  9.81D-01  1.11D+00
 E= -157.493042884861     Delta-E=       -0.000386350886 Rises=F Damp=F
 DIIS: error= 1.32D-03 at cycle   3 NSaved=   3.
 NSaved= 3 IEnMin= 3 EnMin= -157.493042884861     IErMin= 3 ErrMin= 1.32D-03
 ErrMax= 1.32D-03  0.00D+00 EMaxC= 1.00D-01 BMatC= 1.72D-04 BMatP= 5.15D-04
 IDIUse=3 WtCom= 9.87D-01 WtEn= 1.32D-02
 Coeff-Com: -0.366D-01 0.349D+00 0.688D+00
 Coeff-En:   0.000D+00 0.178D-01 0.982D+00
 Coeff:     -0.361D-01 0.344D+00 0.692D+00
 Gap=     0.355 Goal=   None    Shift=    0.000
 RMSDP=1.33D-04 MaxDP=4.41D-03 DE=-3.86D-04 OVMax= 3.25D-03

 Cycle   4  Pass 1  IDiag  1:
 RMSU=  1.14D-04    CP:  9.81D-01  1.15D+00  1.10D+00
 E= -157.493211062170     Delta-E=       -0.000168177309 Rises=F Damp=F
 DIIS: error= 2.71D-04 at cycle   4 NSaved=   4.
 NSaved= 4 IEnMin= 4 EnMin= -157.493211062170     IErMin= 4 ErrMin= 2.71D-04
 ErrMax= 2.71D-04  0.00D+00 EMaxC= 1.00D-01 BMatC= 4.35D-06 BMatP= 1.72D-04
 IDIUse=3 WtCom= 9.97D-01 WtEn= 2.71D-03
 Coeff-Com: -0.854D-02 0.135D-01 0.138D+00 0.857D+00
 Coeff-En:   0.000D+00 0.000D+00 0.000D+00 0.100D+01
 Coeff:     -0.852D-02 0.135D-01 0.137D+00 0.858D+00
 Gap=     0.355 Goal=   None    Shift=    0.000
 RMSDP=3.46D-05 MaxDP=1.23D-03 DE=-1.68D-04 OVMax= 1.50D-03

 Cycle   5  Pass 1  IDiag  1:
 RMSU=  1.93D-05    CP:  9.81D-01  1.16D+00  1.17D+00  1.05D+00
 E= -157.493217389060     Delta-E=       -0.000006326890 Rises=F Damp=F
 DIIS: error= 8.66D-05 at cycle   5 NSaved=   5.
 NSaved= 5 IEnMin= 5 EnMin= -157.493217389060     IErMin= 5 ErrMin= 8.66D-05
 ErrMax= 8.66D-05  0.00D+00 EMaxC= 1.00D-01 BMatC= 4.25D-07 BMatP= 4.35D-06
 IDIUse=1 WtCom= 1.00D+00 WtEn= 0.00D+00
 Coeff-Com:  0.213D-03-0.228D-01-0.153D-01 0.221D+00 0.817D+00
 Coeff:      0.213D-03-0.228D-01-0.153D-01 0.221D+00 0.817D+00
 Gap=     0.355 Goal=   None    Shift=    0.000
 RMSDP=1.12D-05 MaxDP=2.63D-04 DE=-6.33D-06 OVMax= 3.61D-04

 Cycle   6  Pass 1  IDiag  1:
 RMSU=  6.00D-06    CP:  9.81D-01  1.16D+00  1.19D+00  1.10D+00  9.58D-01
 E= -157.493218120523     Delta-E=       -0.000000731463 Rises=F Damp=F
 DIIS: error= 2.58D-05 at cycle   6 NSaved=   6.
 NSaved= 6 IEnMin= 6 EnMin= -157.493218120523     IErMin= 6 ErrMin= 2.58D-05
 ErrMax= 2.58D-05  0.00D+00 EMaxC= 1.00D-01 BMatC= 5.55D-08 BMatP= 4.25D-07
 IDIUse=1 WtCom= 1.00D+00 WtEn= 0.00D+00
 Coeff-Com:  0.110D-02-0.101D-01-0.226D-01-0.271D-01 0.254D+00 0.804D+00
 Coeff:      0.110D-02-0.101D-01-0.226D-01-0.271D-01 0.254D+00 0.804D+00
 Gap=     0.355 Goal=   None    Shift=    0.000
 RMSDP=3.85D-06 MaxDP=6.34D-05 DE=-7.31D-07 OVMax= 1.39D-04

 Cycle   7  Pass 1  IDiag  1:
 RMSU=  2.90D-06    CP:  9.81D-01  1.16D+00  1.19D+00  1.11D+00  1.00D+00
                    CP:  1.18D+00
 E= -157.493218222728     Delta-E=       -0.000000102205 Rises=F Damp=F
 DIIS: error= 6.61D-06 at cycle   7 NSaved=   7.
 NSaved= 7 IEnMin= 7 EnMin= -157.493218222728     IErMin= 7 ErrMin= 6.61D-06
 ErrMax= 6.61D-06  0.00D+00 EMaxC= 1.00D-01 BMatC= 2.76D-09 BMatP= 5.55D-08
 IDIUse=1 WtCom= 1.00D+00 WtEn= 0.00D+00
 Coeff-Com:  0.880D-04 0.121D-02-0.598D-03-0.212D-01-0.396D-01 0.100D+00
 Coeff-Com:  0.960D+00
 Coeff:      0.880D-04 0.121D-02-0.598D-03-0.212D-01-0.396D-01 0.100D+00
 Coeff:      0.960D+00
 Gap=     0.355 Goal=   None    Shift=    0.000
 RMSDP=9.46D-07 MaxDP=2.86D-05 DE=-1.02D-07 OVMax= 5.51D-05

 Cycle   8  Pass 1  IDiag  1:
 RMSU=  5.58D-07    CP:  9.81D-01  1.16D+00  1.19D+00  1.11D+00  1.01D+00
                    CP:  1.27D+00  1.08D+00
 E= -157.493218230842     Delta-E=       -0.000000008114 Rises=F Damp=F
 DIIS: error= 2.25D-06 at cycle   8 NSaved=   8.
 NSaved= 8 IEnMin= 8 EnMin= -157.493218230842     IErMin= 8 ErrMin= 2.25D-06
 ErrMax= 2.25D-06  0.00D+00 EMaxC= 1.00D-01 BMatC= 6.79D-10 BMatP= 2.76D-09
 IDIUse=1 WtCom= 1.00D+00 WtEn= 0.00D+00
 Coeff-Com: -0.784D-04 0.155D-02 0.197D-02-0.710D-02-0.433D-01-0.403D-01
 Coeff-Com:  0.365D+00 0.722D+00
 Coeff:     -0.784D-04 0.155D-02 0.197D-02-0.710D-02-0.433D-01-0.403D-01
 Coeff:      0.365D+00 0.722D+00
 Gap=     0.355 Goal=   None    Shift=    0.000
 RMSDP=3.69D-07 MaxDP=1.08D-05 DE=-8.11D-09 OVMax= 1.82D-05

 Cycle   9  Pass 1  IDiag  1:
 RMSU=  2.10D-07    CP:  9.81D-01  1.16D+00  1.19D+00  1.11D+00  1.01D+00
                    CP:  1.28D+00  1.15D+00  1.13D+00
 E= -157.493218232022     Delta-E=       -0.000000001180 Rises=F Damp=F
 DIIS: error= 7.94D-07 at cycle   9 NSaved=   9.
 NSaved= 9 IEnMin= 9 EnMin= -157.493218232022     IErMin= 9 ErrMin= 7.94D-07
 ErrMax= 7.94D-07  0.00D+00 EMaxC= 1.00D-01 BMatC= 3.82D-11 BMatP= 6.79D-10
 IDIUse=1 WtCom= 1.00D+00 WtEn= 0.00D+00
 Coeff-Com: -0.119D-04-0.408D-04 0.177D-03 0.190D-02 0.186D-02-0.128D-01
 Coeff-Com: -0.830D-01 0.815D-01 0.101D+01
 Coeff:     -0.119D-04-0.408D-04 0.177D-03 0.190D-02 0.186D-02-0.128D-01
 Coeff:     -0.830D-01 0.815D-01 0.101D+01
 Gap=     0.355 Goal=   None    Shift=    0.000
 RMSDP=1.36D-07 MaxDP=3.21D-06 DE=-1.18D-09 OVMax= 7.57D-06

 Cycle  10  Pass 1  IDiag  1:
 RMSU=  6.60D-08    CP:  9.81D-01  1.16D+00  1.19D+00  1.11D+00  1.01D+00
                    CP:  1.28D+00  1.15D+00  1.26D+00  1.20D+00
 E= -157.493218232150     Delta-E=       -0.000000000128 Rises=F Damp=F
 DIIS: error= 1.94D-07 at cycle  10 NSaved=  10.
 NSaved=10 IEnMin=10 EnMin= -157.493218232150     IErMin=10 ErrMin= 1.94D-07
 ErrMax= 1.94D-07  0.00D+00 EMaxC= 1.00D-01 BMatC= 2.82D-12 BMatP= 3.82D-11
 IDIUse=1 WtCom= 1.00D+00 WtEn= 0.00D+00
 Coeff-Com:  0.527D-05-0.159D-03-0.165D-03 0.968D-03 0.469D-02 0.264D-02
 Coeff-Com: -0.527D-01-0.589D-01 0.160D+00 0.944D+00
 Coeff:      0.527D-05-0.159D-03-0.165D-03 0.968D-03 0.469D-02 0.264D-02
 Coeff:     -0.527D-01-0.589D-01 0.160D+00 0.944D+00
 Gap=     0.355 Goal=   None    Shift=    0.000
 RMSDP=3.54D-08 MaxDP=6.99D-07 DE=-1.28D-10 OVMax= 2.21D-06

 Cycle  11  Pass 1  IDiag  1:
 RMSU=  1.79D-08    CP:  9.81D-01  1.16D+00  1.19D+00  1.11D+00  1.01D+00
                    CP:  1.28D+00  1.15D+00  1.30D+00  1.27D+00  1.07D+00
 E= -157.493218232160     Delta-E=       -0.000000000010 Rises=F Damp=F
 DIIS: error= 3.91D-08 at cycle  11 NSaved=  11.
 NSaved=11 IEnMin=11 EnMin= -157.493218232160     IErMin=11 ErrMin= 3.91D-08
 ErrMax= 3.91D-08  0.00D+00 EMaxC= 1.00D-01 BMatC= 8.59D-14 BMatP= 2.82D-12
 IDIUse=1 WtCom= 1.00D+00 WtEn= 0.00D+00
 Coeff-Com:  0.497D-06 0.513D-05-0.725D-05-0.155D-03-0.185D-03 0.916D-03
 Coeff-Com:  0.505D-02-0.267D-02-0.591D-01-0.249D-01 0.108D+01
 Coeff:      0.497D-06 0.513D-05-0.725D-05-0.155D-03-0.185D-03 0.916D-03
 Coeff:      0.505D-02-0.267D-02-0.591D-01-0.249D-01 0.108D+01
 Gap=     0.355 Goal=   None    Shift=    0.000
 RMSDP=1.16D-08 MaxDP=3.80D-07 DE=-1.01D-11 OVMax= 4.69D-07

 Cycle  12  Pass 1  IDiag  1:
 RMSU=  4.42D-09    CP:  9.81D-01  1.16D+00  1.19D+00  1.11D+00  1.01D+00
                    CP:  1.28D+00  1.15D+00  1.30D+00  1.27D+00  1.12D+00
                    CP:  1.19D+00
 E= -157.493218232160     Delta-E=       -0.000000000000 Rises=F Damp=F
 DIIS: error= 7.89D-09 at cycle  12 NSaved=  12.
 NSaved=12 IEnMin=12 EnMin= -157.493218232160     IErMin=12 ErrMin= 7.89D-09
 ErrMax= 7.89D-09  0.00D+00 EMaxC= 1.00D-01 BMatC= 5.61D-15 BMatP= 8.59D-14
 IDIUse=1 WtCom= 1.00D+00 WtEn= 0.00D+00
 Coeff-Com: -0.799D-07 0.673D-05 0.382D-05-0.672D-04-0.203D-03 0.117D-03
 Coeff-Com:  0.280D-02 0.180D-02-0.180D-01-0.378D-01 0.217D+00 0.834D+00
 Coeff:     -0.799D-07 0.673D-05 0.382D-05-0.672D-04-0.203D-03 0.117D-03
 Coeff:      0.280D-02 0.180D-02-0.180D-01-0.378D-01 0.217D+00 0.834D+00
 Gap=     0.355 Goal=   None    Shift=    0.000
 RMSDP=1.90D-09 MaxDP=5.64D-08 DE=-2.27D-13 OVMax= 5.90D-08

 SCF Done:  E(RM062X) =  -157.493218232     A.U. after   12 cycles
            NFock= 12  Conv=0.19D-08     -V/T= 2.0045
 KE= 1.567833954094D+02 PE=-6.110042343552D+02 EE= 1.695056942872D+02
 Leave Link  502 at Thu Dec 26 16:33:39 2019, MaxMem=  1342177280 cpu:              98.4 elap:               4.1
 (Enter /apps/cent7/gaussian/g16-A.03/g16-haswell/g16/l701.exe)
 ... and contract with generalized density number  0.
 Compute integral first derivatives.
 Leave Link  701 at Thu Dec 26 16:33:39 2019, MaxMem=  1342177280 cpu:               3.1 elap:               0.2
 (Enter /apps/cent7/gaussian/g16-A.03/g16-haswell/g16/l702.exe)
 L702 exits ... SP integral derivatives will be done elsewhere.
 Leave Link  702 at Thu Dec 26 16:33:39 2019, MaxMem=  1342177280 cpu:               0.4 elap:               0.0
 (Enter /apps/cent7/gaussian/g16-A.03/g16-haswell/g16/l703.exe)
 Integral derivatives from FoFJK, PRISM(SPDF).
 Compute integral first derivatives, UseDBF=F ICtDFT=           0.
 Calling FoFJK, ICntrl=      2127 FMM=F ISym2X=0 I1Cent= 0 IOpClX= 0 NMat=1 NMatS=1 NMatT=0.
 FoFJK:  IHMeth= 1 ICntrl=    2127 DoSepK=F KAlg= 0 I1Cent=           0 FoldK=F
 IRaf=         0 NMat=       1 IRICut=       1 DoRegI=T DoRafI=F ISym2E= 0 IDoP0=0 IntGTp=1.
 FoFCou: FMM=F IPFlag=           0 FMFlag=      100000 FMFlg1=         800
         NFxFlg=           0 DoJE=F BraDBF=F KetDBF=F FulRan=T
         wScrn=  0.000000 ICntrl=      2127 IOpCl=  0 I1Cent=           0 NGrid=           0
         NMat0=    1 NMatS0=      1 NMatT0=    0 NMatD0=    1 NMtDS0=    0 NMtDT0=    0
 Symmetry not used in FoFCou.
 Leave Link  703 at Thu Dec 26 16:33:40 2019, MaxMem=  1342177280 cpu:              15.9 elap:               0.7
 (Enter /apps/cent7/gaussian/g16-A.03/g16-haswell/g16/l716.exe)
 Dipole        =-7.31226270D-02 5.10780927D-02 1.32260242D-02
 ***** Axes restored to original set *****
 -------------------------------------------------------------------
 Center     Atomic                   Forces (Hartrees/Bohr)
 Number     Number              X              Y              Z
 -------------------------------------------------------------------
      1        6           0.007781597    0.000358254   -0.016119229
      2        1          -0.000650506   -0.000446684    0.001702501
      3        1          -0.002598939    0.002687115    0.003518000
      4        1          -0.003143937    0.002727943    0.003539729
      5        6           0.005990336   -0.026121606    0.004672840
      6        6           0.000810436    0.019140384    0.010211489
      7        1          -0.000582721   -0.003931240   -0.000851373
      8        1          -0.002643464   -0.003678655   -0.000943343
      9        1          -0.000310249   -0.002190706   -0.003814631
     10        6          -0.012316279    0.012633894    0.001397070
     11        1           0.002838373   -0.000294019   -0.002502434
     12        1           0.003672700    0.000711126   -0.001838484
     13        1           0.001152654   -0.001595806    0.001027865
 -------------------------------------------------------------------
 Cartesian Forces:  Max     0.026121606 RMS     0.007159229
 Leave Link  716 at Thu Dec 26 16:33:40 2019, MaxMem=  1342177280 cpu:               0.5 elap:               0.0
 (Enter /apps/cent7/gaussian/g16-A.03/g16-haswell/g16/l103.exe)

 GradGradGradGradGradGradGradGradGradGradGradGradGradGradGradGradGradGrad
 Berny optimization.
 Using GEDIIS/GDIIS optimizer.
 FormGI is forming the generalized inverse of G from B-inverse, IUseBI=4.
 Internal  Forces:  Max     0.012414638 RMS     0.003374797
 Search for a local minimum.
 Step number   2 out of a maximum of   61
 All quantities printed in internal units (Hartrees-Bohrs-Radians)
 RMS Force = .33748D-02 SwitMx=.10000D-02 MixMth= 1
 Mixed Optimization -- RFO/linear search
 Update second derivatives using D2CorX and points    1    2
 DE= -1.95D-02 DEPred=-1.87D-02 R= 1.04D+00
 TightC=F SS=  1.41D+00  RLast= 3.23D-01 DXNew= 5.0454D-01 9.6847D-01
 Trust test= 1.04D+00 RLast= 3.23D-01 DXMaxT set to 5.05D-01
 ITU=  1  0
 Use linear search instead of GDIIS.
     Eigenvalues ---    0.00237   0.00237   0.01076   0.02681   0.06840
     Eigenvalues ---    0.06973   0.07396   0.07538   0.07950   0.08711
     Eigenvalues ---    0.15740   0.16000   0.16000   0.16000   0.16000
     Eigenvalues ---    0.16000   0.16000   0.16000   0.16659   0.24666
     Eigenvalues ---    0.25000   0.27539   0.28519   0.36800   0.37230
     Eigenvalues ---    0.37230   0.37230   0.37230   0.37230   0.37230
     Eigenvalues ---    0.37230   0.38419   0.52384
 RFO step:  Lambda=-2.84758166D-03 EMin= 2.36733891D-03
 Quartic linear search produced a step of  0.23197.
 Iteration  1 RMS(Cart)=  0.04829555 RMS(Int)=  0.00240769
 Iteration  2 RMS(Cart)=  0.00251850 RMS(Int)=  0.00055996
 Iteration  3 RMS(Cart)=  0.00000441 RMS(Int)=  0.00055995
 Iteration  4 RMS(Cart)=  0.00000000 RMS(Int)=  0.00055995
 ITry= 1 IFail=0 DXMaxC= 1.56D-01 DCOld= 1.00D+10 DXMaxT= 5.05D-01 DXLimC= 3.00D+00 Rises=F
 Variable       Old X    -DE/DX   Delta X   Delta X   Delta X     New X
                                 (Linear)    (Quad)   (Total)
    R1        2.05400   0.00023   0.00742  -0.00479   0.00263   2.05663
    R2        2.06737   0.00336   0.01052   0.00313   0.01366   2.08103
    R3        2.06626   0.00317   0.01027   0.00269   0.01296   2.07922
    R4        2.79709  -0.00902  -0.02623  -0.01871  -0.04494   2.75215
    R5        2.79877  -0.00910  -0.02584  -0.01933  -0.04518   2.75359
    R6        2.71480   0.01241   0.03569   0.00163   0.03731   2.75211
    R7        2.06097   0.00148   0.00904  -0.00192   0.00712   2.06808
    R8        2.06963   0.00426   0.01105   0.00567   0.01672   2.08634
    R9        2.05727   0.00072   0.00818  -0.00377   0.00441   2.06169
   R10        2.07833   0.00198   0.01306  -0.00330   0.00976   2.08809
   R11        2.07387   0.00065   0.01203  -0.00689   0.00514   2.07901
   R12        2.05958  -0.00071   0.00871  -0.00884  -0.00013   2.05945
    A1        1.92688  -0.00055   0.00377   0.00208   0.00552   1.93241
    A2        1.92829  -0.00037   0.00410   0.00706   0.01054   1.93883
    A3        1.95395   0.00334   0.01005   0.02858   0.03813   1.99208
    A4        1.88698  -0.00441  -0.00549  -0.05351  -0.05953   1.82744
    A5        1.88128   0.00059  -0.00681   0.00345  -0.00377   1.87751
    A6        1.88431   0.00119  -0.00611   0.00948   0.00279   1.88710
    A7        2.06778   0.00554  -0.00571   0.03125   0.02550   2.09328
    A8        2.11215  -0.00316   0.00320  -0.01782  -0.01465   2.09750
    A9        2.10326  -0.00237   0.00251  -0.01345  -0.01097   2.09229
   A10        1.91553   0.00204   0.00114   0.01784   0.01744   1.93297
   A11        1.87183  -0.00305  -0.00900  -0.02943  -0.03828   1.83356
   A12        1.93442   0.00571   0.00552   0.04944   0.05386   1.98828
   A13        1.88968  -0.00263  -0.00486  -0.03816  -0.04335   1.84634
   A14        1.93929  -0.00056   0.00665   0.01566   0.02005   1.95934
   A15        1.91129  -0.00180   0.00015  -0.01922  -0.01850   1.89279
   A16        1.88553  -0.00231  -0.00582  -0.01901  -0.02506   1.86048
   A17        1.91760   0.00033   0.00162   0.00104   0.00199   1.91959
   A18        2.00013  -0.00115   0.02076  -0.01802   0.00230   2.00243
   A19        1.84656  -0.00195  -0.01486  -0.01718  -0.03253   1.81403
   A20        1.89366   0.00224  -0.00394   0.02126   0.01731   1.91097
   A21        1.91372   0.00269   0.00072   0.03116   0.03112   1.94484
    D1        0.00143   0.00020   0.00033  -0.01382  -0.01333  -0.01190
    D2       -3.14113   0.00003   0.00011  -0.02913  -0.02897   3.11309
    D3        2.12385   0.00199   0.00683   0.00894   0.01572   2.13956
    D4       -1.01871   0.00182   0.00661  -0.00637   0.00008  -1.01863
    D5       -2.12479  -0.00225  -0.00705  -0.04710  -0.05411  -2.17890
    D6        1.01584  -0.00243  -0.00727  -0.06242  -0.06975   0.94609
    D7       -0.69688   0.00230   0.00536  -0.05466  -0.04868  -0.74556
    D8        1.35223  -0.00147  -0.00514  -0.10715  -0.11198   1.24025
    D9       -2.84544  -0.00226  -0.00720  -0.12022  -0.12855  -2.97398
   D10        2.44568   0.00248   0.00558  -0.03942  -0.03309   2.41259
   D11       -1.78840  -0.00129  -0.00492  -0.09191  -0.09639  -1.88479
   D12        0.29712  -0.00208  -0.00698  -0.10498  -0.11296   0.18416
   D13        1.96924   0.00132   0.00829   0.01664   0.02461   1.99384
   D14       -2.30735  -0.00209  -0.01208  -0.01367  -0.02592  -2.33327
   D15       -0.14377   0.00089   0.00397   0.01512   0.01926  -0.12452
   D16       -1.17334   0.00115   0.00806   0.00103   0.00900  -1.16434
   D17        0.83326  -0.00226  -0.01230  -0.02927  -0.04153   0.79173
   D18        2.99683   0.00072   0.00374  -0.00048   0.00365   3.00048
         Item               Value     Threshold  Converged?
 Maximum Force            0.012415     0.000450     NO 
 RMS     Force            0.003375     0.000300     NO 
 Maximum Displacement     0.156276     0.001800     NO 
 RMS     Displacement     0.048162     0.001200     NO 
 Predicted change in Energy=-2.025519D-03
 Lowest energy point so far.  Saving SCF results.
 GradGradGradGradGradGradGradGradGradGradGradGradGradGradGradGradGradGrad

 Leave Link  103 at Thu Dec 26 16:33:40 2019, MaxMem=  1342177280 cpu:               0.6 elap:               0.1
 (Enter /apps/cent7/gaussian/g16-A.03/g16-haswell/g16/l202.exe)
                          Input orientation:                          
 ---------------------------------------------------------------------
 Center     Atomic      Atomic             Coordinates (Angstroms)
 Number     Number       Type             X           Y           Z
 ---------------------------------------------------------------------
      1          6           0       -1.810886   -7.696861   -1.649381
      2          1           0       -1.484899   -8.734138   -1.602153
      3          1           0       -1.486967   -7.145475   -0.752851
      4          1           0       -2.908837   -7.626117   -1.639260
      5          6           0       -1.320866   -6.970970   -2.812990
      6          6           0       -0.459202   -7.641067   -3.778265
      7          1           0        0.293070   -8.251017   -3.268636
      8          1           0       -1.117937   -8.354038   -4.304245
      9          1           0       -0.016746   -6.970606   -4.516500
     10          6           0       -1.706451   -5.582781   -3.025657
     11          1           0       -0.784525   -4.981075   -2.931007
     12          1           0       -2.013822   -5.433913   -4.071469
     13          1           0       -2.458616   -5.207152   -2.332230
 ---------------------------------------------------------------------
                    Distance matrix (angstroms):
                    1          2          3          4          5
     1  C    0.000000
     2  H    1.088320   0.000000
     3  H    1.101234   1.801435   0.000000
     4  H    1.100275   1.804629   1.743116   0.000000
     5  C    1.456373   2.145179   2.074178   2.080507   0.000000
     6  C    2.522361   2.642407   3.233425   3.252119   1.457138
     7  H    2.712140   2.484300   3.274130   3.646584   2.109721
     8  H    2.821411   2.753259   3.769510   3.292315   2.043991
     9  H    3.459300   3.709304   4.044401   4.131876   2.145385
    10  C    2.524753   3.465040   2.766918   2.746462   1.456356
    11  H    3.173559   4.042506   3.149987   3.630091   2.064285
    12  H    3.320938   4.155570   3.770974   3.394474   2.103925
    13  H    2.661671   3.731054   2.682468   2.556228   2.153291
                    6          7          8          9         10
     6  C    0.000000
     7  H    1.094383   0.000000
     8  H    1.104045   1.753294   0.000000
     9  H    1.090998   1.814553   1.780886   0.000000
    10  C    2.521625   3.343144   3.108216   2.646465   0.000000
    11  H    2.810558   3.459440   3.657024   2.657350   1.104969
    12  H    2.715573   3.728587   3.063319   2.558865   1.100163
    13  H    3.465922   4.208770   3.948311   3.720690   1.089812
                   11         12         13
    11  H    0.000000
    12  H    1.736918   0.000000
    13  H    1.792269   1.809479   0.000000
 Stoichiometry    C4H9(1+)
 Framework group  C1[X(C4H9)]
 Deg. of freedom    33
 Full point group                 C1      NOp   1
 RotChk:  IX=3 Diff= 3.04D-02
 Largest Abelian subgroup         C1      NOp   1
 Largest concise Abelian subgroup C1      NOp   1
                         Standard orientation:                         
 ---------------------------------------------------------------------
 Center     Atomic      Atomic             Coordinates (Angstroms)
 Number     Number       Type             X           Y           Z
 ---------------------------------------------------------------------
      1          6           0        1.413320    0.362099    0.001746
      2          1           0        2.091173   -0.489196    0.017558
      3          1           0        1.600417    0.992745   -0.881428
      4          1           0        1.590892    1.025536    0.861353
      5          6           0        0.002687    0.000084   -0.007302
      6          6           0       -0.387759   -1.403765   -0.010260
      7          1           0        0.237118   -1.978569   -0.700768
      8          1           0       -0.137607   -1.773125    0.999647
      9          1           0       -1.452579   -1.566396   -0.183429
     10          6           0       -1.019441    1.037393    0.007496
     11          1           0       -1.548517    0.973007   -0.960435
     12          1           0       -1.793677    0.791791    0.749519
     13          1           0       -0.640054    2.049341    0.147908
 ---------------------------------------------------------------------
 Rotational constants (GHZ):           8.3642745           8.3332459           4.5166227
 Leave Link  202 at Thu Dec 26 16:33:40 2019, MaxMem=  1342177280 cpu:               0.2 elap:               0.0
 (Enter /apps/cent7/gaussian/g16-A.03/g16-haswell/g16/l301.exe)
 Standard basis: 6-311++G(d,p) (5D, 7F)
 Ernie: Thresh=  0.10000D-02 Tol=  0.10000D-05 Strict=F.
 There are   155 symmetry adapted cartesian basis functions of A   symmetry.
 There are   151 symmetry adapted basis functions of A   symmetry.
   151 basis functions,   225 primitive gaussians,   155 cartesian basis functions
    16 alpha electrons       16 beta electrons
       nuclear repulsion energy       127.5833726804 Hartrees.
 IExCor= 4336 DFT=T Ex+Corr=M062X ExCW=0 ScaHFX=  0.540000
 ScaDFX=  1.000000  1.000000  1.000000  1.000000 ScalE2=  1.000000  1.000000
 IRadAn=      5 IRanWt=     -1 IRanGd=            0 ICorTp=0 IEmpDi=  4
 NAtoms=   13 NActive=   13 NUniq=   13 SFac= 1.00D+00 NAtFMM=   60 NAOKFM=F Big=F
 Integral buffers will be    131072 words long.
 Raffenetti 2 integral format.
 Two-electron integral symmetry is turned on.
 Leave Link  301 at Thu Dec 26 16:33:40 2019, MaxMem=  1342177280 cpu:               1.2 elap:               0.1
 (Enter /apps/cent7/gaussian/g16-A.03/g16-haswell/g16/l302.exe)
 NPDir=0 NMtPBC=     1 NCelOv=     1 NCel=       1 NClECP=     1 NCelD=      1
         NCelK=      1 NCelE2=     1 NClLst=     1 CellRange=     0.0.
 One-electron integrals computed using PRISM.
 One-electron integral symmetry used in STVInt
 NBasis=   151 RedAO= T EigKep=  2.93D-05  NBF=   151
[...]
 ! R12   R(10,13)                1.0872         -DE/DX =    0.0                 !
 ! A1    A(2,1,3)              107.1921         -DE/DX =    0.0                 !
 ! A2    A(2,1,4)              112.9652         -DE/DX =    0.0                 !
 ! A3    A(2,1,5)              113.7287         -DE/DX =    0.0                 !
 ! A4    A(3,1,4)              105.5866         -DE/DX =    0.0                 !
 ! A5    A(3,1,5)              103.5909         -DE/DX =    0.0                 !
 ! A6    A(4,1,5)              112.8003         -DE/DX =    0.0                 !
 ! A7    A(1,5,6)              119.8489         -DE/DX =    0.0                 !
 ! A8    A(1,5,10)             120.5396         -DE/DX =    0.0                 !
 ! A9    A(6,5,10)             119.5902         -DE/DX =    0.0                 !
 ! A10   A(5,6,7)              112.8671         -DE/DX =    0.0                 !
 ! A11   A(5,6,8)              102.9236         -DE/DX =    0.0                 !
 ! A12   A(5,6,9)              114.0322         -DE/DX =    0.0                 !
 ! A13   A(7,6,8)              105.4521         -DE/DX =    0.0                 !
 ! A14   A(7,6,9)              113.1436         -DE/DX =    0.0                 !
 ! A15   A(8,6,9)              107.3254         -DE/DX =    0.0                 !
 ! A16   A(5,10,11)            104.5644         -DE/DX =    0.0                 !
 ! A17   A(5,10,12)            111.4313         -DE/DX =    0.0                 !
 ! A18   A(5,10,13)            114.3689         -DE/DX =    0.0                 !
 ! A19   A(11,10,12)           104.4367         -DE/DX =    0.0                 !
 ! A20   A(11,10,13)           108.7281         -DE/DX =    0.0                 !
 ! A21   A(12,10,13)           112.4669         -DE/DX =    0.0                 !
 ! D1    D(2,1,5,6)            -16.2228         -DE/DX =    0.0                 !
 ! D2    D(2,1,5,10)           165.4641         -DE/DX =    0.0                 !
 ! D3    D(3,1,5,6)             99.7817         -DE/DX =    0.0                 !
 ! D4    D(3,1,5,10)           -78.5315         -DE/DX =    0.0                 !
 ! D5    D(4,1,5,6)           -146.5468         -DE/DX =    0.0                 !
 ! D6    D(4,1,5,10)            35.1401         -DE/DX =    0.0                 !
 ! D7    D(1,5,6,7)            -29.0422         -DE/DX =    0.0                 !
 ! D8    D(1,5,6,8)             84.1269         -DE/DX =    0.0                 !
 ! D9    D(1,5,6,9)           -159.9697         -DE/DX =    0.0                 !
 ! D10   D(10,5,6,7)           149.2871         -DE/DX =    0.0                 !
 ! D11   D(10,5,6,8)           -97.5438         -DE/DX =    0.0                 !
 ! D12   D(10,5,6,9)            18.3596         -DE/DX =    0.0                 !
 ! D13   D(1,5,10,11)          101.7845         -DE/DX =    0.0                 !
 ! D14   D(1,5,10,12)         -145.962          -DE/DX =    0.0                 !
 ! D15   D(1,5,10,13)          -17.0233         -DE/DX =    0.0                 !
 ! D16   D(6,5,10,11)          -76.5331         -DE/DX =    0.0                 !
 ! D17   D(6,5,10,12)           35.7205         -DE/DX =    0.0                 !
 ! D18   D(6,5,10,13)          164.6592         -DE/DX =    0.0                 !
 --------------------------------------------------------------------------------
 GradGradGradGradGradGradGradGradGradGradGradGradGradGradGradGradGradGrad

 Leave Link  103 at Thu Dec 26 16:36:04 2019, MaxMem=  1342177280 cpu:               1.1 elap:               0.1
 (Enter /apps/cent7/gaussian/g16-A.03/g16-haswell/g16/l9999.exe)

 ----------------------------------------------------------------------

 Electric dipole moment (input orientation):
 (Debye = 10**-18 statcoulomb cm , SI units = C m)
                  (au)            (Debye)         (10**-30 SI)
   Tot        0.649985D-01      0.165210D+00      0.551080D+00
   x          0.601352D-01      0.152848D+00      0.509848D+00
   y          0.199947D-01      0.508214D-01      0.169522D+00
   z          0.144488D-01      0.367251D-01      0.122502D+00

 Dipole polarizability, Alpha (input orientation).
 (esu units = cm**3 , SI units = C**2 m**2 J**-1)
 Alpha(0;0):
               (au)            (10**-24 esu)      (10**-40 SI)
   iso        0.442681D+02      0.655986D+01      0.729883D+01
   aniso      0.135461D+02      0.200732D+01      0.223345D+01
   xx         0.391863D+02      0.580681D+01      0.646094D+01
   yx        -0.333454D+01     -0.494128D+00     -0.549791D+00
   yy         0.474182D+02      0.702666D+01      0.781821D+01
   zx        -0.514824D+01     -0.762891D+00     -0.848831D+00
   zy        -0.194982D+01     -0.288934D+00     -0.321483D+00
   zz         0.461998D+02      0.684611D+01      0.761732D+01

 ----------------------------------------------------------------------

 Dipole orientation:
     6          5.21534597        -11.64783769         -8.31791849
     1          5.84301589        -13.57862313         -8.65258665
     1          3.98802820        -11.68118432         -6.62092138
     1          4.03642312        -10.91007262         -9.83976804
     6          7.24920505         -9.92705101         -7.61249901
     6          9.66821758        -10.93711601         -6.76736793
     1          9.49218411        -12.77504422         -5.84801823
     1         10.67601861        -11.30726648         -8.56697872
     1         10.80484266         -9.60054500         -5.69219603
     6          6.86148337         -7.19607779         -7.67902575
     1          6.55872974         -6.65933692         -5.68163422
     1          8.58960026         -6.20084693         -8.22389810
     1          5.23149861         -6.59781144         -8.77716777

 Electric dipole moment (dipole orientation):
 (Debye = 10**-18 statcoulomb cm , SI units = C m)
                  (au)            (Debye)         (10**-30 SI)
   Tot        0.649985D-01      0.165210D+00      0.551080D+00
   x          0.000000D+00      0.000000D+00      0.000000D+00
   y          0.000000D+00      0.000000D+00      0.000000D+00
   z          0.649985D-01      0.165210D+00      0.551080D+00

 Dipole polarizability, Alpha (dipole orientation).
 (esu units = cm**3 , SI units = C**2 m**2 J**-1)
 Alpha(0;0):
               (au)            (10**-24 esu)      (10**-40 SI)
   iso        0.442681D+02      0.655986D+01      0.729883D+01
   aniso      0.135461D+02      0.200732D+01      0.223345D+01
   xx         0.481163D+02      0.713010D+01      0.793331D+01
   yx         0.151275D-01      0.224167D-02      0.249420D-02
   yy         0.486585D+02      0.721045D+01      0.802270D+01
   zx         0.309837D+01      0.459131D+00      0.510852D+00
   zy         0.765594D+00      0.113449D+00      0.126229D+00
   zz         0.360295D+02      0.533903D+01      0.594047D+01

 ----------------------------------------------------------------------
 1\1\GINC-BROWN-A347\Freq\RM062X\6-311++G(d,p)\C4H9(1+)\FINEJ\26-Dec-20
 19\0\\#P Geom=AllCheck Guess=TCheck SCRF=Check GenChk RM062X/6-311++G(
 d,p) Freq\\Title Card Required\\1,1\C,-1.8099701517,-7.6832127713,-1.6
 357233397\H,-1.6363675195,-8.7576562691,-1.6680865157\H,-1.1696934506,
 -7.272024413,-0.8297973964\H,-2.8329253159,-7.4255019913,-1.3576582536
 \C,-1.3540618784,-6.9788798413,-2.8286043589\C,-0.4321857602,-7.632486
 5368,-3.7490753963\H,0.2164537756,-8.3584335395,-3.2555603248\H,-1.107
 7992794,-8.2303219269,-4.3939172248\H,0.1097858197,-6.9449886014,-4.39
 6645839\C,-1.7846218973,-5.6086510881,-3.0911678065\H,-0.9208830713,-4
 .9841614659,-2.7953585103\H,-1.8999280459,-5.424396983,-4.163328773\H,
 -2.6544874671,-5.2944942997,-2.519719946\\Version=ES64L-G16RevA.03\Sta
 te=1-A\HF=-157.4956568\RMSD=1.190e-09\RMSF=1.638e-06\ZeroPoint=0.11688
 79\Thermal=0.1168879\Dipole=0.0601352,0.0199947,0.0144488\DipoleDeriv=
 -0.0700348,0.0514388,-0.0357173,0.0195297,-0.0599565,0.0371065,0.13139
 38,0.2340402,-0.6989529,0.0865797,0.0061018,0.0763579,0.0202348,0.0647
 064,-0.009994,0.0167789,-0.0449162,0.1189289,0.1055091,-0.0747318,0.07
 67926,-0.0684713,0.0735043,0.0697948,-0.0053806,-0.0248996,0.248277,0.
 0949588,0.0313437,0.0112859,0.0272381,0.0574662,0.0747787,-0.0284129,-
 0.0067602,0.1730795,0.3873381,-0.2439053,-0.3463521,-0.1812816,1.04912
 41,-0.1191389,-0.3058738,-0.074568,1.0063765,-0.0488358,0.0392306,0.01
 04269,0.2183518,-0.3604498,-0.3307471,0.1925276,-0.2851283,-0.4387754,
 0.1069806,0.0292791,0.0372737,-0.0369037,0.1506059,0.083614,-0.010121,
 0.0437457,0.0721074,0.0199013,0.0515141,0.0889328,-0.042868,0.2008941,
 0.0634895,-0.0049752,0.0331002,0.1987346,0.092468,0.0260451,0.0417696,
 -0.0134854,0.0470843,0.0346637,-0.0131292,0.042116,0.1395335,-0.019121
 3,-0.1984825,0.0288063,0.0396871,-0.687237,0.1206678,-0.0349778,0.1168
 079,-0.1268304,0.0580941,0.1467034,-0.035197,0.0271571,0.2016183,0.008
 4548,-0.0114583,-0.0004753,0.1509176,0.1148886,0.0993674,0.0108322,0.0
 035031,0.1499575,-0.0499266,0.033315,-0.0670366,0.0884663,0.0712736,0.
 0360957,0.0347884,-0.0126915,0.1126823,0.0172368,0.0403136,0.0339742,0
 .0681373\Polar=39.1862726,-3.3345386,47.4182435,-5.1482441,-1.9498242,
 46.1998214\Quadrupole=-1.620631,0.9432271,0.6774039,-0.9433897,-1.4353
 034,-0.5346629\PG=C01 [X(C4H9)]\NImag=0\\0.54564019,-0.03405284,0.6048
 7213,-0.05584511,-0.01131085,0.45356786,-0.05920591,0.04643595,0.01121
 685,0.05505426,0.04467469,-0.32166024,-0.00906392,-0.04785900,0.344522
 94,0.00952604,-0.01372068,-0.04269690,-0.00704508,0.00909447,0.0500613
 4,-0.10685634,-0.05537552,-0.09943240,0.00126021,0.00237969,0.00382138
 ,0.12416809,-0.05267748,-0.06445804,-0.05582650,-0.01614588,-0.0102886
 9,-0.02345681,0.05732622,0.07200730,-0.11250011,-0.06930434,-0.1723198
 7,0.00006929,0.00014866,-0.00005664,0.11793723,0.07324770,0.19114408,-
 0.28870055,0.06299343,0.06982766,0.00028141,-0.00053602,-0.00115487,-0
 .01763254,0.00417614,0.00507364,0.31125919,0.06453316,-0.07076249,-0.0
 0902882,0.02709866,-0.00154630,-0.00707849,-0.00906249,0.00099295,0.00
 205438,-0.06781425,0.06614226,0.06756290,-0.01205272,-0.05043245,-0.00
 021268,-0.00033948,-0.00179147,-0.02278207,0.00390358,0.00615538,-0.07
 337737,0.01324087,0.06363879,-0.11291959,-0.02997293,0.04676825,0.0001
 1333,0.00170957,-0.00529741,0.00261222,0.01229315,-0.01769891,-0.00792
 162,-0.01547332,0.03057536,0.41739420,-0.02779826,-0.14774576,0.061534
 96,-0.00865004,-0.01392626,0.03389501,0.00618575,0.00664355,-0.0101560
 2,0.00134802,0.00585724,-0.00576573,-0.08879610,0.53968457,0.06365194,
 0.08180889,-0.16984601,-0.00822879,-0.00059001,-0.00101524,-0.00066104
 ,0.00264914,-0.02978507,0.00035551,-0.00515616,-0.01460903,-0.13076116
 ,-0.06754378,0.48738028,0.00779687,0.00635988,0.01447324,-0.00016232,0
 .00123826,-0.00230505,-0.00293911,-0.00127525,0.00386672,0.00051117,0.
 00301194,0.00068325,-0.17575467,0.06174835,0.08756972,0.54827108,-0.00
 204121,0.01248448,0.00379477,-0.00080870,0.00191166,-0.00073496,-0.000
 03326,0.00105476,0.00429920,-0.00114609,0.00197409,0.00440212,0.044349
 45,-0.11171770,-0.01980212,-0.01825345,0.54919168,0.02141421,-0.010712
 70,-0.02407960,0.00077654,-0.00156598,0.00036373,0.00155335,0.00103836
 ,0.00031374,-0.00031795,0.00357160,-0.00188419,0.07246037,-0.02489403,
 -0.14142898,-0.04328602,-0.08970357,0.51309729,0.00194827,0.00065175,0
 .00070079,-0.00064920,-0.00049909,0.00051643,-0.00037922,-0.00028672,0
 .00020070,0.00017105,-0.00023881,-0.00038746,-0.01132577,0.00853455,-0
 .01402648,-0.14566958,0.11013570,-0.06586392,0.15375491,-0.00351254,0.
 00103725,0.00152282,0.00008477,0.00006317,0.00002139,0.00012487,-0.000
 61562,-0.00067591,-0.00001047,-0.00034630,0.00000373,0.01257628,-0.017
 70113,0.00041164,0.10816617,-0.16062668,0.09395939,-0.12086908,0.17572
 934,-0.00103347,-0.00152042,-0.00056230,0.00013828,0.00057506,0.000336
 39,0.00048841,0.00032564,-0.00025212,-0.00020634,-0.00016994,0.0003463
 0,0.01566687,-0.01756289,0.01190090,-0.06917787,0.09306696,-0.10298174
 ,0.07718228,-0.09238661,0.11030589,-0.00182654,-0.00045347,0.00288492,
 -0.00033027,-0.00000051,0.00025227,-0.00031673,0.00000666,-0.00101509,
 -0.00004928,-0.00123577,-0.00012941,0.01364190,0.00312297,0.00219309,-
 0.12002890,-0.07535834,-0.07575980,-0.01141538,-0.01106741,-0.01293160
 ,0.13296461,0.00129226,0.00023934,0.00247715,-0.00025048,0.00004979,0.
 00013634,-0.00086700,-0.00032710,0.00020435,-0.00002070,-0.00018368,-0
 .00021780,-0.00828593,-0.01608978,-0.01454316,-0.08806491,-0.10297168,
 -0.08360322,0.01145644,0.00937939,0.01366587,0.09028691,0.11933120,0.0
 0551308,0.00043941,0.00155493,-0.00031393,0.00053108,-0.00065422,-0.00
 073674,-0.00018413,0.00163413,0.00011986,0.00096480,-0.00024334,-0.015
 20744,-0.01381456,-0.01920925,-0.09022448,-0.08595446,-0.12127374,-0.0
 0761031,-0.00642487,-0.00879631,0.09658190,0.09145140,0.13557673,0.002
 59808,0.00316458,0.00291908,-0.00016786,0.00007827,-0.00031901,-0.0009
 6954,-0.00051815,0.00102346,0.00000622,-0.00003303,0.00012744,-0.00970
 426,-0.01649032,0.00677123,-0.12006226,-0.08097707,0.08436190,0.012876
 14,0.01127078,-0.01120422,-0.00884530,-0.00974122,0.01012394,0.1240103
 4,0.00053164,-0.00211501,-0.00250915,0.00012812,0.00007447,0.00002635,
 0.00041884,0.00029681,-0.00052048,0.00011637,0.00017930,-0.00056392,0.
 01014892,0.01408021,-0.01173209,-0.08518977,-0.16580883,0.11218081,-0.
 01093241,-0.00951437,0.00694297,-0.00805617,-0.01093815,0.01126342,0.0
 9273276,0.17336806,0.00520869,-0.00152016,0.00214713,-0.00030113,-0.00
 013618,0.00013298,-0.00051119,-0.00033679,0.00025159,0.00013522,0.0001
 0709,-0.00135232,0.01226140,0.01160694,-0.01922988,0.08294717,0.110122
 44,-0.13856848,0.00636896,0.00506185,-0.00652341,-0.01017951,-0.010915
 35,0.01082883,-0.09304173,-0.11414232,0.15214476,0.01237830,0.00241749
 ,0.01273723,0.00247575,-0.00079663,0.00159905,-0.00007140,-0.00528571,
 0.00264275,0.00118197,-0.00205880,-0.00198248,-0.11301677,0.08061640,-
 0.00669943,0.00500203,0.01798955,0.00028257,0.00140195,0.00473076,0.00
 080430,-0.00168506,0.00401604,0.00222224,0.00123663,-0.00050153,-0.002
 57771,0.55569603,0.00615445,-0.00769583,0.02093504,0.00025894,0.001173
 73,0.00023544,-0.00140167,-0.00537166,0.00063589,0.00119491,-0.0018057
 9,-0.00297034,0.05572963,-0.21462179,0.02841264,0.00998830,-0.02235616
 ,-0.00584873,0.00123453,0.00286662,-0.00159776,0.00298641,0.00107201,0
 .00120561,-0.00005887,-0.00011850,0.00094367,-0.06298418,0.48141393,0.
 00095746,0.03974889,0.00658460,0.00475759,0.00144614,-0.00442096,0.000
 41969,-0.00276536,0.00398687,0.00031814,0.00031353,-0.00119391,-0.0026
 7386,0.02581982,-0.10025956,0.00982195,-0.01846155,0.01162420,0.002555
 41,-0.00176458,-0.00352842,-0.00167829,-0.00018635,-0.00027828,-0.0006
 2079,-0.00126636,0.00075108,-0.05955194,-0.00608975,0.56662955,-0.0015
 5913,-0.00135677,-0.00419412,0.00010719,-0.00017020,0.00036774,0.00094
 599,0.00148091,-0.00008360,0.00022293,0.00028849,0.00019667,0.00561139
 ,-0.00782413,0.00433692,-0.00076644,0.00317007,0.00256821,-0.00080604,
 -0.00087146,0.00040494,-0.00074552,-0.00020785,-0.00080415,-0.00034805
 ,0.00055510,-0.00013353,-0.18701644,-0.10185893,-0.05093098,0.20570548
 ,0.00302771,0.00163606,0.00206240,0.00110741,-0.00011666,0.00031898,-0
 .00012276,-0.00115392,0.00092866,0.00017347,0.00025020,-0.00069334,-0.
 02690540,-0.02358401,-0.01000087,0.00372459,-0.00024303,0.00317671,0.0
 0077388,0.00047284,-0.00057349,-0.00088763,0.00135626,0.00070655,0.000
 15546,-0.00004208,-0.00080703,-0.11765726,-0.12272016,-0.04409067,0.12
 523231,0.13427918,-0.00204797,-0.00129472,-0.00372933,-0.00047959,-0.0
 0001535,-0.00010767,0.00024801,0.00150656,-0.00063497,-0.00035213,0.00
 051944,0.00063666,0.00357347,0.00432087,-0.00243518,0.00096689,-0.0008
 0847,0.00054338,0.00026885,0.00021180,-0.00013245,0.00025762,0.0002528
 7,0.00033235,0.00028594,-0.00024147,-0.00034750,-0.04860803,-0.0400523
 3,-0.04093662,0.05651952,0.04390321,0.05439116,0.00100754,0.00082712,-
 0.00116190,0.00097165,-0.00009272,-0.00009714,0.00005255,0.00037865,0.
 00066802,0.00012760,0.00090109,-0.00012814,-0.00291270,-0.01039178,-0.
 00715501,0.00103021,0.00228351,0.00085569,-0.00009711,-0.00061865,-0.0
 0000907,-0.00076445,-0.00020448,0.00007308,-0.00072482,0.00014861,0.00
 013792,-0.04629012,0.01988470,-0.02440880,-0.00479342,0.00405468,-0.02
 253148,0.04655517,0.00030526,-0.00675261,-0.00303219,-0.00090995,-0.00
 042780,0.00139607,0.00037289,0.00107225,-0.00061393,0.00003730,-0.0000
 8524,0.00023541,0.00459201,-0.00943146,0.03584959,-0.00299436,0.000740
 73,-0.00140646,-0.00049788,0.00015177,0.00034576,0.00064715,-0.0007874
 3,-0.00009925,0.00052354,0.00042838,-0.00004805,0.01573014,-0.04400397
 ,0.04324793,-0.00398174,0.00385663,-0.01885820,-0.01071680,0.05460269,
 -0.00133262,-0.00034491,0.00135065,-0.00041455,-0.00005003,-0.00003643
 ,-0.00011830,-0.00036562,-0.00027145,-0.00013252,-0.00037160,0.0000737
 4,-0.00155174,0.00533418,-0.00558338,0.00130914,-0.00274143,0.00100202
 ,0.00007198,0.00022805,0.00001728,0.00057867,0.00049506,0.00014755,-0.
 00015894,0.00053805,-0.00001033,-0.02411211,0.04207244,-0.30584308,-0.
 00103212,0.00204358,-0.01084561,0.03045841,-0.04870650,0.33013194,-0.0
 0030119,-0.00163866,-0.00089450,0.00025176,-0.00012630,0.00013565,0.00
 012581,0.00052745,-0.00018410,0.00054244,0.00008315,-0.00014599,-0.005
 81765,-0.00160542,0.00265350,0.00277193,0.00068983,0.00095485,0.000189
 98,-0.00000401,-0.00012251,-0.00059908,0.00059092,0.00026295,0.0000946
 8,-0.00010050,-0.00031457,-0.23129289,0.06887178,0.12103442,-0.0165579
 4,0.00732355,0.01189889,0.00583790,-0.00310757,-0.00356530,0.24475426,
 -0.00043683,0.00092071,-0.00155570,-0.00048979,0.00017019,-0.00013311,
 0.00005445,0.00014741,-0.00024817,-0.00051213,-0.00066625,0.00081762,0
 .02803466,-0.01144768,-0.01976371,0.00154024,-0.00363334,0.00380782,0.
 00053715,-0.00089629,-0.00111115,0.00000920,-0.00013018,-0.00008500,-0
 .00010673,0.00010972,0.00006387,0.06378373,-0.06783242,-0.03595167,-0.
 01445580,0.00600869,0.01055580,-0.00645393,0.00063607,0.00186874,-0.07
 150422,0.07661337,-0.00107506,-0.00021569,-0.00153871,0.00003721,-0.00
 003446,-0.00011492,-0.00022633,0.00026422,-0.00016567,-0.00028886,0.00
 103329,0.00065584,-0.00811519,-0.00277476,0.00412039,0.00335533,0.0025
 2106,0.00327237,0.00002277,-0.00016869,-0.00013000,-0.00105475,0.00078
 284,0.00038063,-0.00026830,0.00002418,-0.00022444,0.12324357,-0.037881
 83,-0.13311547,-0.00721550,0.00302532,0.00326577,0.02329841,-0.0083101
 6,-0.01013290,-0.13171330,0.04173468,0.13372711\\-0.00000411,0.0000005
 7,-0.00000183,-0.00000090,0.00000004,-0.00000018,-0.00000200,0.0000000
 6,0.00000016,-0.00000164,-0.00000047,-0.00000189,0.00000143,-0.0000013
 9,0.00000203,0.00000299,-0.00000099,-0.00000023,0.00000070,0.00000013,
 0.00000263,0.00000257,0.00000023,0.00000045,0.00000130,0.00000045,0.00
 000188,-0.00000443,0.00000034,-0.00000208,0.00000163,0.00000046,0.0000
 0105,0.00000210,-0.00000004,-0.00000076,0.00000037,0.00000061,-0.00000
 123\\\@


     ON THE SURVIVAL OF THE FITTEST -
 "STRONG REPRESENTATIVES FROM EACH PAST ERA THRIVE TODAY,
 SUCH AS PROGRAMMING IN THE THIRTY YEAR OLD LANGUAGE KNOWN
 AS FORTRAN, AND EVEN IN THE ANCIENT SCRIPT KNOWN AS DIRECT
 MACHINE CODE. SOME PEOPLE MIGHT LOOK ON SUCH RELICS AS LIVING
 FOSSILS; OTHERS WOULD POINT OUT THAT EVEN A VERY OLD SPECIES
 MIGHT STILL BE FILLING A PARTICULAR ECOLOGICAL NICHE."
     -- ALAN KAY, SCI.AM. SEPTEMBER 1984
 Job cpu time:       0 days  0 hours 10 minutes 35.4 seconds.
 Elapsed time:       0 days  0 hours  0 minutes 27.0 seconds.
 File lengths (MBytes):  RWF=     32 Int=      0 D2E=      0 Chk=      3 Scr=      1
 Normal termination of Gaussian 16 at Thu Dec 26 16:36:04 2019.
real 156.46
user 3487.08
sys 26.42
Machine:
brown-a347
brown-a347
brown-a347
brown-a347
brown-a347
brown-a347
brown-a347
brown-a347
brown-a347
brown-a347
brown-a347
brown-a347
brown-a347
brown-a347
brown-a347
brown-a347
brown-a347
brown-a347
brown-a347
brown-a347
brown-a347
brown-a347
brown-a347
brown-a347
