Title Card Required                                                     
Freq      RM062X                                                      6-311++G(d,p)       
Number of atoms                            I                7
Info1-9                                    I   N=           9
          24          24        1002           0           0         100
           6          18        -502
Full Title                                 C   N=           2
Title Card Required     
Route                                      C   N=           6
#P opt freq m062x/6-311++g(d,p) geom=connectivity temperatur
e=0.001     
Charge                                     I                1
Multiplicity                               I                1
Number of electrons                        I               18
Number of alpha electrons                  I                9
Number of beta electrons                   I                9
Number of basis functions                  I               79
Number of independent functions            I               79
Number of point charges in /Mol/           I                0
Number of translation vectors              I                0
Atomic numbers                             I   N=           7
           6           1           1           1           8           1
           1
Nuclear charges                            R   N=           7
  6.00000000E+00  1.00000000E+00  1.00000000E+00  1.00000000E+00  8.00000000E+00
  1.00000000E+00  1.00000000E+00
Current cartesian coordinates              R   N=          21
 -1.49108918E+00  5.59186988E-05  3.35759274E-02 -2.07992048E+00  1.69539349E+00
 -9.59695597E-01 -2.07951088E+00 -1.69690694E+00 -9.57157250E-01 -2.00469620E+00
  9.58752281E-04  2.02078852E+00  1.34278893E+00  3.75765482E-05 -1.53314464E-01
  2.18426001E+00 -1.51835437E+00  4.60236289E-01  2.18409120E+00  1.51827294E+00
  4.60888185E-01
Number of symbols in /Mol/                 I                0
Force Field                                I                0
Atom Types                                 C   N=           7
                                                            
                        
Int Atom Types                             I   N=           7
           0           0           0           0           0           0
           0
MM charges                                 R   N=           7
  0.00000000E+00  0.00000000E+00  0.00000000E+00  0.00000000E+00  0.00000000E+00
  0.00000000E+00  0.00000000E+00
Integer atomic weights                     I   N=           7
          12           1           1           1          16           1
           1
Real atomic weights                        R   N=           7
  1.20000000E+01  1.00782504E+00  1.00782504E+00  1.00782504E+00  1.59949146E+01
  1.00782504E+00  1.00782504E+00
Atom fragment info                         I   N=           7
           0           0           0           0           0           0
           0
Atom residue num                           I   N=           7
           0           0           0           0           0           0
           0
Nuclear spins                              I   N=           7
           0           1           1           1           0           1
           1
Nuclear ZEff                               R   N=           7
 -3.60000000E+00 -1.00000000E+00 -1.00000000E+00 -1.00000000E+00 -5.60000000E+00
 -1.00000000E+00 -1.00000000E+00
Nuclear ZNuc                               R   N=           7
  6.00000000E+00  1.00000000E+00  1.00000000E+00  1.00000000E+00  8.00000000E+00
  1.00000000E+00  1.00000000E+00
Nuclear QMom                               R   N=           7
  0.00000000E+00  0.00000000E+00  0.00000000E+00  0.00000000E+00  0.00000000E+00
  0.00000000E+00  0.00000000E+00
Nuclear GFac                               R   N=           7
  0.00000000E+00  2.79284600E+00  2.79284600E+00  2.79284600E+00  0.00000000E+00
  2.79284600E+00  2.79284600E+00
MicOpt                                     I   N=           7
          -1          -1          -1          -1          -1          -1
          -1
Number of residues                         I                0
Number of secondary structures             I                0
Redundant internal dimensions              I   N=           4
          21           6           9           6
Redundant internal coordinate indices      I   N=          84
           1           2           0           0           1           3
           0           0           1           4           0           0
           1           5           0           0           5           6
           0           0           5           7           0           0
           2           1           3           0           2           1
           4           0           2           1           5           0
           3           1           4           0           3           1
           5           0           4           1           5           0
           1           5           6           0           1           5
           7           0           6           5           7           0
           2           1           5           6           2           1
           5           7           3           1           5           6
           3           1           5           7           4           1
           5           6           4           1           5           7
Redundant internal coordinates             R   N=          21
  2.05121430E+00  2.05121312E+00  2.05251233E+00  2.84003401E+00  1.84120401E+00
  1.84121509E+00  1.94714869E+00  1.97864284E+00  1.82821216E+00  1.97818485E+00
  1.82807943E+00  1.88957085E+00  2.01984447E+00  2.01970233E+00  1.93908995E+00
 -3.00993090E+00  9.60516702E-01 -9.58598350E-01  3.01184925E+00  1.15702409E+00
 -1.15571361E+00
ZRed-IntVec                                I   N=          21
           0           0           0           0           0           0
           0           0           0           0           0           0
           0           0           0           0           0           0
           0           0           0
ZRed-FPVec                                 R   N=          21
  0.00000000E+00  0.00000000E+00  0.00000000E+00  0.00000000E+00  0.00000000E+00
  0.00000000E+00  0.00000000E+00  0.00000000E+00  0.00000000E+00  0.00000000E+00
  0.00000000E+00  0.00000000E+00  0.00000000E+00  0.00000000E+00  0.00000000E+00
  0.00000000E+00  0.00000000E+00  0.00000000E+00  0.00000000E+00  0.00000000E+00
  0.00000000E+00
ZRed-Constraint1                           R   N=          21
  2.05121430E+00  2.05121312E+00  2.05251233E+00  2.84003401E+00  1.84120401E+00
  1.84121509E+00  1.94714869E+00  1.97864284E+00  1.82821216E+00  1.97818485E+00
  1.82807943E+00  1.88957085E+00  2.01984447E+00  2.01970233E+00  1.93908995E+00
 -3.00993090E+00  9.60516702E-01 -9.58598350E-01  3.01184925E+00  1.15702409E+00
 -1.15571361E+00
ZRed-Constraint2                           R   N=          21
  2.02200695E+00  2.02200695E+00  2.02200696E+00  2.70230836E+00  1.81413707E+00
  1.81413708E+00  1.91063323E+00  1.91063324E+00  1.91063324E+00  1.91063324E+00
  1.91063324E+00  1.91063324E+00  1.91063323E+00  1.91063324E+00  1.91063323E+00
  2.78140283E+00  6.87007733E-01 -1.40738738E+00  2.78140283E+00  6.87007727E-01
 -1.40738737E+00
SymInf integers                            I   N=          26
           1           1           1           1           1           0
           0           0           0           0           0           0
           0           0           0           0           0           0
           0           0           0           0           0           0
           0           0
RotTr to input orientation                 R   N=          12
  2.55005807E-01  4.46524288E-01 -8.57664327E-01  9.01291560E-02 -8.94103450E-01
 -4.38697795E-01 -9.62729855E-01  3.45699233E-02 -2.68246429E-01  8.16938991E-02
  7.10492553E-01  2.96981369E-01
Number of contracted shells                I               37
Number of primitive shells                 I               61
Pure/Cartesian d shells                    I                0
Pure/Cartesian f shells                    I                0
Highest angular momentum                   I                2
Largest degree of contraction              I                6
Shell types                                I   N=          37
           0          -1          -1          -1          -1          -2
           0           0           0           0           1           0
           0           0           0           1           0           0
           0           0           1           0          -1          -1
          -1          -1          -2           0           0           0
           0           1           0           0           0           0
           1
Number of primitives per shell             I   N=          37
           6           3           1           1           1           1
           3           1           1           1           1           3
           1           1           1           1           3           1
           1           1           1           6           3           1
           1           1           1           3           1           1
           1           1           3           1           1           1
           1
Shell to atom map                          I   N=          37
           1           1           1           1           1           1
           2           2           2           2           2           3
           3           3           3           3           4           4
           4           4           4           5           5           5
           5           5           5           6           6           6
           6           6           7           7           7           7
           7
Primitive exponents                        R   N=          61
  4.56324000E+03  6.82024000E+02  1.54973000E+02  4.44553000E+01  1.30290000E+01
  1.82773000E+00  2.09642000E+01  4.80331000E+00  1.45933000E+00  4.83456000E-01
  1.45585000E-01  4.38000000E-02  6.26000000E-01  3.38650000E+01  5.09479000E+00
  1.15879000E+00  3.25840000E-01  1.02741000E-01  3.60000000E-02  7.50000000E-01
  3.38650000E+01  5.09479000E+00  1.15879000E+00  3.25840000E-01  1.02741000E-01
  3.60000000E-02  7.50000000E-01  3.38650000E+01  5.09479000E+00  1.15879000E+00
  3.25840000E-01  1.02741000E-01  3.60000000E-02  7.50000000E-01  8.58850000E+03
  1.29723000E+03  2.99296000E+02  8.73771000E+01  2.56789000E+01  3.74004000E+00
  4.21175000E+01  9.62837000E+00  2.85332000E+00  9.05661000E-01  2.55611000E-01
  8.45000000E-02  1.29200000E+00  3.38650000E+01  5.09479000E+00  1.15879000E+00
  3.25840000E-01  1.02741000E-01  3.60000000E-02  7.50000000E-01  3.38650000E+01
  5.09479000E+00  1.15879000E+00  3.25840000E-01  1.02741000E-01  3.60000000E-02
  7.50000000E-01
Contraction coefficients                   R   N=          61
  1.96665025E-03  1.52306019E-02  7.61269097E-02  2.60801033E-01  6.16462078E-01
  2.21006028E-01  1.14660081E-01  9.19999648E-01 -3.03068213E-03  1.00000000E+00
  1.00000000E+00  1.00000000E+00  1.00000000E+00  2.54938145E-02  1.90373109E-01
  8.52161486E-01  1.00000000E+00  1.00000000E+00  1.00000000E+00  1.00000000E+00
  2.54938145E-02  1.90373109E-01  8.52161486E-01  1.00000000E+00  1.00000000E+00
  1.00000000E+00  1.00000000E+00  2.54938145E-02  1.90373109E-01  8.52161486E-01
  1.00000000E+00  1.00000000E+00  1.00000000E+00  1.00000000E+00  1.89515008E-03
  1.43859006E-02  7.07320031E-02  2.40001011E-01  5.94797026E-01  2.80802012E-01
  1.13889012E-01  9.20811101E-01 -3.27447036E-03  1.00000000E+00  1.00000000E+00
  1.00000000E+00  1.00000000E+00  2.54938145E-02  1.90373109E-01  8.52161486E-01
  1.00000000E+00  1.00000000E+00  1.00000000E+00  1.00000000E+00  2.54938145E-02
  1.90373109E-01  8.52161486E-01  1.00000000E+00  1.00000000E+00  1.00000000E+00
  1.00000000E+00
P(S=P) Contraction coefficients            R   N=          61
  0.00000000E+00  0.00000000E+00  0.00000000E+00  0.00000000E+00  0.00000000E+00
  0.00000000E+00  4.02486927E-02  2.37593957E-01  8.15853851E-01  1.00000000E+00
  1.00000000E+00  1.00000000E+00  0.00000000E+00  0.00000000E+00  0.00000000E+00
  0.00000000E+00  0.00000000E+00  0.00000000E+00  0.00000000E+00  0.00000000E+00
  0.00000000E+00  0.00000000E+00  0.00000000E+00  0.00000000E+00  0.00000000E+00
  0.00000000E+00  0.00000000E+00  0.00000000E+00  0.00000000E+00  0.00000000E+00
  0.00000000E+00  0.00000000E+00  0.00000000E+00  0.00000000E+00  0.00000000E+00
  0.00000000E+00  0.00000000E+00  0.00000000E+00  0.00000000E+00  0.00000000E+00
  3.65113974E-02  2.37152983E-01  8.19701941E-01  1.00000000E+00  1.00000000E+00
  1.00000000E+00  0.00000000E+00  0.00000000E+00  0.00000000E+00  0.00000000E+00
  0.00000000E+00  0.00000000E+00  0.00000000E+00  0.00000000E+00  0.00000000E+00
  0.00000000E+00  0.00000000E+00  0.00000000E+00  0.00000000E+00  0.00000000E+00
  0.00000000E+00
Coordinates of each shell                  R   N=         111
 -1.49108918E+00  5.59186988E-05  3.35759274E-02 -1.49108918E+00  5.59186988E-05
  3.35759274E-02 -1.49108918E+00  5.59186988E-05  3.35759274E-02 -1.49108918E+00
  5.59186988E-05  3.35759274E-02 -1.49108918E+00  5.59186988E-05  3.35759274E-02
 -1.49108918E+00  5.59186988E-05  3.35759274E-02 -2.07992048E+00  1.69539349E+00
 -9.59695597E-01 -2.07992048E+00  1.69539349E+00 -9.59695597E-01 -2.07992048E+00
  1.69539349E+00 -9.59695597E-01 -2.07992048E+00  1.69539349E+00 -9.59695597E-01
 -2.07992048E+00  1.69539349E+00 -9.59695597E-01 -2.07951088E+00 -1.69690694E+00
 -9.57157250E-01 -2.07951088E+00 -1.69690694E+00 -9.57157250E-01 -2.07951088E+00
 -1.69690694E+00 -9.57157250E-01 -2.07951088E+00 -1.69690694E+00 -9.57157250E-01
 -2.07951088E+00 -1.69690694E+00 -9.57157250E-01 -2.00469620E+00  9.58752281E-04
  2.02078852E+00 -2.00469620E+00  9.58752281E-04  2.02078852E+00 -2.00469620E+00
  9.58752281E-04  2.02078852E+00 -2.00469620E+00  9.58752281E-04  2.02078852E+00
 -2.00469620E+00  9.58752281E-04  2.02078852E+00  1.34278893E+00  3.75765482E-05
 -1.53314464E-01  1.34278893E+00  3.75765482E-05 -1.53314464E-01  1.34278893E+00
  3.75765482E-05 -1.53314464E-01  1.34278893E+00  3.75765482E-05 -1.53314464E-01
  1.34278893E+00  3.75765482E-05 -1.53314464E-01  1.34278893E+00  3.75765482E-05
 -1.53314464E-01  2.18426001E+00 -1.51835437E+00  4.60236289E-01  2.18426001E+00
 -1.51835437E+00  4.60236289E-01  2.18426001E+00 -1.51835437E+00  4.60236289E-01
  2.18426001E+00 -1.51835437E+00  4.60236289E-01  2.18426001E+00 -1.51835437E+00
  4.60236289E-01  2.18409120E+00  1.51827294E+00  4.60888185E-01  2.18409120E+00
  1.51827294E+00  4.60888185E-01  2.18409120E+00  1.51827294E+00  4.60888185E-01
  2.18409120E+00  1.51827294E+00  4.60888185E-01  2.18409120E+00  1.51827294E+00
  4.60888185E-01
Num ILSW                                   I              100
ILSW                                       I   N=         100
           0           0           0           0           2           0
           0           0           0           0        4336          -1
           5           0           0           0           2           0
           0           0           0           0           1           0
           1           0           0           0           0           0
           0           0      100000           0          -1           0
           0           0           0           0           0           0
           0           0           0           1           0           0
           0 -2000000000           1           0           0           0
           0           0           4          52           0           0
           0           0          55           0           0           0
           0           0           0           7           0           1
           0           0           0           0           0           0
           0           0           0           0           0           0
           0           0           0           0           0           0
           0           0           0           0           0           0
           0           0           0           0
Num RLSW                                   I               52
RLSW                                       R   N=          52
  1.00000000E+00  1.00000000E+00  1.00000000E+00  1.00000000E+00  5.40000000E-01
  0.00000000E+00  0.00000000E+00  1.00000000E+00  0.00000000E+00  0.00000000E+00
  0.00000000E+00  0.00000000E+00  1.00000000E+00  0.00000000E+00  0.00000000E+00
  0.00000000E+00  0.00000000E+00  1.00000000E+00  0.00000000E+00  0.00000000E+00
  0.00000000E+00  0.00000000E+00  1.00000000E+00  0.00000000E+00  0.00000000E+00
  0.00000000E+00  0.00000000E+00  1.00000000E+00  0.00000000E+00  0.00000000E+00
  0.00000000E+00  0.00000000E+00  1.00000000E+00  0.00000000E+00  0.00000000E+00
  0.00000000E+00  0.00000000E+00  0.00000000E+00  1.00000000E+00  1.00000000E+00
  0.00000000E+00  1.00000000E+00  0.00000000E+00  0.00000000E+00  0.00000000E+00
  0.00000000E+00  0.00000000E+00  0.00000000E+00  0.00000000E+00  0.00000000E+00
  0.00000000E+00  0.00000000E+00
MxBond                                     I                4
NBond                                      I   N=           7
           4           1           1           1           3           1
           1
IBond                                      I   N=          28
           2           3           4           5           1           0
           0           0           1           0           0           0
           1           0           0           0           1           6
           7           0           5           0           0           0
           5           0           0           0
RBond                                      R   N=          28
  1.00000000E+00  1.00000000E+00  1.00000000E+00  1.00000000E+00  1.00000000E+00
  0.00000000E+00  0.00000000E+00  0.00000000E+00  1.00000000E+00  0.00000000E+00
  0.00000000E+00  0.00000000E+00  1.00000000E+00  0.00000000E+00  0.00000000E+00
  0.00000000E+00  1.00000000E+00  1.00000000E+00  1.00000000E+00  0.00000000E+00
  1.00000000E+00  0.00000000E+00  0.00000000E+00  0.00000000E+00  1.00000000E+00
  0.00000000E+00  0.00000000E+00  0.00000000E+00
Virial Ratio                               R      2.003417444513630E+00
SCF Energy                                 R     -1.160009653098020E+02
Total Energy                               R     -1.160009653098020E+02
RMS Force                                  R      4.825769571866825E-05
RMS Density                                R      1.187102841372613E-09
NImag                                      I                0
Job Status                                 I                1
Nuclear derivative order                   I                2
External E-field                           R   N=          35
  0.00000000E+00  0.00000000E+00  0.00000000E+00  0.00000000E+00  0.00000000E+00
  0.00000000E+00  0.00000000E+00  0.00000000E+00  0.00000000E+00  0.00000000E+00
  0.00000000E+00  0.00000000E+00  0.00000000E+00  0.00000000E+00  0.00000000E+00
  0.00000000E+00  0.00000000E+00  0.00000000E+00  0.00000000E+00  0.00000000E+00
  0.00000000E+00  0.00000000E+00  0.00000000E+00  0.00000000E+00  0.00000000E+00
  0.00000000E+00  0.00000000E+00  0.00000000E+00  0.00000000E+00  0.00000000E+00
  0.00000000E+00  0.00000000E+00  0.00000000E+00  0.00000000E+00  0.00000000E+00
IOpCl                                      I                0
IROHF                                      I                0
Alpha Orbital Energies                     R   N=          79
 -2.00069110E+01 -1.08454873E+01 -1.52293678E+00 -1.07799763E+00 -9.83532769E-01
 -8.60858998E-01 -8.11690786E-01 -7.24129290E-01 -6.93919402E-01 -2.16022109E-01
 -1.47754760E-01 -1.42291258E-01 -1.12694661E-01 -1.01422340E-01 -8.69182802E-02
 -7.50806344E-02 -5.87203230E-02 -4.26811322E-02 -2.91230934E-02 -1.20359664E-02
 -1.04022258E-02  9.15013392E-03  3.19495358E-02  3.56028454E-02  5.12254880E-02
  5.17341881E-02  8.70287971E-02  1.32646533E-01  2.53579523E-01  2.60921619E-01
  3.02310707E-01  3.25992091E-01  3.88432524E-01  4.64951226E-01  4.69695288E-01
  4.80908324E-01  6.80652638E-01  6.90747281E-01  7.22197948E-01  7.68589527E-01
  8.67949508E-01  9.36764564E-01  1.08948415E+00  1.21099045E+00  1.24697668E+00
  1.28362191E+00  1.33513372E+00  1.35037704E+00  1.44267106E+00  1.44824232E+00
  1.55813658E+00  1.57251911E+00  1.59470910E+00  1.74778394E+00  1.77132561E+00
  1.83685649E+00  1.96299823E+00  1.98768373E+00  2.20961456E+00  2.23818779E+00
  2.24619360E+00  2.33419764E+00  2.34087587E+00  2.38432177E+00  2.48638526E+00
  2.60362034E+00  2.72900056E+00  2.94582418E+00  3.02297225E+00  3.39726398E+00
  3.48660766E+00  3.61107007E+00  3.64997895E+00  3.68551659E+00  4.82448431E+00
  5.30012429E+00  5.38541091E+00  2.37253224E+01  4.96455016E+01
Alpha MO coefficients                      R   N=        6241
  1.17250786E-05 -5.71782360E-05  5.10823110E-05  2.94008834E-09 -9.20839863E-06
  1.84673937E-04  2.17390361E-04  8.42815458E-09  1.32276677E-05  1.23517313E-03
  3.82315694E-04 -1.43787946E-07 -1.02632269E-04 -3.66793072E-03 -7.10693359E-04
  4.76276156E-07  2.59549787E-04  2.60832675E-05 -1.92442851E-06 -5.41726703E-08
 -1.06565853E-05  2.12418039E-09  3.57848101E-05 -4.96650014E-04  2.57041707E-04
  6.39397316E-04 -6.19202591E-05  5.95498642E-05 -2.11468256E-05  3.57915153E-05
 -4.96677129E-04  2.57105348E-04  6.40089497E-04 -6.18469131E-05 -5.95464231E-05
 -2.10694993E-05  3.72660401E-05 -4.91424795E-04  1.93963183E-04  2.33543552E-04
 -1.04028534E-04  7.83306958E-08  9.34974331E-05  5.52895377E-01  4.69449084E-01
  1.47130559E-05 -1.56299677E-07  9.77299692E-04  8.86251501E-03  1.23888237E-04
  5.11830637E-10 -1.42343467E-04 -3.96901934E-03  9.63934897E-04 -2.39969811E-08
  2.15679644E-04  4.05475803E-03 -4.66459862E-04 -5.89108182E-08  8.04814562E-05
 -8.69132208E-05  1.04179151E-04  6.39415213E-08 -1.55367086E-04 -4.98807837E-08
  7.38085592E-05 -2.78875228E-04 -5.59843284E-04  1.49019245E-04  1.50666163E-04
 -4.35005711E-04  1.81696407E-04  7.38221498E-05 -2.78794777E-04 -5.59913417E-04
  1.49106499E-04  1.50600568E-04  4.34912560E-04  1.81866421E-04  5.64173495E-01
  4.63761344E-01  1.80595241E-03  3.66987133E-08 -3.63017676E-05  1.28732516E-02
 -1.96104326E-03 -8.27374304E-07 -1.36860649E-05 -5.74384994E-03 -3.98009407E-04
  1.58305680E-08  3.56831297E-05 -9.05417184E-03 -8.50599640E-04  1.07666603E-06
 -5.73738978E-06  5.01576596E-04  4.46545385E-05 -4.16689367E-07 -8.00906653E-04
  4.82684162E-08  3.55143795E-04 -2.76040666E-03  3.08675284E-03  8.88840765E-04
 -3.57816588E-04  1.38675209E-03 -7.99104136E-04  3.55177971E-04 -2.76076410E-03
  3.08745778E-03  8.90251220E-04 -3.57411469E-04 -1.38802434E-03 -7.97258317E-04
  3.71566950E-04 -2.80413526E-03  3.27000022E-03  7.83954888E-04 -2.97092699E-04
  9.44377034E-07  1.60948958E-03 -3.40991135E-05 -9.17537930E-05 -6.47479535E-05
 -1.02139195E-08  1.75373019E-05  5.03069174E-04 -3.89617654E-04  2.70457161E-08
 -1.83006450E-05 -7.52187131E-04  3.46324703E-04 -6.13109626E-08  7.91734393E-05
  4.32915737E-03 -1.65836747E-03  2.12897064E-07  5.65304795E-05  1.05326401E-05
 -1.17694080E-05 -5.68225029E-09  1.24290033E-05 -1.55166591E-08  7.09514994E-06
 -1.07782668E-04 -1.48194593E-05  6.94904064E-04 -7.05342477E-05  4.71719234E-05
 -2.88030521E-05  7.09360357E-06 -1.07678028E-04 -1.52145052E-05  6.94626294E-04
 -7.05773907E-05 -4.71654735E-05 -2.88245993E-05 -2.34257414E-02 -3.68556344E-02
  2.80024116E-02 -1.16153033E-06 -8.83317236E-04  8.89090400E-02  5.26910864E-02
 -8.90973485E-07 -1.79081916E-03  2.47159702E-02  4.24147047E-03  4.00618579E-06
  7.64755018E-04  8.05225665E-02  1.26251502E-02 -9.40917207E-06 -1.06144345E-03
 -1.02371064E-02 -9.86234203E-04  1.04904917E-06  1.64283914E-02 -4.18155540E-07
  8.66095648E-03  1.64223762E-02 -9.36976841E-03 -1.19185130E-02  1.60736347E-03
 -3.62739694E-03  2.06729945E-03  8.66295551E-03  1.64272503E-02 -9.37055424E-03
 -1.19353280E-02  1.60566224E-03  3.63020400E-03  2.06246360E-03  8.68925358E-03
  1.63892914E-02 -1.02202813E-02 -1.00275540E-02  1.62833513E-03 -2.72342057E-06
 -4.53881375E-03 -1.15017067E-01 -1.89592474E-01  5.10483266E-03 -4.02045161E-06
  2.54402253E-02  5.48146070E-01  5.57434895E-03 -6.41410331E-06  4.24935114E-02
  3.90844013E-01 -1.19894483E-02 -4.04989415E-06  1.82737798E-02 -6.77904874E-02
  1.32516045E-02 -5.19772006E-07 -2.51783910E-03 -8.19177828E-03  3.71236715E-03
  3.45274178E-06 -1.08891665E-03 -1.81641980E-06  8.01267127E-02  6.08314066E-02
  1.23042413E-03 -1.24863728E-03 -1.00720858E-02  1.97564730E-02 -6.49524188E-03
  8.01260371E-02  6.08315076E-02  1.23309080E-03 -1.24880695E-03 -1.00701763E-02
 -1.97548749E-02 -6.50371043E-03 -9.56960031E-02 -1.54446151E-01  1.20437778E-02
 -1.14216467E-05 -4.77760786E-03  4.06289609E-01  3.94209518E-02 -1.40942280E-05
 -8.13293418E-03  2.73363210E-01  1.24642225E-02 -5.14327517E-06  9.46325010E-03
  5.12235041E-02  1.15955545E-02 -3.75970630E-06 -1.10499573E-03 -7.16504191E-03
 -2.13441770E-03 -1.36193950E-06  1.09200220E-02  6.14017286E-08  7.26922720E-02
  8.56286376E-02 -1.05935821E-02 -2.83382947E-03  4.10323000E-03 -1.31742859E-02
  7.06813958E-03  7.26988995E-02  8.56336671E-02 -1.05953950E-02 -2.83668803E-03
  4.10131416E-03  1.31858231E-02  7.04889001E-03  6.99662359E-02  7.69932070E-02
 -1.84376055E-02  3.81626963E-03  3.54654161E-03 -6.89440027E-06 -1.44838918E-02
  1.50114217E-02  2.50263611E-02 -1.42488205E-01  8.80760885E-06 -2.35093030E-02
 -7.62761568E-02 -2.16023492E-01  1.29222048E-05 -3.48483286E-02 -4.92387380E-02
 -1.35313513E-01  5.68801152E-06 -1.84781874E-02 -5.98197666E-02  1.57013390E-02
 -1.59922587E-06 -6.02025469E-03 -1.78203892E-03 -7.98790902E-03 -8.23200836E-07
  7.81863445E-03  2.29244126E-06 -5.93005016E-02 -6.45836690E-02  8.26887603E-03
 -1.04262424E-02 -9.16741773E-04 -1.53507557E-02  3.33398242E-03 -5.92879117E-02
 -6.45711969E-02  8.27304969E-03 -1.04252945E-02 -9.20218907E-04  1.53472903E-02
  3.33966715E-03  3.09541629E-06  5.02047391E-06  6.95711490E-06  4.03550862E-02
  5.76089927E-06 -1.32024791E-05  1.17166304E-05  6.81073724E-02  1.10007694E-05
 -1.32954900E-05 -1.10102774E-06  3.95147117E-02 -8.94827654E-06  7.02781574E-06
 -5.54906865E-07  1.73751731E-03 -6.36407854E-06  9.52552783E-06  3.73116876E-06
 -5.32016582E-03  1.01573514E-05  1.37571335E-02  2.12930611E-02  1.60017290E-02
 -1.08502571E-03 -3.05949984E-03 -5.03033795E-04  1.93432333E-04  7.33816991E-04
 -2.13260750E-02 -1.60378815E-02  1.06667173E-03  3.05880288E-03  5.01665570E-04
  1.90474531E-04 -7.31909158E-04  1.12468128E-05  1.30309525E-05  9.96065051E-06
 -3.28720462E-06  2.43620621E-07  1.00170429E-03  5.89170026E-08 -3.22924490E-07
 -5.56776342E-07 -1.29728060E-05  2.43992782E-01  5.07571912E-05  1.80013834E-06
 -1.95577935E-05  3.63660727E-01  7.55314820E-05  3.03987537E-06 -1.19323635E-05
  2.43191269E-01  5.18871857E-05  2.62649225E-05  5.75192085E-06 -6.39455632E-03
  6.93483982E-06  5.86462197E-06  9.03728313E-07  1.65037323E-02  2.00178815E-06
  8.41032398E-03 -1.40773772E-01 -1.55675470E-01 -1.49068096E-02 -1.47126879E-02
  1.90803885E-02 -1.68834656E-02  1.03648307E-02  1.40772542E-01  1.55677492E-01
  1.48759419E-02  1.47131444E-02 -1.90790955E-02 -1.68809873E-02 -1.03723887E-02
 -4.04006178E-02 -6.54220183E-02 -1.11452699E-01 -2.28672747E-05  5.39357302E-02
  1.77973005E-01 -1.76847207E-01 -3.27063773E-05  8.53279437E-02  1.87207119E-01
 -5.86957194E-02 -2.29556281E-05  3.21521842E-02 -2.35469815E-02 -4.56358465E-03
 -1.83725426E-06  3.79862437E-04  2.03228181E-02  1.11651928E-02  4.79935184E-06
 -2.61856777E-02  1.13886222E-06  4.70812336E-02  5.26142152E-02  2.15388259E-03
  4.53994736E-03 -1.53864298E-03 -4.03420445E-03  5.60956461E-03  4.71369360E-02
  5.26835535E-02  2.14884378E-03  4.54352629E-03 -1.53629476E-03  4.04558112E-03
  5.60864965E-03  9.76339107E-02  1.17913034E-01  1.21755121E-02  4.75133918E-03
 -4.46535208E-04 -6.46599208E-06 -1.04001783E-02  2.42108632E-02  4.08237069E-02
  1.65949723E-01 -6.88164955E-06  1.25721296E-01 -1.28635884E-01  2.51472377E-01
 -1.05546094E-05  1.86029189E-01 -1.66330207E-01  1.99002300E-01 -1.08233188E-05
  1.55135598E-01  5.32026074E-02  1.38413265E-03 -6.99425561E-06  1.91749948E-02
  5.60535137E-03  6.75129171E-03  4.46113484E-07 -4.14881848E-03 -7.90920180E-08
  6.46949600E-02  7.29474184E-02 -6.92780754E-03  4.20798296E-03  3.97219177E-03
  1.49341171E-02  5.37950325E-03  6.47096914E-02  7.29684661E-02 -6.91462982E-03
  4.21254093E-03  3.97153584E-03 -1.49382515E-02  5.37235260E-03  1.46015712E-02
  2.35505045E-02  7.89366948E-02 -4.40289457E-05  1.06205325E-01 -6.10980296E-02
  1.23240455E-01 -6.78399531E-05  1.66572380E-01 -1.34672986E-01  2.26560867E-02
 -4.41082916E-05  9.82065456E-02 -3.82009830E-02 -1.29896116E-02  3.02315013E-06
 -6.27352190E-03 -8.78673161E-04  1.20699260E-02  2.71945181E-05  2.27531126E-02
 -1.14253271E-06 -7.16549406E-02 -8.47213755E-02 -1.55569880E-02 -4.51847282E-03
 -7.19781683E-05  7.47279655E-03 -5.09307332E-05 -7.14983966E-02 -8.45397848E-02
 -1.55542119E-02 -4.48613201E-03 -6.68765837E-05 -7.46547052E-03 -2.73626192E-05
  4.40353902E-02  5.59226527E-02  2.68980939E-03  1.66517321E-02  4.33173824E-03
 -5.17101744E-06 -2.27178274E-03  7.64319448E-03  1.28562960E-02 -1.21667889E-01
 -4.56108710E-05  2.00979227E-01 -4.48546531E-02 -1.81842594E-01 -6.96687984E-05
  3.02328885E-01 -2.68758051E-03 -1.52875148E-01 -6.49199364E-05  2.77706791E-01
  1.17415266E-01 -2.75693839E-02 -2.50302193E-05  2.78289133E-02  8.61571063E-03
 -8.55096840E-03 -2.39359107E-06  6.11521425E-04  2.08937677E-06 -1.74725592E-03
 -3.03010240E-02 -2.47003789E-02  2.69879380E-03 -8.05650975E-03 -4.38946711E-03
  1.72780890E-02 -1.74139812E-03 -3.02890107E-02 -2.46581925E-02  2.70126999E-03