MOP                                                                     
Freq      RM062X                                                      6-311++G(d,p)       
Number of atoms                            I               13
Info1-9                                    I   N=           9
          36          36        1002           0           0         100
           6          18        -502
Full Title                                 C   N=           1
MOP         
Route                                      C   N=           6
#P opt freq m062x/6-311++g(d,p) geom=connectivity temperatur
e=0.001     
Charge                                     I                0
Multiplicity                               I                1
Number of electrons                        I               40
Number of alpha electrons                  I               20
Number of beta electrons                   I               20
Number of basis functions                  I              166
Number of independent functions            I              166
Number of point charges in /Mol/           I                0
Number of translation vectors              I                0
Atomic numbers                             I   N=          13
           6           6           6           8           6           1
           1           1           1           1           1           1
           1
Nuclear charges                            R   N=          13
  6.00000000E+00  6.00000000E+00  6.00000000E+00  8.00000000E+00  6.00000000E+00
  1.00000000E+00  1.00000000E+00  1.00000000E+00  1.00000000E+00  1.00000000E+00
  1.00000000E+00  1.00000000E+00  1.00000000E+00
Current cartesian coordinates              R   N=          39
 -1.04233496E+00  1.65707652E-01 -9.25695074E-02 -1.10759594E+00 -2.67099990E+00
 -7.64899943E-02 -3.05182854E+00  1.63283818E+00  2.66355656E-01  1.22302852E+00
  1.28976346E+00 -6.50540111E-01  3.42053849E+00  1.57391787E-01  3.68202700E-01
 -3.04713896E+00 -3.32074852E+00  1.41286772E-01 -3.49504826E-01 -3.41975853E+00
 -1.84743382E+00  1.22826204E-02 -3.45587056E+00  1.47110462E+00 -4.89788133E+00
  8.09627782E-01  5.58865931E-01 -2.86337173E+00  3.66787990E+00  2.20490481E-01
  3.76681211E+00 -1.71588618E+00 -4.34094458E-01  4.98583699E+00  1.39517178E+00
 -1.27692306E-01  3.29606268E+00  1.18503173E-02  2.42880053E+00
Number of symbols in /Mol/                 I                0
Force Field                                I                0
Atom Types                                 C   N=          13
                                                            
                                                            
                                    
Int Atom Types                             I   N=          13
           0           0           0           0           0           0
           0           0           0           0           0           0
           0
MM charges                                 R   N=          13
  0.00000000E+00  0.00000000E+00  0.00000000E+00  0.00000000E+00  0.00000000E+00
  0.00000000E+00  0.00000000E+00  0.00000000E+00  0.00000000E+00  0.00000000E+00
  0.00000000E+00  0.00000000E+00  0.00000000E+00
Integer atomic weights                     I   N=          13
          12          12          12          16          12           1
           1           1           1           1           1           1
           1
Real atomic weights                        R   N=          13
  1.20000000E+01  1.20000000E+01  1.20000000E+01  1.59949146E+01  1.20000000E+01
  1.00782504E+00  1.00782504E+00  1.00782504E+00  1.00782504E+00  1.00782504E+00
  1.00782504E+00  1.00782504E+00  1.00782504E+00
Atom fragment info                         I   N=          13
           0           0           0           0           0           0
           0           0           0           0           0           0
           0
Atom residue num                           I   N=          13
           0           0           0           0           0           0
           0           0           0           0           0           0
           0
Nuclear spins                              I   N=          13
           0           0           0           0           0           1
           1           1           1           1           1           1
           1
Nuclear ZEff                               R   N=          13
 -3.60000000E+00 -3.60000000E+00 -3.60000000E+00 -5.60000000E+00 -3.60000000E+00
 -1.00000000E+00 -1.00000000E+00 -1.00000000E+00 -1.00000000E+00 -1.00000000E+00
 -1.00000000E+00 -1.00000000E+00 -1.00000000E+00
Nuclear ZNuc                               R   N=          13
  6.00000000E+00  6.00000000E+00  6.00000000E+00  8.00000000E+00  6.00000000E+00
  1.00000000E+00  1.00000000E+00  1.00000000E+00  1.00000000E+00  1.00000000E+00
  1.00000000E+00  1.00000000E+00  1.00000000E+00
Nuclear QMom                               R   N=          13
  0.00000000E+00  0.00000000E+00  0.00000000E+00  0.00000000E+00  0.00000000E+00
  0.00000000E+00  0.00000000E+00  0.00000000E+00  0.00000000E+00  0.00000000E+00
  0.00000000E+00  0.00000000E+00  0.00000000E+00
Nuclear GFac                               R   N=          13
  0.00000000E+00  0.00000000E+00  0.00000000E+00  0.00000000E+00  0.00000000E+00
  2.79284600E+00  2.79284600E+00  2.79284600E+00  2.79284600E+00  2.79284600E+00
  2.79284600E+00  2.79284600E+00  2.79284600E+00
MicOpt                                     I   N=          13
          -1          -1          -1          -1          -1          -1
          -1          -1          -1          -1          -1          -1
          -1
Number of residues                         I                0
Number of secondary structures             I                0
Redundant internal dimensions              I   N=           4
          46          12          19          15
Redundant internal coordinate indices      I   N=         184
           1           2           0           0           1           3
           0           0           1           4           0           0
           2           6           0           0           2           7
           0           0           2           8           0           0
           3           9           0           0           3          10
           0           0           4           5           0           0
           5          11           0           0           5          12
           0           0           5          13           0           0
           2           1           3           0           2           1
           4           0           3           1           4           0
           1           2           6           0           1           2
           7           0           1           2           8           0
           6           2           7           0           6           2
           8           0           7           2           8           0
           1           3           9           0           1           3
          10           0           9           3          10           0
           1           4           5           0           4           5
          11           0           4           5          12           0
           4           5          13           0          11           5
          12           0          11           5          13           0
          12           5          13           0           3           1
           2           6           3           1           2           7
           3           1           2           8           4           1
           2           6           4           1           2           7
           4           1           2           8           2           1
           3           9           2           1           3          10
           4           1           3           9           4           1
           3          10           2           1           4           5
           3           1           4           5           1           4
           5          11           1           4           5          12
           1           4           5          13
Redundant internal coordinates             R   N=          46
  2.83750371E+00  2.51383447E+00  2.58973055E+00  2.05704330E+00  2.06678098E+00
  2.06523583E+00  2.04233898E+00  2.04426377E+00  2.67378993E+00  2.06706470E+00
  2.05625159E+00  2.06947819E+00  2.17033851E+00  2.04346213E+00  2.06768904E+00
  1.91565355E+00  1.92718176E+00  1.95164400E+00  1.89877332E+00  1.88799230E+00
  1.88127489E+00  2.10337261E+00  2.09912842E+00  2.08035889E+00  2.04094496E+00
  1.95368405E+00  1.85336044E+00  1.93877047E+00  1.90117315E+00  1.91007782E+00
  1.90524809E+00  6.70685395E-02  2.16026105E+00 -2.02827563E+00 -3.01084464E+00
 -9.17652126E-01  1.17699650E+00 -2.26856287E-02 -3.13664651E+00  3.05440859E+00
 -5.95522933E-02 -6.88598491E-01  2.51279522E+00  1.15709010E+00 -3.05338955E+00
 -9.83918487E-01
ZRed-IntVec                                I   N=          46
           0           0           0           0           0           0
           0           0           0           0           0           0
           0           0           0           0           0           0
           0           0           0           0           0           0
           0           0           0           0           0           0
           0           0           0           0           0           0
           0           0           0           0           0           0
           0           0           0           0
ZRed-FPVec                                 R   N=          46
  0.00000000E+00  0.00000000E+00  0.00000000E+00  0.00000000E+00  0.00000000E+00
  0.00000000E+00  0.00000000E+00  0.00000000E+00  0.00000000E+00  0.00000000E+00
  0.00000000E+00  0.00000000E+00  0.00000000E+00  0.00000000E+00  0.00000000E+00
  0.00000000E+00  0.00000000E+00  0.00000000E+00  0.00000000E+00  0.00000000E+00
  0.00000000E+00  0.00000000E+00  0.00000000E+00  0.00000000E+00  0.00000000E+00
  0.00000000E+00  0.00000000E+00  0.00000000E+00  0.00000000E+00  0.00000000E+00
  0.00000000E+00  0.00000000E+00  0.00000000E+00  0.00000000E+00  0.00000000E+00
  0.00000000E+00  0.00000000E+00  0.00000000E+00  0.00000000E+00  0.00000000E+00
  0.00000000E+00  0.00000000E+00  0.00000000E+00  0.00000000E+00  0.00000000E+00
  0.00000000E+00
ZRed-Constraint1                           R   N=          46
  2.83750371E+00  2.51383447E+00  2.58973055E+00  2.05704330E+00  2.06678098E+00
  2.06523583E+00  2.04233898E+00  2.04426377E+00  2.67378993E+00  2.06706470E+00
  2.05625159E+00  2.06947819E+00  2.17033851E+00  2.04346213E+00  2.06768904E+00
  1.91565355E+00  1.92718176E+00  1.95164400E+00  1.89877332E+00  1.88799230E+00
  1.88127489E+00  2.10337261E+00  2.09912842E+00  2.08035889E+00  2.04094496E+00
  1.95368405E+00  1.85336044E+00  1.93877047E+00  1.90117315E+00  1.91007782E+00
  1.90524809E+00  6.70685395E-02  2.16026105E+00 -2.02827563E+00 -3.01084464E+00
 -9.17652126E-01  1.17699650E+00 -2.26856287E-02 -3.13664651E+00  3.05440859E+00
 -5.95522933E-02 -6.88598491E-01  2.51279522E+00  1.15709010E+00 -3.05338955E+00
 -9.83918487E-01
ZRed-Constraint2                           R   N=          46
  2.91017823E+00  2.56095685E+00  2.70230835E+00  2.02200695E+00  2.02200696E+00
  2.02200696E+00  2.02200694E+00  2.02200696E+00  2.70230836E+00  2.02200696E+00
  2.02200696E+00  2.02200696E+00  2.09439509E+00  2.09439511E+00  2.09439510E+00
  1.91063324E+00  1.91063323E+00  1.91063324E+00  1.91063324E+00  1.91063324E+00
  1.91063323E+00  2.09439511E+00  2.09439509E+00  2.09439511E+00  1.91063323E+00
  1.91063324E+00  1.91063324E+00  1.91063323E+00  1.91063324E+00  1.91063324E+00
  1.91063323E+00  5.23598765E-01  2.61799387E+00 -1.57079634E+00 -2.61799388E+00
 -5.23598767E-01  1.57079633E+00 -3.21571754E-06  3.14158910E+00  3.14158942E+00
 -3.57143253E-06 -1.57079633E+00  1.57079634E+00  1.04719754E+00  3.14159265E+00
 -1.04719756E+00
SymInf integers                            I   N=          26
           1           1           1           1           1           0
           0           0           0           0           0           0
           0           0           0           0           0           0
           0           0           0           0           0           0
           0           0
RotTr to input orientation                 R   N=          12
 -8.50018872E-01 -2.76229287E-01 -4.48514546E-01 -3.89587330E-01  9.02755947E-01
  1.82355182E-01  3.54527332E-01  3.29740930E-01 -8.74975022E-01  2.15379326E-01
 -1.86058236E+00 -1.93088742E+00
Number of contracted shells                I               70
Number of primitive shells                 I              121
Pure/Cartesian d shells                    I                0
Pure/Cartesian f shells                    I                0
Highest angular momentum                   I                2
Largest degree of contraction              I                6
Shell types                                I   N=          70
           0          -1          -1          -1          -1          -2
           0          -1          -1          -1          -1          -2
           0          -1          -1          -1          -1          -2
           0          -1          -1          -1          -1          -2
           0          -1          -1          -1          -1          -2
           0           0           0           0           1           0
           0           0           0           1           0           0
           0           0           1           0           0           0
           0           1           0           0           0           0
           1           0           0           0           0           1
           0           0           0           0           1           0
           0           0           0           1
Number of primitives per shell             I   N=          70
           6           3           1           1           1           1
           6           3           1           1           1           1
           6           3           1           1           1           1
           6           3           1           1           1           1
           6           3           1           1           1           1
           3           1           1           1           1           3
           1           1           1           1           3           1
           1           1           1           3           1           1
           1           1           3           1           1           1
           1           3           1           1           1           1
           3           1           1           1           1           3
           1           1           1           1
Shell to atom map                          I   N=          70
           1           1           1           1           1           1
           2           2           2           2           2           2
           3           3           3           3           3           3
           4           4           4           4           4           4
           5           5           5           5           5           5
           6           6           6           6           6           7
           7           7           7           7           8           8
           8           8           8           9           9           9
           9           9          10          10          10          10
          10          11          11          11          11          11
          12          12          12          12          12          13
          13          13          13          13
Primitive exponents                        R   N=         121
  4.56324000E+03  6.82024000E+02  1.54973000E+02  4.44553000E+01  1.30290000E+01
  1.82773000E+00  2.09642000E+01  4.80331000E+00  1.45933000E+00  4.83456000E-01
  1.45585000E-01  4.38000000E-02  6.26000000E-01  4.56324000E+03  6.82024000E+02
  1.54973000E+02  4.44553000E+01  1.30290000E+01  1.82773000E+00  2.09642000E+01
  4.80331000E+00  1.45933000E+00  4.83456000E-01  1.45585000E-01  4.38000000E-02
  6.26000000E-01  4.56324000E+03  6.82024000E+02  1.54973000E+02  4.44553000E+01
  1.30290000E+01  1.82773000E+00  2.09642000E+01  4.80331000E+00  1.45933000E+00
  4.83456000E-01  1.45585000E-01  4.38000000E-02  6.26000000E-01  8.58850000E+03
  1.29723000E+03  2.99296000E+02  8.73771000E+01  2.56789000E+01  3.74004000E+00
  4.21175000E+01  9.62837000E+00  2.85332000E+00  9.05661000E-01  2.55611000E-01
  8.45000000E-02  1.29200000E+00  4.56324000E+03  6.82024000E+02  1.54973000E+02
  4.44553000E+01  1.30290000E+01  1.82773000E+00  2.09642000E+01  4.80331000E+00
  1.45933000E+00  4.83456000E-01  1.45585000E-01  4.38000000E-02  6.26000000E-01
  3.38650000E+01  5.09479000E+00  1.15879000E+00  3.25840000E-01  1.02741000E-01
  3.60000000E-02  7.50000000E-01  3.38650000E+01  5.09479000E+00  1.15879000E+00
  3.25840000E-01  1.02741000E-01  3.60000000E-02  7.50000000E-01  3.38650000E+01
  5.09479000E+00  1.15879000E+00  3.25840000E-01  1.02741000E-01  3.60000000E-02
  7.50000000E-01  3.38650000E+01  5.09479000E+00  1.15879000E+00  3.25840000E-01
  1.02741000E-01  3.60000000E-02  7.50000000E-01  3.38650000E+01  5.09479000E+00
  1.15879000E+00  3.25840000E-01  1.02741000E-01  3.60000000E-02  7.50000000E-01
  3.38650000E+01  5.09479000E+00  1.15879000E+00  3.25840000E-01  1.02741000E-01
  3.60000000E-02  7.50000000E-01  3.38650000E+01  5.09479000E+00  1.15879000E+00
  3.25840000E-01  1.02741000E-01  3.60000000E-02  7.50000000E-01  3.38650000E+01
  5.09479000E+00  1.15879000E+00  3.25840000E-01  1.02741000E-01  3.60000000E-02
  7.50000000E-01
Contraction coefficients                   R   N=         121
  1.96665025E-03  1.52306019E-02  7.61269097E-02  2.60801033E-01  6.16462078E-01
  2.21006028E-01  1.14660081E-01  9.19999648E-01 -3.03068213E-03  1.00000000E+00
  1.00000000E+00  1.00000000E+00  1.00000000E+00  1.96665025E-03  1.52306019E-02
  7.61269097E-02  2.60801033E-01  6.16462078E-01  2.21006028E-01  1.14660081E-01
  9.19999648E-01 -3.03068213E-03  1.00000000E+00  1.00000000E+00  1.00000000E+00
  1.00000000E+00  1.96665025E-03  1.52306019E-02  7.61269097E-02  2.60801033E-01
  6.16462078E-01  2.21006028E-01  1.14660081E-01  9.19999648E-01 -3.03068213E-03
  1.00000000E+00  1.00000000E+00  1.00000000E+00  1.00000000E+00  1.89515008E-03
  1.43859006E-02  7.07320031E-02  2.40001011E-01  5.94797026E-01  2.80802012E-01
  1.13889012E-01  9.20811101E-01 -3.27447036E-03  1.00000000E+00  1.00000000E+00
  1.00000000E+00  1.00000000E+00  1.96665025E-03  1.52306019E-02  7.61269097E-02
  2.60801033E-01  6.16462078E-01  2.21006028E-01  1.14660081E-01  9.19999648E-01
 -3.03068213E-03  1.00000000E+00  1.00000000E+00  1.00000000E+00  1.00000000E+00
  2.54938145E-02  1.90373109E-01  8.52161486E-01  1.00000000E+00  1.00000000E+00
  1.00000000E+00  1.00000000E+00  2.54938145E-02  1.90373109E-01  8.52161486E-01
  1.00000000E+00  1.00000000E+00  1.00000000E+00  1.00000000E+00  2.54938145E-02
  1.90373109E-01  8.52161486E-01  1.00000000E+00  1.00000000E+00  1.00000000E+00
  1.00000000E+00  2.54938145E-02  1.90373109E-01  8.52161486E-01  1.00000000E+00
  1.00000000E+00  1.00000000E+00  1.00000000E+00  2.54938145E-02  1.90373109E-01
  8.52161486E-01  1.00000000E+00  1.00000000E+00  1.00000000E+00  1.00000000E+00
  2.54938145E-02  1.90373109E-01  8.52161486E-01  1.00000000E+00  1.00000000E+00
  1.00000000E+00  1.00000000E+00  2.54938145E-02  1.90373109E-01  8.52161486E-01
  1.00000000E+00  1.00000000E+00  1.00000000E+00  1.00000000E+00  2.54938145E-02
  1.90373109E-01  8.52161486E-01  1.00000000E+00  1.00000000E+00  1.00000000E+00
  1.00000000E+00
P(S=P) Contraction coefficients            R   N=         121
  0.00000000E+00  0.00000000E+00  0.00000000E+00  0.00000000E+00  0.00000000E+00
  0.00000000E+00  4.02486927E-02  2.37593957E-01  8.15853851E-01  1.00000000E+00
  1.00000000E+00  1.00000000E+00  0.00000000E+00  0.00000000E+00  0.00000000E+00
  0.00000000E+00  0.00000000E+00  0.00000000E+00  0.00000000E+00  4.02486927E-02
  2.37593957E-01  8.15853851E-01  1.00000000E+00  1.00000000E+00  1.00000000E+00
  0.00000000E+00  0.00000000E+00  0.00000000E+00  0.00000000E+00  0.00000000E+00
  0.00000000E+00  0.00000000E+00  4.02486927E-02  2.37593957E-01  8.15853851E-01
  1.00000000E+00  1.00000000E+00  1.00000000E+00  0.00000000E+00  0.00000000E+00
  0.00000000E+00  0.00000000E+00  0.00000000E+00  0.00000000E+00  0.00000000E+00
  3.65113974E-02  2.37152983E-01  8.19701941E-01  1.00000000E+00  1.00000000E+00
  1.00000000E+00  0.00000000E+00  0.00000000E+00  0.00000000E+00  0.00000000E+00
  0.00000000E+00  0.00000000E+00  0.00000000E+00  4.02486927E-02  2.37593957E-01
  8.15853851E-01  1.00000000E+00  1.00000000E+00  1.00000000E+00  0.00000000E+00
  0.00000000E+00  0.00000000E+00  0.00000000E+00  0.00000000E+00  0.00000000E+00
  0.00000000E+00  0.00000000E+00  0.00000000E+00  0.00000000E+00  0.00000000E+00
  0.00000000E+00  0.00000000E+00  0.00000000E+00  0.00000000E+00  0.00000000E+00
  0.00000000E+00  0.00000000E+00  0.00000000E+00  0.00000000E+00  0.00000000E+00
  0.00000000E+00  0.00000000E+00  0.00000000E+00  0.00000000E+00  0.00000000E+00
  0.00000000E+00  0.00000000E+00  0.00000000E+00  0.00000000E+00  0.00000000E+00
  0.00000000E+00  0.00000000E+00  0.00000000E+00  0.00000000E+00  0.00000000E+00
  0.00000000E+00  0.00000000E+00  0.00000000E+00  0.00000000E+00  0.00000000E+00
  0.00000000E+00  0.00000000E+00  0.00000000E+00  0.00000000E+00  0.00000000E+00
  0.00000000E+00  0.00000000E+00  0.00000000E+00  0.00000000E+00  0.00000000E+00
  0.00000000E+00  0.00000000E+00  0.00000000E+00  0.00000000E+00  0.00000000E+00
  0.00000000E+00
Coordinates of each shell                  R   N=         210
 -1.04233496E+00  1.65707652E-01 -9.25695074E-02 -1.04233496E+00  1.65707652E-01
 -9.25695074E-02 -1.04233496E+00  1.65707652E-01 -9.25695074E-02 -1.04233496E+00
  1.65707652E-01 -9.25695074E-02 -1.04233496E+00  1.65707652E-01 -9.25695074E-02
 -1.04233496E+00  1.65707652E-01 -9.25695074E-02 -1.10759594E+00 -2.67099990E+00
 -7.64899943E-02 -1.10759594E+00 -2.67099990E+00 -7.64899943E-02 -1.10759594E+00
 -2.67099990E+00 -7.64899943E-02 -1.10759594E+00 -2.67099990E+00 -7.64899943E-02
 -1.10759594E+00 -2.67099990E+00 -7.64899943E-02 -1.10759594E+00 -2.67099990E+00
 -7.64899943E-02 -3.05182854E+00  1.63283818E+00  2.66355656E-01 -3.05182854E+00
  1.63283818E+00  2.66355656E-01 -3.05182854E+00  1.63283818E+00  2.66355656E-01
 -3.05182854E+00  1.63283818E+00  2.66355656E-01 -3.05182854E+00  1.63283818E+00
  2.66355656E-01 -3.05182854E+00  1.63283818E+00  2.66355656E-01  1.22302852E+00
  1.28976346E+00 -6.50540111E-01  1.22302852E+00  1.28976346E+00 -6.50540111E-01
  1.22302852E+00  1.28976346E+00 -6.50540111E-01  1.22302852E+00  1.28976346E+00
 -6.50540111E-01  1.22302852E+00  1.28976346E+00 -6.50540111E-01  1.22302852E+00
  1.28976346E+00 -6.50540111E-01  3.42053849E+00  1.57391787E-01  3.68202700E-01
  3.42053849E+00  1.57391787E-01  3.68202700E-01  3.42053849E+00  1.57391787E-01
  3.68202700E-01  3.42053849E+00  1.57391787E-01  3.68202700E-01  3.42053849E+00
  1.57391787E-01  3.68202700E-01  3.42053849E+00  1.57391787E-01  3.68202700E-01
 -3.04713896E+00 -3.32074852E+00  1.41286772E-01 -3.04713896E+00 -3.32074852E+00
  1.41286772E-01 -3.04713896E+00 -3.32074852E+00  1.41286772E-01 -3.04713896E+00
 -3.32074852E+00  1.41286772E-01 -3.04713896E+00 -3.32074852E+00  1.41286772E-01
 -3.49504826E-01 -3.41975853E+00 -1.84743382E+00 -3.49504826E-01 -3.41975853E+00
 -1.84743382E+00 -3.49504826E-01 -3.41975853E+00 -1.84743382E+00 -3.49504826E-01
 -3.41975853E+00 -1.84743382E+00 -3.49504826E-01 -3.41975853E+00 -1.84743382E+00
  1.22826204E-02 -3.45587056E+00  1.47110462E+00  1.22826204E-02 -3.45587056E+00
  1.47110462E+00  1.22826204E-02 -3.45587056E+00  1.47110462E+00  1.22826204E-02
 -3.45587056E+00  1.47110462E+00  1.22826204E-02 -3.45587056E+00  1.47110462E+00
 -4.89788133E+00  8.09627782E-01  5.58865931E-01 -4.89788133E+00  8.09627782E-01
  5.58865931E-01 -4.89788133E+00  8.09627782E-01  5.58865931E-01 -4.89788133E+00
  8.09627782E-01  5.58865931E-01 -4.89788133E+00  8.09627782E-01  5.58865931E-01
 -2.86337173E+00  3.66787990E+00  2.20490481E-01 -2.86337173E+00  3.66787990E+00
  2.20490481E-01 -2.86337173E+00  3.66787990E+00  2.20490481E-01 -2.86337173E+00
  3.66787990E+00  2.20490481E-01 -2.86337173E+00  3.66787990E+00  2.20490481E-01
  3.76681211E+00 -1.71588618E+00 -4.34094458E-01  3.76681211E+00 -1.71588618E+00
 -4.34094458E-01  3.76681211E+00 -1.71588618E+00 -4.34094458E-01  3.76681211E+00
 -1.71588618E+00 -4.34094458E-01  3.76681211E+00 -1.71588618E+00 -4.34094458E-01
  4.98583699E+00  1.39517178E+00 -1.27692306E-01  4.98583699E+00  1.39517178E+00
 -1.27692306E-01  4.98583699E+00  1.39517178E+00 -1.27692306E-01  4.98583699E+00
  1.39517178E+00 -1.27692306E-01  4.98583699E+00  1.39517178E+00 -1.27692306E-01
  3.29606268E+00  1.18503173E-02  2.42880053E+00  3.29606268E+00  1.18503173E-02
  2.42880053E+00  3.29606268E+00  1.18503173E-02  2.42880053E+00  3.29606268E+00
  1.18503173E-02  2.42880053E+00  3.29606268E+00  1.18503173E-02  2.42880053E+00
Num ILSW                                   I              100
ILSW                                       I   N=         100
           0           0           0           0           2           0
           0           0           0           0        4336          -1
           5           0           0           0           2           0
           0           0           0           0           1           0
           1           0           0           0           0           0
           0           0      100000           0          -1           0
           0           0           0           0           0           0
           0           0           0           1           0           0
           0 -2000000000           1           0           0           0
           0           0           4          52           0           0
           0           0          55           0           0           0
           0           0           0          13           0           1
           0           0           0           0           0           0
           0           0           0           0           0           0
           0           0           0           0           0           0
           0           0           0           0           0           0
           0           0           0           0
Num RLSW                                   I               52
RLSW                                       R   N=          52
  1.00000000E+00  1.00000000E+00  1.00000000E+00  1.00000000E+00  5.40000000E-01
  0.00000000E+00  0.00000000E+00  1.00000000E+00  0.00000000E+00  0.00000000E+00
  0.00000000E+00  0.00000000E+00  1.00000000E+00  0.00000000E+00  0.00000000E+00
  0.00000000E+00  0.00000000E+00  1.00000000E+00  0.00000000E+00  0.00000000E+00
  0.00000000E+00  0.00000000E+00  1.00000000E+00  0.00000000E+00  0.00000000E+00
  0.00000000E+00  0.00000000E+00  1.00000000E+00  0.00000000E+00  0.00000000E+00
  0.00000000E+00  0.00000000E+00  1.00000000E+00  0.00000000E+00  0.00000000E+00
  0.00000000E+00  0.00000000E+00  0.00000000E+00  1.00000000E+00  1.00000000E+00
  0.00000000E+00  1.00000000E+00  0.00000000E+00  0.00000000E+00  0.00000000E+00
  0.00000000E+00  0.00000000E+00  0.00000000E+00  0.00000000E+00  0.00000000E+00
  0.00000000E+00  0.00000000E+00
MxBond                                     I                4
NBond                                      I   N=          13
           3           4           3           2           4           1
           1           1           1           1           1           1
           1
IBond                                      I   N=          52
           2           3           4           0           1           6
           7           8           1           9          10           0
           1           5           0           0           4          11
          12          13           2           0           0           0
           2           0           0           0           2           0
           0           0           3           0           0           0
           3           0           0           0           5           0
           0           0           5           0           0           0
           5           0           0           0
RBond                                      R   N=          52
  1.00000000E+00  2.00000000E+00  1.00000000E+00  0.00000000E+00  1.00000000E+00
  1.00000000E+00  1.00000000E+00  1.00000000E+00  2.00000000E+00  1.00000000E+00
  1.00000000E+00  0.00000000E+00  1.00000000E+00  1.00000000E+00  0.00000000E+00
  0.00000000E+00  1.00000000E+00  1.00000000E+00  1.00000000E+00  1.00000000E+00
  1.00000000E+00  0.00000000E+00  0.00000000E+00  0.00000000E+00  1.00000000E+00
  0.00000000E+00  0.00000000E+00  0.00000000E+00  1.00000000E+00  0.00000000E+00
  0.00000000E+00  0.00000000E+00  1.00000000E+00  0.00000000E+00  0.00000000E+00
  0.00000000E+00  1.00000000E+00  0.00000000E+00  0.00000000E+00  0.00000000E+00
  1.00000000E+00  0.00000000E+00  0.00000000E+00  0.00000000E+00  1.00000000E+00
  0.00000000E+00  0.00000000E+00  0.00000000E+00  1.00000000E+00  0.00000000E+00
  0.00000000E+00  0.00000000E+00
Virial Ratio                               R      2.003920985916319E+00
SCF Energy                                 R     -2.323845215596293E+02
Total Energy                               R     -2.323845215596293E+02
RMS Force                                  R      2.778934430777641E-05
RMS Density                                R      2.232020544438902E-09
NImag                                      I                0