 Entering Gaussian System, Link 0=/apps/cent7/gaussian/g16-A.03/g16-haswell/g16/g16
 Initial command:
 /apps/cent7/gaussian/g16-A.03/g16-haswell/g16/l1.exe "/scratch/brown/finej/gaussian/Gau-197947.inp" -scrdir="/scratch/brown/finej/gaussian/"
 Entering Link 1 = /apps/cent7/gaussian/g16-A.03/g16-haswell/g16/l1.exe PID=    197949.
  
 Copyright (c) 1988,1990,1992,1993,1995,1998,2003,2009,2016,
            Gaussian, Inc.  All Rights Reserved.
  
 This is part of the Gaussian(R) 16 program.  It is based on
 the Gaussian(R) 09 system (copyright 2009, Gaussian, Inc.),
 the Gaussian(R) 03 system (copyright 2003, Gaussian, Inc.),
 the Gaussian(R) 98 system (copyright 1998, Gaussian, Inc.),
 the Gaussian(R) 94 system (copyright 1995, Gaussian, Inc.),
 the Gaussian 92(TM) system (copyright 1992, Gaussian, Inc.),
 the Gaussian 90(TM) system (copyright 1990, Gaussian, Inc.),
 the Gaussian 88(TM) system (copyright 1988, Gaussian, Inc.),
 the Gaussian 86(TM) system (copyright 1986, Carnegie Mellon
 University), and the Gaussian 82(TM) system (copyright 1983,
 Carnegie Mellon University). Gaussian is a federally registered
 trademark of Gaussian, Inc.
  
 This software contains proprietary and confidential information,
 including trade secrets, belonging to Gaussian, Inc.
  
 This software is provided under written license and may be
 used, copied, transmitted, or stored only in accord with that
 written license.
  
 The following legend is applicable only to US Government
 contracts under FAR:
  
                    RESTRICTED RIGHTS LEGEND
  
 Use, reproduction and disclosure by the US Government is
 subject to restrictions as set forth in subparagraphs (a)
 and (c) of the Commercial Computer Software - Restricted
 Rights clause in FAR 52.227-19.
  
 Gaussian, Inc.
 340 Quinnipiac St., Bldg. 40, Wallingford CT 06492
  
  
 ---------------------------------------------------------------
 Warning -- This program may not be used in any manner that
 competes with the business of Gaussian, Inc. or will provide
 assistance to any competitor of Gaussian, Inc.  The licensee
 of this program is prohibited from giving any competitor of
 Gaussian, Inc. access to this program.  By using this program,
 the user acknowledges that Gaussian, Inc. is engaged in the
 business of creating and licensing software in the field of
 computational chemistry and represents and warrants to the
 licensee that it is not a competitor of Gaussian, Inc. and that
 it will not use this program in any manner prohibited above.
 ---------------------------------------------------------------
  

 Cite this work as:
 Gaussian 16, Revision A.03,
 M. J. Frisch, G. W. Trucks, H. B. Schlegel, G. E. Scuseria, 
 M. A. Robb, J. R. Cheeseman, G. Scalmani, V. Barone, 
 G. A. Petersson, H. Nakatsuji, X. Li, M. Caricato, A. V. Marenich, 
 J. Bloino, B. G. Janesko, R. Gomperts, B. Mennucci, H. P. Hratchian, 
 J. V. Ortiz, A. F. Izmaylov, J. L. Sonnenberg, D. Williams-Young, 
 F. Ding, F. Lipparini, F. Egidi, J. Goings, B. Peng, A. Petrone, 
 T. Henderson, D. Ranasinghe, V. G. Zakrzewski, J. Gao, N. Rega, 
 G. Zheng, W. Liang, M. Hada, M. Ehara, K. Toyota, R. Fukuda, 
 J. Hasegawa, M. Ishida, T. Nakajima, Y. Honda, O. Kitao, H. Nakai, 
 T. Vreven, K. Throssell, J. A. Montgomery, Jr., J. E. Peralta, 
 F. Ogliaro, M. J. Bearpark, J. J. Heyd, E. N. Brothers, K. N. Kudin, 
 V. N. Staroverov, T. A. Keith, R. Kobayashi, J. Normand, 
 K. Raghavachari, A. P. Rendell, J. C. Burant, S. S. Iyengar, 
 J. Tomasi, M. Cossi, J. M. Millam, M. Klene, C. Adamo, R. Cammi, 
 J. W. Ochterski, R. L. Martin, K. Morokuma, O. Farkas, 
 J. B. Foresman, and D. J. Fox, Gaussian, Inc., Wallingford CT, 2016.
 
 ******************************************
 Gaussian 16:  ES64L-G16RevA.03 25-Dec-2016
                14-Oct-2019 
 ******************************************
 %nprocshared=24
 Will use up to   24 processors via shared memory.
 %mem=10GB
 %chk=mop.chk
 -------------------------------------------------------------------
 #P opt freq m062x/6-311++g(d,p) geom=connectivity temperature=0.001
 -------------------------------------------------------------------
 1/18=20,19=15,26=3,38=1,57=2,112=-1000/1,3;
 2/9=110,12=2,17=6,18=5,40=1/2;
 3/5=4,6=6,7=1111,11=2,25=1,30=1,71=1,74=-55/1,2,3;
 4//1;
 5/5=2,38=5/2;
 6/7=2,8=2,9=2,10=2,28=1/1;
 7//1,2,3,16;
 1/18=20,19=15,26=3/3(2);
 2/9=110/2;
 99//99;
 2/9=110/2;
 3/5=4,6=6,7=1111,11=2,25=1,30=1,71=1,74=-55/1,2,3;
 4/5=5,16=3,69=1/1;
 5/5=2,38=5/2;
 7//1,2,3,16;
 1/18=20,19=15,26=3/3(-5);
 2/9=110/2;
 6/7=2,8=2,9=2,10=2,19=2,28=1/1;
 99/9=1/99;
 Leave Link    1 at Mon Oct 14 01:54:36 2019, MaxMem=  1342177280 cpu:               0.9 elap:               0.0
 (Enter /apps/cent7/gaussian/g16-A.03/g16-haswell/g16/l101.exe)
 ---
 MOP
 ---
 Symbolic Z-matrix:
 Charge =  0 Multiplicity = 1
 C                     0.47094  -1.02444  -0.65493 
 C                     1.31227  -2.31267  -0.7199 
 C                     1.08349   0.18397  -0.62192 
 O                    -0.95665  -1.10334  -0.62942 
 C                    -1.45937  -1.07924  -1.96792 
 H                     2.24872  -2.15229  -0.22772 
 H                     0.78563  -3.10749  -0.23429 
 H                     1.48703  -2.57332  -1.74285 
 H                     2.15169   0.24301  -0.64101 
 H                     0.49892   1.07904  -0.57678 
 H                    -1.06578  -1.91242  -2.5118 
 H                    -2.52757  -1.13828  -1.94883 
 H                    -1.16093  -0.169    -2.44467 
 
 ITRead=  0  0  0  0  0  0  0  0  0  0  0  0  0
 MicOpt= -1 -1 -1 -1 -1 -1 -1 -1 -1 -1 -1 -1 -1
 NAtoms=     13 NQM=       13 NQMF=       0 NMMI=      0 NMMIF=      0
                NMic=       0 NMicF=      0.
                    Isotopes and Nuclear Properties:
 (Nuclear quadrupole moments (NQMom) in fm**2, nuclear magnetic moments (NMagM)
  in nuclear magnetons)

  Atom         1           2           3           4           5           6           7           8           9          10
 IAtWgt=          12          12          12          16          12           1           1           1           1           1
 AtmWgt=  12.0000000  12.0000000  12.0000000  15.9949146  12.0000000   1.0078250   1.0078250   1.0078250   1.0078250   1.0078250
 NucSpn=           0           0           0           0           0           1           1           1           1           1
 AtZEff=  -0.0000000  -0.0000000  -0.0000000  -0.0000000  -0.0000000  -0.0000000  -0.0000000  -0.0000000  -0.0000000  -0.0000000
 NQMom=    0.0000000   0.0000000   0.0000000   0.0000000   0.0000000   0.0000000   0.0000000   0.0000000   0.0000000   0.0000000
 NMagM=    0.0000000   0.0000000   0.0000000   0.0000000   0.0000000   2.7928460   2.7928460   2.7928460   2.7928460   2.7928460
 AtZNuc=   6.0000000   6.0000000   6.0000000   8.0000000   6.0000000   1.0000000   1.0000000   1.0000000   1.0000000   1.0000000

  Atom        11          12          13
 IAtWgt=           1           1           1
 AtmWgt=   1.0078250   1.0078250   1.0078250
 NucSpn=           1           1           1
 AtZEff=  -0.0000000  -0.0000000  -0.0000000
 NQMom=    0.0000000   0.0000000   0.0000000
 NMagM=    2.7928460   2.7928460   2.7928460
 AtZNuc=   1.0000000   1.0000000   1.0000000
 Leave Link  101 at Mon Oct 14 01:54:36 2019, MaxMem=  1342177280 cpu:               5.4 elap:               0.2
 (Enter /apps/cent7/gaussian/g16-A.03/g16-haswell/g16/l103.exe)

 GradGradGradGradGradGradGradGradGradGradGradGradGradGradGradGradGradGrad
 Berny optimization.
 Initialization pass.
                           ----------------------------
                           !    Initial Parameters    !
                           ! (Angstroms and Degrees)  !
 --------------------------                            --------------------------
 ! Name  Definition              Value          Derivative Info.                !
 --------------------------------------------------------------------------------
 ! R1    R(1,2)                  1.54           estimate D2E/DX2                !
 ! R2    R(1,3)                  1.3552         estimate D2E/DX2                !
 ! R3    R(1,4)                  1.43           estimate D2E/DX2                !
 ! R4    R(2,6)                  1.07           estimate D2E/DX2                !
 ! R5    R(2,7)                  1.07           estimate D2E/DX2                !
 ! R6    R(2,8)                  1.07           estimate D2E/DX2                !
 ! R7    R(3,9)                  1.07           estimate D2E/DX2                !
 ! R8    R(3,10)                 1.07           estimate D2E/DX2                !
 ! R9    R(4,5)                  1.43           estimate D2E/DX2                !
 ! R10   R(5,11)                 1.07           estimate D2E/DX2                !
 ! R11   R(5,12)                 1.07           estimate D2E/DX2                !
 ! R12   R(5,13)                 1.07           estimate D2E/DX2                !
 ! A1    A(2,1,3)              120.0            estimate D2E/DX2                !
 ! A2    A(2,1,4)              120.0            estimate D2E/DX2                !
 ! A3    A(3,1,4)              120.0            estimate D2E/DX2                !
 ! A4    A(1,2,6)              109.4712         estimate D2E/DX2                !
 ! A5    A(1,2,7)              109.4712         estimate D2E/DX2                !
 ! A6    A(1,2,8)              109.4712         estimate D2E/DX2                !
 ! A7    A(6,2,7)              109.4712         estimate D2E/DX2                !
 ! A8    A(6,2,8)              109.4712         estimate D2E/DX2                !
 ! A9    A(7,2,8)              109.4712         estimate D2E/DX2                !
 ! A10   A(1,3,9)              120.0            estimate D2E/DX2                !
 ! A11   A(1,3,10)             120.0            estimate D2E/DX2                !
 ! A12   A(9,3,10)             120.0            estimate D2E/DX2                !
 ! A13   A(1,4,5)              109.4712         estimate D2E/DX2                !
 ! A14   A(4,5,11)             109.4712         estimate D2E/DX2                !
 ! A15   A(4,5,12)             109.4712         estimate D2E/DX2                !
 ! A16   A(4,5,13)             109.4712         estimate D2E/DX2                !
 ! A17   A(11,5,12)            109.4712         estimate D2E/DX2                !
 ! A18   A(11,5,13)            109.4712         estimate D2E/DX2                !
 ! A19   A(12,5,13)            109.4712         estimate D2E/DX2                !
 ! D1    D(3,1,2,6)             30.0            estimate D2E/DX2                !
 ! D2    D(3,1,2,7)            150.0            estimate D2E/DX2                !
 ! D3    D(3,1,2,8)            -90.0            estimate D2E/DX2                !
 ! D4    D(4,1,2,6)           -150.0            estimate D2E/DX2                !
 ! D5    D(4,1,2,7)            -30.0            estimate D2E/DX2                !
 ! D6    D(4,1,2,8)             90.0            estimate D2E/DX2                !
 ! D7    D(2,1,3,9)             -0.0002         estimate D2E/DX2                !
 ! D8    D(2,1,3,10)           179.9998         estimate D2E/DX2                !
 ! D9    D(4,1,3,9)            179.9998         estimate D2E/DX2                !
 ! D10   D(4,1,3,10)            -0.0002         estimate D2E/DX2                !
 ! D11   D(2,1,4,5)            -90.0            estimate D2E/DX2                !
 ! D12   D(3,1,4,5)             90.0            estimate D2E/DX2                !
 ! D13   D(1,4,5,11)            60.0            estimate D2E/DX2                !
 ! D14   D(1,4,5,12)           180.0            estimate D2E/DX2                !
 ! D15   D(1,4,5,13)           -60.0            estimate D2E/DX2                !
 --------------------------------------------------------------------------------
 Trust Radius=3.00D-01 FncErr=1.00D-07 GrdErr=1.00D-06 EigMax=2.50D+02 EigMin=1.00D-04
 Number of steps in this run=     56 maximum allowed number of steps=    100.
 GradGradGradGradGradGradGradGradGradGradGradGradGradGradGradGradGradGrad

 Leave Link  103 at Mon Oct 14 01:54:36 2019, MaxMem=  1342177280 cpu:               0.3 elap:               0.0
 (Enter /apps/cent7/gaussian/g16-A.03/g16-haswell/g16/l202.exe)
                          Input orientation:                          
 ---------------------------------------------------------------------
 Center     Atomic      Atomic             Coordinates (Angstroms)
 Number     Number       Type             X           Y           Z
 ---------------------------------------------------------------------
      1          6           0        0.470940   -1.024444   -0.654927
      2          6           0        1.312274   -2.312674   -0.719902
      3          6           0        1.083487    0.183970   -0.621925
      4          8           0       -0.956653   -1.103343   -0.629417
      5          6           0       -1.459373   -1.079242   -1.967921
      6          1           0        2.248718   -2.152287   -0.227715
      7          1           0        0.785633   -3.107486   -0.234286
      8          1           0        1.487033   -2.573318   -1.742851
      9          1           0        2.151687    0.243006   -0.641010
     10          1           0        0.498924    1.079039   -0.576783
     11          1           0       -1.065777   -1.912416   -2.511799
     12          1           0       -2.527573   -1.138278   -1.948833
     13          1           0       -1.160931   -0.168998   -2.444669
 ---------------------------------------------------------------------
                    Distance matrix (angstroms):
                    1          2          3          4          5
     1  C    0.000000
     2  C    1.540000   0.000000
     3  C    1.355200   2.509019   0.000000
     4  O    1.430000   2.572683   2.412344   0.000000
     5  C    2.335180   3.280386   3.142220   1.430000   0.000000
     6  H    2.148263   1.070000   2.640315   3.396477   4.234346
     7  H    2.148263   1.070000   3.327561   2.684824   3.487021
     8  H    2.148263   1.070000   3.003658   3.061399   3.311228
     9  H    2.105120   2.691159   1.070000   3.387413   4.068020
    10  H    2.105120   3.490808   1.070000   2.623789   3.229299
    11  H    2.568651   3.004368   3.547646   2.051796   1.070000
    12  H    3.267757   4.199274   4.068019   2.051796   1.070000
    13  H    2.568651   3.699582   2.912798   2.051796   1.070000
                    6          7          8          9         10
     6  H    0.000000
     7  H    1.747303   0.000000
     8  H    1.747303   1.747303   0.000000
     9  H    2.432624   3.641061   3.096369   0.000000
    10  H    3.691219   4.210285   3.959266   1.853294   0.000000
    11  H    4.032425   3.169065   2.746801   4.300903   3.891192
    12  H    5.177202   4.218386   4.268353   5.051120   3.994834
    13  H    4.524823   4.160482   3.644862   3.794255   2.793155
                   11         12         13
    11  H    0.000000
    12  H    1.747303   0.000000
    13  H    1.747303   1.747303   0.000000
 Stoichiometry    C4H8O
 Framework group  C1[X(C4H8O)]
 Deg. of freedom    33
 Full point group                 C1      NOp   1
 Largest Abelian subgroup         C1      NOp   1
 Largest concise Abelian subgroup C1      NOp   1
                         Standard orientation:                         
 ---------------------------------------------------------------------
 Center     Atomic      Atomic             Coordinates (Angstroms)
 Number     Number       Type             X           Y           Z
 ---------------------------------------------------------------------
      1          6           0       -0.470606    0.128755   -0.158216
      2          6           0       -1.344919   -1.114141    0.091556
      3          6           0       -0.950878    1.363490    0.126980
      4          8           0        0.848037   -0.020012   -0.691085
      5          6           0        1.782048   -0.166120    0.381844
      6          1           0       -2.376283   -0.853847   -0.024352
      7          1           0       -1.088522   -1.877928   -0.612568
      8          1           0       -1.177428   -1.474218    1.085131
      9          1           0       -1.937556    1.474805    0.525697
     10          1           0       -0.343400    2.227060   -0.046560
     11          1           0        1.530537   -1.031782    0.958274
     12          1           0        2.768725   -0.277435   -0.016876
     13          1           0        1.745759    0.701532    1.006954
 ---------------------------------------------------------------------
 Rotational constants (GHZ):           7.5814677           4.0808550           3.0962334
 Leave Link  202 at Mon Oct 14 01:54:36 2019, MaxMem=  1342177280 cpu:               0.3 elap:               0.0
 (Enter /apps/cent7/gaussian/g16-A.03/g16-haswell/g16/l301.exe)
 Standard basis: 6-311++G(d,p) (5D, 7F)
 Ernie: Thresh=  0.10000D-02 Tol=  0.10000D-05 Strict=F.
 There are   171 symmetry adapted cartesian basis functions of A   symmetry.
 There are   166 symmetry adapted basis functions of A   symmetry.
   166 basis functions,   252 primitive gaussians,   171 cartesian basis functions
    20 alpha electrons       20 beta electrons
       nuclear repulsion energy       178.0871446380 Hartrees.
 IExCor= 4336 DFT=T Ex+Corr=M062X ExCW=0 ScaHFX=  0.540000
 ScaDFX=  1.000000  1.000000  1.000000  1.000000 ScalE2=  1.000000  1.000000
 IRadAn=      5 IRanWt=     -1 IRanGd=            0 ICorTp=0 IEmpDi=  4
 NAtoms=   13 NActive=   13 NUniq=   13 SFac= 1.00D+00 NAtFMM=   60 NAOKFM=F Big=F
 Integral buffers will be    131072 words long.
 Raffenetti 2 integral format.
 Two-electron integral symmetry is turned on.
 Leave Link  301 at Mon Oct 14 01:54:36 2019, MaxMem=  1342177280 cpu:               1.3 elap:               0.1
 (Enter /apps/cent7/gaussian/g16-A.03/g16-haswell/g16/l302.exe)
 NPDir=0 NMtPBC=     1 NCelOv=     1 NCel=       1 NClECP=     1 NCelD=      1
         NCelK=      1 NCelE2=     1 NClLst=     1 CellRange=     0.0.
 One-electron integrals computed using PRISM.
 One-electron integral symmetry used in STVInt
 NBasis=   166 RedAO= T EigKep=  3.78D-05  NBF=   166
 NBsUse=   166 1.00D-06 EigRej= -1.00D+00 NBFU=   166
 Precomputing XC quadrature grid using
 IXCGrd= 4 IRadAn=           5 IRanWt=          -1 IRanGd=           0 AccXCQ= 0.00D+00.
 Generated NRdTot=       0 NPtTot=           0 NUsed=           0 NTot=          32
 NSgBfM=   171   171   171   171   171 MxSgAt=    13 MxSgA2=    13.
 Leave Link  302 at Mon Oct 14 01:54:36 2019, MaxMem=  1342177280 cpu:               3.7 elap:               0.2
 (Enter /apps/cent7/gaussian/g16-A.03/g16-haswell/g16/l303.exe)
 DipDrv:  MaxL=1.
 Leave Link  303 at Mon Oct 14 01:54:36 2019, MaxMem=  1342177280 cpu:               0.7 elap:               0.1
 (Enter /apps/cent7/gaussian/g16-A.03/g16-haswell/g16/l401.exe)
 ExpMin= 3.60D-02 ExpMax= 8.59D+03 ExpMxC= 1.30D+03 IAcc=3 IRadAn=         5 AccDes= 0.00D+00
 Harris functional with IExCor= 1009 and IRadAn=       5 diagonalized for initial guess.
 HarFok:  IExCor= 1009 AccDes= 0.00D+00 IRadAn=         5 IDoV= 1 UseB2=F ITyADJ=14
 ICtDFT=  3500011 ScaDFX=  1.000000  1.000000  1.000000  1.000000
 FoFCou: FMM=F IPFlag=           0 FMFlag=      100000 FMFlg1=           0
         NFxFlg=           0 DoJE=T BraDBF=F KetDBF=T FulRan=T
         wScrn=  0.000000 ICntrl=       500 IOpCl=  0 I1Cent=   200000004 NGrid=           0
         NMat0=    1 NMatS0=      1 NMatT0=    0 NMatD0=    1 NMtDS0=    0 NMtDT0=    0
 Petite list used in FoFCou.
 Harris En= -232.322472762895    
 JPrj=0 DoOrth=F DoCkMO=F.
 Leave Link  401 at Mon Oct 14 01:54:37 2019, MaxMem=  1342177280 cpu:               6.8 elap:               0.3
 (Enter /apps/cent7/gaussian/g16-A.03/g16-haswell/g16/l502.exe)
 Integral symmetry usage will be decided dynamically.
 Closed shell SCF:
 Using DIIS extrapolation, IDIIS=  1040.
 NGot=  1342177280 LenX=  1342112857 LenY=  1342083175
 Requested convergence on RMS density matrix=1.00D-08 within 128 cycles.
 Requested convergence on MAX density matrix=1.00D-06.
 Requested convergence on             energy=1.00D-06.
 No special actions if energy rises.
 Fock matrices will be formed incrementally for  20 cycles.

 Cycle   1  Pass 1  IDiag  1:
 FoFJK:  IHMeth= 1 ICntrl=       0 DoSepK=F KAlg= 0 I1Cent=           0 FoldK=F
 IRaf= 990000000 NMat=       1 IRICut=       1 DoRegI=T DoRafI=F ISym2E= 0 IDoP0=0 IntGTp=1.
 FoFCou: FMM=F IPFlag=           0 FMFlag=      100000 FMFlg1=           0
         NFxFlg=           0 DoJE=F BraDBF=F KetDBF=F FulRan=T
         wScrn=  0.000000 ICntrl=         0 IOpCl=  0 I1Cent=           0 NGrid=           0
         NMat0=    1 NMatS0=      1 NMatT0=    0 NMatD0=    1 NMtDS0=    0 NMtDT0=    0
 Symmetry not used in FoFCou.
 E= -232.186503712697    
 DIIS: error= 2.83D-02 at cycle   1 NSaved=   1.
 NSaved= 1 IEnMin= 1 EnMin= -232.186503712697     IErMin= 1 ErrMin= 2.83D-02
 ErrMax= 2.83D-02  0.00D+00 EMaxC= 1.00D-01 BMatC= 2.21D-01 BMatP= 2.21D-01
 IDIUse=3 WtCom= 7.17D-01 WtEn= 2.83D-01
 Coeff-Com:  0.100D+01
 Coeff-En:   0.100D+01
 Coeff:      0.100D+01
 Gap=     0.331 Goal=   None    Shift=    0.000
 GapD=    0.331 DampG=1.000 DampE=0.500 DampFc=0.5000 IDamp=-1.
 Damping current iteration by 5.00D-01
 RMSDP=4.31D-03 MaxDP=1.12D-01              OVMax= 1.96D-01

 Cycle   2  Pass 1  IDiag  1:
 RMSU=  2.14D-03    CP:  9.84D-01
 E= -232.285435061013     Delta-E=       -0.098931348316 Rises=F Damp=T
 DIIS: error= 7.13D-03 at cycle   2 NSaved=   2.
 NSaved= 2 IEnMin= 2 EnMin= -232.285435061013     IErMin= 2 ErrMin= 7.13D-03
 ErrMax= 7.13D-03  0.00D+00 EMaxC= 1.00D-01 BMatC= 1.42D-02 BMatP= 2.21D-01
 IDIUse=3 WtCom= 9.29D-01 WtEn= 7.13D-02
 Coeff-Com: -0.152D+00 0.115D+01
 Coeff-En:   0.000D+00 0.100D+01
 Coeff:     -0.141D+00 0.114D+01
 Gap=     0.298 Goal=   None    Shift=    0.000
 RMSDP=1.60D-03 MaxDP=4.25D-02 DE=-9.89D-02 OVMax= 1.11D-01

 Cycle   3  Pass 1  IDiag  1:
 RMSU=  1.42D-03    CP:  9.55D-01  1.26D+00
 E= -232.369930504887     Delta-E=       -0.084495443874 Rises=F Damp=F
 DIIS: error= 4.50D-03 at cycle   3 NSaved=   3.
 NSaved= 3 IEnMin= 3 EnMin= -232.369930504887     IErMin= 3 ErrMin= 4.50D-03
 ErrMax= 4.50D-03  0.00D+00 EMaxC= 1.00D-01 BMatC= 2.60D-03 BMatP= 1.42D-02
 IDIUse=3 WtCom= 9.55D-01 WtEn= 4.50D-02
 Coeff-Com: -0.769D-01 0.343D+00 0.734D+00
 Coeff-En:   0.000D+00 0.000D+00 0.100D+01
 Coeff:     -0.734D-01 0.328D+00 0.746D+00
 Gap=     0.306 Goal=   None    Shift=    0.000
 RMSDP=4.24D-04 MaxDP=1.48D-02 DE=-8.45D-02 OVMax= 3.96D-02

 Cycle   4  Pass 1  IDiag  1:
 RMSU=  4.17D-04    CP:  9.50D-01  1.27D+00  9.90D-01
 E= -232.371354390123     Delta-E=       -0.001423885235 Rises=F Damp=F
 DIIS: error= 2.53D-03 at cycle   4 NSaved=   4.
 NSaved= 4 IEnMin= 4 EnMin= -232.371354390123     IErMin= 4 ErrMin= 2.53D-03
 ErrMax= 2.53D-03  0.00D+00 EMaxC= 1.00D-01 BMatC= 1.11D-03 BMatP= 2.60D-03
 IDIUse=3 WtCom= 9.75D-01 WtEn= 2.53D-02
 Coeff-Com: -0.202D-01 0.588D-01 0.418D+00 0.544D+00
 Coeff-En:   0.000D+00 0.000D+00 0.312D+00 0.688D+00
 Coeff:     -0.197D-01 0.573D-01 0.415D+00 0.547D+00
 Gap=     0.303 Goal=   None    Shift=    0.000
 RMSDP=2.01D-04 MaxDP=8.03D-03 DE=-1.42D-03 OVMax= 1.45D-02

 Cycle   5  Pass 1  IDiag  1:
 RMSU=  1.40D-04    CP:  9.46D-01  1.28D+00  1.02D+00  7.24D-01
 E= -232.372430249317     Delta-E=       -0.001075859195 Rises=F Damp=F
 DIIS: error= 2.01D-04 at cycle   5 NSaved=   5.
 NSaved= 5 IEnMin= 5 EnMin= -232.372430249317     IErMin= 5 ErrMin= 2.01D-04
 ErrMax= 2.01D-04  0.00D+00 EMaxC= 1.00D-01 BMatC= 6.89D-06 BMatP= 1.11D-03
 IDIUse=3 WtCom= 9.98D-01 WtEn= 2.01D-03
 Coeff-Com: -0.146D-02 0.271D-02 0.918D-01 0.142D+00 0.765D+00
 Coeff-En:   0.000D+00 0.000D+00 0.000D+00 0.000D+00 0.100D+01
 Coeff:     -0.146D-02 0.270D-02 0.916D-01 0.142D+00 0.765D+00
 Gap=     0.303 Goal=   None    Shift=    0.000
 RMSDP=2.61D-05 MaxDP=1.52D-03 DE=-1.08D-03 OVMax= 1.07D-03

 Cycle   6  Pass 1  IDiag  1:
 RMSU=  2.24D-05    CP:  9.46D-01  1.28D+00  1.02D+00  7.32D-01  9.19D-01
 E= -232.372435345209     Delta-E=       -0.000005095891 Rises=F Damp=F
 DIIS: error= 9.20D-05 at cycle   6 NSaved=   6.
 NSaved= 6 IEnMin= 6 EnMin= -232.372435345209     IErMin= 6 ErrMin= 9.20D-05
 ErrMax= 9.20D-05  0.00D+00 EMaxC= 1.00D-01 BMatC= 1.48D-06 BMatP= 6.89D-06
 IDIUse=1 WtCom= 1.00D+00 WtEn= 0.00D+00
 Coeff-Com:  0.666D-03-0.253D-02 0.221D-01 0.354D-01 0.356D+00 0.589D+00
 Coeff:      0.666D-03-0.253D-02 0.221D-01 0.354D-01 0.356D+00 0.589D+00
 Gap=     0.303 Goal=   None    Shift=    0.000
 RMSDP=7.98D-06 MaxDP=1.91D-04 DE=-5.10D-06 OVMax= 2.33D-04

 Cycle   7  Pass 1  IDiag  1:
 RMSU=  7.67D-06    CP:  9.46D-01  1.28D+00  1.03D+00  7.33D-01  9.19D-01
                    CP:  1.03D+00
 E= -232.372436406949     Delta-E=       -0.000001061740 Rises=F Damp=F
 DIIS: error= 3.43D-05 at cycle   7 NSaved=   7.
 NSaved= 7 IEnMin= 7 EnMin= -232.372436406949     IErMin= 7 ErrMin= 3.43D-05
 ErrMax= 3.43D-05  0.00D+00 EMaxC= 1.00D-01 BMatC= 1.22D-07 BMatP= 1.48D-06
 IDIUse=1 WtCom= 1.00D+00 WtEn= 0.00D+00
 Coeff-Com:  0.685D-03-0.166D-02-0.845D-02-0.158D-01-0.933D-02 0.192D+00
 Coeff-Com:  0.843D+00
 Coeff:      0.685D-03-0.166D-02-0.845D-02-0.158D-01-0.933D-02 0.192D+00
 Coeff:      0.843D+00
 Gap=     0.303 Goal=   None    Shift=    0.000
 RMSDP=4.87D-06 MaxDP=2.75D-04 DE=-1.06D-06 OVMax= 1.13D-04

 Cycle   8  Pass 1  IDiag  1:
 RMSU=  2.58D-06    CP:  9.46D-01  1.28D+00  1.03D+00  7.36D-01  9.37D-01
                    CP:  1.09D+00  9.90D-01
 E= -232.372436514094     Delta-E=       -0.000000107145 Rises=F Damp=F
 DIIS: error= 6.65D-06 at cycle   8 NSaved=   8.
 NSaved= 8 IEnMin= 8 EnMin= -232.372436514094     IErMin= 8 ErrMin= 6.65D-06
 ErrMax= 6.65D-06  0.00D+00 EMaxC= 1.00D-01 BMatC= 9.68D-09 BMatP= 1.22D-07
 IDIUse=1 WtCom= 1.00D+00 WtEn= 0.00D+00
 Coeff-Com:  0.200D-03-0.457D-03-0.393D-02-0.783D-02-0.229D-01 0.233D-01
 Coeff-Com:  0.299D+00 0.712D+00
 Coeff:      0.200D-03-0.457D-03-0.393D-02-0.783D-02-0.229D-01 0.233D-01
 Coeff:      0.299D+00 0.712D+00
 Gap=     0.303 Goal=   None    Shift=    0.000
 RMSDP=1.35D-06 MaxDP=6.30D-05 DE=-1.07D-07 OVMax= 2.98D-05

 Cycle   9  Pass 1  IDiag  1:
 RMSU=  7.97D-07    CP:  9.46D-01  1.28D+00  1.03D+00  7.35D-01  9.36D-01
                    CP:  1.11D+00  1.03D+00  8.84D-01
 E= -232.372436523419     Delta-E=       -0.000000009325 Rises=F Damp=F
 DIIS: error= 1.57D-06 at cycle   9 NSaved=   9.
 NSaved= 9 IEnMin= 9 EnMin= -232.372436523419     IErMin= 9 ErrMin= 1.57D-06
 ErrMax= 1.57D-06  0.00D+00 EMaxC= 1.00D-01 BMatC= 6.74D-10 BMatP= 9.68D-09
 IDIUse=1 WtCom= 1.00D+00 WtEn= 0.00D+00
 Coeff-Com: -0.892D-05 0.246D-04-0.210D-03-0.873D-03-0.459D-02-0.120D-01
 Coeff-Com:  0.245D-02 0.189D+00 0.827D+00
 Coeff:     -0.892D-05 0.246D-04-0.210D-03-0.873D-03-0.459D-02-0.120D-01
 Coeff:      0.245D-02 0.189D+00 0.827D+00
 Gap=     0.303 Goal=   None    Shift=    0.000
 RMSDP=3.21D-07 MaxDP=8.99D-06 DE=-9.33D-09 OVMax= 8.52D-06

 Cycle  10  Pass 1  IDiag  1:
 RMSU=  2.08D-07    CP:  9.46D-01  1.28D+00  1.03D+00  7.35D-01  9.35D-01
                    CP:  1.12D+00  1.04D+00  9.22D-01  1.10D+00
 E= -232.372436524164     Delta-E=       -0.000000000745 Rises=F Damp=F
 DIIS: error= 5.60D-07 at cycle  10 NSaved=  10.
 NSaved=10 IEnMin=10 EnMin= -232.372436524164     IErMin=10 ErrMin= 5.60D-07
 ErrMax= 5.60D-07  0.00D+00 EMaxC= 1.00D-01 BMatC= 4.94D-11 BMatP= 6.74D-10
 IDIUse=1 WtCom= 1.00D+00 WtEn= 0.00D+00
 Coeff-Com: -0.166D-04 0.382D-04 0.294D-03 0.375D-03 0.971D-03-0.462D-02
 Coeff-Com: -0.255D-01-0.982D-02 0.212D+00 0.826D+00
 Coeff:     -0.166D-04 0.382D-04 0.294D-03 0.375D-03 0.971D-03-0.462D-02
 Coeff:     -0.255D-01-0.982D-02 0.212D+00 0.826D+00
 Gap=     0.303 Goal=   None    Shift=    0.000
 RMSDP=9.36D-08 MaxDP=2.07D-06 DE=-7.45D-10 OVMax= 2.90D-06

 Cycle  11  Pass 1  IDiag  1:
 RMSU=  5.87D-08    CP:  9.46D-01  1.28D+00  1.03D+00  7.35D-01  9.35D-01
                    CP:  1.12D+00  1.04D+00  9.40D-01  1.16D+00  9.98D-01
 E= -232.372436524219     Delta-E=       -0.000000000055 Rises=F Damp=F
 DIIS: error= 9.43D-08 at cycle  11 NSaved=  11.
 NSaved=11 IEnMin=11 EnMin= -232.372436524219     IErMin=11 ErrMin= 9.43D-08
 ErrMax= 9.43D-08  0.00D+00 EMaxC= 1.00D-01 BMatC= 1.96D-12 BMatP= 4.94D-11
 IDIUse=1 WtCom= 1.00D+00 WtEn= 0.00D+00
 Coeff-Com:  0.110D-06 0.414D-06 0.351D-04 0.514D-04 0.263D-03 0.116D-03
 Coeff-Com: -0.229D-02-0.965D-02-0.248D-01 0.560D-01 0.980D+00
 Coeff:      0.110D-06 0.414D-06 0.351D-04 0.514D-04 0.263D-03 0.116D-03
 Coeff:     -0.229D-02-0.965D-02-0.248D-01 0.560D-01 0.980D+00
 Gap=     0.303 Goal=   None    Shift=    0.000
 RMSDP=2.17D-08 MaxDP=3.72D-07 DE=-5.51D-11 OVMax= 6.98D-07

 Cycle  12  Pass 1  IDiag  1:
 RMSU=  1.16D-08    CP:  9.46D-01  1.28D+00  1.03D+00  7.35D-01  9.35D-01
                    CP:  1.12D+00  1.04D+00  9.40D-01  1.16D+00  1.06D+00
                    CP:  1.12D+00
 E= -232.372436524222     Delta-E=       -0.000000000003 Rises=F Damp=F
 DIIS: error= 3.10D-08 at cycle  12 NSaved=  12.
 NSaved=12 IEnMin=12 EnMin= -232.372436524222     IErMin=12 ErrMin= 3.10D-08
 ErrMax= 3.10D-08  0.00D+00 EMaxC= 1.00D-01 BMatC= 1.44D-13 BMatP= 1.96D-12
 IDIUse=1 WtCom= 1.00D+00 WtEn= 0.00D+00
 Coeff-Com:  0.870D-06-0.181D-05-0.179D-05-0.220D-05 0.335D-04 0.240D-03
 Coeff-Com:  0.583D-03-0.219D-02-0.174D-01-0.257D-01 0.288D+00 0.756D+00
 Coeff:      0.870D-06-0.181D-05-0.179D-05-0.220D-05 0.335D-04 0.240D-03
 Coeff:      0.583D-03-0.219D-02-0.174D-01-0.257D-01 0.288D+00 0.756D+00
 Gap=     0.303 Goal=   None    Shift=    0.000
 RMSDP=4.91D-09 MaxDP=1.02D-07 DE=-3.24D-12 OVMax= 1.31D-07

 SCF Done:  E(RM062X) =  -232.372436524     A.U. after   12 cycles
            NFock= 12  Conv=0.49D-08     -V/T= 2.0040
 KE= 2.314484144778D+02 PE=-8.977843917988D+02 EE= 2.558763961587D+02
 Leave Link  502 at Mon Oct 14 01:54:42 2019, MaxMem=  1342177280 cpu:             112.9 elap:               4.8
 (Enter /apps/cent7/gaussian/g16-A.03/g16-haswell/g16/l601.exe)
 Copying SCF densities to generalized density rwf, IOpCl= 0 IROHF=0.

 **********************************************************************

            Population analysis using the SCF density.

 **********************************************************************

 Orbital symmetries:
       Occupied  (A) (A) (A) (A) (A) (A) (A) (A) (A) (A) (A) (A)
                 (A) (A) (A) (A) (A) (A) (A) (A)
       Virtual   (A) (A) (A) (A) (A) (A) (A) (A) (A) (A) (A) (A)
                 (A) (A) (A) (A) (A) (A) (A) (A) (A) (A) (A) (A)
                 (A) (A) (A) (A) (A) (A) (A) (A) (A) (A) (A) (A)
                 (A) (A) (A) (A) (A) (A) (A) (A) (A) (A) (A) (A)
                 (A) (A) (A) (A) (A) (A) (A) (A) (A) (A) (A) (A)
                 (A) (A) (A) (A) (A) (A) (A) (A) (A) (A) (A) (A)
                 (A) (A) (A) (A) (A) (A) (A) (A) (A) (A) (A) (A)
                 (A) (A) (A) (A) (A) (A) (A) (A) (A) (A) (A) (A)
                 (A) (A) (A) (A) (A) (A) (A) (A) (A) (A) (A) (A)
                 (A) (A) (A) (A) (A) (A) (A) (A) (A) (A) (A) (A)
                 (A) (A) (A) (A) (A) (A) (A) (A) (A) (A) (A) (A)
                 (A) (A) (A) (A) (A) (A) (A) (A) (A) (A) (A) (A)
                 (A) (A)
 The electronic state is 1-A.
 Alpha  occ. eigenvalues --  -19.63623 -10.60441 -10.57662 -10.53461 -10.52600
 Alpha  occ. eigenvalues --   -1.15857  -0.88192  -0.79226  -0.77841  -0.63119
 Alpha  occ. eigenvalues --   -0.55545  -0.54652  -0.53335  -0.49172  -0.48210
 Alpha  occ. eigenvalues --   -0.47728  -0.43677  -0.41155  -0.34514  -0.30530
 Alpha virt. eigenvalues --   -0.00208   0.01299   0.01974   0.02065   0.03544
 Alpha virt. eigenvalues --    0.04334   0.04623   0.05224   0.06908   0.06992
 Alpha virt. eigenvalues --    0.08381   0.10184   0.10362   0.11620   0.12556
 Alpha virt. eigenvalues --    0.12916   0.13968   0.14464   0.14701   0.15320
 Alpha virt. eigenvalues --    0.16315   0.16602   0.17302   0.18448   0.19188
 Alpha virt. eigenvalues --    0.19916   0.22572   0.23734   0.24348   0.24759
 Alpha virt. eigenvalues --    0.25624   0.27670   0.28867   0.31092   0.32454
 Alpha virt. eigenvalues --    0.33195   0.35392   0.36753   0.38964   0.40946
 Alpha virt. eigenvalues --    0.44374   0.48565   0.49576   0.49759   0.51754
 Alpha virt. eigenvalues --    0.55357   0.57044   0.59537   0.62706   0.64525
 Alpha virt. eigenvalues --    0.68123   0.69493   0.70411   0.71523   0.72361
 Alpha virt. eigenvalues --    0.72975   0.74641   0.77384   0.79653   0.82394
 Alpha virt. eigenvalues --    0.87428   0.90031   0.92842   0.96919   1.02501
 Alpha virt. eigenvalues --    1.05462   1.07195   1.13925   1.14598   1.20258
 Alpha virt. eigenvalues --    1.30965   1.33957   1.38009   1.40022   1.48996
 Alpha virt. eigenvalues --    1.49819   1.50496   1.51955   1.53854   1.56855
 Alpha virt. eigenvalues --    1.60866   1.61265   1.63003   1.64694   1.68867
 Alpha virt. eigenvalues --    1.70806   1.71664   1.75681   1.76388   1.78806
 Alpha virt. eigenvalues --    1.82196   1.84007   1.89851   1.93696   2.04105
 Alpha virt. eigenvalues --    2.04994   2.06810   2.08342   2.10212   2.17469
 Alpha virt. eigenvalues --    2.21165   2.22585   2.25756   2.35124   2.42701
 Alpha virt. eigenvalues --    2.51062   2.54183   2.54896   2.57964   2.58410
 Alpha virt. eigenvalues --    2.60553   2.61566   2.63658   2.64661   2.66944
 Alpha virt. eigenvalues --    2.68365   2.69466   2.75575   2.84239   2.87336
 Alpha virt. eigenvalues --    2.92396   2.96442   2.98179   3.05883   3.10354
 Alpha virt. eigenvalues --    3.18788   3.23501   3.34315   3.37672   3.64473
 Alpha virt. eigenvalues --    3.82996   3.88337   3.89844   3.90525   3.91476
 Alpha virt. eigenvalues --    4.09599   4.17914   4.31481   5.26105   5.48624
 Alpha virt. eigenvalues --    5.74276  23.76278  24.05179  24.07929  24.25228
 Alpha virt. eigenvalues --   50.02392
          Condensed to atoms (all electrons):
               1          2          3          4          5          6
     1  C    5.770816   0.081197  -0.088939   0.478369  -0.216707  -0.088585
     2  C    0.081197   5.730095  -0.395795  -0.110069   0.037025   0.396791
     3  C   -0.088939  -0.395795   6.298530  -0.223863   0.022235   0.051143
     4  O    0.478369  -0.110069  -0.223863   8.001881   0.151532   0.009056
     5  C   -0.216707   0.037025   0.022235   0.151532   5.112061  -0.002413
     6  H   -0.088585   0.396791   0.051143   0.009056  -0.002413   0.542416
     7  H   -0.043813   0.468212  -0.058721  -0.002248  -0.008136  -0.027721
     8  H   -0.034567   0.401578  -0.020470  -0.002807   0.005735  -0.033016
     9  H   -0.006281  -0.001801   0.343387   0.009672   0.000213  -0.006868
    10  H   -0.033421   0.006568   0.400511   0.003980  -0.001237   0.000083
    11  H    0.040326  -0.029947  -0.009182  -0.053748   0.395817  -0.001903
    12  H    0.011441   0.004903   0.003947  -0.059457   0.406820   0.000477
    13  H    0.023876   0.002675  -0.009398  -0.046075   0.394198   0.000905
               7          8          9         10         11         12
     1  C   -0.043813  -0.034567  -0.006281  -0.033421   0.040326   0.011441
     2  C    0.468212   0.401578  -0.001801   0.006568  -0.029947   0.004903
     3  C   -0.058721  -0.020470   0.343387   0.400511  -0.009182   0.003947
     4  O   -0.002248  -0.002807   0.009672   0.003980  -0.053748  -0.059457
     5  C   -0.008136   0.005735   0.000213  -0.001237   0.395817   0.406820
     6  H   -0.027721  -0.033016  -0.006868   0.000083  -0.001903   0.000477
     7  H    0.536079  -0.054169  -0.001134  -0.000553   0.003461  -0.000936
     8  H   -0.054169   0.562740   0.004016  -0.000513  -0.001984  -0.001058
     9  H   -0.001134   0.004016   0.543053  -0.028392   0.002764  -0.000385
    10  H   -0.000553  -0.000513  -0.028392   0.523582  -0.000253   0.000525
    11  H    0.003461  -0.001984   0.002764  -0.000253   0.624132  -0.032076
    12  H   -0.000936  -0.001058  -0.000385   0.000525  -0.032076   0.523753
    13  H    0.001427  -0.003134  -0.001306  -0.005120  -0.072232  -0.029148
              13
     1  C    0.023876
     2  C    0.002675
     3  C   -0.009398
     4  O   -0.046075
     5  C    0.394198
     6  H    0.000905
     7  H    0.001427
     8  H   -0.003134
     9  H   -0.001306
    10  H   -0.005120
    11  H   -0.072232
    12  H   -0.029148
    13  H    0.600294
 Mulliken charges:
               1
     1  C    0.106287
     2  C   -0.591431
     3  C   -0.313384
     4  O   -0.156224
     5  C   -0.297141
     6  H    0.159635
     7  H    0.188252
     8  H    0.177649
     9  H    0.143063
    10  H    0.134239
    11  H    0.134824
    12  H    0.171193
    13  H    0.143038
 Sum of Mulliken charges =  -0.00000
 Mulliken charges with hydrogens summed into heavy atoms:
               1
     1  C    0.106287
     2  C   -0.065895
     3  C   -0.036082
     4  O   -0.156224
     5  C    0.151914
 Electronic spatial extent (au):  <R**2>=            464.0570
 Charge=              0.0000 electrons
 Dipole moment (field-independent basis, Debye):
    X=             -0.1702    Y=             -0.5286    Z=              1.6713  Tot=              1.7611
 Quadrupole moment (field-independent basis, Debye-Ang):
   XX=            -28.3091   YY=            -30.8505   ZZ=            -34.8077
   XY=              0.2565   XZ=              1.1564   YZ=              0.1284
 Traceless Quadrupole moment (field-independent basis, Debye-Ang):
   XX=              3.0133   YY=              0.4719   ZZ=             -3.4852
   XY=              0.2565   XZ=              1.1564   YZ=              0.1284
 Octapole moment (field-independent basis, Debye-Ang**2):
  XXX=              7.7810  YYY=              1.0632  ZZZ=             -0.5887  XYY=              1.3034
  XXY=             -0.8337  XXZ=              2.0733  XZZ=              1.0230  YZZ=             -2.7235
  YYZ=             -0.2487  XYZ=             -1.1310
 Hexadecapole moment (field-independent basis, Debye-Ang**3):
 XXXX=           -324.2939 YYYY=           -194.5286 ZZZZ=            -77.9592 XXXY=             -3.6069
 XXXZ=             -5.5413 YYYX=              1.4516 YYYZ=              1.2074 ZZZX=             -0.6138
 ZZZY=             -1.1108 XXYY=            -94.2750 XXZZ=            -74.6389 YYZZ=            -46.7626
 XXYZ=              3.1954 YYXZ=             -0.9957 ZZXY=              2.0231
 N-N= 1.780871446380D+02 E-N=-8.977843915389D+02  KE= 2.314484144778D+02
 No NMR shielding tensors so no spin-rotation constants.
 Leave Link  601 at Mon Oct 14 01:54:42 2019, MaxMem=  1342177280 cpu:               2.2 elap:               0.1
 (Enter /apps/cent7/gaussian/g16-A.03/g16-haswell/g16/l701.exe)
 ... and contract with generalized density number  0.
 Compute integral first derivatives.
 Leave Link  701 at Mon Oct 14 01:54:42 2019, MaxMem=  1342177280 cpu:               2.8 elap:               0.1
 (Enter /apps/cent7/gaussian/g16-A.03/g16-haswell/g16/l702.exe)
 L702 exits ... SP integral derivatives will be done elsewhere.
 Leave Link  702 at Mon Oct 14 01:54:42 2019, MaxMem=  1342177280 cpu:               0.5 elap:               0.0
 (Enter /apps/cent7/gaussian/g16-A.03/g16-haswell/g16/l703.exe)
 Integral derivatives from FoFJK, PRISM(SPDF).
 Compute integral first derivatives, UseDBF=F ICtDFT=           0.
 Calling FoFJK, ICntrl=      2127 FMM=F ISym2X=0 I1Cent= 0 IOpClX= 0 NMat=1 NMatS=1 NMatT=0.
 FoFJK:  IHMeth= 1 ICntrl=    2127 DoSepK=F KAlg= 0 I1Cent=           0 FoldK=F
 IRaf=         0 NMat=       1 IRICut=       1 DoRegI=T DoRafI=F ISym2E= 0 IDoP0=0 IntGTp=1.
 FoFCou: FMM=F IPFlag=           0 FMFlag=      100000 FMFlg1=         800
         NFxFlg=           0 DoJE=F BraDBF=F KetDBF=F FulRan=T
         wScrn=  0.000000 ICntrl=      2127 IOpCl=  0 I1Cent=           0 NGrid=           0
         NMat0=    1 NMatS0=      1 NMatT0=    0 NMatD0=    1 NMtDS0=    0 NMtDT0=    0
 Symmetry not used in FoFCou.
 Leave Link  703 at Mon Oct 14 01:54:43 2019, MaxMem=  1342177280 cpu:              18.1 elap:               0.8
 (Enter /apps/cent7/gaussian/g16-A.03/g16-haswell/g16/l716.exe)
 Dipole        =-6.69654996D-02-2.07974660D-01 6.57520823D-01
 ***** Axes restored to original set *****
 -------------------------------------------------------------------
 Center     Atomic                   Forces (Hartrees/Bohr)
 Number     Number              X              Y              Z
 -------------------------------------------------------------------
      1        6           0.005458763    0.020542127    0.004823756
      2        6          -0.029552623    0.022521352    0.001659760
      3        6          -0.025751791   -0.033080752   -0.000004783
      4        8           0.035249483   -0.001835571   -0.006089466
      5        6           0.007320679   -0.001026976    0.015900170
      6        1           0.011280499    0.002588337    0.005082034
      7        1          -0.006156822   -0.011923190    0.006098339
      8        1           0.002781204   -0.006559715   -0.014218950
      9        1           0.008153312    0.001122697    0.001000187
     10        1          -0.003956501    0.008685496    0.000157508
     11        1           0.004555296   -0.013072974   -0.010962659
     12        1          -0.013070939   -0.001565853    0.004994275
     13        1           0.003689441    0.013605020   -0.008440170
 -------------------------------------------------------------------
 Cartesian Forces:  Max     0.035249483 RMS     0.013181333
 Leave Link  716 at Mon Oct 14 01:54:43 2019, MaxMem=  1342177280 cpu:               0.6 elap:               0.0
 (Enter /apps/cent7/gaussian/g16-A.03/g16-haswell/g16/l103.exe)

 GradGradGradGradGradGradGradGradGradGradGradGradGradGradGradGradGradGrad
 Berny optimization.
 FormGI is forming the generalized inverse of G from B-inverse, IUseBI=4.
 Internal  Forces:  Max     0.037546318 RMS     0.010639705
 Search for a local minimum.
 Step number   1 out of a maximum of   56
 All quantities printed in internal units (Hartrees-Bohrs-Radians)
 RMS Force = .10640D-01 SwitMx=.10000D-02 MixMth= 1
 Mixed Optimization -- RFO/linear search
 Second derivative matrix not updated -- first step.
 ITU=  0
     Eigenvalues ---    0.00237   0.01228   0.01295   0.01295   0.02681
     Eigenvalues ---    0.02681   0.07243   0.07243   0.10344   0.10344
     Eigenvalues ---    0.16000   0.16000   0.16000   0.16000   0.16000
     Eigenvalues ---    0.16000   0.16000   0.16000   0.25000   0.25000
     Eigenvalues ---    0.25000   0.28519   0.37230   0.37230   0.37230
     Eigenvalues ---    0.37230   0.37230   0.37230   0.37230   0.37230
     Eigenvalues ---    0.40989   0.40989   0.53930
 RFO step:  Lambda=-1.46355904D-02 EMin= 2.36824247D-03
 Linear search not attempted -- first point.
 Iteration  1 RMS(Cart)=  0.07599068 RMS(Int)=  0.00220142
 Iteration  2 RMS(Cart)=  0.00339106 RMS(Int)=  0.00016138
 Iteration  3 RMS(Cart)=  0.00000452 RMS(Int)=  0.00016134
 Iteration  4 RMS(Cart)=  0.00000000 RMS(Int)=  0.00016134
 ITry= 1 IFail=0 DXMaxC= 1.78D-01 DCOld= 1.00D+10 DXMaxT= 3.00D-01 DXLimC= 3.00D+00 Rises=F
 Variable       Old X    -DE/DX   Delta X   Delta X   Delta X     New X
                                 (Linear)    (Quad)   (Total)
    R1        2.91018  -0.01731   0.00000  -0.05773  -0.05773   2.85244
    R2        2.56096  -0.03047   0.00000  -0.05500  -0.05500   2.50596
    R3        2.70231  -0.03755   0.00000  -0.08844  -0.08844   2.61387
    R4        2.02201   0.01260   0.00000   0.03256   0.03256   2.05456
    R5        2.02201   0.01465   0.00000   0.03787   0.03787   2.05988
    R6        2.02201   0.01565   0.00000   0.04044   0.04044   2.06245
    R7        2.02201   0.00818   0.00000   0.02115   0.02115   2.04316
    R8        2.02201   0.00943   0.00000   0.02438   0.02438   2.04639
    R9        2.70231  -0.00231   0.00000  -0.00544  -0.00544   2.69687
   R10        2.02201   0.01743   0.00000   0.04504   0.04504   2.06704
   R11        2.02201   0.01322   0.00000   0.03418   0.03418   2.05618
   R12        2.02201   0.01636   0.00000   0.04229   0.04229   2.06430
    A1        2.09440   0.02012   0.00000   0.07604   0.07603   2.17043
    A2        2.09440  -0.01926   0.00000  -0.07279  -0.07280   2.02160
    A3        2.09440  -0.00086   0.00000  -0.00325  -0.00326   2.09114
    A4        1.91063  -0.00148   0.00000  -0.00859  -0.00857   1.90207
    A5        1.91063   0.00178   0.00000   0.01015   0.01011   1.92074
    A6        1.91063   0.00339   0.00000   0.01959   0.01955   1.93018
    A7        1.91063  -0.00022   0.00000  -0.00161  -0.00159   1.90905
    A8        1.91063  -0.00095   0.00000  -0.00538  -0.00535   1.90529
    A9        1.91063  -0.00252   0.00000  -0.01416  -0.01427   1.89636
   A10        2.09440  -0.00001   0.00000  -0.00003  -0.00008   2.09432
   A11        2.09440   0.00145   0.00000   0.00833   0.00828   2.10267
   A12        2.09440  -0.00145   0.00000  -0.00830  -0.00835   2.08605
   A13        1.91063   0.00992   0.00000   0.03750   0.03750   1.94813
   A14        1.91063   0.00526   0.00000   0.03185   0.03162   1.94225
   A15        1.91063  -0.00898   0.00000  -0.05508  -0.05499   1.85564
   A16        1.91063   0.00318   0.00000   0.02011   0.01981   1.93045
   A17        1.91063   0.00010   0.00000  -0.00329  -0.00314   1.90750
   A18        1.91063  -0.00087   0.00000   0.00237   0.00181   1.91245
   A19        1.91063   0.00131   0.00000   0.00404   0.00404   1.91467
    D1        0.52360  -0.00070   0.00000  -0.04043  -0.04042   0.48318
    D2        2.61799  -0.00079   0.00000  -0.04144  -0.04147   2.57652
    D3       -1.57080  -0.00071   0.00000  -0.04058  -0.04050  -1.61130
    D4       -2.61799  -0.00049   0.00000  -0.03254  -0.03257  -2.65056
    D5       -0.52360  -0.00058   0.00000  -0.03355  -0.03362  -0.55722
    D6        1.57080  -0.00050   0.00000  -0.03269  -0.03266   1.53814
    D7       -0.00000  -0.00087   0.00000  -0.01971  -0.01959  -0.01959
    D8        3.14159  -0.00011   0.00000  -0.00122  -0.00110   3.14049
    D9        3.14159  -0.00109   0.00000  -0.02760  -0.02773   3.11386
   D10       -0.00000  -0.00032   0.00000  -0.00911  -0.00924  -0.00924
   D11       -1.57080   0.00168   0.00000   0.06080   0.06101  -1.50978
   D12        1.57080   0.00189   0.00000   0.06869   0.06848   1.63928
   D13        1.04720   0.00189   0.00000   0.01068   0.01125   1.05845
   D14        3.14159  -0.00026   0.00000  -0.00757  -0.00770   3.13389
   D15       -1.04720  -0.00221   0.00000  -0.02404  -0.02447  -1.07167
         Item               Value     Threshold  Converged?
 Maximum Force            0.037546     0.000450     NO 
 RMS     Force            0.010640     0.000300     NO 
 Maximum Displacement     0.177631     0.001800     NO 
 RMS     Displacement     0.077099     0.001200     NO 
 Predicted change in Energy=-7.766210D-03
 Lowest energy point so far.  Saving SCF results.
 GradGradGradGradGradGradGradGradGradGradGradGradGradGradGradGradGradGrad

 Leave Link  103 at Mon Oct 14 01:54:43 2019, MaxMem=  1342177280 cpu:               0.8 elap:               0.1
 (Enter /apps/cent7/gaussian/g16-A.03/g16-haswell/g16/l202.exe)
                          Input orientation:                          
 ---------------------------------------------------------------------
 Center     Atomic      Atomic             Coordinates (Angstroms)
 Number     Number       Type             X           Y           Z
 ---------------------------------------------------------------------
      1          6           0        0.508730   -0.981233   -0.661451
      2          6           0        1.254953   -2.290560   -0.746587
      3          6           0        1.090352    0.208508   -0.592458
      4          8           0       -0.871299   -1.073866   -0.648166
      5          6           0       -1.408359   -1.113860   -1.969772
      6          1           0        2.224296   -2.176920   -0.267499
      7          1           0        0.691635   -3.075288   -0.241546
      8          1           0        1.401984   -2.581549   -1.788152
      9          1           0        2.168872    0.282815   -0.576693
     10          1           0        0.492497    1.109544   -0.534338
     11          1           0       -1.036537   -1.980899   -2.523362
     12          1           0       -2.487801   -1.194077   -1.858862
     13          1           0       -1.160935   -0.199087   -2.513153
 ---------------------------------------------------------------------
                    Distance matrix (angstroms):
                    1          2          3          4          5
     1  C    0.000000
     2  C    1.509448   0.000000
     3  C    1.326094   2.509221   0.000000
     4  O    1.383198   2.451729   2.344282   0.000000
     5  C    2.324764   3.158169   3.144710   1.427121   0.000000
     6  H    2.127917   1.087229   2.661145   3.308223   4.150182
     7  H    2.143558   1.090042   3.326474   2.571729   3.353198
     8  H    2.151365   1.091399   3.051429   2.956432   3.175709
     9  H    2.088318   2.736124   1.081192   3.329915   4.085089
    10  H    2.094700   3.491002   1.082901   2.576854   3.258412
    11  H    2.617995   2.916118   3.611862   2.089586   1.093833
    12  H    3.233929   4.055569   4.046505   2.023194   1.088086
    13  H    2.613108   3.651237   2.987221   2.080217   1.092379
                    6          7          8          9         10
     6  H    0.000000
     7  H    1.776736   0.000000
     8  H    1.775474   1.772108   0.000000
     9  H    2.479711   3.683940   3.203175   0.000000
    10  H    3.724403   4.199786   4.002922   1.869628   0.000000
    11  H    3.969934   3.064466   2.616811   4.380476   3.980577
    12  H    5.069741   4.032800   4.130437   5.050720   3.992895
    13  H    4.518249   4.106671   3.573557   3.881974   2.891722
                   11         12         13
    11  H    0.000000
    12  H    1.779555   0.000000
    13  H    1.786178   1.782884   0.000000
 Stoichiometry    C4H8O
 Framework group  C1[X(C4H8O)]
 Deg. of freedom    33
 Full point group                 C1      NOp   1
 RotChk:  IX=0 Diff= 9.42D-02
 Largest Abelian subgroup         C1      NOp   1
 Largest concise Abelian subgroup C1      NOp   1
                         Standard orientation:                         
 ---------------------------------------------------------------------
 Center     Atomic      Atomic             Coordinates (Angstroms)
 Number     Number       Type             X           Y           Z
 ---------------------------------------------------------------------
      1          6           0       -0.494879    0.134824   -0.135638
      2          6           0       -1.194579   -1.185878    0.075548
      3          6           0       -1.027832    1.316911    0.142136
      4          8           0        0.781420    0.062930   -0.663967
      5          6           0        1.763451   -0.115636    0.356034
      6          1           0       -2.268406   -1.033115    0.000553
      7          1           0       -0.877336   -1.902263   -0.682304
      8          1           0       -0.958411   -1.592188    1.060581
      9          1           0       -2.034798    1.377889    0.531081
     10          1           0       -0.467703    2.226865   -0.033687
     11          1           0        1.595827   -1.043514    0.910483
     12          1           0        2.724761   -0.168471   -0.150942
     13          1           0        1.757736    0.730027    1.047491
 ---------------------------------------------------------------------
 Rotational constants (GHZ):           7.5681410           4.3144294           3.1937901
 Leave Link  202 at Mon Oct 14 01:54:43 2019, MaxMem=  1342177280 cpu:               0.2 elap:               0.0
 (Enter /apps/cent7/gaussian/g16-A.03/g16-haswell/g16/l301.exe)
 Standard basis: 6-311++G(d,p) (5D, 7F)
 Ernie: Thresh=  0.10000D-02 Tol=  0.10000D-05 Strict=F.
 There are   171 symmetry adapted cartesian basis functions of A   symmetry.
 There are   166 symmetry adapted basis functions of A   symmetry.
   166 basis functions,   252 primitive gaussians,   171 cartesian basis functions
    20 alpha electrons       20 beta electrons
       nuclear repulsion energy       180.1352640001 Hartrees.
 IExCor= 4336 DFT=T Ex+Corr=M062X ExCW=0 ScaHFX=  0.540000
 ScaDFX=  1.000000  1.000000  1.000000  1.000000 ScalE2=  1.000000  1.000000
 IRadAn=      5 IRanWt=     -1 IRanGd=            0 ICorTp=0 IEmpDi=  4
 NAtoms=   13 NActive=   13 NUniq=   13 SFac= 1.00D+00 NAtFMM=   60 NAOKFM=F Big=F
 Integral buffers will be    131072 words long.
 Raffenetti 2 integral format.
 Two-electron integral symmetry is turned on.
 Leave Link  301 at Mon Oct 14 01:54:43 2019, MaxMem=  1342177280 cpu:               1.2 elap:               0.1
 (Enter /apps/cent7/gaussian/g16-A.03/g16-haswell/g16/l302.exe)
 NPDir=0 NMtPBC=     1 NCelOv=     1 NCel=       1 NClECP=     1 NCelD=      1
         NCelK=      1 NCelE2=     1 NClLst=     1 CellRange=     0.0.
 One-electron integrals computed using PRISM.
 One-electron integral symmetry used in STVInt
 NBasis=   166 RedAO= T EigKep=  2.80D-05  NBF=   166
 NBsUse=   166 1.00D-06 EigRej= -1.00D+00 NBFU=   166
 Precomputing XC quadrature grid using
 IXCGrd= 4 IRadAn=           5 IRanWt=          -1 IRanGd=           0 AccXCQ= 0.00D+00.
 Generated NRdTot=       0 NPtTot=           0 NUsed=           0 NTot=          32
 NSgBfM=   171   171   171   171   171 MxSgAt=    13 MxSgA2=    13.
 Leave Link  302 at Mon Oct 14 01:54:43 2019, MaxMem=  1342177280 cpu:               3.0 elap:               0.1
 (Enter /apps/cent7/gaussian/g16-A.03/g16-haswell/g16/l303.exe)
 DipDrv:  MaxL=1.
 Leave Link  303 at Mon Oct 14 01:54:43 2019, MaxMem=  1342177280 cpu:               0.6 elap:               0.0
 (Enter /apps/cent7/gaussian/g16-A.03/g16-haswell/g16/l401.exe)
 Initial guess from the checkpoint file:  "mop.chk"
 B after Tr=    -0.000000   -0.000000   -0.000000
         Rot=    0.999451   -0.013223   -0.006495   -0.029676 Ang=  -3.80 deg.
 Guess basis will be translated and rotated to current coordinates.
 JPrj=2 DoOrth=T DoCkMO=T.
 Generating alternative initial guess.
 ExpMin= 3.60D-02 ExpMax= 8.59D+03 ExpMxC= 1.30D+03 IAcc=3 IRadAn=         5 AccDes= 0.00D+00
 Harris functional with IExCor= 1009 and IRadAn=       5 diagonalized for initial guess.
 HarFok:  IExCor= 1009 AccDes= 0.00D+00 IRadAn=         5 IDoV= 1 UseB2=F ITyADJ=14
 ICtDFT=  3500011 ScaDFX=  1.000000  1.000000  1.000000  1.000000
 FoFCou: FMM=F IPFlag=           0 FMFlag=      100000 FMFlg1=           0
         NFxFlg=           0 DoJE=T BraDBF=F KetDBF=T FulRan=T
         wScrn=  0.000000 ICntrl=       500 IOpCl=  0 I1Cent=   200000004 NGrid=           0
         NMat0=    1 NMatS0=      1 NMatT0=    0 NMatD0=    1 NMtDS0=    0 NMtDT0=    0
 Petite list used in FoFCou.
 Harris En= -232.325000440794    
 Leave Link  401 at Mon Oct 14 01:54:43 2019, MaxMem=  1342177280 cpu:               7.6 elap:               0.3
 (Enter /apps/cent7/gaussian/g16-A.03/g16-haswell/g16/l502.exe)
 Integral symmetry usage will be decided dynamically.
 Closed shell SCF:
 Using DIIS extrapolation, IDIIS=  1040.
 NGot=  1342177280 LenX=  1342112857 LenY=  1342083175
 Requested convergence on RMS density matrix=1.00D-08 within 128 cycles.
 Requested convergence on MAX density matrix=1.00D-06.
 Requested convergence on             energy=1.00D-06.
 No special actions if energy rises.
 Fock matrices will be formed incrementally for  20 cycles.

 Cycle   1  Pass 1  IDiag  1:
 FoFJK:  IHMeth= 1 ICntrl=       0 DoSepK=F KAlg= 0 I1Cent=           0 FoldK=F
 IRaf= 990000000 NMat=       1 IRICut=       1 DoRegI=T DoRafI=F ISym2E= 0 IDoP0=0 IntGTp=1.
 FoFCou: FMM=F IPFlag=           0 FMFlag=      100000 FMFlg1=           0
         NFxFlg=           0 DoJE=F BraDBF=F KetDBF=F FulRan=T
         wScrn=  0.000000 ICntrl=         0 IOpCl=  0 I1Cent=           0 NGrid=           0
         NMat0=    1 NMatS0=      1 NMatT0=    0 NMatD0=    1 NMtDS0=    0 NMtDT0=    0
 Symmetry not used in FoFCou.
 E= -232.374597796074    
 DIIS: error= 2.66D-03 at cycle   1 NSaved=   1.
 NSaved= 1 IEnMin= 1 EnMin= -232.374597796074     IErMin= 1 ErrMin= 2.66D-03
 ErrMax= 2.66D-03  0.00D+00 EMaxC= 1.00D-01 BMatC= 4.11D-03 BMatP= 4.11D-03
 IDIUse=3 WtCom= 9.73D-01 WtEn= 2.66D-02
 Coeff-Com:  0.100D+01
 Coeff-En:   0.100D+01
 Coeff:      0.100D+01
 Gap=     0.448 Goal=   None    Shift=    0.000
 GapD=    0.448 DampG=2.000 DampE=1.000 DampFc=2.0000 IDamp=-1.
 RMSDP=2.63D-03 MaxDP=2.09D-01              OVMax= 1.87D-02

 Cycle   2  Pass 1  IDiag  1:
 RMSU=  2.42D-03    CP:  1.07D+00
 E= -232.380111598113     Delta-E=       -0.005513802039 Rises=F Damp=F
 DIIS: error= 1.51D-03 at cycle   2 NSaved=   2.
 NSaved= 2 IEnMin= 2 EnMin= -232.380111598113     IErMin= 2 ErrMin= 1.51D-03
 ErrMax= 1.51D-03  0.00D+00 EMaxC= 1.00D-01 BMatC= 4.11D-04 BMatP= 4.11D-03
 IDIUse=3 WtCom= 9.85D-01 WtEn= 1.51D-02
 Coeff-Com:  0.621D-01 0.938D+00
 Coeff-En:   0.000D+00 0.100D+01
 Coeff:      0.612D-01 0.939D+00
 Gap=     0.302 Goal=   None    Shift=    0.000
 RMSDP=4.19D-04 MaxDP=3.10D-02 DE=-5.51D-03 OVMax= 9.39D-03

 Cycle   3  Pass 1  IDiag  1:
 RMSU=  2.23D-04    CP:  1.08D+00  1.13D+00
 E= -232.380369515953     Delta-E=       -0.000257917839 Rises=F Damp=F
 DIIS: error= 1.26D-03 at cycle   3 NSaved=   3.
 NSaved= 3 IEnMin= 3 EnMin= -232.380369515953     IErMin= 3 ErrMin= 1.26D-03
 ErrMax= 1.26D-03  0.00D+00 EMaxC= 1.00D-01 BMatC= 2.70D-04 BMatP= 4.11D-04
 IDIUse=3 WtCom= 9.87D-01 WtEn= 1.26D-02
 Coeff-Com: -0.685D-01 0.458D+00 0.610D+00
 Coeff-En:   0.000D+00 0.227D+00 0.773D+00
 Coeff:     -0.676D-01 0.455D+00 0.612D+00
 Gap=     0.304 Goal=   None    Shift=    0.000
 RMSDP=1.29D-04 MaxDP=4.57D-03 DE=-2.58D-04 OVMax= 5.47D-03

 Cycle   4  Pass 1  IDiag  1:
 RMSU=  9.25D-05    CP:  1.08D+00  1.16D+00  7.28D-01
 E= -232.380612704344     Delta-E=       -0.000243188391 Rises=F Damp=F
 DIIS: error= 1.87D-04 at cycle   4 NSaved=   4.
 NSaved= 4 IEnMin= 4 EnMin= -232.380612704344     IErMin= 4 ErrMin= 1.87D-04
 ErrMax= 1.87D-04  0.00D+00 EMaxC= 1.00D-01 BMatC= 7.59D-06 BMatP= 2.70D-04
 IDIUse=3 WtCom= 9.98D-01 WtEn= 1.87D-03
 Coeff-Com: -0.228D-01 0.101D+00 0.198D+00 0.723D+00
 Coeff-En:   0.000D+00 0.000D+00 0.000D+00 0.100D+01
 Coeff:     -0.227D-01 0.101D+00 0.198D+00 0.724D+00
 Gap=     0.304 Goal=   None    Shift=    0.000
 RMSDP=2.45D-05 MaxDP=5.05D-04 DE=-2.43D-04 OVMax= 1.89D-03

 Cycle   5  Pass 1  IDiag  1:
 RMSU=  2.35D-05    CP:  1.08D+00  1.16D+00  7.47D-01  1.01D+00
 E= -232.380619763198     Delta-E=       -0.000007058854 Rises=F Damp=F
 DIIS: error= 1.06D-04 at cycle   5 NSaved=   5.
 NSaved= 5 IEnMin= 5 EnMin= -232.380619763198     IErMin= 5 ErrMin= 1.06D-04
 ErrMax= 1.06D-04  0.00D+00 EMaxC= 1.00D-01 BMatC= 2.11D-06 BMatP= 7.59D-06
 IDIUse=3 WtCom= 9.99D-01 WtEn= 1.06D-03
 Coeff-Com:  0.139D-02-0.388D-01-0.210D-01 0.360D+00 0.698D+00
 Coeff-En:   0.000D+00 0.000D+00 0.000D+00 0.763D-01 0.924D+00
 Coeff:      0.139D-02-0.388D-01-0.210D-01 0.360D+00 0.699D+00
 Gap=     0.304 Goal=   None    Shift=    0.000
 RMSDP=1.16D-05 MaxDP=4.69D-04 DE=-7.06D-06 OVMax= 5.59D-04

 Cycle   6  Pass 1  IDiag  1:
 RMSU=  7.48D-06    CP:  1.08D+00  1.16D+00  7.62D-01  1.07D+00  8.58D-01
 E= -232.380622098520     Delta-E=       -0.000002335322 Rises=F Damp=F
 DIIS: error= 1.45D-05 at cycle   6 NSaved=   6.
 NSaved= 6 IEnMin= 6 EnMin= -232.380622098520     IErMin= 6 ErrMin= 1.45D-05
 ErrMax= 1.45D-05  0.00D+00 EMaxC= 1.00D-01 BMatC= 4.17D-08 BMatP= 2.11D-06
 IDIUse=1 WtCom= 1.00D+00 WtEn= 0.00D+00
 Coeff-Com:  0.124D-02-0.145D-01-0.143D-01 0.679D-01 0.177D+00 0.783D+00
 Coeff:      0.124D-02-0.145D-01-0.143D-01 0.679D-01 0.177D+00 0.783D+00
 Gap=     0.304 Goal=   None    Shift=    0.000
 RMSDP=2.79D-06 MaxDP=8.42D-05 DE=-2.34D-06 OVMax= 1.41D-04

 Cycle   7  Pass 1  IDiag  1:
 RMSU=  2.05D-06    CP:  1.08D+00  1.16D+00  7.64D-01  1.08D+00  8.95D-01
                    CP:  9.91D-01
 E= -232.380622152071     Delta-E=       -0.000000053551 Rises=F Damp=F
 DIIS: error= 1.04D-05 at cycle   7 NSaved=   7.
 NSaved= 7 IEnMin= 7 EnMin= -232.380622152071     IErMin= 7 ErrMin= 1.04D-05
 ErrMax= 1.04D-05  0.00D+00 EMaxC= 1.00D-01 BMatC= 1.59D-08 BMatP= 4.17D-08
 IDIUse=1 WtCom= 1.00D+00 WtEn= 0.00D+00
 Coeff-Com:  0.423D-03-0.185D-02-0.441D-02-0.168D-01-0.141D-01 0.384D+00
 Coeff-Com:  0.653D+00
 Coeff:      0.423D-03-0.185D-02-0.441D-02-0.168D-01-0.141D-01 0.384D+00
 Coeff:      0.653D+00
 Gap=     0.304 Goal=   None    Shift=    0.000
 RMSDP=1.23D-06 MaxDP=6.20D-05 DE=-5.36D-08 OVMax= 6.21D-05

 Cycle   8  Pass 1  IDiag  1:
 RMSU=  7.96D-07    CP:  1.08D+00  1.16D+00  7.63D-01  1.08D+00  9.08D-01
                    CP:  1.09D+00  9.87D-01
 E= -232.380622167966     Delta-E=       -0.000000015895 Rises=F Damp=F
 DIIS: error= 2.23D-06 at cycle   8 NSaved=   8.
 NSaved= 8 IEnMin= 8 EnMin= -232.380622167966     IErMin= 8 ErrMin= 2.23D-06
 ErrMax= 2.23D-06  0.00D+00 EMaxC= 1.00D-01 BMatC= 9.18D-10 BMatP= 1.59D-08
 IDIUse=1 WtCom= 1.00D+00 WtEn= 0.00D+00
 Coeff-Com: -0.251D-04 0.161D-02 0.557D-03-0.161D-01-0.327D-01 0.114D-01
 Coeff-Com:  0.191D+00 0.844D+00
 Coeff:     -0.251D-04 0.161D-02 0.557D-03-0.161D-01-0.327D-01 0.114D-01
 Coeff:      0.191D+00 0.844D+00
 Gap=     0.304 Goal=   None    Shift=    0.000
 RMSDP=4.69D-07 MaxDP=9.17D-06 DE=-1.59D-08 OVMax= 3.05D-05

 Cycle   9  Pass 1  IDiag  1:
 RMSU=  2.75D-07    CP:  1.08D+00  1.16D+00  7.64D-01  1.08D+00  9.09D-01
                    CP:  1.13D+00  1.08D+00  9.72D-01
 E= -232.380622169450     Delta-E=       -0.000000001484 Rises=F Damp=F
 DIIS: error= 4.76D-07 at cycle   9 NSaved=   9.
 NSaved= 9 IEnMin= 9 EnMin= -232.380622169450     IErMin= 9 ErrMin= 4.76D-07
 ErrMax= 4.76D-07  0.00D+00 EMaxC= 1.00D-01 BMatC= 6.91D-11 BMatP= 9.18D-10
 IDIUse=1 WtCom= 1.00D+00 WtEn= 0.00D+00
 Coeff-Com: -0.526D-04 0.689D-03 0.594D-03-0.342D-02-0.836D-02-0.263D-01
 Coeff-Com:  0.423D-02 0.234D+00 0.799D+00
 Coeff:     -0.526D-04 0.689D-03 0.594D-03-0.342D-02-0.836D-02-0.263D-01
 Coeff:      0.423D-02 0.234D+00 0.799D+00
 Gap=     0.304 Goal=   None    Shift=    0.000
 RMSDP=1.04D-07 MaxDP=2.61D-06 DE=-1.48D-09 OVMax= 7.26D-06

 Cycle  10  Pass 1  IDiag  1:
 RMSU=  6.52D-08    CP:  1.08D+00  1.16D+00  7.64D-01  1.08D+00  9.09D-01
                    CP:  1.13D+00  1.09D+00  1.04D+00  1.08D+00
 E= -232.380622169557     Delta-E=       -0.000000000107 Rises=F Damp=F
 DIIS: error= 1.38D-07 at cycle  10 NSaved=  10.
 NSaved=10 IEnMin=10 EnMin= -232.380622169557     IErMin=10 ErrMin= 1.38D-07
 ErrMax= 1.38D-07  0.00D+00 EMaxC= 1.00D-01 BMatC= 5.51D-12 BMatP= 6.91D-11
 IDIUse=1 WtCom= 1.00D+00 WtEn= 0.00D+00
 Coeff-Com: -0.475D-05-0.294D-04 0.518D-04 0.809D-03 0.158D-02-0.609D-02
 Coeff-Com: -0.176D-01-0.373D-01 0.193D+00 0.866D+00
 Coeff:     -0.475D-05-0.294D-04 0.518D-04 0.809D-03 0.158D-02-0.609D-02
 Coeff:     -0.176D-01-0.373D-01 0.193D+00 0.866D+00
 Gap=     0.304 Goal=   None    Shift=    0.000
 RMSDP=4.52D-08 MaxDP=2.57D-06 DE=-1.07D-10 OVMax= 2.10D-06

 Cycle  11  Pass 1  IDiag  1:
 RMSU=  2.03D-08    CP:  1.08D+00  1.16D+00  7.64D-01  1.08D+00  9.09D-01
                    CP:  1.13D+00  1.10D+00  1.05D+00  1.16D+00  1.04D+00
 E= -232.380622169566     Delta-E=       -0.000000000009 Rises=F Damp=F
 DIIS: error= 2.86D-08 at cycle  11 NSaved=  11.
 NSaved=11 IEnMin=11 EnMin= -232.380622169566     IErMin=11 ErrMin= 2.86D-08
 ErrMax= 2.86D-08  0.00D+00 EMaxC= 1.00D-01 BMatC= 1.57D-13 BMatP= 5.51D-12
 IDIUse=1 WtCom= 1.00D+00 WtEn= 0.00D+00
 Coeff-Com:  0.142D-05-0.362D-04-0.162D-04 0.289D-03 0.629D-03 0.107D-03
 Coeff-Com: -0.340D-02-0.171D-01-0.772D-02 0.148D+00 0.879D+00
 Coeff:      0.142D-05-0.362D-04-0.162D-04 0.289D-03 0.629D-03 0.107D-03
 Coeff:     -0.340D-02-0.171D-01-0.772D-02 0.148D+00 0.879D+00
 Gap=     0.304 Goal=   None    Shift=    0.000
 RMSDP=8.41D-09 MaxDP=1.90D-07 DE=-9.09D-12 OVMax= 3.78D-07

 SCF Done:  E(RM062X) =  -232.380622170     A.U. after   11 cycles
            NFock= 11  Conv=0.84D-08     -V/T= 2.0039
 KE= 2.314730334351D+02 PE=-9.019141834302D+02 EE= 2.579252638254D+02
 Leave Link  502 at Mon Oct 14 01:54:48 2019, MaxMem=  1342177280 cpu:              99.0 elap:               4.2
 (Enter /apps/cent7/gaussian/g16-A.03/g16-haswell/g16/l701.exe)
 ... and contract with generalized density number  0.
 Compute integral first derivatives.
 Leave Link  701 at Mon Oct 14 01:54:48 2019, MaxMem=  1342177280 cpu:               3.2 elap:               0.2
 (Enter /apps/cent7/gaussian/g16-A.03/g16-haswell/g16/l702.exe)
 L702 exits ... SP integral derivatives will be done elsewhere.
 Leave Link  702 at Mon Oct 14 01:54:48 2019, MaxMem=  1342177280 cpu:               0.5 elap:               0.0
 (Enter /apps/cent7/gaussian/g16-A.03/g16-haswell/g16/l703.exe)
 Integral derivatives from FoFJK, PRISM(SPDF).
 Compute integral first derivatives, UseDBF=F ICtDFT=           0.
 Calling FoFJK, ICntrl=      2127 FMM=F ISym2X=0 I1Cent= 0 IOpClX= 0 NMat=1 NMatS=1 NMatT=0.
 FoFJK:  IHMeth= 1 ICntrl=    2127 DoSepK=F KAlg= 0 I1Cent=           0 FoldK=F
 IRaf=         0 NMat=       1 IRICut=       1 DoRegI=T DoRafI=F ISym2E= 0 IDoP0=0 IntGTp=1.
 FoFCou: FMM=F IPFlag=           0 FMFlag=      100000 FMFlg1=         800
         NFxFlg=           0 DoJE=F BraDBF=F KetDBF=F FulRan=T
         wScrn=  0.000000 ICntrl=      2127 IOpCl=  0 I1Cent=           0 NGrid=           0
         NMat0=    1 NMatS0=      1 NMatT0=    0 NMatD0=    1 NMtDS0=    0 NMtDT0=    0
 Symmetry not used in FoFCou.
 Leave Link  703 at Mon Oct 14 01:54:49 2019, MaxMem=  1342177280 cpu:              18.7 elap:               0.8
 (Enter /apps/cent7/gaussian/g16-A.03/g16-haswell/g16/l716.exe)
 Dipole        = 2.04644936D-02-2.50844472D-01 5.93034413D-01
 ***** Axes restored to original set *****
 -------------------------------------------------------------------
 Center     Atomic                   Forces (Hartrees/Bohr)
 Number     Number              X              Y              Z
 -------------------------------------------------------------------
      1        6          -0.001168264   -0.002213823    0.001973443
      2        6          -0.004899335    0.005318844    0.000561887
      3        6           0.000018188    0.000801911    0.001803370
      4        8           0.003485261    0.000213650   -0.008285209
      5        6          -0.002156709   -0.001483125    0.006441108
      6        1           0.002415575   -0.002010482   -0.001236069
      7        1           0.000012851   -0.000153779    0.000524535
      8        1           0.000554094   -0.001954066   -0.000579513
      9        1           0.000489032    0.001509517    0.000478705
     10        1           0.000695173    0.000149334   -0.000197969
     11        1           0.000449130   -0.000597279   -0.000399065
     12        1          -0.000572437   -0.000269374   -0.000840234
     13        1           0.000677442    0.000688672   -0.000244990
 -------------------------------------------------------------------
 Cartesian Forces:  Max     0.008285209 RMS     0.002364890
 Leave Link  716 at Mon Oct 14 01:54:49 2019, MaxMem=  1342177280 cpu:               0.5 elap:               0.0
 (Enter /apps/cent7/gaussian/g16-A.03/g16-haswell/g16/l103.exe)

 GradGradGradGradGradGradGradGradGradGradGradGradGradGradGradGradGradGrad
 Berny optimization.
 Using GEDIIS/GDIIS optimizer.
 FormGI is forming the generalized inverse of G from B-inverse, IUseBI=4.
 Internal  Forces:  Max     0.006687701 RMS     0.001856200
 Search for a local minimum.
 Step number   2 out of a maximum of   56
 All quantities printed in internal units (Hartrees-Bohrs-Radians)
 RMS Force = .18562D-02 SwitMx=.10000D-02 MixMth= 1
 Mixed Optimization -- RFO/linear search
 Update second derivatives using D2CorX and points    1    2
 DE= -8.19D-03 DEPred=-7.77D-03 R= 1.05D+00
 TightC=F SS=  1.41D+00  RLast= 2.47D-01 DXNew= 5.0454D-01 7.4051D-01
 Trust test= 1.05D+00 RLast= 2.47D-01 DXMaxT set to 5.05D-01
 ITU=  1  0
 Use linear search instead of GDIIS.
     Eigenvalues ---    0.00235   0.01264   0.01273   0.01295   0.02680
     Eigenvalues ---    0.02683   0.07089   0.07231   0.10186   0.10595
     Eigenvalues ---    0.15526   0.16000   0.16000   0.16000   0.16000
     Eigenvalues ---    0.16000   0.16000   0.16527   0.22505   0.25000
     Eigenvalues ---    0.25365   0.28508   0.37016   0.37230   0.37230
     Eigenvalues ---    0.37230   0.37230   0.37230   0.37230   0.37604
     Eigenvalues ---    0.40303   0.42206   0.56407
 RFO step:  Lambda=-1.81312615D-03 EMin= 2.34999545D-03
 Quartic linear search produced a step of  0.10392.
 Iteration  1 RMS(Cart)=  0.10928153 RMS(Int)=  0.00542641
 Iteration  2 RMS(Cart)=  0.00616299 RMS(Int)=  0.00005015
 Iteration  3 RMS(Cart)=  0.00001741 RMS(Int)=  0.00004827
 Iteration  4 RMS(Cart)=  0.00000000 RMS(Int)=  0.00004827
 ITry= 1 IFail=0 DXMaxC= 3.39D-01 DCOld= 1.00D+10 DXMaxT= 5.05D-01 DXLimC= 3.00D+00 Rises=F
 Variable       Old X    -DE/DX   Delta X   Delta X   Delta X     New X
                                 (Linear)    (Quad)   (Total)
    R1        2.85244  -0.00195  -0.00600  -0.00534  -0.01134   2.84111
    R2        2.50596   0.00284  -0.00572   0.00750   0.00179   2.50774
    R3        2.61387  -0.00181  -0.00919  -0.00187  -0.01106   2.60280
    R4        2.05456   0.00140   0.00338   0.00299   0.00637   2.06094
    R5        2.05988   0.00035   0.00394  -0.00028   0.00366   2.06354
    R6        2.06245   0.00115   0.00420   0.00199   0.00619   2.06863
    R7        2.04316   0.00060   0.00220   0.00103   0.00323   2.04639
    R8        2.04639  -0.00027   0.00253  -0.00162   0.00091   2.04730
    R9        2.69687  -0.00394  -0.00057  -0.01031  -0.01088   2.68599
   R10        2.06704   0.00083   0.00468   0.00089   0.00557   2.07262
   R11        2.05618   0.00050   0.00355   0.00031   0.00386   2.06004
   R12        2.06430   0.00085   0.00439   0.00105   0.00545   2.06974
    A1        2.17043   0.00317   0.00790   0.01089   0.01879   2.18922
    A2        2.02160  -0.00442  -0.00757  -0.01649  -0.02406   1.99754
    A3        2.09114   0.00126  -0.00034   0.00558   0.00524   2.09638
    A4        1.90207   0.00372  -0.00089   0.02759   0.02659   1.92866
    A5        1.92074  -0.00102   0.00105  -0.00821  -0.00716   1.91359
    A6        1.93018   0.00176   0.00203   0.00986   0.01180   1.94198
    A7        1.90905  -0.00102  -0.00017  -0.00452  -0.00469   1.90436
    A8        1.90529  -0.00255  -0.00056  -0.01540  -0.01615   1.88913
    A9        1.89636  -0.00096  -0.00148  -0.00971  -0.01119   1.88517
   A10        2.09432   0.00159  -0.00001   0.01076   0.01074   2.10506
   A11        2.10267  -0.00013   0.00086  -0.00123  -0.00038   2.10230
   A12        2.08605  -0.00147  -0.00087  -0.00958  -0.01045   2.07559
   A13        1.94813   0.00669   0.00390   0.02769   0.03158   1.97972
   A14        1.94225  -0.00042   0.00329  -0.00515  -0.00190   1.94036
   A15        1.85564   0.00170  -0.00571   0.01540   0.00970   1.86533
   A16        1.93045  -0.00081   0.00206  -0.00702  -0.00501   1.92544
   A17        1.90750  -0.00035  -0.00033  -0.00104  -0.00136   1.90614
   A18        1.91245  -0.00013   0.00019  -0.00360  -0.00349   1.90896
   A19        1.91467   0.00006   0.00042   0.00203   0.00245   1.91713
    D1        0.48318  -0.00083  -0.00420  -0.17588  -0.18000   0.30318
    D2        2.57652  -0.00040  -0.00431  -0.16932  -0.17362   2.40290
    D3       -1.61130  -0.00113  -0.00421  -0.18041  -0.18469  -1.79599
    D4       -2.65056  -0.00079  -0.00338  -0.17394  -0.17726  -2.82782
    D5       -0.55722  -0.00036  -0.00349  -0.16738  -0.17088  -0.72810
    D6        1.53814  -0.00109  -0.00339  -0.17847  -0.18195   1.35619
    D7       -0.01959  -0.00030  -0.00204  -0.00876  -0.01077  -0.03036
    D8        3.14049  -0.00016  -0.00011  -0.00559  -0.00568   3.13481
    D9        3.11386  -0.00037  -0.00288  -0.01087  -0.01378   3.10008
   D10       -0.00924  -0.00023  -0.00096  -0.00770  -0.00868  -0.01793
   D11       -1.50978   0.00179   0.00634   0.11880   0.12518  -1.38460
   D12        1.63928   0.00182   0.00712   0.12061   0.12769   1.76697
   D13        1.05845  -0.00048   0.00117  -0.00581  -0.00457   1.05388
   D14        3.13389  -0.00011  -0.00080  -0.00055  -0.00136   3.13253
   D15       -1.07167   0.00054  -0.00254   0.00720   0.00459  -1.06708
         Item               Value     Threshold  Converged?
 Maximum Force            0.006688     0.000450     NO 
 RMS     Force            0.001856     0.000300     NO 
 Maximum Displacement     0.339190     0.001800     NO 
 RMS     Displacement     0.108727     0.001200     NO 
 Predicted change in Energy=-1.270514D-03
 Lowest energy point so far.  Saving SCF results.
 GradGradGradGradGradGradGradGradGradGradGradGradGradGradGradGradGradGrad

 Leave Link  103 at Mon Oct 14 01:54:49 2019, MaxMem=  1342177280 cpu:               0.5 elap:               0.0
 (Enter /apps/cent7/gaussian/g16-A.03/g16-haswell/g16/l202.exe)
                          Input orientation:                          
 ---------------------------------------------------------------------
 Center     Atomic      Atomic             Coordinates (Angstroms)
 Number     Number       Type             X           Y           Z
 ---------------------------------------------------------------------
      1          6           0        0.517029   -0.937806   -0.655769
      2          6           0        1.217861   -2.261882   -0.782326
      3          6           0        1.114724    0.238901   -0.517353
      4          8           0       -0.857886   -1.015912   -0.679983
      5          6           0       -1.392924   -1.157919   -1.989122
      6          1           0        2.251760   -2.180651   -0.444887
      7          1           0        0.701795   -3.009682   -0.176614
      8          1           0        1.222493   -2.611116   -1.819787
      9          1           0        2.193977    0.305688   -0.458813
     10          1           0        0.528581    1.146673   -0.439203
     11          1           0       -1.025702   -2.072652   -2.470103
     12          1           0       -2.476237   -1.218244   -1.883425
     13          1           0       -1.127082   -0.291868   -2.604654
 ---------------------------------------------------------------------
                    Distance matrix (angstroms):
                    1          2          3          4          5
     1  C    0.000000
     2  C    1.503450   0.000000
     3  C    1.327041   2.516895   0.000000
     4  O    1.377345   2.423147   2.343544   0.000000
     5  C    2.339701   3.080793   3.225757   1.421365   0.000000
     6  H    2.144395   1.090601   2.674385   3.328932   4.088320
     7  H    2.134573   1.091978   3.292401   2.580912   3.331975
     8  H    2.156985   1.094674   3.135370   2.858637   2.996808
     9  H    2.096956   2.765842   1.082901   3.333079   4.165315
    10  H    2.095730   3.494436   1.083384   2.580124   3.377214
    11  H    2.638124   2.813889   3.706471   2.085519   1.096781
    12  H    3.247372   3.993490   4.109066   2.026887   1.090128
    13  H    2.630302   3.563789   3.108736   2.073901   1.095261
                    6          7          8          9         10
     6  H    0.000000
     7  H    1.778104   0.000000
     8  H    1.770604   1.769180   0.000000
     9  H    2.487050   3.646632   3.362109   0.000000
    10  H    3.747060   4.168242   4.063065   1.865793   0.000000
    11  H    3.854207   3.020325   2.401506   4.479745   4.111495
    12  H    5.034836   4.027697   3.952815   5.114957   4.087485
    13  H    4.432682   4.077583   3.393439   3.998892   3.082174
                   11         12         13
    11  H    0.000000
    12  H    1.782767   0.000000
    13  H    1.788735   1.788452   0.000000
 Stoichiometry    C4H8O
 Framework group  C1[X(C4H8O)]
 Deg. of freedom    33
 Full point group                 C1      NOp   1
 RotChk:  IX=3 Diff= 1.41D-01
 Largest Abelian subgroup         C1      NOp   1
 Largest concise Abelian subgroup C1      NOp   1
                         Standard orientation:                         
 ---------------------------------------------------------------------
 Center     Atomic      Atomic             Coordinates (Angstroms)
 Number     Number       Type             X           Y           Z
 ---------------------------------------------------------------------
      1          6           0       -0.515437    0.125038   -0.123762
      2          6           0       -1.039223   -1.273831    0.047035
      3          6           0       -1.182234    1.236395    0.161378
      4          8           0        0.762329    0.197147   -0.632873
      5          6           0        1.771898   -0.047211    0.337353
      6          1           0       -2.125642   -1.265993    0.142133
      7          1           0       -0.760454   -1.878368   -0.818550
      8          1           0       -0.620521   -1.748287    0.940283
      9          1           0       -2.200925    1.190132    0.525801
     10          1           0       -0.722629    2.206060    0.012268
     11          1           0        1.670879   -1.049838    0.770323
     12          1           0        2.729992    0.026392   -0.177445
     13          1           0        1.720651    0.700381    1.136149
 ---------------------------------------------------------------------
 Rotational constants (GHZ):           7.5682278           4.3515249           3.1795243
 Leave Link  202 at Mon Oct 14 01:54:49 2019, MaxMem=  1342177280 cpu:               0.3 elap:               0.0
 (Enter /apps/cent7/gaussian/g16-A.03/g16-haswell/g16/l301.exe)
 Standard basis: 6-311++G(d,p) (5D, 7F)
 Ernie: Thresh=  0.10000D-02 Tol=  0.10000D-05 Strict=F.
 There are   171 symmetry adapted cartesian basis functions of A   symmetry.
 There are   166 symmetry adapted basis functions of A   symmetry.
   166 basis functions,   252 primitive gaussians,   171 cartesian basis functions
    20 alpha electrons       20 beta electrons
       nuclear repulsion energy       180.3207003239 Hartrees.
 IExCor= 4336 DFT=T Ex+Corr=M062X ExCW=0 ScaHFX=  0.540000
 ScaDFX=  1.000000  1.000000  1.000000  1.000000 ScalE2=  1.000000  1.000000
 IRadAn=      5 IRanWt=     -1 IRanGd=            0 ICorTp=0 IEmpDi=  4
 NAtoms=   13 NActive=   13 NUniq=   13 SFac= 1.00D+00 NAtFMM=   60 NAOKFM=F Big=F
 Integral buffers will be    131072 words long.
 Raffenetti 2 integral format.
 Two-electron integral symmetry is turned on.
 Leave Link  301 at Mon Oct 14 01:54:49 2019, MaxMem=  1342177280 cpu:               1.2 elap:               0.1
 (Enter /apps/cent7/gaussian/g16-A.03/g16-haswell/g16/l302.exe)
 NPDir=0 NMtPBC=     1 NCelOv=     1 NCel=       1 NClECP=     1 NCelD=      1
         NCelK=      1 NCelE2=     1 NClLst=     1 CellRange=     0.0.
 One-electron integrals computed using PRISM.
 One-electron integral symmetry used in STVInt
 NBasis=   166 RedAO= T EigKep=  2.47D-05  NBF=   166
 NBsUse=   166 1.00D-06 EigRej= -1.00D+00 NBFU=   166
 Precomputing XC quadrature grid using
 IXCGrd= 4 IRadAn=           5 IRanWt=          -1 IRanGd=           0 AccXCQ= 0.00D+00.
 Generated NRdTot=       0 NPtTot=           0 NUsed=           0 NTot=          32
 NSgBfM=   171   171   171   171   171 MxSgAt=    13 MxSgA2=    13.
 Leave Link  302 at Mon Oct 14 01:54:49 2019, MaxMem=  1342177280 cpu:               3.0 elap:               0.1
 (Enter /apps/cent7/gaussian/g16-A.03/g16-haswell/g16/l303.exe)
 DipDrv:  MaxL=1.
 Leave Link  303 at Mon Oct 14 01:54:49 2019, MaxMem=  1342177280 cpu:               0.6 elap:               0.0
 (Enter /apps/cent7/gaussian/g16-A.03/g16-haswell/g16/l401.exe)
 Initial guess from the checkpoint file:  "mop.chk"
 B after Tr=     0.000000   -0.000000    0.000000
[...]
 ! R3    R(1,4)                  1.3705         -DE/DX =    0.0001              !
 ! R4    R(2,6)                  1.0885         -DE/DX =    0.0                 !
 ! R5    R(2,7)                  1.0937         -DE/DX =    0.0                 !
 ! R6    R(2,8)                  1.0929         -DE/DX =    0.0                 !
 ! R7    R(3,9)                  1.0807         -DE/DX =    0.0                 !
 ! R8    R(3,10)                 1.0818         -DE/DX =    0.0                 !
 ! R9    R(4,5)                  1.4148         -DE/DX =    0.0                 !
 ! R10   R(5,11)                 1.0938         -DE/DX =    0.0                 !
 ! R11   R(5,12)                 1.0881         -DE/DX =    0.0                 !
 ! R12   R(5,13)                 1.0951         -DE/DX =    0.0                 !
 ! A1    A(2,1,3)              124.3456         -DE/DX =    0.0                 !
 ! A2    A(2,1,4)              117.1024         -DE/DX =    0.0001              !
 ! A3    A(3,1,4)              118.4534         -DE/DX =    0.0                 !
 ! A4    A(1,2,6)              109.754          -DE/DX =    0.0                 !
 ! A5    A(1,2,7)              110.4288         -DE/DX =    0.0                 !
 ! A6    A(1,2,8)              111.823          -DE/DX =    0.0                 !
 ! A7    A(6,2,7)              108.793          -DE/DX =    0.0                 !
 ! A8    A(6,2,8)              108.1683         -DE/DX =    0.0                 !
 ! A9    A(7,2,8)              107.7867         -DE/DX =    0.0                 !
 ! A10   A(1,3,9)              120.5187         -DE/DX =    0.0                 !
 ! A11   A(1,3,10)             120.2731         -DE/DX =    0.0                 !
 ! A12   A(9,3,10)             119.19           -DE/DX =    0.0                 !
 ! A13   A(1,4,5)              116.9633         -DE/DX =    0.0001              !
 ! A14   A(4,5,11)             111.9462         -DE/DX =    0.0                 !
 ! A15   A(4,5,12)             106.1889         -DE/DX =    0.0                 !
 ! A16   A(4,5,13)             111.0929         -DE/DX =    0.0                 !
 ! A17   A(11,5,12)            108.921          -DE/DX =    0.0                 !
 ! A18   A(11,5,13)            109.4328         -DE/DX =    0.0                 !
 ! A19   A(12,5,13)            109.1601         -DE/DX =    0.0                 !
 ! D1    D(3,1,2,6)              3.7737         -DE/DX =    0.0                 !
 ! D2    D(3,1,2,7)            123.7092         -DE/DX =    0.0                 !
 ! D3    D(3,1,2,8)           -116.2717         -DE/DX =    0.0                 !
 ! D4    D(4,1,2,6)           -172.5513         -DE/DX =    0.0                 !
 ! D5    D(4,1,2,7)            -52.6158         -DE/DX =    0.0                 !
 ! D6    D(4,1,2,8)             67.4034         -DE/DX =    0.0                 !
 ! D7    D(2,1,3,9)             -1.2616         -DE/DX =    0.0                 !
 ! D8    D(2,1,3,10)          -179.6973         -DE/DX =    0.0                 !
 ! D9    D(4,1,3,9)            175.0174         -DE/DX =    0.0                 !
 ! D10   D(4,1,3,10)            -3.4184         -DE/DX =    0.0                 !
 ! D11   D(2,1,4,5)            -39.3332         -DE/DX =    0.0                 !
 ! D12   D(3,1,4,5)            144.1177         -DE/DX =    0.0                 !
 ! D13   D(1,4,5,11)            66.1513         -DE/DX =    0.0                 !
 ! D14   D(1,4,5,12)          -175.0973         -DE/DX =    0.0                 !
 ! D15   D(1,4,5,13)           -56.5238         -DE/DX =    0.0                 !
 --------------------------------------------------------------------------------
 GradGradGradGradGradGradGradGradGradGradGradGradGradGradGradGradGradGrad

 Leave Link  103 at Mon Oct 14 01:56:16 2019, MaxMem=  1342177280 cpu:               0.4 elap:               0.0
 (Enter /apps/cent7/gaussian/g16-A.03/g16-haswell/g16/l9999.exe)

 ----------------------------------------------------------------------

 Electric dipole moment (input orientation):
 (Debye = 10**-18 statcoulomb cm , SI units = C m)
                  (au)            (Debye)         (10**-30 SI)
   Tot        0.771410D+00      0.196073D+01      0.654029D+01
   x          0.855972D-01      0.217566D+00      0.725723D+00
   y         -0.587998D+00     -0.149454D+01     -0.498525D+01
   z         -0.491940D+00     -0.125039D+01     -0.417084D+01

 Dipole polarizability, Alpha (input orientation).
 (esu units = cm**3 , SI units = C**2 m**2 J**-1)
 Alpha(0;0):
               (au)            (10**-24 esu)      (10**-40 SI)
   iso        0.537975D+02      0.797196D+01      0.887000D+01
   aniso      0.238029D+02      0.352722D+01      0.392457D+01
   xx         0.564353D+02      0.836285D+01      0.930493D+01
   yx         0.648305D+01      0.960689D+00      0.106891D+01
   yy         0.582714D+02      0.863493D+01      0.960765D+01
   zx         0.753804D+01      0.111702D+01      0.124286D+01
   zy         0.715759D+01      0.106065D+01      0.118013D+01
   zz         0.466857D+02      0.691810D+01      0.769743D+01

 ----------------------------------------------------------------------

 Dipole orientation:
     6          0.77134959         -0.14462306          2.08168795
     6          1.74213765          1.04972987          4.46549140
     6          2.22365739         -0.84745710          0.15394572
     8         -1.79596735         -0.39071475          1.84710972
     6         -3.15153338         -1.08927879          4.04337965
     1          3.76957016          1.36149606          4.31139267
     1          0.81215423          2.86627819          4.79239610
     1          1.39730880         -0.14183005          6.11669613
     1          4.24201839         -0.54055848          0.21034289
     1          1.38932708         -1.69041258         -1.51108682
     1         -3.08482245          0.38281722          5.49294492
     1         -5.10292467         -1.35543426          3.45227572
     1         -2.43193164         -2.86318987          4.82960660

 Electric dipole moment (dipole orientation):
 (Debye = 10**-18 statcoulomb cm , SI units = C m)
                  (au)            (Debye)         (10**-30 SI)
   Tot        0.771410D+00      0.196073D+01      0.654029D+01
   x          0.000000D+00      0.000000D+00      0.000000D+00
   y          0.000000D+00      0.000000D+00      0.000000D+00
   z          0.771410D+00      0.196073D+01      0.654029D+01

 Dipole polarizability, Alpha (dipole orientation).
 (esu units = cm**3 , SI units = C**2 m**2 J**-1)
 Alpha(0;0):
               (au)            (10**-24 esu)      (10**-40 SI)
   iso        0.537975D+02      0.797196D+01      0.887000D+01
   aniso      0.238029D+02      0.352722D+01      0.392457D+01
   xx         0.587271D+02      0.870246D+01      0.968279D+01
   yx         0.373961D+00      0.554152D-01      0.616578D-01
   yy         0.443332D+02      0.656950D+01      0.730955D+01
   zx        -0.976898D+01     -0.144761D+01     -0.161069D+01
   zy         0.510567D+01      0.756582D+00      0.841811D+00
   zz         0.583321D+02      0.864392D+01      0.961766D+01

 ----------------------------------------------------------------------
 1\1\GINC-BROWN-A428\Freq\RM062X\6-311++G(d,p)\C4H8O1\FINEJ\14-Oct-2019
 \0\\#P Geom=AllCheck Guess=TCheck SCRF=Check GenChk RM062X/6-311++G(d,
 p) Freq\\MOP\\0,1\C,0.5312979883,-0.7692063327,-0.7155382766\C,1.14848
 74324,-2.1120070248,-0.9812312716\C,1.2000619788,0.2880336981,-0.26321
 06128\O,-0.8241023544,-0.6607236362,-0.886388816\C,-1.387991007,-1.345
 1353388,-1.9889208265\H,2.1957237456,-2.1008921505,-0.6844268869\H,0.6
 296117833,-2.8895302397,-0.4134364519\H,1.0969044771,-2.3806092376,-2.
 0393283483\H,2.2550269867,0.2156572687,-0.0399371682\H,0.6871417433,1.
 2246588914,-0.0903254202\H,-1.3080693866,-2.4306439345,-1.880397549\H,
 -2.440294291,-1.0691614415,-2.0113832391\H,-0.9154113364,-1.0369113719
 ,-2.9275132729\\Version=ES64L-G16RevA.03\State=1-A\HF=-232.3845216\RMS
 D=2.232e-09\RMSF=2.779e-05\ZeroPoint=0.1137864\Thermal=0.1137864\Dipol
 e=0.0855972,-0.5879978,-0.4919401\DipoleDeriv=1.301294,0.3827309,0.444
 4455,0.0458739,0.6010023,0.1274277,0.2085545,0.1623585,-0.0189254,-0.0
 769678,0.0154026,-0.0552204,0.1150033,-0.1082219,-0.0506024,0.0225734,
 -0.0377684,0.1208845,-0.2327972,-0.1856017,-0.0486494,-0.2618772,-0.37
 76719,-0.0308967,-0.047757,-0.0389813,-0.427739,-1.419517,-0.4430475,-
 0.5409315,-0.0993129,-0.58166,-0.1663984,-0.3049443,-0.1675435,-0.5743
 542,0.4238282,0.1400755,0.197189,0.2287331,0.4749621,0.1969195,0.28190
 79,0.1557538,0.6314758,-0.0775202,0.0273314,-0.0390122,-0.0352639,0.06
 73132,-0.0153008,-0.0585511,0.0081517,0.0742262,0.0358723,-0.0505203,0
 .0678113,-0.0502291,-0.06583,0.0120615,0.0543558,0.0606262,0.0451398,0
 .0909285,0.0132747,-0.0244554,-0.0027519,0.001241,-0.0197764,-0.018026
 5,-0.061267,-0.084334,-0.0435761,0.0184147,-0.0451178,0.0557791,0.0641
 438,-0.0178108,-0.0483343,-0.0255586,0.1383497,0.0362335,0.0688336,-0.
 011898,0.0438391,-0.000599,-0.0442381,-0.0126146,-0.0475337,0.1704085,
 0.0611512,0.038823,-0.0092541,-0.0340966,-0.1554085,-0.0271013,-0.0511
 157,0.034027,-0.0044582,-0.1113332,0.011475,-0.0488423,0.0590205,0.063
 1415,-0.0065706,-0.0047019,-0.028923,0.0628079,0.0124038,-0.0371917,0.
 1139353,-0.0647174,0.0175874,0.0422868,-0.0213463,-0.0133418,-0.133481
 5\Polar=56.4353355,6.4830514,58.2713742,7.5380414,7.1575876,46.685661\
 Quadrupole=0.9639227,-0.0243271,-0.9395956,0.3272071,1.8832867,0.42587
 55\PG=C01 [X(C4H8O1)]\NImag=0\\0.61336228,0.11325734,0.73482687,0.1204
 3146,0.20613524,0.28150216,-0.10310309,0.04413368,0.00778981,0.5908598
 7,0.04618064,-0.20000609,-0.02884247,0.03041028,0.50723766,0.00441829,
 -0.02666634,-0.08537889,0.01632074,-0.00220737,0.54840321,-0.20012430,
 -0.16830414,-0.08182943,0.01200025,0.01055182,0.00495123,0.70786021,-0
 .16718500,-0.39804784,-0.13903887,-0.01126346,-0.02534274,-0.01119431,
 0.04219439,0.74510447,-0.08286805,-0.13995304,-0.11713072,-0.00291529,
 -0.00758769,0.00754591,0.14715039,0.20267089,0.18690444,-0.27981123,0.
 03635004,-0.00566669,-0.03193321,0.00449268,-0.00410986,-0.05727144,-0
 .01420659,-0.01528498,0.47916401,0.01392274,-0.09097630,-0.02572989,0.
 03455777,0.00163468,0.00331589,-0.04076388,0.00957529,-0.00637388,0.02
 292378,0.20525249,-0.03563091,-0.02281757,-0.07224591,0.00179026,0.000
 64544,0.00671376,-0.02580882,-0.00041510,0.00659392,0.12659695,0.14700
 212,0.28134604,-0.03259981,-0.02248997,-0.03524888,-0.00307593,0.00063
 031,0.00010496,-0.00083690,0.00435603,0.00041664,-0.10142361,-0.013684
 69,-0.03327226,0.60726509,-0.01295496,-0.00059374,0.00352929,0.0027762
 0,0.00155637,0.00247434,0.00460066,0.00253443,0.00019113,-0.02695202,-
 0.11348848,-0.08026841,-0.03127740,0.55960755,-0.01739467,0.00232045,-
 0.00927343,0.00275704,0.00096762,0.00107281,0.00616235,0.00090677,0.00
 187470,-0.05875231,-0.07843632,-0.17726141,-0.03416393,-0.03407503,0.5
 1359192,-0.01378646,-0.00313833,-0.00344931,-0.30575930,-0.00280177,-0
 .07403779,0.00057868,-0.00155199,0.00000863,-0.00041134,0.00305485,-0.
 00063096,0.00058664,0.00026582,0.00101421,0.32925642,0.02918160,0.0038
 3990,0.01016963,-0.00735276,-0.04716575,-0.00110556,-0.00029338,-0.000
 19579,-0.00028177,0.00498096,-0.00589837,-0.00092345,-0.00146557,-0.00
 146371,-0.00148111,0.00380489,0.05113786,0.00665929,0.00076994,-0.0007
 2182,-0.07546990,0.00003974,-0.06684604,0.00032016,-0.00025314,-0.0004
 0121,0.00154728,-0.00240227,0.00155430,-0.00082799,-0.00057697,-0.0005
 6759,0.08100483,0.00322246,0.06880262,0.00767813,0.00923342,-0.0100406
 5,-0.10912869,-0.08826847,0.06662082,-0.00058334,0.00113411,0.00077533
 ,0.00083244,-0.00151095,0.00069250,0.00002016,0.00046273,-0.00062958,-
 0.01223016,-0.02111979,0.01703314,0.11354796,-0.01746589,-0.02497981,0
 .01491389,-0.08919191,-0.17755330,0.10012888,0.00349321,-0.00235898,-0
 .00061847,-0.00003641,0.00272850,-0.00139066,0.00014521,-0.00010740,0.
 00031910,0.00066769,0.00027869,-0.00116664,0.09786435,0.19598308,-0.00
 399543,-0.00554523,0.00433848,0.06651892,0.09925304,-0.11782893,0.0002
 8532,-0.00115222,-0.00027279,-0.00089808,0.00042223,-0.00053574,0.0006
 3150,0.00125907,-0.00007314,-0.00409730,-0.00826254,0.00489075,-0.0734
 0288,-0.10752083,0.12587700,0.00165445,0.00081522,0.01436800,-0.047166
 85,-0.00105970,-0.01279779,-0.00073397,0.00056338,-0.00053292,-0.00005
 703,-0.00018379,-0.00169913,-0.00142465,0.00040228,0.00090833,0.000296
 37,-0.00734039,-0.03030972,-0.00006928,0.00423982,0.01541606,0.0486066
 8,-0.00521091,-0.00931748,-0.03242539,-0.00159423,-0.05940614,-0.06266
 487,0.00299793,-0.00237441,0.00075902,-0.00040187,0.00064458,0.0014126
 3,0.00066828,0.00086354,-0.00062255,-0.00019913,-0.00121983,0.00007757
 ,0.00200266,0.00601264,0.02282461,0.00197278,0.06620644,-0.00055051,-0
 .00353612,-0.00246594,-0.01315401,-0.06042941,-0.29761906,0.00123144,0
 .00016873,0.00044783,0.00081902,-0.00042745,0.00008677,-0.00202546,-0.
 00079642,-0.00043474,0.00005227,-0.00102280,-0.00715987,-0.00152669,-0
 .00393582,-0.01618841,0.01546580,0.06863151,0.32335723,-0.01214673,0.0
 0631923,-0.00034425,-0.00050343,0.00068153,0.00145543,-0.33773204,0.01
 998841,-0.06518303,0.00150448,-0.00203000,-0.00413989,-0.00050668,-0.0
 0000291,0.00072289,0.00094783,-0.00011936,0.00004943,0.00020851,-0.000
 15290,-0.00006414,0.00028590,0.00026750,0.00012635,0.35511294,-0.02322
 027,0.00475795,-0.00316256,-0.00124093,-0.00023404,0.00156048,0.027450
 45,-0.05473460,-0.00181598,-0.00145931,-0.00259278,-0.00507429,-0.0012
 9869,0.00048260,0.00013670,0.00006057,-0.00087071,-0.00038748,0.000053
 96,-0.00021793,-0.00022358,0.00011952,0.00031711,0.00014465,-0.0224432
 6,0.05053402,-0.00834833,0.00422902,-0.00195040,0.00169319,0.00186874,
 -0.00566755,-0.06457368,-0.00461763,-0.04324846,-0.00556132,-0.0040103
 2,0.00756927,0.00115053,-0.00015943,0.00228528,-0.00006759,-0.00064210
 ,0.00043597,0.00022188,0.00103905,0.00053843,-0.00030912,-0.00110117,-
 0.00006988,0.07030857,0.00335952,0.03830682,0.00968678,-0.01449257,-0.
 00375682,-0.00099274,-0.00089880,-0.00288900,-0.12180993,0.12639143,0.
 01815644,0.00017243,-0.00018203,0.00171299,0.00027538,0.00005441,0.000
 00887,0.00031071,-0.00023387,0.00006286,0.00020157,0.00003734,0.000162
 42,0.00028731,-0.00074292,-0.00005662,-0.00690324,0.02218156,0.0052116
 2,0.11866059,0.01541538,-0.01805154,-0.00405140,-0.00220875,-0.0003004
 5,-0.00406986,0.12030921,-0.27382912,-0.04699039,0.00084874,0.00132806
 ,0.00273646,-0.00013625,0.00001986,0.00004118,-0.00019351,0.00042140,0
 .00013311,-0.00000933,-0.00012339,-0.00008609,0.00017794,-0.00132773,-
 0.00010847,-0.00221453,0.00287357,0.00007137,-0.13219180,0.28879637,0.
 00674669,-0.01058821,0.00441895,-0.00409783,-0.00370682,0.00943241,0.0
 1635376,-0.04650352,-0.04175808,0.00241762,0.00306610,-0.00584648,-0.0
 0072331,-0.00003096,-0.00085583,0.00019714,0.00026904,-0.00008147,0.00
 067747,-0.00220730,-0.00081760,-0.00012202,0.00180270,0.00004760,-0.00
 253440,0.00581322,0.00210880,-0.01877262,0.05210163,0.03336562,0.00308
 812,-0.00234473,0.00072636,-0.00131170,0.00015152,0.00020287,-0.000566
 22,0.00032561,-0.00005200,-0.00024219,-0.01790611,-0.00377137,-0.05440
 807,0.02725682,-0.00227213,0.00026369,-0.00015382,-0.00011590,-0.00045
 801,0.00039508,-0.00043401,-0.00164198,0.00010572,-0.00013993,-0.00013
 349,0.00002917,-0.00013652,0.00002260,0.00010796,0.00010038,0.05367527
 ,0.00532269,-0.00102915,0.00060283,0.00096917,-0.00007550,0.00017905,-
 0.00122206,0.00004164,-0.00026353,-0.00760430,-0.01678538,-0.01265003,
 0.02257530,-0.30121267,0.03692212,-0.00000133,0.00073564,0.00050821,0.
 00019350,0.00013513,-0.00041633,0.00001523,-0.00001087,0.00086448,-0.0
 0012389,-0.00005507,-0.00024579,0.00001985,0.00015762,0.00020172,-0.02
 349948,0.33226292,0.00376071,-0.00144035,0.00141942,-0.00112835,0.0003
 6026,0.00071696,-0.00092143,-0.00004660,-0.00030526,-0.00363799,-0.036
 66091,-0.00495324,-0.00312352,0.04113630,-0.05649282,0.00013648,-0.000
 08216,-0.00037514,-0.00053047,0.00048219,-0.00020164,0.00013890,0.0004
 1741,-0.00039175,-0.00014495,0.00007543,-0.00030538,0.00003740,0.00009
 672,0.00018904,0.00772497,-0.03046489,0.06143172,0.00259396,-0.0011702
 0,-0.00171001,0.00012643,-0.00020399,0.00011797,-0.00079984,0.00011434
 ,-0.00022056,-0.01708518,-0.00056471,-0.00629923,-0.30612444,0.0712194
 4,0.00022551,-0.00001678,0.00003627,-0.00004820,-0.00000087,0.00001640
 ,-0.00005026,0.00011621,-0.00011831,-0.00003959,-0.00009174,-0.0002038
 5,0.00009608,0.00001421,-0.00000031,-0.00006902,-0.00024218,0.00097742
 ,0.00100138,0.33276958,-0.00013990,-0.00183032,-0.00267752,0.00065634,
 -0.00015094,-0.00023845,-0.00082194,0.00040009,-0.00007763,-0.02377491
 ,0.00326444,-0.00535481,0.07895099,-0.07061734,0.00322111,0.00002069,0
 .00031476,0.00029324,-0.00010066,0.00008112,-0.00037183,-0.00004906,-0
 .00007902,0.00059583,-0.00016961,-0.00022882,0.00006945,0.00001611,0.0
 0001985,-0.00007968,0.03075089,-0.00640763,-0.00056597,-0.07443899,0.0
 7197342,0.00007415,-0.00257171,-0.00345271,0.00023280,-0.00039743,-0.0
 0029520,-0.00152177,0.00022428,-0.00011955,-0.03685008,0.00313920,-0.0
 0775491,0.01098109,0.00038599,-0.04816549,-0.00004506,0.00006588,0.000
 21899,0.00003802,0.00001774,0.00011375,-0.00008897,0.00028875,0.000324
 10,-0.00020263,-0.00037583,0.00008795,0.00007561,0.00001216,-0.0001044
 4,-0.00485087,0.00244339,0.00062993,0.00653934,0.00501588,0.05603115,0
 .00350788,0.00183101,-0.00126959,-0.00001161,0.00013396,-0.00035786,0.
 00001884,-0.00086067,0.00054939,0.00656187,0.00236703,-0.01954013,-0.1
 0774718,-0.03585108,0.10141343,-0.00003630,0.00007523,0.00009473,-0.00
 001841,-0.00001199,-0.00007212,-0.00015315,0.00025251,-0.00020207,-0.0
 0004231,-0.00002892,0.00031467,0.00007431,0.00009524,-0.00017388,0.001
 95415,0.00237791,-0.00331311,-0.01125937,-0.01089996,0.02561838,0.1071
 5130,0.00289655,0.00140756,0.00057723,-0.00065138,-0.00019376,0.000488
 11,-0.00019230,-0.00077243,0.00034134,0.00483920,0.00531327,-0.0229023
 4,-0.03697356,-0.07758100,0.06977996,0.00001156,0.00008590,-0.00025777
 ,0.00006448,0.00012166,-0.00018029,0.00032677,-0.00030882,-0.00014872,
 -0.00000021,-0.00003130,0.00013930,0.00004130,0.00001551,-0.00013791,-
 0.01521863,-0.00775668,0.02669256,0.00433650,0.00326040,-0.00824829,0.
 04051973,0.07643969,0.00669730,-0.00033607,0.00094083,-0.00033738,0.00
 003637,-0.00024938,-0.00179952,-0.00074929,-0.00013074,-0.00061958,-0.
 00290449,-0.03526636,0.09610064,0.06693110,-0.22570025,-0.00008554,0.0
 0007447,0.00025053,0.00007113,-0.00006112,0.00015983,-0.00043742,0.000
 59978,0.00006612,-0.00004938,-0.00005029,-0.00009085,0.00004686,0.0001
 1359,-0.00009854,0.00301815,0.00231876,-0.00136183,0.00045658,0.000170
 38,0.00248642,-0.10306185,-0.06614318,0.25899422\\-0.00007869,0.000052
 16,0.00003459,-0.00001270,0.00000444,-0.00004749,0.00000799,0.00000743
 ,-0.00002645,0.00008486,-0.00002266,0.00005800,-0.00001307,-0.00002524
 ,-0.00003485,0.00001279,0.00000105,0.00001541,-0.00001454,-0.00001244,
 0.00001740,-0.00000614,-0.00000237,-0.00001868,0.00001107,-0.00001341,
 0.00001069,-0.00000917,0.00000439,-0.00000233,0.00000335,-0.00001968,0
 .00001119,-0.00000871,0.00001290,-0.00000434,0.00002296,0.00001343,-0.
 00001313\\\@


 WE DON'T KNOW ONE MILLIONTH OF ONE PERCENT ABOUT
 ANYTHING.
                                     T. A. EDISON.
 Job cpu time:       0 days  0 hours 12 minutes 41.4 seconds.
 Elapsed time:       0 days  0 hours  0 minutes 32.3 seconds.
 File lengths (MBytes):  RWF=     40 Int=      0 D2E=      0 Chk=      3 Scr=      1
 Normal termination of Gaussian 16 at Mon Oct 14 01:56:16 2019.
real 99.95
user 2245.83
sys 13.10
Machine:
brown-a428
brown-a428
brown-a428
brown-a428
brown-a428
brown-a428
brown-a428
brown-a428
brown-a428
brown-a428
brown-a428
brown-a428
brown-a428
brown-a428
brown-a428
brown-a428
brown-a428
brown-a428
brown-a428
brown-a428
brown-a428
brown-a428
brown-a428
brown-a428
