 Entering Gaussian System, Link 0=/apps/cent7/gaussian/g16-A.03/g16-haswell/g16/g16
 Initial command:
 /apps/cent7/gaussian/g16-A.03/g16-haswell/g16/l1.exe "/scratch/brown/finej/gaussian/Gau-181524.inp" -scrdir="/scratch/brown/finej/gaussian/"
 Entering Link 1 = /apps/cent7/gaussian/g16-A.03/g16-haswell/g16/l1.exe PID=    181525.
  
 Copyright (c) 1988,1990,1992,1993,1995,1998,2003,2009,2016,
            Gaussian, Inc.  All Rights Reserved.
  
 This is part of the Gaussian(R) 16 program.  It is based on
 the Gaussian(R) 09 system (copyright 2009, Gaussian, Inc.),
 the Gaussian(R) 03 system (copyright 2003, Gaussian, Inc.),
 the Gaussian(R) 98 system (copyright 1998, Gaussian, Inc.),
 the Gaussian(R) 94 system (copyright 1995, Gaussian, Inc.),
 the Gaussian 92(TM) system (copyright 1992, Gaussian, Inc.),
 the Gaussian 90(TM) system (copyright 1990, Gaussian, Inc.),
 the Gaussian 88(TM) system (copyright 1988, Gaussian, Inc.),
 the Gaussian 86(TM) system (copyright 1986, Carnegie Mellon
 University), and the Gaussian 82(TM) system (copyright 1983,
 Carnegie Mellon University). Gaussian is a federally registered
 trademark of Gaussian, Inc.
  
 This software contains proprietary and confidential information,
 including trade secrets, belonging to Gaussian, Inc.
  
 This software is provided under written license and may be
 used, copied, transmitted, or stored only in accord with that
 written license.
  
 The following legend is applicable only to US Government
 contracts under FAR:
  
                    RESTRICTED RIGHTS LEGEND
  
 Use, reproduction and disclosure by the US Government is
 subject to restrictions as set forth in subparagraphs (a)
 and (c) of the Commercial Computer Software - Restricted
 Rights clause in FAR 52.227-19.
  
 Gaussian, Inc.
 340 Quinnipiac St., Bldg. 40, Wallingford CT 06492
  
  
 ---------------------------------------------------------------
 Warning -- This program may not be used in any manner that
 competes with the business of Gaussian, Inc. or will provide
 assistance to any competitor of Gaussian, Inc.  The licensee
 of this program is prohibited from giving any competitor of
 Gaussian, Inc. access to this program.  By using this program,
 the user acknowledges that Gaussian, Inc. is engaged in the
 business of creating and licensing software in the field of
 computational chemistry and represents and warrants to the
 licensee that it is not a competitor of Gaussian, Inc. and that
 it will not use this program in any manner prohibited above.
 ---------------------------------------------------------------
  

 Cite this work as:
 Gaussian 16, Revision A.03,
 M. J. Frisch, G. W. Trucks, H. B. Schlegel, G. E. Scuseria, 
 M. A. Robb, J. R. Cheeseman, G. Scalmani, V. Barone, 
 G. A. Petersson, H. Nakatsuji, X. Li, M. Caricato, A. V. Marenich, 
 J. Bloino, B. G. Janesko, R. Gomperts, B. Mennucci, H. P. Hratchian, 
 J. V. Ortiz, A. F. Izmaylov, J. L. Sonnenberg, D. Williams-Young, 
 F. Ding, F. Lipparini, F. Egidi, J. Goings, B. Peng, A. Petrone, 
 T. Henderson, D. Ranasinghe, V. G. Zakrzewski, J. Gao, N. Rega, 
 G. Zheng, W. Liang, M. Hada, M. Ehara, K. Toyota, R. Fukuda, 
 J. Hasegawa, M. Ishida, T. Nakajima, Y. Honda, O. Kitao, H. Nakai, 
 T. Vreven, K. Throssell, J. A. Montgomery, Jr., J. E. Peralta, 
 F. Ogliaro, M. J. Bearpark, J. J. Heyd, E. N. Brothers, K. N. Kudin, 
 V. N. Staroverov, T. A. Keith, R. Kobayashi, J. Normand, 
 K. Raghavachari, A. P. Rendell, J. C. Burant, S. S. Iyengar, 
 J. Tomasi, M. Cossi, J. M. Millam, M. Klene, C. Adamo, R. Cammi, 
 J. W. Ochterski, R. L. Martin, K. Morokuma, O. Farkas, 
 J. B. Foresman, and D. J. Fox, Gaussian, Inc., Wallingford CT, 2016.
 
 ******************************************
 Gaussian 16:  ES64L-G16RevA.03 25-Dec-2016
                14-Oct-2019 
 ******************************************
 %nprocshared=24
 Will use up to   24 processors via shared memory.
 %mem=10GB
 %chk=mop_plus.chk
 -------------------------------------------------------------------
 #P opt freq m062x/6-311++g(d,p) geom=connectivity temperature=0.001
 -------------------------------------------------------------------
 1/18=20,19=15,26=3,38=1,57=2,112=-1000/1,3;
 2/9=110,12=2,17=6,18=5,40=1/2;
 3/5=4,6=6,7=1111,11=2,25=1,30=1,71=1,74=-55/1,2,3;
 4//1;
 5/5=2,38=5/2;
 6/7=2,8=2,9=2,10=2,28=1/1;
 7//1,2,3,16;
 1/18=20,19=15,26=3/3(2);
 2/9=110/2;
 99//99;
 2/9=110/2;
 3/5=4,6=6,7=1111,11=2,25=1,30=1,71=1,74=-55/1,2,3;
 4/5=5,16=3,69=1/1;
 5/5=2,38=5/2;
 7//1,2,3,16;
 1/18=20,19=15,26=3/3(-5);
 2/9=110/2;
 6/7=2,8=2,9=2,10=2,19=2,28=1/1;
 99/9=1/99;
 Leave Link    1 at Mon Oct 14 01:54:43 2019, MaxMem=  1342177280 cpu:               1.9 elap:               0.1
 (Enter /apps/cent7/gaussian/g16-A.03/g16-haswell/g16/l101.exe)
 --------
 MOP Plus
 --------
 Symbolic Z-matrix:
 Charge =  1 Multiplicity = 1
 C                     0.47094  -1.02444  -0.65493 
 C                     1.31227  -2.31267  -0.7199 
 C                     1.08349   0.18397  -0.62192 
 O                    -0.95665  -1.10334  -0.62942 
 C                    -1.45937  -1.07924  -1.96792 
 H                     2.24872  -2.15229  -0.22772 
 H                     0.78563  -3.10749  -0.23429 
 H                     1.48703  -2.57332  -1.74285 
 H                     2.01377   0.12675  -1.14747 
 H                     0.45553   0.91497  -1.08691 
 H                    -1.06578  -1.91242  -2.5118 
 H                    -2.52757  -1.13828  -1.94883 
 H                    -1.16093  -0.169    -2.44467 
 H                     1.26479   0.46429   0.39466 
 
 ITRead=  0  0  0  0  0  0  0  0  0  0  0  0  0  0
 MicOpt= -1 -1 -1 -1 -1 -1 -1 -1 -1 -1 -1 -1 -1 -1
 NAtoms=     14 NQM=       14 NQMF=       0 NMMI=      0 NMMIF=      0
                NMic=       0 NMicF=      0.
                    Isotopes and Nuclear Properties:
 (Nuclear quadrupole moments (NQMom) in fm**2, nuclear magnetic moments (NMagM)
  in nuclear magnetons)

  Atom         1           2           3           4           5           6           7           8           9          10
 IAtWgt=          12          12          12          16          12           1           1           1           1           1
 AtmWgt=  12.0000000  12.0000000  12.0000000  15.9949146  12.0000000   1.0078250   1.0078250   1.0078250   1.0078250   1.0078250
 NucSpn=           0           0           0           0           0           1           1           1           1           1
 AtZEff=  -0.0000000  -0.0000000  -0.0000000  -0.0000000  -0.0000000  -0.0000000  -0.0000000  -0.0000000  -0.0000000  -0.0000000
 NQMom=    0.0000000   0.0000000   0.0000000   0.0000000   0.0000000   0.0000000   0.0000000   0.0000000   0.0000000   0.0000000
 NMagM=    0.0000000   0.0000000   0.0000000   0.0000000   0.0000000   2.7928460   2.7928460   2.7928460   2.7928460   2.7928460
 AtZNuc=   6.0000000   6.0000000   6.0000000   8.0000000   6.0000000   1.0000000   1.0000000   1.0000000   1.0000000   1.0000000

  Atom        11          12          13          14
 IAtWgt=           1           1           1           1
 AtmWgt=   1.0078250   1.0078250   1.0078250   1.0078250
 NucSpn=           1           1           1           1
 AtZEff=  -0.0000000  -0.0000000  -0.0000000  -0.0000000
 NQMom=    0.0000000   0.0000000   0.0000000   0.0000000
 NMagM=    2.7928460   2.7928460   2.7928460   2.7928460
 AtZNuc=   1.0000000   1.0000000   1.0000000   1.0000000
 Leave Link  101 at Mon Oct 14 01:54:43 2019, MaxMem=  1342177280 cpu:               6.1 elap:               0.3
 (Enter /apps/cent7/gaussian/g16-A.03/g16-haswell/g16/l103.exe)

 GradGradGradGradGradGradGradGradGradGradGradGradGradGradGradGradGradGrad
 Berny optimization.
 Initialization pass.
                           ----------------------------
                           !    Initial Parameters    !
                           ! (Angstroms and Degrees)  !
 --------------------------                            --------------------------
 ! Name  Definition              Value          Derivative Info.                !
 --------------------------------------------------------------------------------
 ! R1    R(1,2)                  1.54           estimate D2E/DX2                !
 ! R2    R(1,3)                  1.3552         estimate D2E/DX2                !
 ! R3    R(1,4)                  1.43           estimate D2E/DX2                !
 ! R4    R(2,6)                  1.07           estimate D2E/DX2                !
 ! R5    R(2,7)                  1.07           estimate D2E/DX2                !
 ! R6    R(2,8)                  1.07           estimate D2E/DX2                !
 ! R7    R(3,9)                  1.07           estimate D2E/DX2                !
 ! R8    R(3,10)                 1.07           estimate D2E/DX2                !
 ! R9    R(3,14)                 1.07           estimate D2E/DX2                !
 ! R10   R(4,5)                  1.43           estimate D2E/DX2                !
 ! R11   R(5,11)                 1.07           estimate D2E/DX2                !
 ! R12   R(5,12)                 1.07           estimate D2E/DX2                !
 ! R13   R(5,13)                 1.07           estimate D2E/DX2                !
 ! A1    A(2,1,3)              120.0            estimate D2E/DX2                !
 ! A2    A(2,1,4)              120.0            estimate D2E/DX2                !
 ! A3    A(3,1,4)              120.0            estimate D2E/DX2                !
 ! A4    A(1,2,6)              109.4712         estimate D2E/DX2                !
 ! A5    A(1,2,7)              109.4712         estimate D2E/DX2                !
 ! A6    A(1,2,8)              109.4712         estimate D2E/DX2                !
 ! A7    A(6,2,7)              109.4712         estimate D2E/DX2                !
 ! A8    A(6,2,8)              109.4712         estimate D2E/DX2                !
 ! A9    A(7,2,8)              109.4712         estimate D2E/DX2                !
 ! A10   A(1,3,9)              109.4712         estimate D2E/DX2                !
 ! A11   A(1,3,10)             109.4712         estimate D2E/DX2                !
 ! A12   A(1,3,14)             109.4712         estimate D2E/DX2                !
 ! A13   A(9,3,10)             109.4712         estimate D2E/DX2                !
 ! A14   A(9,3,14)             109.4712         estimate D2E/DX2                !
 ! A15   A(10,3,14)            109.4712         estimate D2E/DX2                !
 ! A16   A(1,4,5)              109.4712         estimate D2E/DX2                !
 ! A17   A(4,5,11)             109.4712         estimate D2E/DX2                !
 ! A18   A(4,5,12)             109.4712         estimate D2E/DX2                !
 ! A19   A(4,5,13)             109.4712         estimate D2E/DX2                !
 ! A20   A(11,5,12)            109.4712         estimate D2E/DX2                !
 ! A21   A(11,5,13)            109.4712         estimate D2E/DX2                !
 ! A22   A(12,5,13)            109.4712         estimate D2E/DX2                !
 ! D1    D(3,1,2,6)             30.0            estimate D2E/DX2                !
 ! D2    D(3,1,2,7)            150.0            estimate D2E/DX2                !
 ! D3    D(3,1,2,8)            -90.0            estimate D2E/DX2                !
 ! D4    D(4,1,2,6)           -150.0            estimate D2E/DX2                !
 ! D5    D(4,1,2,7)            -30.0            estimate D2E/DX2                !
 ! D6    D(4,1,2,8)             90.0            estimate D2E/DX2                !
 ! D7    D(2,1,3,9)             30.0            estimate D2E/DX2                !
 ! D8    D(2,1,3,10)           150.0            estimate D2E/DX2                !
 ! D9    D(2,1,3,14)           -90.0            estimate D2E/DX2                !
 ! D10   D(4,1,3,9)           -150.0            estimate D2E/DX2                !
 ! D11   D(4,1,3,10)           -30.0            estimate D2E/DX2                !
 ! D12   D(4,1,3,14)            90.0            estimate D2E/DX2                !
 ! D13   D(2,1,4,5)            -90.0            estimate D2E/DX2                !
 ! D14   D(3,1,4,5)             90.0            estimate D2E/DX2                !
 ! D15   D(1,4,5,11)            60.0            estimate D2E/DX2                !
 ! D16   D(1,4,5,12)           180.0            estimate D2E/DX2                !
 ! D17   D(1,4,5,13)           -60.0            estimate D2E/DX2                !
 --------------------------------------------------------------------------------
 Trust Radius=3.00D-01 FncErr=1.00D-07 GrdErr=1.00D-06 EigMax=2.50D+02 EigMin=1.00D-04
 Number of steps in this run=     62 maximum allowed number of steps=    100.
 GradGradGradGradGradGradGradGradGradGradGradGradGradGradGradGradGradGrad

 Leave Link  103 at Mon Oct 14 01:54:43 2019, MaxMem=  1342177280 cpu:               0.2 elap:               0.0
 (Enter /apps/cent7/gaussian/g16-A.03/g16-haswell/g16/l202.exe)
                          Input orientation:                          
 ---------------------------------------------------------------------
 Center     Atomic      Atomic             Coordinates (Angstroms)
 Number     Number       Type             X           Y           Z
 ---------------------------------------------------------------------
      1          6           0        0.470940   -1.024444   -0.654927
      2          6           0        1.312274   -2.312674   -0.719902
      3          6           0        1.083487    0.183970   -0.621925
      4          8           0       -0.956653   -1.103343   -0.629417
      5          6           0       -1.459373   -1.079242   -1.967921
      6          1           0        2.248718   -2.152287   -0.227715
      7          1           0        0.785633   -3.107486   -0.234286
      8          1           0        1.487033   -2.573318   -1.742851
      9          1           0        2.013771    0.126752   -1.147470
     10          1           0        0.455532    0.914971   -1.086909
     11          1           0       -1.065777   -1.912416   -2.511799
     12          1           0       -2.527573   -1.138278   -1.948833
     13          1           0       -1.160931   -0.168998   -2.444669
     14          1           0        1.264794    0.464292    0.394661
 ---------------------------------------------------------------------
                    Distance matrix (angstroms):
                    1          2          3          4          5
     1  C    0.000000
     2  C    1.540000   0.000000
     3  C    1.355200   2.509019   0.000000
     4  O    1.430000   2.572683   2.412344   0.000000
     5  C    2.335180   3.280386   3.142220   1.430000   0.000000
     6  H    2.148263   1.070000   2.640315   3.396477   4.234346
     7  H    2.148263   1.070000   3.327561   2.684824   3.487021
     8  H    2.148263   1.070000   3.003658   3.061399   3.311228
     9  H    1.987002   2.574046   1.070000   3.256522   3.767001
    10  H    1.987002   3.359523   1.070000   2.505425   2.901711
    11  H    2.568651   3.004368   3.547646   2.051796   1.070000
    12  H    3.267757   4.199274   4.068019   2.051796   1.070000
    13  H    2.568651   3.699582   2.912798   2.051796   1.070000
    14  H    1.987002   2.992666   1.070000   2.905348   3.922420
                    6          7          8          9         10
     6  H    0.000000
     7  H    1.747303   0.000000
     8  H    1.747303   1.747303   0.000000
     9  H    2.468839   3.578061   2.814660   0.000000
    10  H    3.655380   4.125057   3.696271   1.747303   0.000000
    11  H    4.032425   3.169065   2.746801   3.937413   3.512664
    12  H    5.177202   4.218386   4.268353   4.781871   3.722588
    13  H    4.524823   4.160482   3.644862   3.442227   2.373068
    14  H    2.863904   3.658247   3.720944   1.747303   1.747303
                   11         12         13         14
    11  H    0.000000
    12  H    1.747303   0.000000
    13  H    1.747303   1.747303   0.000000
    14  H    4.419029   4.737325   3.787743   0.000000
 Stoichiometry    C4H9O(1+)
 Framework group  C1[X(C4H9O)]
 Deg. of freedom    36
 Full point group                 C1      NOp   1
 Largest Abelian subgroup         C1      NOp   1
 Largest concise Abelian subgroup C1      NOp   1
                         Standard orientation:                         
 ---------------------------------------------------------------------
 Center     Atomic      Atomic             Coordinates (Angstroms)
 Number     Number       Type             X           Y           Z
 ---------------------------------------------------------------------
      1          6           0       -0.452129    0.077143   -0.157954
      2          6           0       -1.274215   -1.198864    0.102009
      3          6           0       -0.978942    1.292584    0.127944
      4          8           0        0.867126   -0.020521   -0.701026
      5          6           0        1.814698   -0.126238    0.364728
      6          1           0       -2.316019   -0.980184   -0.006267
      7          1           0       -0.993182   -1.953851   -0.602204
      8          1           0       -1.084634   -1.549134    1.095120
      9          1           0       -1.662202    1.201610    0.946344
     10          1           0       -0.193000    1.968584    0.392935
     11          1           0        1.602459   -0.999573    0.945367
     12          1           0        2.801833   -0.199316   -0.041627
     13          1           0        1.748825    0.741070    0.987895
     14          1           0       -1.497568    1.667213   -0.729715
 ---------------------------------------------------------------------
 Rotational constants (GHZ):           7.2677786           4.0042803           3.0481707
 Leave Link  202 at Mon Oct 14 01:54:43 2019, MaxMem=  1342177280 cpu:               0.4 elap:               0.0
 (Enter /apps/cent7/gaussian/g16-A.03/g16-haswell/g16/l301.exe)
 Standard basis: 6-311++G(d,p) (5D, 7F)
 Ernie: Thresh=  0.10000D-02 Tol=  0.10000D-05 Strict=F.
 There are   178 symmetry adapted cartesian basis functions of A   symmetry.
 There are   173 symmetry adapted basis functions of A   symmetry.
   173 basis functions,   261 primitive gaussians,   178 cartesian basis functions
    20 alpha electrons       20 beta electrons
       nuclear repulsion energy       188.1335200810 Hartrees.
 IExCor= 4336 DFT=T Ex+Corr=M062X ExCW=0 ScaHFX=  0.540000
 ScaDFX=  1.000000  1.000000  1.000000  1.000000 ScalE2=  1.000000  1.000000
 IRadAn=      5 IRanWt=     -1 IRanGd=            0 ICorTp=0 IEmpDi=  4
 NAtoms=   14 NActive=   14 NUniq=   14 SFac= 1.00D+00 NAtFMM=   60 NAOKFM=F Big=F
 Integral buffers will be    131072 words long.
 Raffenetti 2 integral format.
 Two-electron integral symmetry is turned on.
 Leave Link  301 at Mon Oct 14 01:54:43 2019, MaxMem=  1342177280 cpu:               1.3 elap:               0.1
 (Enter /apps/cent7/gaussian/g16-A.03/g16-haswell/g16/l302.exe)
 NPDir=0 NMtPBC=     1 NCelOv=     1 NCel=       1 NClECP=     1 NCelD=      1
         NCelK=      1 NCelE2=     1 NClLst=     1 CellRange=     0.0.
 One-electron integrals computed using PRISM.
 One-electron integral symmetry used in STVInt
 NBasis=   173 RedAO= T EigKep=  3.35D-05  NBF=   173
 NBsUse=   173 1.00D-06 EigRej= -1.00D+00 NBFU=   173
 Precomputing XC quadrature grid using
 IXCGrd= 4 IRadAn=           5 IRanWt=          -1 IRanGd=           0 AccXCQ= 0.00D+00.
 Generated NRdTot=       0 NPtTot=           0 NUsed=           0 NTot=          32
 NSgBfM=   178   178   178   178   178 MxSgAt=    14 MxSgA2=    14.
 Leave Link  302 at Mon Oct 14 01:54:44 2019, MaxMem=  1342177280 cpu:               3.4 elap:               0.2
 (Enter /apps/cent7/gaussian/g16-A.03/g16-haswell/g16/l303.exe)
 DipDrv:  MaxL=1.
 Leave Link  303 at Mon Oct 14 01:54:44 2019, MaxMem=  1342177280 cpu:               1.0 elap:               0.1
 (Enter /apps/cent7/gaussian/g16-A.03/g16-haswell/g16/l401.exe)
 ExpMin= 3.60D-02 ExpMax= 8.59D+03 ExpMxC= 1.30D+03 IAcc=3 IRadAn=         5 AccDes= 0.00D+00
 Harris functional with IExCor= 1009 and IRadAn=       5 diagonalized for initial guess.
 HarFok:  IExCor= 1009 AccDes= 0.00D+00 IRadAn=         5 IDoV= 1 UseB2=F ITyADJ=14
 ICtDFT=  3500011 ScaDFX=  1.000000  1.000000  1.000000  1.000000
 FoFCou: FMM=F IPFlag=           0 FMFlag=      100000 FMFlg1=           0
         NFxFlg=           0 DoJE=T BraDBF=F KetDBF=T FulRan=T
         wScrn=  0.000000 ICntrl=       500 IOpCl=  0 I1Cent=   200000004 NGrid=           0
         NMat0=    1 NMatS0=      1 NMatT0=    0 NMatD0=    1 NMtDS0=    0 NMtDT0=    0
 Petite list used in FoFCou.
 Harris En= -232.667883361723    
 JPrj=0 DoOrth=F DoCkMO=F.
 Leave Link  401 at Mon Oct 14 01:54:44 2019, MaxMem=  1342177280 cpu:               6.5 elap:               0.3
 (Enter /apps/cent7/gaussian/g16-A.03/g16-haswell/g16/l502.exe)
 Integral symmetry usage will be decided dynamically.
 Closed shell SCF:
 Using DIIS extrapolation, IDIIS=  1040.
 NGot=  1342177280 LenX=  1342107718 LenY=  1342075593
 Requested convergence on RMS density matrix=1.00D-08 within 128 cycles.
 Requested convergence on MAX density matrix=1.00D-06.
 Requested convergence on             energy=1.00D-06.
 No special actions if energy rises.
 Fock matrices will be formed incrementally for  20 cycles.

 Cycle   1  Pass 1  IDiag  1:
 FoFJK:  IHMeth= 1 ICntrl=       0 DoSepK=F KAlg= 0 I1Cent=           0 FoldK=F
 IRaf= 990000000 NMat=       1 IRICut=       1 DoRegI=T DoRafI=F ISym2E= 0 IDoP0=0 IntGTp=1.
 FoFCou: FMM=F IPFlag=           0 FMFlag=      100000 FMFlg1=           0
         NFxFlg=           0 DoJE=F BraDBF=F KetDBF=F FulRan=T
         wScrn=  0.000000 ICntrl=         0 IOpCl=  0 I1Cent=           0 NGrid=           0
         NMat0=    1 NMatS0=      1 NMatT0=    0 NMatD0=    1 NMtDS0=    0 NMtDT0=    0
 Symmetry not used in FoFCou.
 E= -232.492549757001    
 DIIS: error= 3.29D-02 at cycle   1 NSaved=   1.
 NSaved= 1 IEnMin= 1 EnMin= -232.492549757001     IErMin= 1 ErrMin= 3.29D-02
 ErrMax= 3.29D-02  0.00D+00 EMaxC= 1.00D-01 BMatC= 2.28D-01 BMatP= 2.28D-01
 IDIUse=3 WtCom= 6.71D-01 WtEn= 3.29D-01
 Coeff-Com:  0.100D+01
 Coeff-En:   0.100D+01
 Coeff:      0.100D+01
 Gap=     0.210 Goal=   None    Shift=    0.000
 GapD=    0.210 DampG=1.000 DampE=0.500 DampFc=0.5000 IDamp=-1.
 Damping current iteration by 5.00D-01
 RMSDP=5.10D-03 MaxDP=2.91D-01              OVMax= 1.61D-01

 Cycle   2  Pass 1  IDiag  1:
 RMSU=  2.52D-03    CP:  1.02D+00
 E= -232.583365710394     Delta-E=       -0.090815953393 Rises=F Damp=T
 DIIS: error= 7.50D-03 at cycle   2 NSaved=   2.
 NSaved= 2 IEnMin= 2 EnMin= -232.583365710394     IErMin= 2 ErrMin= 7.50D-03
 ErrMax= 7.50D-03  0.00D+00 EMaxC= 1.00D-01 BMatC= 1.46D-02 BMatP= 2.28D-01
 IDIUse=3 WtCom= 9.25D-01 WtEn= 7.50D-02
 Coeff-Com: -0.123D+00 0.112D+01
 Coeff-En:   0.000D+00 0.100D+01
 Coeff:     -0.114D+00 0.111D+01
 Gap=     0.290 Goal=   None    Shift=    0.000
 RMSDP=1.50D-03 MaxDP=6.33D-02 DE=-9.08D-02 OVMax= 9.09D-02

 Cycle   3  Pass 1  IDiag  1:
 RMSU=  1.38D-03    CP:  9.90D-01  1.10D+00
 E= -232.664293355586     Delta-E=       -0.080927645192 Rises=F Damp=F
 DIIS: error= 8.88D-03 at cycle   3 NSaved=   3.
 NSaved= 3 IEnMin= 3 EnMin= -232.664293355586     IErMin= 2 ErrMin= 7.50D-03
 ErrMax= 8.88D-03  0.00D+00 EMaxC= 1.00D-01 BMatC= 3.98D-03 BMatP= 1.46D-02
 IDIUse=3 WtCom= 9.11D-01 WtEn= 8.88D-02
 Coeff-Com: -0.824D-01 0.384D+00 0.698D+00
 Coeff-En:   0.000D+00 0.000D+00 0.100D+01
 Coeff:     -0.751D-01 0.350D+00 0.725D+00
 Gap=     0.266 Goal=   None    Shift=    0.000
 RMSDP=4.97D-04 MaxDP=1.77D-02 DE=-8.09D-02 OVMax= 1.81D-02

 Cycle   4  Pass 1  IDiag  1:
 RMSU=  4.15D-04    CP:  9.88D-01  1.21D+00  9.65D-01
 E= -232.666715629543     Delta-E=       -0.002422273957 Rises=F Damp=F
 DIIS: error= 4.30D-03 at cycle   4 NSaved=   4.
 NSaved= 4 IEnMin= 4 EnMin= -232.666715629543     IErMin= 4 ErrMin= 4.30D-03
 ErrMax= 4.30D-03  0.00D+00 EMaxC= 1.00D-01 BMatC= 1.16D-03 BMatP= 3.98D-03
 IDIUse=3 WtCom= 9.57D-01 WtEn= 4.30D-02
 Coeff-Com: -0.256D-01 0.806D-01 0.377D+00 0.568D+00
 Coeff-En:   0.000D+00 0.000D+00 0.190D+00 0.810D+00
 Coeff:     -0.245D-01 0.771D-01 0.369D+00 0.578D+00
 Gap=     0.277 Goal=   None    Shift=    0.000
 RMSDP=2.12D-04 MaxDP=8.81D-03 DE=-2.42D-03 OVMax= 6.91D-03

 Cycle   5  Pass 1  IDiag  1:
 RMSU=  1.23D-04    CP:  9.84D-01  1.17D+00  1.02D+00  7.30D-01
 E= -232.667576245847     Delta-E=       -0.000860616304 Rises=F Damp=F
 DIIS: error= 6.64D-04 at cycle   5 NSaved=   5.
 NSaved= 5 IEnMin= 5 EnMin= -232.667576245847     IErMin= 5 ErrMin= 6.64D-04
 ErrMax= 6.64D-04  0.00D+00 EMaxC= 1.00D-01 BMatC= 5.25D-05 BMatP= 1.16D-03
 IDIUse=3 WtCom= 9.93D-01 WtEn= 6.64D-03
 Coeff-Com: -0.664D-02 0.131D-01 0.125D+00 0.268D+00 0.600D+00
 Coeff-En:   0.000D+00 0.000D+00 0.000D+00 0.000D+00 0.100D+01
 Coeff:     -0.659D-02 0.130D-01 0.124D+00 0.267D+00 0.603D+00
 Gap=     0.276 Goal=   None    Shift=    0.000
 RMSDP=4.15D-05 MaxDP=1.28D-03 DE=-8.61D-04 OVMax= 1.54D-03

 Cycle   6  Pass 1  IDiag  1:
 RMSU=  2.98D-05    CP:  9.83D-01  1.17D+00  1.03D+00  7.56D-01  8.16D-01
 E= -232.667614072685     Delta-E=       -0.000037826838 Rises=F Damp=F
 DIIS: error= 7.29D-05 at cycle   6 NSaved=   6.
 NSaved= 6 IEnMin= 6 EnMin= -232.667614072685     IErMin= 6 ErrMin= 7.29D-05
 ErrMax= 7.29D-05  0.00D+00 EMaxC= 1.00D-01 BMatC= 1.66D-06 BMatP= 5.25D-05
 IDIUse=1 WtCom= 1.00D+00 WtEn= 0.00D+00
 Coeff-Com:  0.370D-04-0.176D-02 0.425D-02 0.346D-01 0.182D+00 0.780D+00
 Coeff:      0.370D-04-0.176D-02 0.425D-02 0.346D-01 0.182D+00 0.780D+00
 Gap=     0.276 Goal=   None    Shift=    0.000
 RMSDP=1.27D-05 MaxDP=8.35D-04 DE=-3.78D-05 OVMax= 2.87D-04

 Cycle   7  Pass 1  IDiag  1:
 RMSU=  8.74D-06    CP:  9.84D-01  1.18D+00  1.03D+00  7.56D-01  8.30D-01
                    CP:  8.45D-01
 E= -232.667615866652     Delta-E=       -0.000001793967 Rises=F Damp=F
 DIIS: error= 1.80D-05 at cycle   7 NSaved=   7.
 NSaved= 7 IEnMin= 7 EnMin= -232.667615866652     IErMin= 7 ErrMin= 1.80D-05
 ErrMax= 1.80D-05  0.00D+00 EMaxC= 1.00D-01 BMatC= 5.01D-08 BMatP= 1.66D-06
 IDIUse=1 WtCom= 1.00D+00 WtEn= 0.00D+00
 Coeff-Com:  0.492D-03-0.112D-02-0.112D-01-0.196D-01-0.364D-01 0.257D-01
 Coeff-Com:  0.104D+01
 Coeff:      0.492D-03-0.112D-02-0.112D-01-0.196D-01-0.364D-01 0.257D-01
 Coeff:      0.104D+01
 Gap=     0.276 Goal=   None    Shift=    0.000
 RMSDP=4.17D-06 MaxDP=1.88D-04 DE=-1.79D-06 OVMax= 1.37D-04

 Cycle   8  Pass 1  IDiag  1:
 RMSU=  2.02D-06    CP:  9.84D-01  1.18D+00  1.03D+00  7.58D-01  8.44D-01
                    CP:  8.76D-01  1.22D+00
 E= -232.667615983132     Delta-E=       -0.000000116480 Rises=F Damp=F
 DIIS: error= 4.06D-06 at cycle   8 NSaved=   8.
 NSaved= 8 IEnMin= 8 EnMin= -232.667615983132     IErMin= 8 ErrMin= 4.06D-06
 ErrMax= 4.06D-06  0.00D+00 EMaxC= 1.00D-01 BMatC= 2.92D-09 BMatP= 5.01D-08
 IDIUse=1 WtCom= 1.00D+00 WtEn= 0.00D+00
 Coeff-Com:  0.513D-04-0.778D-04-0.199D-02-0.417D-02-0.109D-01-0.173D-01
 Coeff-Com:  0.158D+00 0.877D+00
 Coeff:      0.513D-04-0.778D-04-0.199D-02-0.417D-02-0.109D-01-0.173D-01
 Coeff:      0.158D+00 0.877D+00
 Gap=     0.276 Goal=   None    Shift=    0.000
 RMSDP=6.03D-07 MaxDP=2.19D-05 DE=-1.16D-07 OVMax= 3.25D-05

 Cycle   9  Pass 1  IDiag  1:
 RMSU=  4.53D-07    CP:  9.84D-01  1.18D+00  1.03D+00  7.58D-01  8.43D-01
                    CP:  8.77D-01  1.25D+00  1.04D+00
 E= -232.667615988694     Delta-E=       -0.000000005562 Rises=F Damp=F
 DIIS: error= 1.65D-06 at cycle   9 NSaved=   9.
 NSaved= 9 IEnMin= 9 EnMin= -232.667615988694     IErMin= 9 ErrMin= 1.65D-06
 ErrMax= 1.65D-06  0.00D+00 EMaxC= 1.00D-01 BMatC= 5.47D-10 BMatP= 2.92D-09
 IDIUse=1 WtCom= 1.00D+00 WtEn= 0.00D+00
 Coeff-Com: -0.414D-04 0.100D-03 0.615D-03 0.811D-03 0.112D-02-0.794D-02
 Coeff-Com: -0.750D-01 0.242D+00 0.839D+00
 Coeff:     -0.414D-04 0.100D-03 0.615D-03 0.811D-03 0.112D-02-0.794D-02
 Coeff:     -0.750D-01 0.242D+00 0.839D+00
 Gap=     0.276 Goal=   None    Shift=    0.000
 RMSDP=2.94D-07 MaxDP=8.86D-06 DE=-5.56D-09 OVMax= 1.34D-05

 Cycle  10  Pass 1  IDiag  1:
 RMSU=  1.60D-07    CP:  9.84D-01  1.18D+00  1.03D+00  7.57D-01  8.43D-01
                    CP:  8.74D-01  1.27D+00  1.12D+00  1.11D+00
 E= -232.667615989670     Delta-E=       -0.000000000976 Rises=F Damp=F
 DIIS: error= 5.45D-07 at cycle  10 NSaved=  10.
 NSaved=10 IEnMin=10 EnMin= -232.667615989670     IErMin=10 ErrMin= 5.45D-07
 ErrMax= 5.45D-07  0.00D+00 EMaxC= 1.00D-01 BMatC= 4.19D-11 BMatP= 5.47D-10
 IDIUse=1 WtCom= 1.00D+00 WtEn= 0.00D+00
 Coeff-Com: -0.123D-04 0.280D-04 0.278D-03 0.458D-03 0.121D-02-0.381D-03
 Coeff-Com: -0.294D-01-0.123D-01 0.205D+00 0.835D+00
 Coeff:     -0.123D-04 0.280D-04 0.278D-03 0.458D-03 0.121D-02-0.381D-03
 Coeff:     -0.294D-01-0.123D-01 0.205D+00 0.835D+00
 Gap=     0.276 Goal=   None    Shift=    0.000
 RMSDP=8.44D-08 MaxDP=1.86D-06 DE=-9.76D-10 OVMax= 6.29D-06

 Cycle  11  Pass 1  IDiag  1:
 RMSU=  5.96D-08    CP:  9.84D-01  1.18D+00  1.03D+00  7.57D-01  8.43D-01
                    CP:  8.74D-01  1.27D+00  1.14D+00  1.16D+00  1.01D+00
 E= -232.667615989768     Delta-E=       -0.000000000098 Rises=F Damp=F
 DIIS: error= 2.69D-07 at cycle  11 NSaved=  11.
 NSaved=11 IEnMin=11 EnMin= -232.667615989768     IErMin=11 ErrMin= 2.69D-07
 ErrMax= 2.69D-07  0.00D+00 EMaxC= 1.00D-01 BMatC= 3.92D-12 BMatP= 4.19D-11
 IDIUse=1 WtCom= 1.00D+00 WtEn= 0.00D+00
 Coeff-Com:  0.364D-05-0.815D-05-0.345D-04-0.431D-04 0.119D-04 0.772D-03
 Coeff-Com:  0.483D-02-0.287D-01-0.655D-01 0.854D-01 0.100D+01
 Coeff:      0.364D-05-0.815D-05-0.345D-04-0.431D-04 0.119D-04 0.772D-03
 Coeff:      0.483D-02-0.287D-01-0.655D-01 0.854D-01 0.100D+01
 Gap=     0.276 Goal=   None    Shift=    0.000
 RMSDP=3.86D-08 MaxDP=8.29D-07 DE=-9.76D-11 OVMax= 4.40D-06

 Cycle  12  Pass 1  IDiag  1:
 RMSU=  2.21D-08    CP:  9.84D-01  1.18D+00  1.03D+00  7.57D-01  8.43D-01
                    CP:  8.74D-01  1.27D+00  1.14D+00  1.19D+00  1.13D+00
                    CP:  1.29D+00
 E= -232.667615989791     Delta-E=       -0.000000000023 Rises=F Damp=F
 DIIS: error= 1.41D-07 at cycle  12 NSaved=  12.
 NSaved=12 IEnMin=12 EnMin= -232.667615989791     IErMin=12 ErrMin= 1.41D-07
 ErrMax= 1.41D-07  0.00D+00 EMaxC= 1.00D-01 BMatC= 5.15D-13 BMatP= 3.92D-12
 IDIUse=1 WtCom= 1.00D+00 WtEn= 0.00D+00
 Coeff-Com:  0.152D-05-0.358D-05-0.298D-04-0.507D-04-0.138D-03 0.119D-03
 Coeff-Com:  0.333D-02 0.190D-02-0.227D-01-0.113D+00-0.478D-01 0.118D+01
 Coeff:      0.152D-05-0.358D-05-0.298D-04-0.507D-04-0.138D-03 0.119D-03
 Coeff:      0.333D-02 0.190D-02-0.227D-01-0.113D+00-0.478D-01 0.118D+01
 Gap=     0.276 Goal=   None    Shift=    0.000
 RMSDP=2.16D-08 MaxDP=5.22D-07 DE=-2.34D-11 OVMax= 2.65D-06

 Cycle  13  Pass 1  IDiag  1:
 RMSU=  6.71D-09    CP:  9.84D-01  1.18D+00  1.03D+00  7.57D-01  8.43D-01
                    CP:  8.74D-01  1.27D+00  1.14D+00  1.20D+00  1.18D+00
                    CP:  1.52D+00  1.43D+00
 E= -232.667615989794     Delta-E=       -0.000000000003 Rises=F Damp=F
 DIIS: error= 4.73D-08 at cycle  13 NSaved=  13.
 NSaved=13 IEnMin=13 EnMin= -232.667615989794     IErMin=13 ErrMin= 4.73D-08
 ErrMax= 4.73D-08  0.00D+00 EMaxC= 1.00D-01 BMatC= 6.45D-14 BMatP= 5.15D-13
 IDIUse=1 WtCom= 1.00D+00 WtEn= 0.00D+00
 Coeff-Com: -0.310D-06 0.630D-06 0.188D-05 0.617D-06-0.148D-04-0.738D-04
 Coeff-Com: -0.399D-03 0.376D-02 0.675D-02-0.172D-01-0.125D+00 0.770D-01
 Coeff-Com:  0.106D+01
 Coeff:     -0.310D-06 0.630D-06 0.188D-05 0.617D-06-0.148D-04-0.738D-04
 Coeff:     -0.399D-03 0.376D-02 0.675D-02-0.172D-01-0.125D+00 0.770D-01
 Coeff:      0.106D+01
 Gap=     0.276 Goal=   None    Shift=    0.000
 RMSDP=7.18D-09 MaxDP=1.72D-07 DE=-3.41D-12 OVMax= 9.47D-07

 SCF Done:  E(RM062X) =  -232.667615990     A.U. after   13 cycles
            NFock= 13  Conv=0.72D-08     -V/T= 2.0029
 KE= 2.319852031585D+02 PE=-9.092892296691D+02 EE= 2.565028904398D+02
 Leave Link  502 at Mon Oct 14 01:54:50 2019, MaxMem=  1342177280 cpu:             132.9 elap:               5.6
 (Enter /apps/cent7/gaussian/g16-A.03/g16-haswell/g16/l601.exe)
 Copying SCF densities to generalized density rwf, IOpCl= 0 IROHF=0.

 **********************************************************************

            Population analysis using the SCF density.

 **********************************************************************

 Orbital symmetries:
       Occupied  (A) (A) (A) (A) (A) (A) (A) (A) (A) (A) (A) (A)
                 (A) (A) (A) (A) (A) (A) (A) (A)
       Virtual   (A) (A) (A) (A) (A) (A) (A) (A) (A) (A) (A) (A)
                 (A) (A) (A) (A) (A) (A) (A) (A) (A) (A) (A) (A)
                 (A) (A) (A) (A) (A) (A) (A) (A) (A) (A) (A) (A)
                 (A) (A) (A) (A) (A) (A) (A) (A) (A) (A) (A) (A)
                 (A) (A) (A) (A) (A) (A) (A) (A) (A) (A) (A) (A)
                 (A) (A) (A) (A) (A) (A) (A) (A) (A) (A) (A) (A)
                 (A) (A) (A) (A) (A) (A) (A) (A) (A) (A) (A) (A)
                 (A) (A) (A) (A) (A) (A) (A) (A) (A) (A) (A) (A)
                 (A) (A) (A) (A) (A) (A) (A) (A) (A) (A) (A) (A)
                 (A) (A) (A) (A) (A) (A) (A) (A) (A) (A) (A) (A)
                 (A) (A) (A) (A) (A) (A) (A) (A) (A) (A) (A) (A)
                 (A) (A) (A) (A) (A) (A) (A) (A) (A) (A) (A) (A)
                 (A) (A) (A) (A) (A) (A) (A) (A) (A)
 The electronic state is 1-A.
 Alpha  occ. eigenvalues --  -19.87730 -10.93050 -10.77196 -10.75638 -10.75609
 Alpha  occ. eigenvalues --   -1.39996  -1.16030  -1.03951  -0.99385  -0.86714
 Alpha  occ. eigenvalues --   -0.79537  -0.77728  -0.77365  -0.70914  -0.70407
 Alpha  occ. eigenvalues --   -0.69295  -0.68864  -0.65989  -0.62131  -0.56821
 Alpha virt. eigenvalues --   -0.29220  -0.14861  -0.11558  -0.11070  -0.10498
 Alpha virt. eigenvalues --   -0.09153  -0.08493  -0.08108  -0.07570  -0.07199
 Alpha virt. eigenvalues --   -0.06349  -0.05832  -0.04007  -0.03034  -0.02896
 Alpha virt. eigenvalues --   -0.01774  -0.01215  -0.00532   0.00718   0.01212
 Alpha virt. eigenvalues --    0.01891   0.02533   0.02723   0.03021   0.03772
 Alpha virt. eigenvalues --    0.03810   0.04720   0.05110   0.06026   0.06950
 Alpha virt. eigenvalues --    0.07792   0.08927   0.09277   0.11744   0.13191
 Alpha virt. eigenvalues --    0.13852   0.15283   0.16757   0.18159   0.19239
 Alpha virt. eigenvalues --    0.20320   0.22148   0.24236   0.29792   0.29930
 Alpha virt. eigenvalues --    0.31877   0.32357   0.34104   0.34941   0.37894
 Alpha virt. eigenvalues --    0.40911   0.45103   0.47682   0.49058   0.49968
 Alpha virt. eigenvalues --    0.50271   0.51620   0.52393   0.53852   0.55639
 Alpha virt. eigenvalues --    0.56207   0.58225   0.58733   0.61576   0.65911
 Alpha virt. eigenvalues --    0.72532   0.75666   0.79445   0.83001   0.86830
 Alpha virt. eigenvalues --    0.92462   0.96408   1.08886   1.10630   1.13284
 Alpha virt. eigenvalues --    1.17355   1.21394   1.25878   1.29646   1.30603
 Alpha virt. eigenvalues --    1.31956   1.32430   1.35035   1.35693   1.41015
 Alpha virt. eigenvalues --    1.41848   1.42731   1.44171   1.45651   1.47638
 Alpha virt. eigenvalues --    1.51879   1.56492   1.57097   1.58128   1.61249
 Alpha virt. eigenvalues --    1.63638   1.67157   1.71226   1.72924   1.78493
 Alpha virt. eigenvalues --    1.82534   1.87967   1.90679   1.96158   1.99929
 Alpha virt. eigenvalues --    2.02083   2.06674   2.12548   2.17341   2.27549
 Alpha virt. eigenvalues --    2.32207   2.33177   2.34037   2.35280   2.36265
 Alpha virt. eigenvalues --    2.37697   2.40536   2.41244   2.42846   2.44463
 Alpha virt. eigenvalues --    2.45541   2.46617   2.48939   2.50891   2.54482
 Alpha virt. eigenvalues --    2.67692   2.69883   2.74214   2.76777   2.84661
 Alpha virt. eigenvalues --    2.86692   2.94209   2.96852   3.07529   3.10612
 Alpha virt. eigenvalues --    3.43440   3.66295   3.68063   3.69363   3.71237
 Alpha virt. eigenvalues --    3.72286   3.78616   3.87741   3.95127   4.07444
 Alpha virt. eigenvalues --    5.02789   5.24409   5.49187  23.52948  23.85393
 Alpha virt. eigenvalues --   23.86779  24.06037  49.77500
          Condensed to atoms (all electrons):
               1          2          3          4          5          6
     1  C    6.116358  -0.054371  -0.611642   0.416974  -0.150953  -0.076171
     2  C   -0.054371   6.024050  -0.529321  -0.078462   0.037803   0.355628
     3  C   -0.611642  -0.529321   6.788809  -0.157225  -0.016631   0.070662
     4  O    0.416974  -0.078462  -0.157225   7.831933   0.150105   0.005386
     5  C   -0.150953   0.037803  -0.016631   0.150105   5.116234  -0.001172
     6  H   -0.076171   0.355628   0.070662   0.005386  -0.001172   0.470412
     7  H   -0.082822   0.470040  -0.026887  -0.002388  -0.003550  -0.024422
     8  H    0.108982   0.345596  -0.078142  -0.004341  -0.009389  -0.025134
     9  H   -0.008524  -0.009964   0.350565   0.010488   0.007642  -0.002459
    10  H   -0.025611   0.015571   0.371021   0.003359  -0.009223  -0.002048
    11  H    0.039398  -0.039639   0.008120  -0.049968   0.397736   0.001598
    12  H   -0.011853   0.007435   0.009795  -0.041752   0.413319   0.000006
    13  H    0.034610   0.008444  -0.028624  -0.049011   0.384359  -0.000028
    14  H    0.011343  -0.010405   0.369158  -0.012806  -0.002578   0.000014
               7          8          9         10         11         12
     1  C   -0.082822   0.108982  -0.008524  -0.025611   0.039398  -0.011853
     2  C    0.470040   0.345596  -0.009964   0.015571  -0.039639   0.007435
     3  C   -0.026887  -0.078142   0.350565   0.371021   0.008120   0.009795
     4  O   -0.002388  -0.004341   0.010488   0.003359  -0.049968  -0.041752
     5  C   -0.003550  -0.009389   0.007642  -0.009223   0.397736   0.413319
     6  H   -0.024422  -0.025134  -0.002459  -0.002048   0.001598   0.000006
     7  H    0.433089  -0.026069   0.000869  -0.001037  -0.001932  -0.000380
     8  H   -0.026069   0.432158  -0.002735   0.000727  -0.000801  -0.000604
     9  H    0.000869  -0.002735   0.471934  -0.039577   0.001783  -0.000056
    10  H   -0.001037   0.000727  -0.039577   0.494599  -0.001249   0.001992
    11  H   -0.001932  -0.000801   0.001783  -0.001249   0.542791  -0.023940
    12  H   -0.000380  -0.000604  -0.000056   0.001992  -0.023940   0.424895
    13  H    0.000583   0.000479  -0.001259  -0.001086  -0.058978  -0.024259
    14  H   -0.001922   0.000262  -0.021760  -0.012598  -0.000061  -0.000950
              13         14
     1  C    0.034610   0.011343
     2  C    0.008444  -0.010405
     3  C   -0.028624   0.369158
     4  O   -0.049011  -0.012806
     5  C    0.384359  -0.002578
     6  H   -0.000028   0.000014
     7  H    0.000583  -0.001922
     8  H    0.000479   0.000262
     9  H   -0.001259  -0.021760
    10  H   -0.001086  -0.012598
    11  H   -0.058978  -0.000061
    12  H   -0.024259  -0.000950
    13  H    0.558761   0.000592
    14  H    0.000592   0.386622
 Mulliken charges:
               1
     1  C    0.294281
     2  C   -0.542404
     3  C   -0.519657
     4  O   -0.022292
     5  C   -0.313702
     6  H    0.227729
     7  H    0.266827
     8  H    0.259010
     9  H    0.243050
    10  H    0.205159
    11  H    0.185141
    12  H    0.246352
    13  H    0.175417
    14  H    0.295088
 Sum of Mulliken charges =   1.00000
 Mulliken charges with hydrogens summed into heavy atoms:
               1
     1  C    0.294281
     2  C    0.211163
     3  C    0.223640
     4  O   -0.022292
     5  C    0.293208
 Electronic spatial extent (au):  <R**2>=            459.0004
 Charge=              1.0000 electrons
 Dipole moment (field-independent basis, Debye):
    X=             -2.2407    Y=              0.5070    Z=              1.6441  Tot=              2.8250
 Quadrupole moment (field-independent basis, Debye-Ang):
   XX=            -17.4389   YY=            -22.3832   ZZ=            -28.8204
   XY=             -0.7626   XZ=              2.0361   YZ=             -0.5041
 Traceless Quadrupole moment (field-independent basis, Debye-Ang):
   XX=              5.4419   YY=              0.4976   ZZ=             -5.9395
   XY=             -0.7626   XZ=              2.0361   YZ=             -0.5041
 Octapole moment (field-independent basis, Debye-Ang**2):
  XXX=              7.9089  YYY=              2.0918  ZZZ=              0.4115  XYY=             -7.3864
  XXY=             -0.5220  XXZ=              1.4270  XZZ=             -2.5766  YZZ=              0.0331
  YYZ=              0.4317  XYZ=              1.2345
 Hexadecapole moment (field-independent basis, Debye-Ang**3):
 XXXX=           -259.3415 YYYY=           -160.5316 ZZZZ=            -67.4498 XXXY=             -4.2032
 XXXZ=             -0.8888 YYYX=             -0.5321 YYYZ=              0.0315 ZZZX=             -0.8603
 ZZZY=             -2.2338 XXYY=            -74.2689 XXZZ=            -61.6625 YYZZ=            -35.4006
 XXYZ=             -1.2351 YYXZ=              2.7739 ZZXY=             -1.7980
 N-N= 1.881335200810D+02 E-N=-9.092892291781D+02  KE= 2.319852031585D+02
 No NMR shielding tensors so no spin-rotation constants.
 Leave Link  601 at Mon Oct 14 01:54:50 2019, MaxMem=  1342177280 cpu:               2.9 elap:               0.1
 (Enter /apps/cent7/gaussian/g16-A.03/g16-haswell/g16/l701.exe)
 ... and contract with generalized density number  0.
 Compute integral first derivatives.
 Leave Link  701 at Mon Oct 14 01:54:50 2019, MaxMem=  1342177280 cpu:               4.0 elap:               0.2
 (Enter /apps/cent7/gaussian/g16-A.03/g16-haswell/g16/l702.exe)
 L702 exits ... SP integral derivatives will be done elsewhere.
 Leave Link  702 at Mon Oct 14 01:54:50 2019, MaxMem=  1342177280 cpu:               1.2 elap:               0.1
 (Enter /apps/cent7/gaussian/g16-A.03/g16-haswell/g16/l703.exe)
 Integral derivatives from FoFJK, PRISM(SPDF).
 Compute integral first derivatives, UseDBF=F ICtDFT=           0.
 Calling FoFJK, ICntrl=      2127 FMM=F ISym2X=0 I1Cent= 0 IOpClX= 0 NMat=1 NMatS=1 NMatT=0.
 FoFJK:  IHMeth= 1 ICntrl=    2127 DoSepK=F KAlg= 0 I1Cent=           0 FoldK=F
 IRaf=         0 NMat=       1 IRICut=       1 DoRegI=T DoRafI=F ISym2E= 0 IDoP0=0 IntGTp=1.
 FoFCou: FMM=F IPFlag=           0 FMFlag=      100000 FMFlg1=         800
         NFxFlg=           0 DoJE=F BraDBF=F KetDBF=F FulRan=T
         wScrn=  0.000000 ICntrl=      2127 IOpCl=  0 I1Cent=           0 NGrid=           0
         NMat0=    1 NMatS0=      1 NMatT0=    0 NMatD0=    1 NMtDS0=    0 NMtDT0=    0
 Symmetry not used in FoFCou.
 Leave Link  703 at Mon Oct 14 01:54:51 2019, MaxMem=  1342177280 cpu:              20.1 elap:               0.9
 (Enter /apps/cent7/gaussian/g16-A.03/g16-haswell/g16/l716.exe)
 Dipole        =-8.81545410D-01 1.99452287D-01 6.46825626D-01
 ***** Axes restored to original set *****
 -------------------------------------------------------------------
 Center     Atomic                   Forces (Hartrees/Bohr)
 Number     Number              X              Y              Z
 -------------------------------------------------------------------
      1        6          -0.082990437   -0.104359258    0.000103938
      2        6          -0.038139725    0.033253190    0.020485182
      3        6           0.012862382    0.052975246   -0.023901230
      4        8           0.096143006    0.001700144    0.015040853
      5        6          -0.000763839   -0.000256249   -0.012672391
      6        1           0.014108378    0.005246245    0.003501966
      7        1          -0.009340524   -0.012200983    0.003069506
      8        1           0.001404794   -0.002014763   -0.019655873
      9        1           0.018911547    0.000482660   -0.000864977
     10        1          -0.010070844    0.017900680    0.000604288
     11        1           0.003021361   -0.012969177   -0.008410856
     12        1          -0.011016439   -0.000704593    0.007734981
     13        1           0.001643184    0.014052348   -0.007855716
     14        1           0.004227157    0.006894510    0.022820329
 -------------------------------------------------------------------
 Cartesian Forces:  Max     0.104359258 RMS     0.029628921
 Leave Link  716 at Mon Oct 14 01:54:51 2019, MaxMem=  1342177280 cpu:               0.6 elap:               0.0
 (Enter /apps/cent7/gaussian/g16-A.03/g16-haswell/g16/l103.exe)

 GradGradGradGradGradGradGradGradGradGradGradGradGradGradGradGradGradGrad
 Berny optimization.
 FormGI is forming the generalized inverse of G from B-inverse, IUseBI=4.
 Internal  Forces:  Max     0.089085522 RMS     0.020057007
 Search for a local minimum.
 Step number   1 out of a maximum of   62
 All quantities printed in internal units (Hartrees-Bohrs-Radians)
 RMS Force = .20057D-01 SwitMx=.10000D-02 MixMth= 1
 Mixed Optimization -- RFO/linear search
 Second derivative matrix not updated -- first step.
 ITU=  0
     Eigenvalues ---    0.00237   0.01295   0.01295   0.01436   0.02681
     Eigenvalues ---    0.07243   0.07243   0.08601   0.08601   0.10344
     Eigenvalues ---    0.10344   0.16000   0.16000   0.16000   0.16000
     Eigenvalues ---    0.16000   0.16000   0.16000   0.16000   0.16000
     Eigenvalues ---    0.25000   0.25000   0.25000   0.28519   0.37230
     Eigenvalues ---    0.37230   0.37230   0.37230   0.37230   0.37230
     Eigenvalues ---    0.37230   0.37230   0.37230   0.40989   0.40989
     Eigenvalues ---    0.53930
 RFO step:  Lambda=-4.82053059D-02 EMin= 2.36824247D-03
 Linear search not attempted -- first point.
 Maximum step size (   0.300) exceeded in Quadratic search.
    -- Step size scaled by   0.880
 Iteration  1 RMS(Cart)=  0.08098107 RMS(Int)=  0.00263155
 Iteration  2 RMS(Cart)=  0.00321260 RMS(Int)=  0.00041325
 Iteration  3 RMS(Cart)=  0.00000628 RMS(Int)=  0.00041322
 Iteration  4 RMS(Cart)=  0.00000000 RMS(Int)=  0.00041322
 ITry= 1 IFail=0 DXMaxC= 2.14D-01 DCOld= 1.00D+10 DXMaxT= 3.00D-01 DXLimC= 3.00D+00 Rises=F
 Variable       Old X    -DE/DX   Delta X   Delta X   Delta X     New X
                                 (Linear)    (Quad)   (Total)
    R1        2.91018  -0.03809   0.00000  -0.10057  -0.10057   2.80961
    R2        2.56096   0.08146   0.00000   0.12207   0.12207   2.68303
    R3        2.70231  -0.08909   0.00000  -0.17120  -0.17120   2.53111
    R4        2.02201   0.01474   0.00000   0.03087   0.03087   2.05288
    R5        2.02201   0.01505   0.00000   0.03151   0.03151   2.05352
    R6        2.02201   0.01951   0.00000   0.04085   0.04085   2.06286
    R7        2.02201   0.01684   0.00000   0.03526   0.03526   2.05726
    R8        2.02201   0.01788   0.00000   0.03743   0.03743   2.05943
    R9        2.02201   0.02420   0.00000   0.05067   0.05067   2.07268
   R10        2.70231   0.02235   0.00000   0.04295   0.04295   2.74525
   R11        2.02201   0.01548   0.00000   0.03242   0.03242   2.05442
   R12        2.02201   0.01118   0.00000   0.02340   0.02340   2.04540
   R13        2.02201   0.01591   0.00000   0.03331   0.03331   2.05532
    A1        2.09440   0.02113   0.00000   0.06239   0.06228   2.15668
    A2        2.09440  -0.01491   0.00000  -0.04401  -0.04410   2.05030
    A3        2.09440  -0.00623   0.00000  -0.01838  -0.01847   2.07592
    A4        1.91063  -0.00118   0.00000  -0.00272  -0.00295   1.90769
    A5        1.91063   0.00205   0.00000   0.01187   0.01176   1.92239
    A6        1.91063  -0.00624   0.00000  -0.03185  -0.03201   1.87862
    A7        1.91063   0.00402   0.00000   0.02796   0.02779   1.93842
    A8        1.91063   0.00110   0.00000  -0.00178  -0.00208   1.90856
    A9        1.91063   0.00025   0.00000  -0.00347  -0.00350   1.90713
   A10        1.91063   0.00524   0.00000   0.02564   0.02472   1.93535
   A11        1.91063   0.00916   0.00000   0.04291   0.04211   1.95274
   A12        1.91063  -0.00437   0.00000  -0.02614  -0.02595   1.88468
   A13        1.91063   0.00104   0.00000   0.01974   0.01807   1.92870
   A14        1.91063  -0.00491   0.00000  -0.02912  -0.02905   1.88158
   A15        1.91063  -0.00616   0.00000  -0.03304  -0.03275   1.87789
   A16        1.91063   0.01930   0.00000   0.05697   0.05697   1.96761
   A17        1.91063   0.00463   0.00000   0.02169   0.02130   1.93193
   A18        1.91063  -0.01401   0.00000  -0.06344  -0.06350   1.84713
   A19        1.91063   0.00512   0.00000   0.02375   0.02338   1.93401
   A20        1.91063   0.00134   0.00000   0.00144   0.00135   1.91199
   A21        1.91063   0.00179   0.00000   0.01600   0.01535   1.92598
   A22        1.91063   0.00112   0.00000   0.00055   0.00050   1.91113
    D1        0.52360  -0.00378   0.00000  -0.03348  -0.03343   0.49017
    D2        2.61799   0.00168   0.00000   0.00637   0.00642   2.62441
    D3       -1.57080  -0.00058   0.00000  -0.01012  -0.01024  -1.58104
    D4       -2.61799  -0.00193   0.00000  -0.00747  -0.00741  -2.62540
    D5       -0.52360   0.00353   0.00000   0.03238   0.03244  -0.49116
    D6        1.57080   0.00127   0.00000   0.01589   0.01578   1.58658
    D7        0.52360  -0.00418   0.00000  -0.02000  -0.02049   0.50311
    D8        2.61799   0.00591   0.00000   0.04616   0.04711   2.66510
    D9       -1.57080   0.00131   0.00000   0.01597   0.01607  -1.55473
   D10       -2.61799  -0.00603   0.00000  -0.04601  -0.04687  -2.66486
   D11       -0.52360   0.00406   0.00000   0.02015   0.02073  -0.50287
   D12        1.57080  -0.00054   0.00000  -0.01004  -0.01031   1.56049
   D13       -1.57080  -0.00023   0.00000  -0.00308  -0.00246  -1.57326
   D14        1.57080   0.00161   0.00000   0.02293   0.02232   1.59311
   D15        1.04720   0.00429   0.00000   0.02662   0.02706   1.07425
   D16        3.14159   0.00019   0.00000   0.00283   0.00286  -3.13874
   D17       -1.04720  -0.00388   0.00000  -0.02080  -0.02126  -1.06846
         Item               Value     Threshold  Converged?
 Maximum Force            0.089086     0.000450     NO 
 RMS     Force            0.020057     0.000300     NO 
 Maximum Displacement     0.213739     0.001800     NO 
 RMS     Displacement     0.081447     0.001200     NO 
 Predicted change in Energy=-2.617290D-02
 Lowest energy point so far.  Saving SCF results.
 GradGradGradGradGradGradGradGradGradGradGradGradGradGradGradGradGradGrad

 Leave Link  103 at Mon Oct 14 01:54:51 2019, MaxMem=  1342177280 cpu:               0.7 elap:               0.1
 (Enter /apps/cent7/gaussian/g16-A.03/g16-haswell/g16/l202.exe)
                          Input orientation:                          
 ---------------------------------------------------------------------
 Center     Atomic      Atomic             Coordinates (Angstroms)
 Number     Number       Type             X           Y           Z
 ---------------------------------------------------------------------
      1          6           0        0.493315   -1.044509   -0.675071
      2          6           0        1.256136   -2.319860   -0.720849
      3          6           0        1.105938    0.235191   -0.621369
      4          8           0       -0.843548   -1.124491   -0.654804
      5          6           0       -1.426502   -1.120045   -1.985426
      6          1           0        2.214055   -2.183254   -0.227034
      7          1           0        0.684169   -3.115144   -0.250487
      8          1           0        1.422548   -2.568218   -1.770732
      9          1           0        2.080021    0.219902   -1.107269
     10          1           0        0.473164    1.007140   -1.058823
     11          1           0       -1.084813   -1.979130   -2.557375
     12          1           0       -2.496977   -1.184930   -1.839064
     13          1           0       -1.186941   -0.197420   -2.509171
     14          1           0        1.261309    0.492267    0.433512
 ---------------------------------------------------------------------
                    Distance matrix (angstroms):
                    1          2          3          4          5
     1  C    0.000000
     2  C    1.486779   0.000000
     3  C    1.419796   2.561394   0.000000
     4  O    1.339407   2.417010   2.377046   0.000000
     5  C    2.325605   3.199259   3.179712   1.452726   0.000000
     6  H    2.111497   1.086335   2.689293   3.263877   4.180432
     7  H    2.122316   1.086675   3.397084   2.541670   3.383100
     8  H    2.094191   1.091618   3.046372   2.909438   3.203184
     9  H    2.074407   2.697870   1.088656   3.249519   3.855169
    10  H    2.087327   3.434560   1.089805   2.537876   2.998707
    11  H    2.628131   2.994823   3.667523   2.099618   1.087155
    12  H    3.211923   4.077294   4.059620   2.034688   1.082380
    13  H    2.627688   3.697495   3.001373   2.101442   1.087628
    14  H    2.044615   3.039841   1.096814   2.868582   3.959185
                    6          7          8          9         10
     6  H    0.000000
     7  H    1.791513   0.000000
     8  H    1.776988   1.776366   0.000000
     9  H    2.562799   3.715509   2.940420   0.000000
    10  H    3.728429   4.206085   3.767138   1.789995   0.000000
    11  H    4.044092   3.121146   2.693081   4.117612   3.686565
    12  H    5.078298   4.045861   4.157022   4.843345   3.773020
    13  H    4.551753   4.137126   3.602139   3.579459   2.512056
    14  H    2.915897   3.716767   3.775084   1.765922   1.764463
                   11         12         13         14
    11  H    0.000000
    12  H    1.772268   0.000000
    13  H    1.785286   1.772121   0.000000
    14  H    4.534038   4.701309   3.889599   0.000000
 Stoichiometry    C4H9O(1+)
 Framework group  C1[X(C4H9O)]
 Deg. of freedom    36
 Full point group                 C1      NOp   1
 RotChk:  IX=3 Diff= 1.12D-01
 Largest Abelian subgroup         C1      NOp   1
 Largest concise Abelian subgroup C1      NOp   1
                         Standard orientation:                         
 ---------------------------------------------------------------------
 Center     Atomic      Atomic             Coordinates (Angstroms)
 Number     Number       Type             X           Y           Z
 ---------------------------------------------------------------------
      1          6           0       -0.455626    0.025789   -0.139397
      2          6           0       -1.108544   -1.286985    0.107247
      3          6           0       -1.076473    1.274116    0.129023
      4          8           0        0.773767    0.014308   -0.670879
      5          6           0        1.820408   -0.020421    0.335972
      6          1           0       -2.185747   -1.173504    0.024303
      7          1           0       -0.738442   -2.027223   -0.596979
      8          1           0       -0.854595   -1.597110    1.122610
      9          1           0       -1.790323    1.184855    0.946105
     10          1           0       -0.345587    2.053378    0.344035
     11          1           0        1.746307   -0.923906    0.936079
     12          1           0        2.755145   -0.023754   -0.209742
     13          1           0        1.774345    0.860802    0.971785
     14          1           0       -1.629826    1.577006   -0.768228
 ---------------------------------------------------------------------
 Rotational constants (GHZ):           7.0810782           4.1892748           3.0859448
 Leave Link  202 at Mon Oct 14 01:54:51 2019, MaxMem=  1342177280 cpu:               0.2 elap:               0.0
 (Enter /apps/cent7/gaussian/g16-A.03/g16-haswell/g16/l301.exe)
 Standard basis: 6-311++G(d,p) (5D, 7F)
 Ernie: Thresh=  0.10000D-02 Tol=  0.10000D-05 Strict=F.
 There are   178 symmetry adapted cartesian basis functions of A   symmetry.
 There are   173 symmetry adapted basis functions of A   symmetry.
   173 basis functions,   261 primitive gaussians,   178 cartesian basis functions
    20 alpha electrons       20 beta electrons
       nuclear repulsion energy       188.8584643023 Hartrees.
 IExCor= 4336 DFT=T Ex+Corr=M062X ExCW=0 ScaHFX=  0.540000
 ScaDFX=  1.000000  1.000000  1.000000  1.000000 ScalE2=  1.000000  1.000000
 IRadAn=      5 IRanWt=     -1 IRanGd=            0 ICorTp=0 IEmpDi=  4
 NAtoms=   14 NActive=   14 NUniq=   14 SFac= 1.00D+00 NAtFMM=   60 NAOKFM=F Big=F
 Integral buffers will be    131072 words long.
 Raffenetti 2 integral format.
 Two-electron integral symmetry is turned on.
 Leave Link  301 at Mon Oct 14 01:54:51 2019, MaxMem=  1342177280 cpu:               1.8 elap:               0.1
 (Enter /apps/cent7/gaussian/g16-A.03/g16-haswell/g16/l302.exe)
 NPDir=0 NMtPBC=     1 NCelOv=     1 NCel=       1 NClECP=     1 NCelD=      1
         NCelK=      1 NCelE2=     1 NClLst=     1 CellRange=     0.0.
 One-electron integrals computed using PRISM.
 One-electron integral symmetry used in STVInt
 NBasis=   173 RedAO= T EigKep=  3.59D-05  NBF=   173
 NBsUse=   173 1.00D-06 EigRej= -1.00D+00 NBFU=   173
 Precomputing XC quadrature grid using
 IXCGrd= 4 IRadAn=           5 IRanWt=          -1 IRanGd=           0 AccXCQ= 0.00D+00.
 Generated NRdTot=       0 NPtTot=           0 NUsed=           0 NTot=          32
 NSgBfM=   178   178   178   178   178 MxSgAt=    14 MxSgA2=    14.
 Leave Link  302 at Mon Oct 14 01:54:51 2019, MaxMem=  1342177280 cpu:               3.6 elap:               0.2
 (Enter /apps/cent7/gaussian/g16-A.03/g16-haswell/g16/l303.exe)
 DipDrv:  MaxL=1.
 Leave Link  303 at Mon Oct 14 01:54:51 2019, MaxMem=  1342177280 cpu:               0.6 elap:               0.0
 (Enter /apps/cent7/gaussian/g16-A.03/g16-haswell/g16/l401.exe)
 Initial guess from the checkpoint file:  "mop_plus.chk"
 B after Tr=    -0.000000   -0.000000   -0.000000
         Rot=    0.999273    0.005289   -0.009708   -0.036499 Ang=   4.37 deg.
 Guess basis will be translated and rotated to current coordinates.
 JPrj=2 DoOrth=T DoCkMO=T.
 Generating alternative initial guess.
 ExpMin= 3.60D-02 ExpMax= 8.59D+03 ExpMxC= 1.30D+03 IAcc=3 IRadAn=         5 AccDes= 0.00D+00
 Harris functional with IExCor= 1009 and IRadAn=       5 diagonalized for initial guess.
 HarFok:  IExCor= 1009 AccDes= 0.00D+00 IRadAn=         5 IDoV= 1 UseB2=F ITyADJ=14
 ICtDFT=  3500011 ScaDFX=  1.000000  1.000000  1.000000  1.000000
 FoFCou: FMM=F IPFlag=           0 FMFlag=      100000 FMFlg1=           0
         NFxFlg=           0 DoJE=T BraDBF=F KetDBF=T FulRan=T
         wScrn=  0.000000 ICntrl=       500 IOpCl=  0 I1Cent=   200000004 NGrid=           0
         NMat0=    1 NMatS0=      1 NMatT0=    0 NMatD0=    1 NMtDS0=    0 NMtDT0=    0
 Petite list used in FoFCou.
 Harris En= -232.677167968713    
 Leave Link  401 at Mon Oct 14 01:54:52 2019, MaxMem=  1342177280 cpu:               8.0 elap:               0.4
 (Enter /apps/cent7/gaussian/g16-A.03/g16-haswell/g16/l502.exe)
 Integral symmetry usage will be decided dynamically.
 Closed shell SCF:
 Using DIIS extrapolation, IDIIS=  1040.
 NGot=  1342177280 LenX=  1342107718 LenY=  1342075593
 Requested convergence on RMS density matrix=1.00D-08 within 128 cycles.
 Requested convergence on MAX density matrix=1.00D-06.
 Requested convergence on             energy=1.00D-06.
 No special actions if energy rises.
 Fock matrices will be formed incrementally for  20 cycles.

 Cycle   1  Pass 1  IDiag  1:
 FoFJK:  IHMeth= 1 ICntrl=       0 DoSepK=F KAlg= 0 I1Cent=           0 FoldK=F
 IRaf= 990000000 NMat=       1 IRICut=       1 DoRegI=T DoRafI=F ISym2E= 0 IDoP0=0 IntGTp=1.
 FoFCou: FMM=F IPFlag=           0 FMFlag=      100000 FMFlg1=           0
         NFxFlg=           0 DoJE=F BraDBF=F KetDBF=F FulRan=T
         wScrn=  0.000000 ICntrl=         0 IOpCl=  0 I1Cent=           0 NGrid=           0
         NMat0=    1 NMatS0=      1 NMatT0=    0 NMatD0=    1 NMtDS0=    0 NMtDT0=    0
 Symmetry not used in FoFCou.
 E= -232.684513172747    
 DIIS: error= 4.97D-03 at cycle   1 NSaved=   1.
 NSaved= 1 IEnMin= 1 EnMin= -232.684513172747     IErMin= 1 ErrMin= 4.97D-03
 ErrMax= 4.97D-03  0.00D+00 EMaxC= 1.00D-01 BMatC= 8.75D-03 BMatP= 8.75D-03
 IDIUse=3 WtCom= 9.50D-01 WtEn= 4.97D-02
 Coeff-Com:  0.100D+01
 Coeff-En:   0.100D+01
 Coeff:      0.100D+01
 Gap=     0.518 Goal=   None    Shift=    0.000
 GapD=    0.518 DampG=2.000 DampE=1.000 DampFc=2.0000 IDamp=-1.
 RMSDP=2.15D-03 MaxDP=1.11D-01              OVMax= 2.82D-02

 Cycle   2  Pass 1  IDiag  1:
 RMSU=  2.13D-03    CP:  9.81D-01
 E= -232.695481583779     Delta-E=       -0.010968411032 Rises=F Damp=F
 DIIS: error= 2.01D-03 at cycle   2 NSaved=   2.
 NSaved= 2 IEnMin= 2 EnMin= -232.695481583779     IErMin= 2 ErrMin= 2.01D-03
 ErrMax= 2.01D-03  0.00D+00 EMaxC= 1.00D-01 BMatC= 7.84D-04 BMatP= 8.75D-03
 IDIUse=3 WtCom= 9.80D-01 WtEn= 2.01D-02
 Coeff-Com:  0.674D-01 0.933D+00
 Coeff-En:   0.000D+00 0.100D+01
 Coeff:      0.661D-01 0.934D+00
 Gap=     0.293 Goal=   None    Shift=    0.000
 RMSDP=3.49D-04 MaxDP=1.58D-02 DE=-1.10D-02 OVMax= 9.65D-03

 Cycle   3  Pass 1  IDiag  1:
 RMSU=  2.68D-04    CP:  9.79D-01  1.10D+00
 E= -232.696090718364     Delta-E=       -0.000609134585 Rises=F Damp=F
 DIIS: error= 1.15D-03 at cycle   3 NSaved=   3.
 NSaved= 3 IEnMin= 3 EnMin= -232.696090718364     IErMin= 3 ErrMin= 1.15D-03
 ErrMax= 1.15D-03  0.00D+00 EMaxC= 1.00D-01 BMatC= 3.62D-04 BMatP= 7.84D-04
 IDIUse=3 WtCom= 9.88D-01 WtEn= 1.15D-02
 Coeff-Com: -0.554D-01 0.395D+00 0.660D+00
 Coeff-En:   0.000D+00 0.163D-01 0.984D+00
 Coeff:     -0.547D-01 0.391D+00 0.664D+00
 Gap=     0.293 Goal=   None    Shift=    0.000
 RMSDP=1.21D-04 MaxDP=4.45D-03 DE=-6.09D-04 OVMax= 5.26D-03

 Cycle   4  Pass 1  IDiag  1:
 RMSU=  9.29D-05    CP:  9.79D-01  1.13D+00  8.39D-01
 E= -232.696412942633     Delta-E=       -0.000322224269 Rises=F Damp=F
 DIIS: error= 3.64D-04 at cycle   4 NSaved=   4.
 NSaved= 4 IEnMin= 4 EnMin= -232.696412942633     IErMin= 4 ErrMin= 3.64D-04
 ErrMax= 3.64D-04  0.00D+00 EMaxC= 1.00D-01 BMatC= 1.56D-05 BMatP= 3.62D-04
 IDIUse=3 WtCom= 9.96D-01 WtEn= 3.64D-03
 Coeff-Com: -0.166D-01 0.569D-01 0.202D+00 0.758D+00
 Coeff-En:   0.000D+00 0.000D+00 0.000D+00 0.100D+01
 Coeff:     -0.165D-01 0.567D-01 0.201D+00 0.758D+00
 Gap=     0.292 Goal=   None    Shift=    0.000
 RMSDP=3.06D-05 MaxDP=9.58D-04 DE=-3.22D-04 OVMax= 1.69D-03

 Cycle   5  Pass 1  IDiag  1:
 RMSU=  2.71D-05    CP:  9.79D-01  1.13D+00  8.87D-01  1.03D+00
 E= -232.696426787944     Delta-E=       -0.000013845310 Rises=F Damp=F
 DIIS: error= 3.18D-04 at cycle   5 NSaved=   5.
 NSaved= 5 IEnMin= 5 EnMin= -232.696426787944     IErMin= 5 ErrMin= 3.18D-04
 ErrMax= 3.18D-04  0.00D+00 EMaxC= 1.00D-01 BMatC= 4.59D-06 BMatP= 1.56D-05
 IDIUse=3 WtCom= 9.97D-01 WtEn= 3.18D-03
 Coeff-Com: -0.804D-03-0.282D-01 0.916D-02 0.381D+00 0.639D+00
 Coeff-En:   0.000D+00 0.000D+00 0.000D+00 0.000D+00 0.100D+01
 Coeff:     -0.801D-03-0.281D-01 0.913D-02 0.379D+00 0.640D+00
 Gap=     0.293 Goal=   None    Shift=    0.000
 RMSDP=1.53D-05 MaxDP=3.16D-04 DE=-1.38D-05 OVMax= 4.96D-04

 Cycle   6  Pass 1  IDiag  1:
 RMSU=  1.03D-05    CP:  9.79D-01  1.13D+00  9.08D-01  1.10D+00  7.84D-01
 E= -232.696430589359     Delta-E=       -0.000003801416 Rises=F Damp=F
 DIIS: error= 2.88D-05 at cycle   6 NSaved=   6.
 NSaved= 6 IEnMin= 6 EnMin= -232.696430589359     IErMin= 6 ErrMin= 2.88D-05
 ErrMax= 2.88D-05  0.00D+00 EMaxC= 1.00D-01 BMatC= 1.89D-07 BMatP= 4.59D-06
 IDIUse=1 WtCom= 1.00D+00 WtEn= 0.00D+00
 Coeff-Com:  0.165D-02-0.163D-01-0.223D-01 0.303D-01 0.175D+00 0.832D+00
 Coeff:      0.165D-02-0.163D-01-0.223D-01 0.303D-01 0.175D+00 0.832D+00
 Gap=     0.293 Goal=   None    Shift=    0.000
 RMSDP=5.51D-06 MaxDP=2.66D-04 DE=-3.80D-06 OVMax= 3.02D-04

 Cycle   7  Pass 1  IDiag  1:
 RMSU=  3.67D-06    CP:  9.79D-01  1.13D+00  9.14D-01  1.14D+00  8.12D-01
                    CP:  1.01D+00
 E= -232.696430959226     Delta-E=       -0.000000369867 Rises=F Damp=F
 DIIS: error= 2.62D-05 at cycle   7 NSaved=   7.
 NSaved= 7 IEnMin= 7 EnMin= -232.696430959226     IErMin= 7 ErrMin= 2.62D-05
 ErrMax= 2.62D-05  0.00D+00 EMaxC= 1.00D-01 BMatC= 3.92D-08 BMatP= 1.89D-07
 IDIUse=1 WtCom= 1.00D+00 WtEn= 0.00D+00
 Coeff-Com:  0.708D-03-0.270D-02-0.862D-02-0.276D-01-0.282D-01 0.286D+00
 Coeff-Com:  0.781D+00
 Coeff:      0.708D-03-0.270D-02-0.862D-02-0.276D-01-0.282D-01 0.286D+00
 Coeff:      0.781D+00
 Gap=     0.293 Goal=   None    Shift=    0.000
 RMSDP=2.39D-06 MaxDP=6.74D-05 DE=-3.70D-07 OVMax= 1.40D-04

 Cycle   8  Pass 1  IDiag  1:
 RMSU=  1.48D-06    CP:  9.79D-01  1.13D+00  9.15D-01  1.14D+00  8.13D-01
                    CP:  1.17D+00  1.03D+00
 E= -232.696431022354     Delta-E=       -0.000000063128 Rises=F Damp=F
 DIIS: error= 4.50D-06 at cycle   8 NSaved=   8.
 NSaved= 8 IEnMin= 8 EnMin= -232.696431022354     IErMin= 8 ErrMin= 4.50D-06
 ErrMax= 4.50D-06  0.00D+00 EMaxC= 1.00D-01 BMatC= 2.68D-09 BMatP= 3.92D-08
 IDIUse=1 WtCom= 1.00D+00 WtEn= 0.00D+00
 Coeff-Com: -0.161D-03 0.227D-02 0.247D-02-0.773D-02-0.376D-01-0.638D-01
 Coeff-Com:  0.123D+00 0.981D+00
 Coeff:     -0.161D-03 0.227D-02 0.247D-02-0.773D-02-0.376D-01-0.638D-01
 Coeff:      0.123D+00 0.981D+00
 Gap=     0.293 Goal=   None    Shift=    0.000
 RMSDP=8.99D-07 MaxDP=1.73D-05 DE=-6.31D-08 OVMax= 9.78D-05

 Cycle   9  Pass 1  IDiag  1:
 RMSU=  5.19D-07    CP:  9.79D-01  1.13D+00  9.15D-01  1.14D+00  8.11D-01
                    CP:  1.22D+00  1.14D+00  1.20D+00
 E= -232.696431033115     Delta-E=       -0.000000010761 Rises=F Damp=F
 DIIS: error= 2.30D-06 at cycle   9 NSaved=   9.
 NSaved= 9 IEnMin= 9 EnMin= -232.696431033115     IErMin= 9 ErrMin= 2.30D-06
 ErrMax= 2.30D-06  0.00D+00 EMaxC= 1.00D-01 BMatC= 3.08D-10 BMatP= 2.68D-09
 IDIUse=1 WtCom= 1.00D+00 WtEn= 0.00D+00
 Coeff-Com: -0.735D-04 0.478D-03 0.100D-02 0.144D-02-0.274D-02-0.315D-01
 Coeff-Com: -0.513D-01 0.126D+00 0.957D+00
 Coeff:     -0.735D-04 0.478D-03 0.100D-02 0.144D-02-0.274D-02-0.315D-01
 Coeff:     -0.513D-01 0.126D+00 0.957D+00
 Gap=     0.293 Goal=   None    Shift=    0.000
 RMSDP=3.50D-07 MaxDP=7.48D-06 DE=-1.08D-08 OVMax= 4.23D-05

 Cycle  10  Pass 1  IDiag  1:
 RMSU=  1.62D-07    CP:  9.79D-01  1.13D+00  9.16D-01  1.14D+00  8.11D-01
                    CP:  1.23D+00  1.18D+00  1.33D+00  1.31D+00
 E= -232.696431034770     Delta-E=       -0.000000001655 Rises=F Damp=F
 DIIS: error= 9.91D-07 at cycle  10 NSaved=  10.
 NSaved=10 IEnMin=10 EnMin= -232.696431034770     IErMin=10 ErrMin= 9.91D-07
 ErrMax= 9.91D-07  0.00D+00 EMaxC= 1.00D-01 BMatC= 7.20D-11 BMatP= 3.08D-10
 IDIUse=1 WtCom= 1.00D+00 WtEn= 0.00D+00
 Coeff-Com:  0.167D-04-0.381D-03-0.289D-03 0.209D-02 0.753D-02 0.579D-02
 Coeff-Com: -0.356D-01-0.182D+00 0.206D+00 0.997D+00
 Coeff:      0.167D-04-0.381D-03-0.289D-03 0.209D-02 0.753D-02 0.579D-02
 Coeff:     -0.356D-01-0.182D+00 0.206D+00 0.997D+00
 Gap=     0.293 Goal=   None    Shift=    0.000
 RMSDP=2.01D-07 MaxDP=4.56D-06 DE=-1.66D-09 OVMax= 2.59D-05

 Cycle  11  Pass 1  IDiag  1:
 RMSU=  6.84D-08    CP:  9.79D-01  1.13D+00  9.16D-01  1.14D+00  8.11D-01
                    CP:  1.23D+00  1.19D+00  1.38D+00  1.59D+00  1.40D+00
 E= -232.696431035193     Delta-E=       -0.000000000423 Rises=F Damp=F
 DIIS: error= 3.58D-07 at cycle  11 NSaved=  11.
 NSaved=11 IEnMin=11 EnMin= -232.696431035193     IErMin=11 ErrMin= 3.58D-07
 ErrMax= 3.58D-07  0.00D+00 EMaxC= 1.00D-01 BMatC= 9.64D-12 BMatP= 7.20D-11
 IDIUse=1 WtCom= 1.00D+00 WtEn= 0.00D+00
 Coeff-Com:  0.125D-04-0.129D-03-0.199D-03 0.214D-04 0.170D-02 0.550D-02
 Coeff-Com:  0.429D-02-0.567D-01-0.116D+00 0.207D+00 0.955D+00
 Coeff:      0.125D-04-0.129D-03-0.199D-03 0.214D-04 0.170D-02 0.550D-02
 Coeff:      0.429D-02-0.567D-01-0.116D+00 0.207D+00 0.955D+00
 Gap=     0.293 Goal=   None    Shift=    0.000
 RMSDP=7.18D-08 MaxDP=1.66D-06 DE=-4.23D-10 OVMax= 9.29D-06

 Cycle  12  Pass 1  IDiag  1:
 RMSU=  2.52D-08    CP:  9.79D-01  1.13D+00  9.16D-01  1.14D+00  8.12D-01
                    CP:  1.23D+00  1.20D+00  1.39D+00  1.68D+00  1.61D+00
                    CP:  1.16D+00
 E= -232.696431035241     Delta-E=       -0.000000000049 Rises=F Damp=F
 DIIS: error= 7.66D-08 at cycle  12 NSaved=  12.
 NSaved=12 IEnMin=12 EnMin= -232.696431035241     IErMin=12 ErrMin= 7.66D-08
 ErrMax= 7.66D-08  0.00D+00 EMaxC= 1.00D-01 BMatC= 7.83D-13 BMatP= 9.64D-12
 IDIUse=1 WtCom= 1.00D+00 WtEn= 0.00D+00
 Coeff-Com: -0.863D-06 0.354D-04 0.138D-04-0.298D-03-0.712D-03-0.827D-04
 Coeff-Com:  0.598D-02 0.148D-01-0.427D-01-0.998D-01 0.107D+00 0.102D+01
 Coeff:     -0.863D-06 0.354D-04 0.138D-04-0.298D-03-0.712D-03-0.827D-04
 Coeff:      0.598D-02 0.148D-01-0.427D-01-0.998D-01 0.107D+00 0.102D+01
 Gap=     0.293 Goal=   None    Shift=    0.000
 RMSDP=2.50D-08 MaxDP=5.76D-07 DE=-4.86D-11 OVMax= 2.59D-06

 Cycle  13  Pass 1  IDiag  1:
 RMSU=  7.22D-09    CP:  9.79D-01  1.13D+00  9.16D-01  1.14D+00  8.12D-01
                    CP:  1.23D+00  1.20D+00  1.39D+00  1.70D+00  1.70D+00
                    CP:  1.29D+00  1.14D+00
 E= -232.696431035245     Delta-E=       -0.000000000003 Rises=F Damp=F
 DIIS: error= 1.89D-08 at cycle  13 NSaved=  13.
 NSaved=13 IEnMin=13 EnMin= -232.696431035245     IErMin=13 ErrMin= 1.89D-08
 ErrMax= 1.89D-08  0.00D+00 EMaxC= 1.00D-01 BMatC= 3.33D-14 BMatP= 7.83D-13
 IDIUse=1 WtCom= 1.00D+00 WtEn= 0.00D+00
 Coeff-Com: -0.824D-06 0.125D-04 0.124D-04-0.484D-04-0.186D-03-0.334D-03
 Coeff-Com:  0.727D-03 0.489D-02-0.530D-03-0.233D-01-0.332D-01 0.137D+00
 Coeff-Com:  0.915D+00
 Coeff:     -0.824D-06 0.125D-04 0.124D-04-0.484D-04-0.186D-03-0.334D-03
 Coeff:      0.727D-03 0.489D-02-0.530D-03-0.233D-01-0.332D-01 0.137D+00
 Coeff:      0.915D+00
 Gap=     0.293 Goal=   None    Shift=    0.000
 RMSDP=2.96D-09 MaxDP=7.67D-08 DE=-3.41D-12 OVMax= 2.67D-07

 SCF Done:  E(RM062X) =  -232.696431035     A.U. after   13 cycles
            NFock= 13  Conv=0.30D-08     -V/T= 2.0038
 KE= 2.318191908631D+02 PE=-9.106739504703D+02 EE= 2.572998642696D+02
 Leave Link  502 at Mon Oct 14 01:54:57 2019, MaxMem=  1342177280 cpu:             129.3 elap:               5.4
 (Enter /apps/cent7/gaussian/g16-A.03/g16-haswell/g16/l701.exe)
 ... and contract with generalized density number  0.
 Compute integral first derivatives.
 Leave Link  701 at Mon Oct 14 01:54:57 2019, MaxMem=  1342177280 cpu:               2.6 elap:               0.1
 (Enter /apps/cent7/gaussian/g16-A.03/g16-haswell/g16/l702.exe)
 L702 exits ... SP integral derivatives will be done elsewhere.
 Leave Link  702 at Mon Oct 14 01:54:57 2019, MaxMem=  1342177280 cpu:               0.4 elap:               0.0
 (Enter /apps/cent7/gaussian/g16-A.03/g16-haswell/g16/l703.exe)
 Integral derivatives from FoFJK, PRISM(SPDF).
 Compute integral first derivatives, UseDBF=F ICtDFT=           0.
 Calling FoFJK, ICntrl=      2127 FMM=F ISym2X=0 I1Cent= 0 IOpClX= 0 NMat=1 NMatS=1 NMatT=0.
 FoFJK:  IHMeth= 1 ICntrl=    2127 DoSepK=F KAlg= 0 I1Cent=           0 FoldK=F
 IRaf=         0 NMat=       1 IRICut=       1 DoRegI=T DoRafI=F ISym2E= 0 IDoP0=0 IntGTp=1.
 FoFCou: FMM=F IPFlag=           0 FMFlag=      100000 FMFlg1=         800
         NFxFlg=           0 DoJE=F BraDBF=F KetDBF=F FulRan=T
         wScrn=  0.000000 ICntrl=      2127 IOpCl=  0 I1Cent=           0 NGrid=           0
         NMat0=    1 NMatS0=      1 NMatT0=    0 NMatD0=    1 NMtDS0=    0 NMtDT0=    0
 Symmetry not used in FoFCou.
 Leave Link  703 at Mon Oct 14 01:54:58 2019, MaxMem=  1342177280 cpu:              19.9 elap:               0.9
 (Enter /apps/cent7/gaussian/g16-A.03/g16-haswell/g16/l716.exe)
 Dipole        =-6.08063286D-01 6.79105087D-02 6.08572115D-01
 ***** Axes restored to original set *****
 -------------------------------------------------------------------
 Center     Atomic                   Forces (Hartrees/Bohr)
 Number     Number              X              Y              Z
 -------------------------------------------------------------------
      1        6          -0.042975097   -0.037225898    0.003261715
      2        6          -0.009169363    0.015628578    0.014924424
      3        6           0.008331434    0.021974169   -0.012101040
      4        8           0.048297946    0.002910066   -0.000847809
      5        6          -0.012801723    0.000405746   -0.011572410
      6        1           0.005106879   -0.001369412   -0.002410905
      7        1          -0.002305709   -0.002537820   -0.001533940
      8        1           0.001508461   -0.000444650   -0.005923953
      9        1           0.004293944   -0.000236305    0.002820902
     10        1          -0.002594704    0.001511239    0.002964535
     11        1           0.001892818   -0.002960649    0.001431130
     12        1          -0.001677142   -0.000093922    0.002619004
     13        1           0.001655564    0.002903000    0.001357933
     14        1           0.000436693   -0.000464142    0.005010413
 -------------------------------------------------------------------
 Cartesian Forces:  Max     0.048297946 RMS     0.013206414
 Leave Link  716 at Mon Oct 14 01:54:58 2019, MaxMem=  1342177280 cpu:               0.5 elap:               0.0
 (Enter /apps/cent7/gaussian/g16-A.03/g16-haswell/g16/l103.exe)

 GradGradGradGradGradGradGradGradGradGradGradGradGradGradGradGradGradGrad
 Berny optimization.
 Using GEDIIS/GDIIS optimizer.
 FormGI is forming the generalized inverse of G from B-inverse, IUseBI=4.
 Internal  Forces:  Max     0.037589992 RMS     0.007572517
 Search for a local minimum.
 Step number   2 out of a maximum of   62
 All quantities printed in internal units (Hartrees-Bohrs-Radians)
 RMS Force = .75725D-02 SwitMx=.10000D-02 MixMth= 1
 Mixed Optimization -- RFO/linear search
 Update second derivatives using D2CorX and points    1    2
 DE= -2.88D-02 DEPred=-2.62D-02 R= 1.10D+00
 TightC=F SS=  1.41D+00  RLast= 3.16D-01 DXNew= 5.0454D-01 9.4674D-01
 Trust test= 1.10D+00 RLast= 3.16D-01 DXMaxT set to 5.05D-01
 ITU=  1  0
 Use linear search instead of GDIIS.
     Eigenvalues ---    0.00237   0.01295   0.01297   0.01458   0.02681
     Eigenvalues ---    0.07070   0.07501   0.08159   0.08705   0.10231
     Eigenvalues ---    0.10671   0.15606   0.16000   0.16000   0.16000
     Eigenvalues ---    0.16000   0.16000   0.16000   0.16000   0.16543
     Eigenvalues ---    0.22280   0.24993   0.25734   0.29012   0.35645
     Eigenvalues ---    0.37230   0.37230   0.37230   0.37230   0.37230
     Eigenvalues ---    0.37230   0.37230   0.37442   0.39375   0.40998
     Eigenvalues ---    0.53310
 RFO step:  Lambda=-5.36167221D-03 EMin= 2.36825288D-03
 Quartic linear search produced a step of  0.46008.
 Iteration  1 RMS(Cart)=  0.06101651 RMS(Int)=  0.00275050
 Iteration  2 RMS(Cart)=  0.00431351 RMS(Int)=  0.00048326
 Iteration  3 RMS(Cart)=  0.00000890 RMS(Int)=  0.00048321
 Iteration  4 RMS(Cart)=  0.00000000 RMS(Int)=  0.00048321
 ITry= 1 IFail=0 DXMaxC= 1.52D-01 DCOld= 1.00D+10 DXMaxT= 5.05D-01 DXLimC= 3.00D+00 Rises=F
 Variable       Old X    -DE/DX   Delta X   Delta X   Delta X     New X
                                 (Linear)    (Quad)   (Total)
    R1        2.80961  -0.01232  -0.04627  -0.00914  -0.05541   2.75420
    R2        2.68303   0.02500   0.05616   0.01056   0.06672   2.74974
    R3        2.53111  -0.03759  -0.07876  -0.04912  -0.12788   2.40323
    R4        2.05288   0.00323   0.01420  -0.00274   0.01147   2.06434
    R5        2.05352   0.00241   0.01450  -0.00625   0.00825   2.06177
    R6        2.06286   0.00603   0.01879   0.00312   0.02192   2.08478
    R7        2.05726   0.00259   0.01622  -0.00740   0.00882   2.06608
    R8        2.05943   0.00139   0.01722  -0.01310   0.00412   2.06355
    R9        2.07268   0.00477   0.02331  -0.00657   0.01674   2.08942
   R10        2.74525   0.01003   0.01976   0.01443   0.03419   2.77945
   R11        2.05442   0.00218   0.01491  -0.00757   0.00735   2.06177
   R12        2.04540   0.00202   0.01076  -0.00375   0.00702   2.05242
   R13        2.05532   0.00217   0.01533  -0.00804   0.00729   2.06260
    A1        2.15668   0.00058   0.02866  -0.03054  -0.00202   2.15466
    A2        2.05030   0.00124  -0.02029   0.03092   0.01051   2.06080
    A3        2.07592  -0.00185  -0.00850  -0.00064  -0.00926   2.06667
    A4        1.90769   0.00509  -0.00135   0.05268   0.05061   1.95830
    A5        1.92239   0.00048   0.00541   0.00242   0.00689   1.92928
    A6        1.87862  -0.00278  -0.01473  -0.01567  -0.03034   1.84828
    A7        1.93842   0.00065   0.01278   0.01005   0.02138   1.95980
    A8        1.90856  -0.00290  -0.00095  -0.03524  -0.03589   1.87267
    A9        1.90713  -0.00068  -0.00161  -0.01548  -0.01729   1.88984
   A10        1.93535   0.00250   0.01137   0.01135   0.02190   1.95725
   A11        1.95274   0.00076   0.01937  -0.01505   0.00338   1.95612
   A12        1.88468  -0.00419  -0.01194  -0.02936  -0.04133   1.84335
   A13        1.92870   0.00234   0.00831   0.02619   0.03306   1.96176
   A14        1.88158  -0.00137  -0.01336  -0.00241  -0.01567   1.86591
   A15        1.87789  -0.00040  -0.01507   0.00814  -0.00709   1.87080
   A16        1.96761   0.02025   0.02621   0.08472   0.11093   2.07854
   A17        1.93193  -0.00324   0.00980  -0.04298  -0.03375   1.89818
   A18        1.84713  -0.00245  -0.02922   0.01997  -0.00952   1.83761
   A19        1.93401  -0.00286   0.01076  -0.04063  -0.03043   1.90359
   A20        1.91199   0.00243   0.00062   0.02233   0.02264   1.93463
   A21        1.92598   0.00356   0.00706   0.01910   0.02529   1.95127
   A22        1.91113   0.00243   0.00023   0.02341   0.02338   1.93451
    D1        0.49017  -0.00272  -0.01538  -0.03003  -0.04615   0.44402
    D2        2.62441   0.00172   0.00295   0.01856   0.02191   2.64633
    D3       -1.58104  -0.00048  -0.00471  -0.00810  -0.01266  -1.59370
    D4       -2.62540  -0.00171  -0.00341  -0.01794  -0.02196  -2.64736
    D5       -0.49116   0.00274   0.01492   0.03065   0.04610  -0.44506
    D6        1.58658   0.00054   0.00726   0.00399   0.01153   1.59810
    D7        0.50311  -0.00223  -0.00943  -0.01000  -0.01998   0.48313
    D8        2.66510   0.00323   0.02167   0.02150   0.04365   2.70876
    D9       -1.55473   0.00054   0.00739   0.00419   0.01171  -1.54302
   D10       -2.66486  -0.00321  -0.02156  -0.02181  -0.04397  -2.70883
   D11       -0.50287   0.00225   0.00954   0.00969   0.01967  -0.48320
   D12        1.56049  -0.00044  -0.00474  -0.00763  -0.01228   1.54821
   D13       -1.57326  -0.00108  -0.00113  -0.07980  -0.08066  -1.65392
   D14        1.59311  -0.00015   0.01027  -0.06780  -0.05781   1.53530
   D15        1.07425   0.00039   0.01245  -0.00709   0.00581   1.08006
   D16       -3.13874   0.00014   0.00131   0.00849   0.00984  -3.12890
   D17       -1.06846   0.00009  -0.00978   0.02662   0.01636  -1.05210
         Item               Value     Threshold  Converged?
 Maximum Force            0.037590     0.000450     NO 
 RMS     Force            0.007573     0.000300     NO 
 Maximum Displacement     0.151712     0.001800     NO 
 RMS     Displacement     0.060346     0.001200     NO 
 Predicted change in Energy=-6.674980D-03
 Lowest energy point so far.  Saving SCF results.
 GradGradGradGradGradGradGradGradGradGradGradGradGradGradGradGradGradGrad

 Leave Link  103 at Mon Oct 14 01:54:58 2019, MaxMem=  1342177280 cpu:               0.5 elap:               0.1
 (Enter /apps/cent7/gaussian/g16-A.03/g16-haswell/g16/l202.exe)
                          Input orientation:                          
 ---------------------------------------------------------------------
 Center     Atomic      Atomic             Coordinates (Angstroms)
 Number     Number       Type             X           Y           Z
 ---------------------------------------------------------------------
      1          6           0        0.505887   -1.078556   -0.703705
      2          6           0        1.270368   -2.319218   -0.681146
      3          6           0        1.116494    0.241014   -0.647034
      4          8           0       -0.763265   -1.157791   -0.720523
      5          6           0       -1.465828   -1.108204   -2.011747
      6          1           0        2.238204   -2.198831   -0.189065
      7          1           0        0.680052   -3.124661   -0.241649
[...]
 ! A17   A(4,5,11)             108.4511         -DE/DX =    0.0                 !
 ! A18   A(4,5,12)             104.5618         -DE/DX =    0.0                 !
 ! A19   A(4,5,13)             109.3747         -DE/DX =    0.0                 !
 ! A20   A(11,5,12)            110.972          -DE/DX =    0.0                 !
 ! A21   A(11,5,13)            111.9071         -DE/DX =    0.0                 !
 ! A22   A(12,5,13)            111.2673         -DE/DX =    0.0                 !
 ! D1    D(3,1,2,6)             52.144          -DE/DX =    0.0                 !
 ! D2    D(3,1,2,7)            175.5507         -DE/DX =    0.0                 !
 ! D3    D(3,1,2,8)            -62.5179         -DE/DX =    0.0                 !
 ! D4    D(4,1,2,6)           -127.3101         -DE/DX =    0.0                 !
 ! D5    D(4,1,2,7)             -3.9034         -DE/DX =    0.0                 !
 ! D6    D(4,1,2,8)            118.028          -DE/DX =    0.0                 !
 ! D7    D(2,1,3,9)              9.8008         -DE/DX =    0.0                 !
 ! D8    D(2,1,3,10)           133.0071         -DE/DX =    0.0                 !
 ! D9    D(2,1,3,14)          -109.42           -DE/DX =    0.0                 !
 ! D10   D(4,1,3,9)           -170.7772         -DE/DX =    0.0                 !
 ! D11   D(4,1,3,10)           -47.571          -DE/DX =    0.0                 !
 ! D12   D(4,1,3,14)            70.002          -DE/DX =    0.0                 !
 ! D13   D(2,1,4,5)           -179.6594         -DE/DX =    0.0                 !
 ! D14   D(3,1,4,5)              0.8876         -DE/DX =    0.0                 !
 ! D15   D(1,4,5,11)            69.7679         -DE/DX =    0.0                 !
 ! D16   D(1,4,5,12)          -171.775          -DE/DX =    0.0                 !
 ! D17   D(1,4,5,13)           -52.5261         -DE/DX =    0.0                 !
 --------------------------------------------------------------------------------
 GradGradGradGradGradGradGradGradGradGradGradGradGradGradGradGradGradGrad

 Leave Link  103 at Mon Oct 14 01:57:51 2019, MaxMem=  1342177280 cpu:               0.9 elap:               0.1
 (Enter /apps/cent7/gaussian/g16-A.03/g16-haswell/g16/l9999.exe)

 ----------------------------------------------------------------------

 Electric dipole moment (input orientation):
 (Debye = 10**-18 statcoulomb cm , SI units = C m)
                  (au)            (Debye)         (10**-30 SI)
   Tot        0.560948D+00      0.142579D+01      0.475592D+01
   x          0.205048D+00      0.521180D+00      0.173847D+01
   y          0.519647D+00      0.132081D+01      0.440575D+01
   z         -0.508505D-01     -0.129249D+00     -0.431128D+00

 Dipole polarizability, Alpha (input orientation).
 (esu units = cm**3 , SI units = C**2 m**2 J**-1)
 Alpha(0;0):
               (au)            (10**-24 esu)      (10**-40 SI)
   iso        0.473867D+02      0.702199D+01      0.781302D+01
   aniso      0.185028D+02      0.274183D+01      0.305070D+01
   xx         0.552970D+02      0.819418D+01      0.911725D+01
   yx        -0.225720D+01     -0.334483D+00     -0.372163D+00
   yy         0.471053D+02      0.698029D+01      0.776662D+01
   zx         0.638416D+01      0.946034D+00      0.105261D+01
   zy        -0.279991D+01     -0.414904D+00     -0.461643D+00
   zz         0.397579D+02      0.589151D+01      0.655518D+01

 ----------------------------------------------------------------------

 Dipole orientation:
     6          2.54348273          1.11600201         -1.84168354
     6          4.32459645         -0.52278384         -3.21268444
     6          2.47507885          1.20747119          0.95077757
     8          1.06897562          2.41928922         -3.18498548
     6         -0.80053198          4.14981749         -2.12305319
     1          4.15239108         -2.45180633         -2.48331706
     1          4.01516933         -0.46178238         -5.24214061
     1          6.24739167          0.09643100         -2.74856740
     1          4.07436613          0.19949374          1.75516467
     1          2.43577223          3.15645977          1.63346922
     1          0.19137470          5.74752837         -1.28784156
     1         -1.92465944          4.74330679         -3.73020723
     1         -1.94710609          3.15004986         -0.73922018
     1          0.72435668          0.29767620          1.59373914

 Electric dipole moment (dipole orientation):
 (Debye = 10**-18 statcoulomb cm , SI units = C m)
                  (au)            (Debye)         (10**-30 SI)
   Tot        0.560948D+00      0.142579D+01      0.475592D+01
   x          0.000000D+00      0.000000D+00      0.000000D+00
   y          0.000000D+00      0.000000D+00      0.000000D+00
   z          0.560948D+00      0.142579D+01      0.475592D+01

 Dipole polarizability, Alpha (dipole orientation).
 (esu units = cm**3 , SI units = C**2 m**2 J**-1)
 Alpha(0;0):
               (au)            (10**-24 esu)      (10**-40 SI)
   iso        0.473867D+02      0.702199D+01      0.781302D+01
   aniso      0.185028D+02      0.274183D+01      0.305070D+01
   xx         0.487751D+02      0.722773D+01      0.804193D+01
   yx        -0.105960D+02     -0.157016D+01     -0.174704D+01
   yy         0.467271D+02      0.692424D+01      0.770426D+01
   zx         0.341292D+00      0.505743D-01      0.562715D-01
   zy        -0.529104D+00     -0.784051D-01     -0.872374D-01
   zz         0.466580D+02      0.691400D+01      0.769286D+01

 ----------------------------------------------------------------------
 1\1\GINC-BROWN-A071\Freq\RM062X\6-311++G(d,p)\C4H9O1(1+)\FINEJ\14-Oct-
 2019\0\\#P Geom=AllCheck Guess=TCheck SCRF=Check GenChk RM062X/6-311++
 G(d,p) Freq\\MOP Plus\\1,1\C,0.5720224839,-1.370786236,-0.9507312004\C
 ,1.4337874074,-2.4426616762,-0.4261352048\C,1.0632768617,0.0143232933,
 -1.1162945992\O,-0.6102613101,-1.6999137199,-1.2399628206\C,-1.5897918
 821,-0.7593971724,-1.7776077467\H,1.877259119,-2.1086385748,0.51782249
 35\H,0.8895183846,-3.3747398331,-0.2988313482\H,2.2695340596,-2.575597
 8458,-1.1238819353\H,2.1394520584,0.0634742085,-0.9701129885\H,0.79353
 04532,0.4147866561,-2.0968633481\H,-1.2953032555,-0.4978354254,-2.7927
 634657\H,-2.5250755575,-1.3080549532,-1.7740042992\H,-1.6426891458,0.1
 151378316,-1.1321031427\H,0.5766149532,0.6474026672,-0.3624930341\\Ver
 sion=ES64L-G16RevA.03\State=1-A\HF=-232.7384749\RMSD=1.884e-09\RMSF=1.
 052e-05\ZeroPoint=0.1251395\Thermal=0.1251395\Dipole=0.2050478,0.51964
 66,-0.0508505\DipoleDeriv=1.4921179,-0.0589094,0.4021267,0.1883094,1.0
 442288,-0.0724822,0.3365661,-0.1770425,0.4140632,-0.403182,0.2419902,-
 0.1457897,0.1618882,-0.1899118,0.0621505,-0.0931093,0.063394,-0.118629
 ,-0.0473223,0.0773768,-0.0167114,-0.1310555,-0.4934122,0.0154944,-0.01
 61282,0.0236474,-0.0783685,-1.4284553,0.1082478,-0.4241556,-0.1071049,
 -0.4689826,0.0174919,-0.3489156,0.1007699,-0.3291141,0.6332955,-0.1861
 018,0.1788305,-0.2590613,0.3138313,-0.0978516,0.1606522,-0.0734771,0.2
 90823,0.1733698,-0.044387,0.0187548,0.0323328,0.0349694,-0.0278312,-0.
 0021895,-0.0410906,0.1239459,0.0636479,-0.0282864,-0.0097919,-0.011452
 7,0.0813195,0.0103068,-0.0203295,0.0104343,0.1201867,0.1687329,-0.0608
 391,0.0416978,0.0133053,0.091897,0.062705,0.0058835,0.0505987,0.079412
 8,0.0586533,0.0157102,-0.0148231,0.0479615,0.1147407,0.0093679,-0.0134
 251,0.0210795,0.1144653,0.0878444,-0.0398511,-0.0500622,-0.0025352,0.1
 214301,-0.0190146,-0.0429739,-0.0117361,0.0727387,-0.0022332,0.0122343
 ,0.0639284,0.0676969,0.0853456,0.0169653,0.0319752,0.0213019,0.0617747
 ,0.0868214,0.0177495,-0.0162017,-0.0285963,0.0651783,0.0199688,0.00594
 21,0.0256818,0.1210411,0.0452615,-0.02609,-0.0775268,0.0335322,0.04755
 23,-0.0106216,-0.0609701,-0.048069,0.0174484,0.0714483,-0.0288439,0.04
 97242,-0.0052204,0.1518135,0.0133507,0.0570221,0.0345077,0.1102116\Pol
 ar=55.2970352,-2.2572034,47.1053011,6.3841554,-2.7999129,39.7578558\Qu
 adrupole=3.4969675,-0.8165083,-2.6804592,-2.1651975,2.872481,-1.292524
 7\PG=C01 [X(C4H9O1)]\NImag=0\\0.77717071,0.06458196,0.60746539,0.14884
 195,-0.06670135,0.31699774,-0.10986111,0.04659958,-0.02081521,0.548081
 73,0.06749727,-0.19516086,0.04771067,0.06439103,0.58411110,-0.02765630
 ,0.04384286,-0.10707868,-0.00029677,-0.00365415,0.51756323,-0.11329583
 ,-0.04346724,0.00486429,0.01090552,0.01321533,-0.00420668,0.61101715,-
 0.03020986,-0.20861295,0.02140235,-0.00271266,-0.01734006,0.00601309,-
 0.00611327,0.49072775,0.00411034,0.02695483,-0.09538513,0.00130980,0.0
 1261874,0.01467760,0.02639309,-0.01753501,0.53219730,-0.48695513,-0.11
 845493,-0.10244920,-0.05777853,0.00076577,-0.01929487,-0.01860688,-0.0
 3089709,-0.01165888,0.71406015,-0.09887788,-0.16314557,-0.00732666,0.0
 2785568,0.01609214,0.00778274,-0.04334628,-0.00546554,-0.00662991,0.04
 776928,0.31955328,-0.10834432,-0.01360824,-0.09729551,-0.02606625,-0.0
 0139306,0.00099787,-0.00726331,-0.00184616,0.02328964,0.18532322,-0.04
 042713,0.15664290,-0.05131458,0.01254599,-0.01870046,0.00532526,-0.004
 30686,-0.00225677,-0.00242466,0.00570694,0.00225100,-0.10098191,0.0333
 1541,-0.01764843,0.53512263,0.00921340,0.01735413,-0.00182883,-0.00522
 604,0.00082469,0.00140396,-0.00390345,-0.00492680,-0.00428778,0.045413
 60,-0.13521290,0.03142663,0.10797336,0.54163880,-0.01643419,-0.0003933
 7,-0.00809597,-0.00158363,0.00233410,0.01335244,0.00325149,0.00156414,
 -0.00789943,-0.02087844,0.02363353,-0.08053330,-0.05524734,0.05537588,
 0.58663930,-0.01549892,-0.00468805,-0.01993465,-0.07831252,-0.03770771
 ,-0.09844858,0.00028838,-0.00080496,0.00225253,-0.00054835,0.00383068,
 -0.00131305,-0.00095914,0.00037665,0.00135818,0.09154323,0.00402760,0.
 01136145,0.02307817,-0.03395322,-0.07472192,-0.06776935,0.00106470,-0.
 00147587,-0.00253624,0.00526045,-0.00233797,0.00097517,0.00052298,0.00
 018524,-0.00165540,0.03464282,0.07355291,-0.00383046,-0.00393182,-0.01
 130185,-0.09852891,-0.06832405,-0.24184638,-0.00036702,-0.00010678,0.0
 0244046,0.00106494,0.00107024,-0.00043466,-0.00003554,-0.00002838,0.00
 004097,0.10626928,0.07545468,0.26367764,0.01274761,0.02248624,-0.00239
 168,-0.12490118,-0.12888937,0.01625842,-0.00250191,0.00168413,-0.00224
 683,0.00066490,-0.00051258,0.00077934,0.00005078,0.00019090,-0.0000154
 2,-0.00580869,-0.00802461,0.00356341,0.12882363,-0.01260449,-0.0231952
 7,0.00244056,-0.12137761,-0.25818410,0.02977607,0.00247812,-0.00026385
 ,0.00242778,-0.00216832,0.00269965,-0.00179443,0.00062302,-0.00014832,
 0.00003896,-0.00178972,-0.00439433,0.00110925,0.13153669,0.27731058,0.
 00832914,0.01050392,-0.00390690,0.01382183,0.02802741,-0.05206169,-0.0
 0211178,0.00147042,0.00347382,0.00065117,-0.00116014,-0.00058761,-0.00
 000786,-0.00000919,-0.00028183,-0.01219530,-0.02324913,0.00623375,-0.0
 1602177,-0.03306327,0.04997840,-0.02326604,0.00496723,0.01134462,-0.19
 360911,0.02402566,0.13604346,0.00089657,-0.00193747,-0.00268529,0.0009
 6555,0.00320199,-0.00061823,-0.00014402,-0.00011871,-0.00156337,0.0096
 6687,-0.00301671,-0.00839220,-0.00943047,0.00342879,0.00756657,0.21492
 101,0.01480255,-0.00204119,-0.02081333,0.02822137,-0.05134275,-0.01777
 806,-0.00032713,-0.00033010,0.00307955,0.00264219,-0.00119092,0.001419
 87,-0.00051798,0.00046909,0.00134965,0.00592481,-0.00195783,-0.0056312
 4,-0.01965659,0.00682089,0.01690690,-0.03059722,0.04977607,-0.00932707
 ,0.00024829,0.00894856,0.13240346,-0.01721744,-0.14285704,0.00043450,0
 .00041723,-0.00032038,-0.00354494,0.00102564,-0.00229228,0.00057795,-0
 .00056887,-0.00155696,0.02239366,-0.00486419,-0.01831255,0.00002245,-0
 .00059137,-0.00211976,-0.14254709,0.02158921,0.15869553,-0.00919523,0.
 00051381,-0.00112658,0.00104318,0.00190333,-0.00022737,-0.32988536,-0.
 01353408,-0.03865721,0.00099600,-0.00044594,0.00029812,0.00011994,-0.0
 0014814,0.00026044,0.00015706,-0.00039590,0.00019520,0.00000356,0.0001
 7732,-0.00011196,0.00039352,-0.00020549,-0.00006623,0.35066906,-0.0358
 4977,0.00183283,-0.00582628,0.00066945,0.00030113,-0.00056656,-0.00591
 304,-0.04822481,0.00233163,-0.00424866,-0.00836443,-0.00008256,0.00216
 307,-0.00111648,0.00096662,-0.00018627,-0.00019048,0.00041713,0.000068
 23,0.00031551,-0.00014233,-0.00002007,-0.00082315,-0.00009307,0.013100
 71,0.05434490,0.00414311,-0.00365594,-0.00415982,-0.00004326,0.0004243
 5,0.00012693,-0.04010957,0.00205676,-0.05221435,0.00072386,0.00190209,
 0.00397115,-0.00076831,0.00034383,-0.00064492,0.00012453,0.00027678,-0
 .00032176,-0.00000551,-0.00009542,-0.00021665,0.00020896,-0.00009800,-
 0.00001149,0.04161717,-0.00053949,0.05136562,0.00409395,0.00453436,0.0
 1363032,0.00139632,-0.00066672,-0.00181900,-0.06351783,0.01722801,-0.0
 6340748,-0.00381129,-0.00110185,-0.00374173,0.00043428,-0.00157760,0.0
 0293666,-0.00028852,0.00005033,0.00014269,0.00019840,-0.00005692,-0.00
 003818,-0.00017296,-0.00075663,0.00020352,-0.00341424,0.01175517,-0.02
 726844,0.06445030,0.00914253,-0.01553186,0.03215087,-0.00302074,-0.003
 75938,-0.00230293,0.01991597,-0.07661503,0.09394543,0.00322182,0.00100
 253,-0.00337959,-0.00108341,0.00110152,0.00126740,-0.00027389,0.000849
 26,-0.00034274,0.00091553,-0.00093528,-0.00018264,0.00038777,-0.000405
 52,0.00017548,0.00008270,0.00002783,-0.00281190,-0.02404400,0.08612926
 ,0.00174182,0.00116855,-0.00181129,0.00090828,-0.00078850,-0.00045194,
 -0.06304714,0.09242975,-0.26191308,-0.00176944,0.00043605,-0.00004741,
 -0.00082522,-0.00041629,0.00168909,-0.00012774,-0.00019733,-0.00004404
 ,0.00002325,-0.00015340,-0.00008771,0.00004403,-0.00011908,0.00005724,
 0.00032265,-0.00074767,-0.00120833,0.06834024,-0.09984114,0.28407189,0
 .00414319,0.00280314,-0.00185115,-0.00172148,0.00050322,0.00213413,-0.
 00006697,0.00004530,-0.00140416,-0.00263809,0.01061179,-0.03151282,-0.
 07578186,-0.02194051,0.08534008,0.00027704,-0.00011749,0.00001322,0.00
 003763,-0.00013977,-0.00003807,-0.00029394,0.00041575,-0.00038664,0.00
 005906,0.00008496,0.00011816,-0.00068100,-0.00059447,-0.00018842,0.079
 59729,-0.00469319,-0.00126207,0.00034652,0.00095722,-0.00046785,-0.001
 43763,-0.00000879,0.00147017,0.00062085,0.00464144,-0.01231951,0.02449
 785,-0.01816116,-0.06232136,0.05325066,-0.00015157,0.00015867,-0.00003
 553,-0.00002546,0.00011093,0.00004155,0.00019324,-0.00013475,0.0002718
 8,0.00000018,-0.00013621,0.00007920,-0.00040702,0.00005763,0.00005396,
 0.01468102,0.06670124,0.00286990,0.00219920,0.00040476,-0.00048271,0.0
 0004200,0.00045059,0.00064163,-0.00075639,0.00014747,-0.00506886,0.005
 37034,-0.00950115,0.07529326,0.05895485,-0.29349942,0.00002588,-0.0001
 0986,-0.00003622,0.00006379,-0.00009759,0.00000584,-0.00003608,0.00006
 493,-0.00011190,0.00001364,-0.00022826,0.00039252,-0.00103354,-0.00035
 280,-0.00001578,-0.07824655,-0.06852977,0.31165071,-0.00082412,0.00335
 207,-0.00070569,-0.00038459,-0.00048245,-0.00037324,0.00039651,0.00030
 887,0.00008040,-0.02651910,-0.00680549,-0.00366657,-0.26026837,-0.1270
 6658,0.00288405,-0.00012171,0.00019031,-0.00002115,0.00000108,-0.00000
 135,0.00000093,-0.00003735,0.00004820,-0.00003661,0.00002352,-0.000187
 39,0.00004010,-0.00002687,0.00006655,0.00015333,-0.00346966,-0.0040858
 5,0.00018249,0.28533268,0.00252012,-0.00407572,0.00160217,0.00072862,0
 .00066392,0.00064283,-0.00074892,-0.00016695,0.00017004,0.03424339,0.0
 0896145,0.00365201,-0.14563168,-0.13307819,-0.00150282,0.00014569,-0.0
 0030589,0.00005084,-0.00002503,0.00004500,-0.00001561,0.00001012,-0.00
 007104,0.00004535,-0.00003277,0.00035617,-0.00012467,0.00006912,-0.000
 01016,-0.00046212,-0.00424755,-0.00187779,-0.00170221,0.13346878,0.138
 45188,-0.00137021,0.00224274,-0.00041735,-0.00036386,-0.00026215,0.000
 02874,0.00009069,0.00004374,-0.00017948,-0.01790327,-0.00444551,-0.003
 04861,0.00973469,0.00195150,-0.05120248,-0.00007469,0.00002653,0.00000
 630,0.00001207,-0.00000791,0.00004734,-0.00004458,0.00010343,-0.000068
 54,-0.00003421,-0.00003985,0.00024271,-0.00017288,-0.00025317,0.000037
 43,0.02600922,0.01489058,0.00314870,0.00127717,-0.00487041,0.04982006,
 0.00452751,0.00435974,0.00179516,-0.00057281,-0.00060194,-0.00183720,-
 0.00042044,-0.00029096,0.00156234,-0.01210962,0.02472895,0.01147702,-0
 .05109394,-0.00019173,0.00032082,-0.00022992,0.00034067,-0.00006118,0.
 00002827,-0.00011451,0.00009310,0.00020613,-0.00001047,0.00012143,0.00
 014295,-0.00007300,-0.00019451,-0.00091658,-0.00028643,0.00004993,0.00
 048612,0.00641915,0.00576297,0.00593698,-0.02068690,-0.01718122,0.0549
 1686,-0.00429178,-0.00154747,-0.00164489,0.00011767,0.00028291,0.00118
 290,-0.00046456,0.00109952,-0.00009086,0.01098400,-0.02151304,-0.00498
 185,0.00709014,-0.22534748,-0.13428432,0.00016070,-0.00015319,-0.00003
 657,-0.00002747,0.00009159,-0.00009643,-0.00008159,0.00014651,-0.00012
 307,-0.00007326,0.00025399,-0.00006857,0.00004910,0.00018638,-0.000075
 59,-0.00172702,0.00982041,0.00501017,0.00117972,-0.00895320,-0.0095325
 4,-0.01307423,0.24550717,0.00145030,0.00069531,0.00220374,-0.00004574,
 -0.00023357,-0.00117576,-0.00109263,0.00015394,0.00130084,-0.00617094,
 0.01891243,0.00826729,0.00721149,-0.14258107,-0.15867061,-0.00017737,0
 .00014830,0.00000160,-0.00001222,-0.00002530,0.00004295,0.00014977,-0.
 00005321,0.00004638,-0.00004012,0.00035454,-0.00029375,0.00007042,-0.0
 0051679,-0.00099775,-0.00049032,-0.02373850,-0.01271702,0.00034904,0.0
 0220047,0.00143185,-0.00118622,0.14492801,0.16035516,0.00752800,-0.000
 13390,-0.01250172,0.00038931,0.00035343,0.00198077,-0.09278425,0.06152
 709,0.08210036,-0.00673770,-0.00022375,0.00229701,0.00191558,-0.002995
 16,-0.00062934,-0.00016481,-0.00059192,-0.00001228,0.00008638,0.000008
 75,0.00006217,-0.00009577,0.00001664,-0.00024839,-0.01111300,0.0186366
 1,0.02141371,0.00225605,-0.00442993,-0.00562556,0.00005268,0.00064079,
 0.00001418,-0.00003897,0.00018699,0.00002110,-0.00090150,0.00015857,-0
 .00001546,0.09960800,0.01474155,-0.02344084,-0.02458996,-0.00325034,-0
 .00129898,0.00286424,0.06761855,-0.12987549,-0.11106904,0.00082706,0.0
 0124083,0.00554148,-0.00023981,0.00057806,-0.00194501,0.00052080,-0.00
 057006,0.00033494,0.00027939,-0.00027301,0.00096856,-0.00044305,0.0010
 8471,-0.00031508,-0.00094247,0.00142317,0.00231098,-0.00507535,0.00790
 281,0.00871282,-0.00037837,0.00020051,0.00013538,0.00001461,0.00006052
 ,0.00015303,-0.00051837,0.00012590,-0.00024455,-0.07315421,0.14284188,
 -0.00452400,0.00043502,0.00089769,-0.00021704,0.00071564,-0.00172592,0
 .08252244,-0.10530707,-0.15961529,0.00097566,-0.00014371,0.00057165,0.
 00042155,0.00026376,0.00066313,-0.00015268,0.00042189,-0.00010328,-0.0
 0002931,0.00003606,-0.00051994,0.00052942,-0.00002061,-0.00009681,-0.0
 0244354,0.00419616,0.00297214,0.01215739,-0.01755548,-0.01927832,0.000
 50332,-0.00031162,-0.00031909,-0.00016425,0.00031412,0.00015333,-0.000
 72244,-0.00018639,0.00020507,-0.08885655,0.11714223,0.17619563\\-0.000
 00952,0.00001289,-0.00000118,-0.00000393,-0.00002150,0.00000017,-0.000
 00263,0.00000427,0.00004172,-0.00000006,0.00000982,-0.00001455,-0.0000
 1589,0.00000878,-0.00000787,0.00001077,0.00000578,-0.00000627,0.000009
 06,0.00001035,-0.00000180,0.00000821,0.00000835,0.00000698,-0.00000627
 ,-0.00000374,-0.00000666,0.00000274,-0.00000551,-0.00000345,0.00000141
 ,-0.00001177,0.00000864,-0.00000096,0.00000290,0.00000060,-0.00000026,
 -0.00000954,-0.00000090,0.00000733,-0.00001109,-0.00001541\\\@


 ONE THORN OF EXPERIENCE IS WORTH A WHOLE WILDERNESS OF
 WARNING....  LOWELL - AMONG MY BOOKS
 Job cpu time:       0 days  0 hours 14 minutes 28.8 seconds.
 Elapsed time:       0 days  0 hours  0 minutes 36.8 seconds.
 File lengths (MBytes):  RWF=     44 Int=      0 D2E=      0 Chk=      4 Scr=      1
 Normal termination of Gaussian 16 at Mon Oct 14 01:57:51 2019.
real 188.16
user 4174.53
sys 24.65
Machine:
brown-a071
brown-a071
brown-a071
brown-a071
brown-a071
brown-a071
brown-a071
brown-a071
brown-a071
brown-a071
brown-a071
brown-a071
brown-a071
brown-a071
brown-a071
brown-a071
brown-a071
brown-a071
brown-a071
brown-a071
brown-a071
brown-a071
brown-a071
brown-a071
