Title Card Required                                                     
Freq      RB3LYP                                                      6-31G(d)            
Number of atoms                            I               17
Info1-9                                    I   N=           9
          44          44        1002           0           0         100
           6          18        -502
Full Title                                 C   N=           2
Title Card Required     
Route                                      C   N=           6
#P opt freq b3lyp/6-31g(d) geom=connectivity temperature=0.0
01          
Charge                                     I                0
Multiplicity                               I                1
Number of electrons                        I               50
Number of alpha electrons                  I               25
Number of beta electrons                   I               25
Number of basis functions                  I              112
Number of independent functions            I              112
Number of point charges in /Mol/           I                0
Number of translation vectors              I                0
Atomic numbers                             I   N=          17
           6           6           7           8           6           6
           1           1           1           1           1           1
           1           1           1           1           1
Nuclear charges                            R   N=          17
  6.00000000E+00  6.00000000E+00  7.00000000E+00  8.00000000E+00  6.00000000E+00
  6.00000000E+00  1.00000000E+00  1.00000000E+00  1.00000000E+00  1.00000000E+00
  1.00000000E+00  1.00000000E+00  1.00000000E+00  1.00000000E+00  1.00000000E+00
  1.00000000E+00  1.00000000E+00
Current cartesian coordinates              R   N=          51
 -4.67760816E+00 -7.97400149E-02 -6.51442296E-01 -2.30412455E+00 -1.21597864E+00
  5.25618898E-01 -3.38614693E-06 -2.41547940E-02 -4.28917077E-01 -2.29258095E-04
  2.56914828E+00  3.32501766E-01  2.30440377E+00 -1.21586687E+00  5.25918052E-01
  4.67767757E+00 -7.96410786E-02 -6.51556834E-01 -6.36826265E+00 -1.02517129E+00
  7.98519144E-02 -4.81070342E+00  1.93631727E+00 -2.22491692E-01 -4.63405244E+00
 -2.97260781E-01 -2.70804885E+00 -2.39294788E+00 -1.08137940E+00  2.61871330E+00
 -2.16958513E+00 -3.23110736E+00  6.07096351E-02 -4.84746088E-04  2.55911742E+00
  2.19335262E+00  2.39317480E+00 -1.08052343E+00  2.61877682E+00  2.16957594E+00
 -3.23103071E+00  6.13589516E-02  6.36856533E+00 -1.02452439E+00  7.99692760E-02
  4.63428701E+00 -2.97700019E-01 -2.70807083E+00  4.81019916E+00  1.93651964E+00
 -2.22942651E-01
Number of symbols in /Mol/                 I                0
Force Field                                I                0
Atom Types                                 C   N=          17
                                                            
                                                            
                                                            
                        
Int Atom Types                             I   N=          17
           0           0           0           0           0           0
           0           0           0           0           0           0
           0           0           0           0           0
MM charges                                 R   N=          17
  0.00000000E+00  0.00000000E+00  0.00000000E+00  0.00000000E+00  0.00000000E+00
  0.00000000E+00  0.00000000E+00  0.00000000E+00  0.00000000E+00  0.00000000E+00
  0.00000000E+00  0.00000000E+00  0.00000000E+00  0.00000000E+00  0.00000000E+00
  0.00000000E+00  0.00000000E+00
Integer atomic weights                     I   N=          17
          12          12          14          16          12          12
           1           1           1           1           1           1
           1           1           1           1           1
Real atomic weights                        R   N=          17
  1.20000000E+01  1.20000000E+01  1.40030740E+01  1.59949146E+01  1.20000000E+01
  1.20000000E+01  1.00782504E+00  1.00782504E+00  1.00782504E+00  1.00782504E+00
  1.00782504E+00  1.00782504E+00  1.00782504E+00  1.00782504E+00  1.00782504E+00
  1.00782504E+00  1.00782504E+00
Atom fragment info                         I   N=          17
           0           0           0           0           0           0
           0           0           0           0           0           0
           0           0           0           0           0
Atom residue num                           I   N=          17
           0           0           0           0           0           0
           0           0           0           0           0           0
           0           0           0           0           0
Nuclear spins                              I   N=          17
           0           0           2           0           0           0
           1           1           1           1           1           1
           1           1           1           1           1
Nuclear ZEff                               R   N=          17
 -3.60000000E+00 -3.60000000E+00 -4.55000000E+00 -5.60000000E+00 -3.60000000E+00
 -3.60000000E+00 -1.00000000E+00 -1.00000000E+00 -1.00000000E+00 -1.00000000E+00
 -1.00000000E+00 -1.00000000E+00 -1.00000000E+00 -1.00000000E+00 -1.00000000E+00
 -1.00000000E+00 -1.00000000E+00
Nuclear ZNuc                               R   N=          17
  6.00000000E+00  6.00000000E+00  7.00000000E+00  8.00000000E+00  6.00000000E+00
  6.00000000E+00  1.00000000E+00  1.00000000E+00  1.00000000E+00  1.00000000E+00
  1.00000000E+00  1.00000000E+00  1.00000000E+00  1.00000000E+00  1.00000000E+00
  1.00000000E+00  1.00000000E+00
Nuclear QMom                               R   N=          17
  0.00000000E+00  0.00000000E+00  2.04400000E+00  0.00000000E+00  0.00000000E+00
  0.00000000E+00  0.00000000E+00  0.00000000E+00  0.00000000E+00  0.00000000E+00
  0.00000000E+00  0.00000000E+00  0.00000000E+00  0.00000000E+00  0.00000000E+00
  0.00000000E+00  0.00000000E+00
Nuclear GFac                               R   N=          17
  0.00000000E+00  0.00000000E+00  4.03761000E-01  0.00000000E+00  0.00000000E+00
  0.00000000E+00  2.79284600E+00  2.79284600E+00  2.79284600E+00  2.79284600E+00
  2.79284600E+00  2.79284600E+00  2.79284600E+00  2.79284600E+00  2.79284600E+00
  2.79284600E+00  2.79284600E+00
MicOpt                                     I   N=          17
          -1          -1          -1          -1          -1          -1
          -1          -1          -1          -1          -1          -1
          -1          -1          -1          -1          -1
Number of residues                         I                0
Number of secondary structures             I                0
Redundant internal dimensions              I   N=           4
          76          16          28          32
Redundant internal coordinate indices      I   N=         304
           1           2           0           0           1           7
           0           0           1           8           0           0
           1           9           0           0           2           3
           0           0           2          10           0           0
           2          11           0           0           3           4
           0           0           3           5           0           0
           4          12           0           0           5           6
           0           0           5          13           0           0
           5          14           0           0           6          15
           0           0           6          16           0           0
           6          17           0           0           2           1
           7           0           2           1           8           0
           2           1           9           0           7           1
           8           0           7           1           9           0
           8           1           9           0           1           2
           3           0           1           2          10           0
           1           2          11           0           3           2
          10           0           3           2          11           0
          10           2          11           0           2           3
           4           0           2           3           5           0
           4           3           5           0           3           4
          12           0           3           5           6           0
           3           5          13           0           3           5
          14           0           6           5          13           0
           6           5          14           0          13           5
          14           0           5           6          15           0
           5           6          16           0           5           6
          17           0          15           6          16           0
          15           6          17           0          16           6
          17           0           7           1           2           3
           7           1           2          10           7           1
           2          11           8           1           2           3
           8           1           2          10           8           1
           2          11           9           1           2           3
           9           1           2          10           9           1
           2          11           1           2           3           4
           1           2           3           5          10           2
           3           4          10           2           3           5
          11           2           3           4          11           2
           3           5           2           3           4          12
           5           3           4          12           2           3
           5           6           2           3           5          13
           2           3           5          14           4           3
           5           6           4           3           5          13
           4           3           5          14           3           5
           6          15           3           5           6          16
           3           5           6          17          13           5
           6          15          13           5           6          16
          13           5           6          17          14           5
           6          15          14           5           6          16
          14           5           6          17
Redundant internal coordinates             R   N=          76
  2.88269591E+00  2.07049369E+00  2.06547814E+00  2.06853642E+00  2.76415581E+00
  2.09929767E+00  2.07243462E+00  2.70277256E+00  2.76444934E+00  1.86087791E+00
  2.88268705E+00  2.09910837E+00  2.07240898E+00  2.07051597E+00  2.06849759E+00
  2.06547237E+00  1.92634995E+00  1.93155525E+00  1.92535809E+00  1.89623889E+00
  1.89688217E+00  1.88649009E+00  1.95559487E+00  1.92517112E+00  1.92315441E+00
  1.93042866E+00  1.86258650E+00  1.86372491E+00  1.89267912E+00  1.97111018E+00
  1.89271754E+00  1.85098976E+00  1.95549767E+00  1.93031847E+00  1.86243235E+00
  1.92518577E+00  1.92331887E+00  1.86391927E+00  1.92639322E+00  1.92546171E+00
  1.93136377E+00  1.89682345E+00  1.89625559E+00  1.88657817E+00  3.12870508E+00
 -9.95687846E-01  1.05771640E+00 -1.05474417E+00  1.10404821E+00 -3.12573285E+00
  1.03217763E+00 -3.09221529E+00 -1.03881105E+00  1.12139058E+00 -3.06362265E+00
 -1.03445085E+00  1.06372123E+00 -3.05532952E+00 -9.57157440E-01  1.07307193E+00
 -1.07324939E+00  3.06338398E+00 -1.06409175E+00  9.56873939E-01 -1.12165125E+00
  1.03405833E+00  3.05502401E+00 -3.12886454E+00 -1.03231565E+00  1.05466008E+00
  9.95729684E-01  3.09227858E+00 -1.10393100E+00 -1.05802257E+00  1.03852632E+00
  3.12550206E+00
ZRed-IntVec                                I   N=          76
           0           0           0           0           0           0
           0           0           0           0           0           0
           0           0           0           0           0           0
           0           0           0           0           0           0
           0           0           0           0           0           0
           0           0           0           0           0           0
           0           0           0           0           0           0
           0           0           0           0           0           0
           0           0           0           0           0           0
           0           0           0           0           0           0
           0           0           0           0           0           0
           0           0           0           0           0           0
           0           0           0           0
ZRed-FPVec                                 R   N=          76
  0.00000000E+00  0.00000000E+00  0.00000000E+00  0.00000000E+00  0.00000000E+00
  0.00000000E+00  0.00000000E+00  0.00000000E+00  0.00000000E+00  0.00000000E+00
  0.00000000E+00  0.00000000E+00  0.00000000E+00  0.00000000E+00  0.00000000E+00
  0.00000000E+00  0.00000000E+00  0.00000000E+00  0.00000000E+00  0.00000000E+00
  0.00000000E+00  0.00000000E+00  0.00000000E+00  0.00000000E+00  0.00000000E+00
  0.00000000E+00  0.00000000E+00  0.00000000E+00  0.00000000E+00  0.00000000E+00
  0.00000000E+00  0.00000000E+00  0.00000000E+00  0.00000000E+00  0.00000000E+00
  0.00000000E+00  0.00000000E+00  0.00000000E+00  0.00000000E+00  0.00000000E+00
  0.00000000E+00  0.00000000E+00  0.00000000E+00  0.00000000E+00  0.00000000E+00
  0.00000000E+00  0.00000000E+00  0.00000000E+00  0.00000000E+00  0.00000000E+00
  0.00000000E+00  0.00000000E+00  0.00000000E+00  0.00000000E+00  0.00000000E+00
  0.00000000E+00  0.00000000E+00  0.00000000E+00  0.00000000E+00  0.00000000E+00
  0.00000000E+00  0.00000000E+00  0.00000000E+00  0.00000000E+00  0.00000000E+00
  0.00000000E+00  0.00000000E+00  0.00000000E+00  0.00000000E+00  0.00000000E+00
  0.00000000E+00  0.00000000E+00  0.00000000E+00  0.00000000E+00  0.00000000E+00
  0.00000000E+00
ZRed-Constraint1                           R   N=          76
  2.88269591E+00  2.07049369E+00  2.06547814E+00  2.06853642E+00  2.76415581E+00
  2.09929767E+00  2.07243462E+00  2.70277256E+00  2.76444934E+00  1.86087791E+00
  2.88268705E+00  2.09910837E+00  2.07240898E+00  2.07051597E+00  2.06849759E+00
  2.06547237E+00  1.92634995E+00  1.93155525E+00  1.92535809E+00  1.89623889E+00
  1.89688217E+00  1.88649009E+00  1.95559487E+00  1.92517112E+00  1.92315441E+00
  1.93042866E+00  1.86258650E+00  1.86372491E+00  1.89267912E+00  1.97111018E+00
  1.89271754E+00  1.85098976E+00  1.95549767E+00  1.93031847E+00  1.86243235E+00
  1.92518577E+00  1.92331887E+00  1.86391927E+00  1.92639322E+00  1.92546171E+00
  1.93136377E+00  1.89682345E+00  1.89625559E+00  1.88657817E+00  3.12870508E+00
 -9.95687846E-01  1.05771640E+00 -1.05474417E+00  1.10404821E+00 -3.12573285E+00
  1.03217763E+00 -3.09221529E+00 -1.03881105E+00  1.12139058E+00 -3.06362265E+00
 -1.03445085E+00  1.06372123E+00 -3.05532952E+00 -9.57157440E-01  1.07307193E+00
 -1.07324939E+00  3.06338398E+00 -1.06409175E+00  9.56873939E-01 -1.12165125E+00
  1.03405833E+00  3.05502401E+00 -3.12886454E+00 -1.03231565E+00  1.05466008E+00
  9.95729684E-01  3.09227858E+00 -1.10393100E+00 -1.05802257E+00  1.03852632E+00
  3.12550206E+00
ZRed-Constraint2                           R   N=          76
  2.91877829E+00  2.05969850E+00  2.05959930E+00  2.05978606E+00  2.81474204E+00
  2.05980610E+00  2.05991112E+00  2.57846401E+00  2.81857357E+00  1.81419367E+00
  2.91686226E+00  2.05979504E+00  2.05978923E+00  2.05978200E+00  2.05975281E+00
  2.05973970E+00  1.91058063E+00  1.91065384E+00  1.91056018E+00  1.91069856E+00
  1.91062809E+00  1.91067810E+00  1.97372536E+00  1.86191276E+00  1.86198640E+00
  1.83802868E+00  1.83798387E+00  2.09439856E+00  1.91048924E+00  1.96733842E+00
  1.91795092E+00  1.91062398E+00  1.97562480E+00  1.83826932E+00  1.83830593E+00
  1.86089257E+00  1.86088509E+00  2.09434748E+00  1.91064137E+00  1.91065791E+00
  1.91060277E+00  1.91062959E+00  1.91068916E+00  1.91057862E+00  3.06797960E+00
 -1.20282047E+00  1.05560345E+00 -1.12075020E+00  8.91635037E-01 -3.13312635E+00
  9.73667731E-01  2.98605297E+00 -1.03870842E+00  1.09257860E+00 -3.05035600E+00
 -9.34027867E-01  1.20622284E+00  3.11924632E+00 -1.02368828E+00  1.77784068E+00
 -3.91555270E-01  3.04996156E+00 -1.20672047E+00  1.02344490E+00 -1.09716018E+00
  9.29343093E-01 -3.12367684E+00 -2.87972531E+00 -7.85314583E-01  1.30901008E+00
  1.39039748E+00 -2.79837710E+00 -7.04052435E-01 -8.66623038E-01  1.22778769E+00
 -2.96107296E+00
SymInf integers                            I   N=          26
           1           1           1           1           1           0
           0           0           0           0           0           0
           0           0           0           0           0           0
           0           0           0           0           0           0
           0           0
RotTr to input orientation                 R   N=          12
 -1.91993576E-02  8.83569303E-01  4.67906691E-01 -4.17858466E-01  4.18069545E-01
 -8.06605330E-01 -9.08309246E-01 -2.11005076E-01  3.61180247E-01  3.70045512E+00
 -1.24583115E+00 -2.16450674E+00
Number of contracted shells                I               46
Number of primitive shells                 I              110
Pure/Cartesian d shells                    I                1
Pure/Cartesian f shells                    I                0
Highest angular momentum                   I                2
Largest degree of contraction              I                6
Shell types                                I   N=          46
           0          -1          -1           2           0          -1
          -1           2           0          -1          -1           2
           0          -1          -1           2           0          -1
          -1           2           0          -1          -1           2
           0           0           0           0           0           0
           0           0           0           0           0           0
           0           0           0           0           0           0
           0           0           0           0
Number of primitives per shell             I   N=          46
           6           3           1           1           6           3
           1           1           6           3           1           1
           6           3           1           1           6           3
           1           1           6           3           1           1
           3           1           3           1           3           1
           3           1           3           1           3           1
           3           1           3           1           3           1
           3           1           3           1
Shell to atom map                          I   N=          46
           1           1           1           1           2           2
           2           2           3           3           3           3
           4           4           4           4           5           5
           5           5           6           6           6           6
           7           7           8           8           9           9
          10          10          11          11          12          12
          13          13          14          14          15          15
          16          16          17          17
Primitive exponents                        R   N=         110
  3.04752488E+03  4.57369518E+02  1.03948685E+02  2.92101553E+01  9.28666296E+00
  3.16392696E+00  7.86827235E+00  1.88128854E+00  5.44249258E-01  1.68714478E-01
  8.00000000E-01  3.04752488E+03  4.57369518E+02  1.03948685E+02  2.92101553E+01
  9.28666296E+00  3.16392696E+00  7.86827235E+00  1.88128854E+00  5.44249258E-01
  1.68714478E-01  8.00000000E-01  4.17351146E+03  6.27457911E+02  1.42902093E+02
  4.02343293E+01  1.28202129E+01  4.39043701E+00  1.16263619E+01  2.71627981E+00
  7.72218397E-01  2.12031498E-01  8.00000000E-01  5.48467166E+03  8.25234946E+02
  1.88046958E+02  5.29645000E+01  1.68975704E+01  5.79963534E+00  1.55396162E+01
  3.59993359E+00  1.01376175E+00  2.70005823E-01  8.00000000E-01  3.04752488E+03
  4.57369518E+02  1.03948685E+02  2.92101553E+01  9.28666296E+00  3.16392696E+00
  7.86827235E+00  1.88128854E+00  5.44249258E-01  1.68714478E-01  8.00000000E-01
  3.04752488E+03  4.57369518E+02  1.03948685E+02  2.92101553E+01  9.28666296E+00
  3.16392696E+00  7.86827235E+00  1.88128854E+00  5.44249258E-01  1.68714478E-01
  8.00000000E-01  1.87311370E+01  2.82539436E+00  6.40121692E-01  1.61277759E-01
  1.87311370E+01  2.82539436E+00  6.40121692E-01  1.61277759E-01  1.87311370E+01
  2.82539436E+00  6.40121692E-01  1.61277759E-01  1.87311370E+01  2.82539436E+00
  6.40121692E-01  1.61277759E-01  1.87311370E+01  2.82539436E+00  6.40121692E-01
  1.61277759E-01  1.87311370E+01  2.82539436E+00  6.40121692E-01  1.61277759E-01
  1.87311370E+01  2.82539436E+00  6.40121692E-01  1.61277759E-01  1.87311370E+01
  2.82539436E+00  6.40121692E-01  1.61277759E-01  1.87311370E+01  2.82539436E+00
  6.40121692E-01  1.61277759E-01  1.87311370E+01  2.82539436E+00  6.40121692E-01
  1.61277759E-01  1.87311370E+01  2.82539436E+00  6.40121692E-01  1.61277759E-01
Contraction coefficients                   R   N=         110
  1.83473713E-03  1.40373228E-02  6.88426223E-02  2.32184443E-01  4.67941348E-01
  3.62311985E-01 -1.19332420E-01 -1.60854152E-01  1.14345644E+00  1.00000000E+00
  1.00000000E+00  1.83473713E-03  1.40373228E-02  6.88426223E-02  2.32184443E-01
  4.67941348E-01  3.62311985E-01 -1.19332420E-01 -1.60854152E-01  1.14345644E+00
  1.00000000E+00  1.00000000E+00  1.83477216E-03  1.39946270E-02  6.85865518E-02
  2.32240873E-01  4.69069948E-01  3.60455199E-01 -1.14961182E-01 -1.69117479E-01
  1.14585195E+00  1.00000000E+00  1.00000000E+00  1.83107443E-03  1.39501722E-02
  6.84450781E-02  2.32714336E-01  4.70192898E-01  3.58520853E-01 -1.10777550E-01
 -1.48026263E-01  1.13076702E+00  1.00000000E+00  1.00000000E+00  1.83473713E-03
  1.40373228E-02  6.88426223E-02  2.32184443E-01  4.67941348E-01  3.62311985E-01
 -1.19332420E-01 -1.60854152E-01  1.14345644E+00  1.00000000E+00  1.00000000E+00
  1.83473713E-03  1.40373228E-02  6.88426223E-02  2.32184443E-01  4.67941348E-01
  3.62311985E-01 -1.19332420E-01 -1.60854152E-01  1.14345644E+00  1.00000000E+00
  1.00000000E+00  3.34946043E-02  2.34726953E-01  8.13757326E-01  1.00000000E+00
  3.34946043E-02  2.34726953E-01  8.13757326E-01  1.00000000E+00  3.34946043E-02
  2.34726953E-01  8.13757326E-01  1.00000000E+00  3.34946043E-02  2.34726953E-01
  8.13757326E-01  1.00000000E+00  3.34946043E-02  2.34726953E-01  8.13757326E-01
  1.00000000E+00  3.34946043E-02  2.34726953E-01  8.13757326E-01  1.00000000E+00
  3.34946043E-02  2.34726953E-01  8.13757326E-01  1.00000000E+00  3.34946043E-02
  2.34726953E-01  8.13757326E-01  1.00000000E+00  3.34946043E-02  2.34726953E-01
  8.13757326E-01  1.00000000E+00  3.34946043E-02  2.34726953E-01  8.13757326E-01
  1.00000000E+00  3.34946043E-02  2.34726953E-01  8.13757326E-01  1.00000000E+00
P(S=P) Contraction coefficients            R   N=         110
  0.00000000E+00  0.00000000E+00  0.00000000E+00  0.00000000E+00  0.00000000E+00
  0.00000000E+00  6.89990666E-02  3.16423961E-01  7.44308291E-01  1.00000000E+00
  0.00000000E+00  0.00000000E+00  0.00000000E+00  0.00000000E+00  0.00000000E+00
  0.00000000E+00  0.00000000E+00  6.89990666E-02  3.16423961E-01  7.44308291E-01
  1.00000000E+00  0.00000000E+00  0.00000000E+00  0.00000000E+00  0.00000000E+00
  0.00000000E+00  0.00000000E+00  0.00000000E+00  6.75797439E-02  3.23907296E-01
  7.40895140E-01  1.00000000E+00  0.00000000E+00  0.00000000E+00  0.00000000E+00
  0.00000000E+00  0.00000000E+00  0.00000000E+00  0.00000000E+00  7.08742682E-02
  3.39752839E-01  7.27158577E-01  1.00000000E+00  0.00000000E+00  0.00000000E+00
  0.00000000E+00  0.00000000E+00  0.00000000E+00  0.00000000E+00  0.00000000E+00
  6.89990666E-02  3.16423961E-01  7.44308291E-01  1.00000000E+00  0.00000000E+00
  0.00000000E+00  0.00000000E+00  0.00000000E+00  0.00000000E+00  0.00000000E+00
  0.00000000E+00  6.89990666E-02  3.16423961E-01  7.44308291E-01  1.00000000E+00
  0.00000000E+00  0.00000000E+00  0.00000000E+00  0.00000000E+00  0.00000000E+00
  0.00000000E+00  0.00000000E+00  0.00000000E+00  0.00000000E+00  0.00000000E+00
  0.00000000E+00  0.00000000E+00  0.00000000E+00  0.00000000E+00  0.00000000E+00
  0.00000000E+00  0.00000000E+00  0.00000000E+00  0.00000000E+00  0.00000000E+00
  0.00000000E+00  0.00000000E+00  0.00000000E+00  0.00000000E+00  0.00000000E+00
  0.00000000E+00  0.00000000E+00  0.00000000E+00  0.00000000E+00  0.00000000E+00
  0.00000000E+00  0.00000000E+00  0.00000000E+00  0.00000000E+00  0.00000000E+00
  0.00000000E+00  0.00000000E+00  0.00000000E+00  0.00000000E+00  0.00000000E+00
  0.00000000E+00  0.00000000E+00  0.00000000E+00  0.00000000E+00  0.00000000E+00
Coordinates of each shell                  R   N=         138
 -4.67760816E+00 -7.97400149E-02 -6.51442296E-01 -4.67760816E+00 -7.97400149E-02
 -6.51442296E-01 -4.67760816E+00 -7.97400149E-02 -6.51442296E-01 -4.67760816E+00
 -7.97400149E-02 -6.51442296E-01 -2.30412455E+00 -1.21597864E+00  5.25618898E-01
 -2.30412455E+00 -1.21597864E+00  5.25618898E-01 -2.30412455E+00 -1.21597864E+00
  5.25618898E-01 -2.30412455E+00 -1.21597864E+00  5.25618898E-01 -3.38614693E-06
 -2.41547940E-02 -4.28917077E-01 -3.38614693E-06 -2.41547940E-02 -4.28917077E-01
 -3.38614693E-06 -2.41547940E-02 -4.28917077E-01 -3.38614693E-06 -2.41547940E-02
 -4.28917077E-01 -2.29258095E-04  2.56914828E+00  3.32501766E-01 -2.29258095E-04
  2.56914828E+00  3.32501766E-01 -2.29258095E-04  2.56914828E+00  3.32501766E-01
 -2.29258095E-04  2.56914828E+00  3.32501766E-01  2.30440377E+00 -1.21586687E+00
  5.25918052E-01  2.30440377E+00 -1.21586687E+00  5.25918052E-01  2.30440377E+00
 -1.21586687E+00  5.25918052E-01  2.30440377E+00 -1.21586687E+00  5.25918052E-01
  4.67767757E+00 -7.96410786E-02 -6.51556834E-01  4.67767757E+00 -7.96410786E-02
 -6.51556834E-01  4.67767757E+00 -7.96410786E-02 -6.51556834E-01  4.67767757E+00
 -7.96410786E-02 -6.51556834E-01 -6.36826265E+00 -1.02517129E+00  7.98519144E-02
 -6.36826265E+00 -1.02517129E+00  7.98519144E-02 -4.81070342E+00  1.93631727E+00
 -2.22491692E-01 -4.81070342E+00  1.93631727E+00 -2.22491692E-01 -4.63405244E+00
 -2.97260781E-01 -2.70804885E+00 -4.63405244E+00 -2.97260781E-01 -2.70804885E+00
 -2.39294788E+00 -1.08137940E+00  2.61871330E+00 -2.39294788E+00 -1.08137940E+00
  2.61871330E+00 -2.16958513E+00 -3.23110736E+00  6.07096351E-02 -2.16958513E+00
 -3.23110736E+00  6.07096351E-02 -4.84746088E-04  2.55911742E+00  2.19335262E+00
 -4.84746088E-04  2.55911742E+00  2.19335262E+00  2.39317480E+00 -1.08052343E+00
  2.61877682E+00  2.39317480E+00 -1.08052343E+00  2.61877682E+00  2.16957594E+00
 -3.23103071E+00  6.13589516E-02  2.16957594E+00 -3.23103071E+00  6.13589516E-02
  6.36856533E+00 -1.02452439E+00  7.99692760E-02  6.36856533E+00 -1.02452439E+00
  7.99692760E-02  4.63428701E+00 -2.97700019E-01 -2.70807083E+00  4.63428701E+00
 -2.97700019E-01 -2.70807083E+00  4.81019916E+00  1.93651964E+00 -2.22942651E-01
  4.81019916E+00  1.93651964E+00 -2.22942651E-01
Num ILSW                                   I              100
ILSW                                       I   N=         100
           0           1           0           0           2           0
           0           0           0           0         402          -1
           5           0           0           0           2           0
           0           0           0           0           1           0
           1           0           0           0           0           0
           0           0      100000           0          -1           0
           0           0           0           0           0           0
           0           0           0           1           0           0
           0 -2000000000           1           0           0           0
           0           0           4          52           0           0
           0           0           5           0           0           0
           0           0           0          17           0           1
           0           0           0           0           0           0
           0           0           0           0           0           0
           0           0           0           0           0           0
           0           0           0           0           0           0
           0           0           0           0
Num RLSW                                   I               52
RLSW                                       R   N=          52
  8.00000000E-01  7.20000000E-01  1.00000000E+00  8.10000000E-01  2.00000000E-01
  0.00000000E+00  0.00000000E+00  1.00000000E+00  0.00000000E+00  0.00000000E+00
  0.00000000E+00  0.00000000E+00  1.00000000E+00  0.00000000E+00  0.00000000E+00
  0.00000000E+00  0.00000000E+00  1.00000000E+00  0.00000000E+00  0.00000000E+00
  0.00000000E+00  0.00000000E+00  1.00000000E+00  0.00000000E+00  0.00000000E+00
  0.00000000E+00  0.00000000E+00  1.00000000E+00  0.00000000E+00  0.00000000E+00
  0.00000000E+00  0.00000000E+00  1.00000000E+00  0.00000000E+00  0.00000000E+00
  0.00000000E+00  0.00000000E+00  0.00000000E+00  1.00000000E+00  1.00000000E+00
  0.00000000E+00  1.00000000E+00  0.00000000E+00  0.00000000E+00  0.00000000E+00
  0.00000000E+00  0.00000000E+00  0.00000000E+00  0.00000000E+00  0.00000000E+00
  0.00000000E+00  0.00000000E+00
MxBond                                     I                4