 Entering Gaussian System, Link 0=/apps/cent7/gaussian/g16-A.03/g16-haswell/g16/g16
 Initial command:
 /apps/cent7/gaussian/g16-A.03/g16-haswell/g16/l1.exe "/scratch/brown/finej/gaussian/Gau-299720.inp" -scrdir="/scratch/brown/finej/gaussian/"
 Entering Link 1 = /apps/cent7/gaussian/g16-A.03/g16-haswell/g16/l1.exe PID=    299721.
  
 Copyright (c) 1988,1990,1992,1993,1995,1998,2003,2009,2016,
            Gaussian, Inc.  All Rights Reserved.
  
 This is part of the Gaussian(R) 16 program.  It is based on
 the Gaussian(R) 09 system (copyright 2009, Gaussian, Inc.),
 the Gaussian(R) 03 system (copyright 2003, Gaussian, Inc.),
 the Gaussian(R) 98 system (copyright 1998, Gaussian, Inc.),
 the Gaussian(R) 94 system (copyright 1995, Gaussian, Inc.),
 the Gaussian 92(TM) system (copyright 1992, Gaussian, Inc.),
 the Gaussian 90(TM) system (copyright 1990, Gaussian, Inc.),
 the Gaussian 88(TM) system (copyright 1988, Gaussian, Inc.),
 the Gaussian 86(TM) system (copyright 1986, Carnegie Mellon
 University), and the Gaussian 82(TM) system (copyright 1983,
 Carnegie Mellon University). Gaussian is a federally registered
 trademark of Gaussian, Inc.
  
 This software contains proprietary and confidential information,
 including trade secrets, belonging to Gaussian, Inc.
  
 This software is provided under written license and may be
 used, copied, transmitted, or stored only in accord with that
 written license.
  
 The following legend is applicable only to US Government
 contracts under FAR:
  
                    RESTRICTED RIGHTS LEGEND
  
 Use, reproduction and disclosure by the US Government is
 subject to restrictions as set forth in subparagraphs (a)
 and (c) of the Commercial Computer Software - Restricted
 Rights clause in FAR 52.227-19.
  
 Gaussian, Inc.
 340 Quinnipiac St., Bldg. 40, Wallingford CT 06492
  
  
 ---------------------------------------------------------------
 Warning -- This program may not be used in any manner that
 competes with the business of Gaussian, Inc. or will provide
 assistance to any competitor of Gaussian, Inc.  The licensee
 of this program is prohibited from giving any competitor of
 Gaussian, Inc. access to this program.  By using this program,
 the user acknowledges that Gaussian, Inc. is engaged in the
 business of creating and licensing software in the field of
 computational chemistry and represents and warrants to the
 licensee that it is not a competitor of Gaussian, Inc. and that
 it will not use this program in any manner prohibited above.
 ---------------------------------------------------------------
  

 Cite this work as:
 Gaussian 16, Revision A.03,
 M. J. Frisch, G. W. Trucks, H. B. Schlegel, G. E. Scuseria, 
 M. A. Robb, J. R. Cheeseman, G. Scalmani, V. Barone, 
 G. A. Petersson, H. Nakatsuji, X. Li, M. Caricato, A. V. Marenich, 
 J. Bloino, B. G. Janesko, R. Gomperts, B. Mennucci, H. P. Hratchian, 
 J. V. Ortiz, A. F. Izmaylov, J. L. Sonnenberg, D. Williams-Young, 
 F. Ding, F. Lipparini, F. Egidi, J. Goings, B. Peng, A. Petrone, 
 T. Henderson, D. Ranasinghe, V. G. Zakrzewski, J. Gao, N. Rega, 
 G. Zheng, W. Liang, M. Hada, M. Ehara, K. Toyota, R. Fukuda, 
 J. Hasegawa, M. Ishida, T. Nakajima, Y. Honda, O. Kitao, H. Nakai, 
 T. Vreven, K. Throssell, J. A. Montgomery, Jr., J. E. Peralta, 
 F. Ogliaro, M. J. Bearpark, J. J. Heyd, E. N. Brothers, K. N. Kudin, 
 V. N. Staroverov, T. A. Keith, R. Kobayashi, J. Normand, 
 K. Raghavachari, A. P. Rendell, J. C. Burant, S. S. Iyengar, 
 J. Tomasi, M. Cossi, J. M. Millam, M. Klene, C. Adamo, R. Cammi, 
 J. W. Ochterski, R. L. Martin, K. Morokuma, O. Farkas, 
 J. B. Foresman, and D. J. Fox, Gaussian, Inc., Wallingford CT, 2016.
 
 ******************************************
 Gaussian 16:  ES64L-G16RevA.03 25-Dec-2016
                14-Oct-2019 
 ******************************************
 %chk=1.chk
 %nprocshared=24
 Will use up to   24 processors via shared memory.
 %mem=80GB
 --------------------------------------------------------------
 #P opt freq b3lyp/6-31g(d) geom=connectivity temperature=0.001
 --------------------------------------------------------------
 1/18=20,19=15,26=3,38=1,57=2,112=-1000/1,3;
 2/9=110,12=2,17=6,18=5,40=1/2;
 3/5=1,6=6,7=1,11=2,25=1,30=1,71=1,74=-5/1,2,3;
 4//1;
 5/5=2,38=5/2;
 6/7=2,8=2,9=2,10=2,28=1/1;
 7//1,2,3,16;
 1/18=20,19=15,26=3/3(2);
 2/9=110/2;
 99//99;
 2/9=110/2;
 3/5=1,6=6,7=1,11=2,25=1,30=1,71=1,74=-5/1,2,3;
 4/5=5,16=3,69=1/1;
 5/5=2,38=5/2;
 7//1,2,3,16;
 1/18=20,19=15,26=3/3(-5);
 2/9=110/2;
 6/7=2,8=2,9=2,10=2,19=2,28=1/1;
 99/9=1/99;
 Leave Link    1 at Mon Oct 14 00:57:01 2019, MaxMem= 10737418240 cpu:               0.9 elap:               0.0
 (Enter /apps/cent7/gaussian/g16-A.03/g16-haswell/g16/l101.exe)
 -------------------
 Title Card Required
 -------------------
 Symbolic Z-matrix:
 Charge =  0 Multiplicity = 1
 C                     2.3617   -2.8939   -2.3784 
 C                     1.9997   -2.1258   -1.0882 
 N                     2.1434   -0.6498   -1.2274 
 O                     1.277    -0.1964   -2.179 
 C                     1.9127    0.075     0.0556 
 C                     2.1843    1.5911   -0.0453 
 H                     2.3088   -3.9661   -2.1898 
 H                     1.6591   -2.6288   -3.1683 
 H                     3.3728   -2.6288   -2.6874 
 H                     0.9379   -2.2961   -0.9102 
 H                     2.7321   -2.4165   -0.335 
 H                     0.5145    0.2026   -1.7535 
 H                     0.8486   -0.038     0.263 
 H                     2.6492   -0.3281    0.7507 
 H                     2.2601    2.0141    0.9564 
 H                     3.1183    1.758    -0.5818 
 H                     1.3663    2.0718   -0.5818 
 
 ITRead=  0  0  0  0  0  0  0  0  0  0  0  0  0  0  0  0  0
 MicOpt= -1 -1 -1 -1 -1 -1 -1 -1 -1 -1 -1 -1 -1 -1 -1 -1 -1
 NAtoms=     17 NQM=       17 NQMF=       0 NMMI=      0 NMMIF=      0
                NMic=       0 NMicF=      0.
                    Isotopes and Nuclear Properties:
 (Nuclear quadrupole moments (NQMom) in fm**2, nuclear magnetic moments (NMagM)
  in nuclear magnetons)

  Atom         1           2           3           4           5           6           7           8           9          10
 IAtWgt=          12          12          14          16          12          12           1           1           1           1
 AtmWgt=  12.0000000  12.0000000  14.0030740  15.9949146  12.0000000  12.0000000   1.0078250   1.0078250   1.0078250   1.0078250
 NucSpn=           0           0           2           0           0           0           1           1           1           1
 AtZEff=  -0.0000000  -0.0000000  -0.0000000  -0.0000000  -0.0000000  -0.0000000  -0.0000000  -0.0000000  -0.0000000  -0.0000000
 NQMom=    0.0000000   0.0000000   2.0440000   0.0000000   0.0000000   0.0000000   0.0000000   0.0000000   0.0000000   0.0000000
 NMagM=    0.0000000   0.0000000   0.4037610   0.0000000   0.0000000   0.0000000   2.7928460   2.7928460   2.7928460   2.7928460
 AtZNuc=   6.0000000   6.0000000   7.0000000   8.0000000   6.0000000   6.0000000   1.0000000   1.0000000   1.0000000   1.0000000

  Atom        11          12          13          14          15          16          17
 IAtWgt=           1           1           1           1           1           1           1
 AtmWgt=   1.0078250   1.0078250   1.0078250   1.0078250   1.0078250   1.0078250   1.0078250
 NucSpn=           1           1           1           1           1           1           1
 AtZEff=  -0.0000000  -0.0000000  -0.0000000  -0.0000000  -0.0000000  -0.0000000  -0.0000000
 NQMom=    0.0000000   0.0000000   0.0000000   0.0000000   0.0000000   0.0000000   0.0000000
 NMagM=    2.7928460   2.7928460   2.7928460   2.7928460   2.7928460   2.7928460   2.7928460
 AtZNuc=   1.0000000   1.0000000   1.0000000   1.0000000   1.0000000   1.0000000   1.0000000
 Leave Link  101 at Mon Oct 14 00:57:01 2019, MaxMem= 10737418240 cpu:               9.0 elap:               0.4
 (Enter /apps/cent7/gaussian/g16-A.03/g16-haswell/g16/l103.exe)

 GradGradGradGradGradGradGradGradGradGradGradGradGradGradGradGradGradGrad
 Berny optimization.
 Initialization pass.
                           ----------------------------
                           !    Initial Parameters    !
                           ! (Angstroms and Degrees)  !
 --------------------------                            --------------------------
 ! Name  Definition              Value          Derivative Info.                !
 --------------------------------------------------------------------------------
 ! R1    R(1,2)                  1.5446         estimate D2E/DX2                !
 ! R2    R(1,7)                  1.0899         estimate D2E/DX2                !
 ! R3    R(1,8)                  1.0899         estimate D2E/DX2                !
 ! R4    R(1,9)                  1.09           estimate D2E/DX2                !
 ! R5    R(2,3)                  1.4895         estimate D2E/DX2                !
 ! R6    R(2,10)                 1.09           estimate D2E/DX2                !
 ! R7    R(2,11)                 1.0901         estimate D2E/DX2                !
 ! R8    R(3,4)                  1.3645         estimate D2E/DX2                !
 ! R9    R(3,5)                  1.4915         estimate D2E/DX2                !
 ! R10   R(4,12)                 0.96           estimate D2E/DX2                !
 ! R11   R(5,6)                  1.5435         estimate D2E/DX2                !
 ! R12   R(5,13)                 1.09           estimate D2E/DX2                !
 ! R13   R(5,14)                 1.09           estimate D2E/DX2                !
 ! R14   R(6,15)                 1.09           estimate D2E/DX2                !
 ! R15   R(6,16)                 1.09           estimate D2E/DX2                !
 ! R16   R(6,17)                 1.09           estimate D2E/DX2                !
 ! A1    A(2,1,7)              109.4682         estimate D2E/DX2                !
 ! A2    A(2,1,8)              109.4724         estimate D2E/DX2                !
 ! A3    A(2,1,9)              109.467          estimate D2E/DX2                !
 ! A4    A(7,1,8)              109.475          estimate D2E/DX2                !
 ! A5    A(7,1,9)              109.4709         estimate D2E/DX2                !
 ! A6    A(8,1,9)              109.4738         estimate D2E/DX2                !
 ! A7    A(1,2,3)              113.0861         estimate D2E/DX2                !
 ! A8    A(1,2,10)             106.6797         estimate D2E/DX2                !
 ! A9    A(1,2,11)             106.684          estimate D2E/DX2                !
 ! A10   A(3,2,10)             105.3113         estimate D2E/DX2                !
 ! A11   A(3,2,11)             105.3087         estimate D2E/DX2                !
 ! A12   A(10,2,11)            120.0002         estimate D2E/DX2                !
 ! A13   A(2,3,4)              109.463          estimate D2E/DX2                !
 ! A14   A(2,3,5)              112.7202         estimate D2E/DX2                !
 ! A15   A(4,3,5)              109.8905         estimate D2E/DX2                !
 ! A16   A(3,4,12)             109.4707         estimate D2E/DX2                !
 ! A17   A(3,5,6)              113.195          estimate D2E/DX2                !
 ! A18   A(3,5,13)             105.3251         estimate D2E/DX2                !
 ! A19   A(3,5,14)             105.3272         estimate D2E/DX2                !
 ! A20   A(6,5,13)             106.6213         estimate D2E/DX2                !
 ! A21   A(6,5,14)             106.6209         estimate D2E/DX2                !
 ! A22   A(13,5,14)            119.9973         estimate D2E/DX2                !
 ! A23   A(5,6,15)             109.4717         estimate D2E/DX2                !
 ! A24   A(5,6,16)             109.4726         estimate D2E/DX2                !
 ! A25   A(5,6,17)             109.4695         estimate D2E/DX2                !
 ! A26   A(15,6,16)            109.471          estimate D2E/DX2                !
 ! A27   A(15,6,17)            109.4744         estimate D2E/DX2                !
 ! A28   A(16,6,17)            109.4681         estimate D2E/DX2                !
 ! D1    D(7,1,2,3)            175.7823         estimate D2E/DX2                !
 ! D2    D(7,1,2,10)           -68.9165         estimate D2E/DX2                !
 ! D3    D(7,1,2,11)            60.4816         estimate D2E/DX2                !
 ! D4    D(8,1,2,3)            -64.2143         estimate D2E/DX2                !
 ! D5    D(8,1,2,10)            51.0869         estimate D2E/DX2                !
 ! D6    D(8,1,2,11)          -179.5149         estimate D2E/DX2                !
 ! D7    D(9,1,2,3)             55.7871         estimate D2E/DX2                !
 ! D8    D(9,1,2,10)           171.0882         estimate D2E/DX2                !
 ! D9    D(9,1,2,11)           -59.5136         estimate D2E/DX2                !
 ! D10   D(1,2,3,4)             62.6001         estimate D2E/DX2                !
 ! D11   D(1,2,3,5)           -174.7725         estimate D2E/DX2                !
 ! D12   D(10,2,3,4)           -53.5159         estimate D2E/DX2                !
 ! D13   D(10,2,3,5)            69.1115         estimate D2E/DX2                !
 ! D14   D(11,2,3,4)           178.7196         estimate D2E/DX2                !
 ! D15   D(11,2,3,5)           -58.653          estimate D2E/DX2                !
 ! D16   D(2,3,4,12)           101.8628         estimate D2E/DX2                !
 ! D17   D(5,3,4,12)           -22.4345         estimate D2E/DX2                !
 ! D18   D(2,3,5,6)            174.7499         estimate D2E/DX2                !
 ! D19   D(2,3,5,13)           -69.14           estimate D2E/DX2                !
 ! D20   D(2,3,5,14)            58.6391         estimate D2E/DX2                !
 ! D21   D(4,3,5,6)            -62.8626         estimate D2E/DX2                !
 ! D22   D(4,3,5,13)            53.2474         estimate D2E/DX2                !
 ! D23   D(4,3,5,14)          -178.9735         estimate D2E/DX2                !
 ! D24   D(3,5,6,15)          -164.9961         estimate D2E/DX2                !
 ! D25   D(3,5,6,16)           -44.9952         estimate D2E/DX2                !
 ! D26   D(3,5,6,17)            75.0008         estimate D2E/DX2                !
 ! D27   D(13,5,6,15)           79.6639         estimate D2E/DX2                !
 ! D28   D(13,5,6,16)         -160.3352         estimate D2E/DX2                !
 ! D29   D(13,5,6,17)          -40.3392         estimate D2E/DX2                !
 ! D30   D(14,5,6,15)          -49.6538         estimate D2E/DX2                !
 ! D31   D(14,5,6,16)           70.3471         estimate D2E/DX2                !
 ! D32   D(14,5,6,17)         -169.657          estimate D2E/DX2                !
 --------------------------------------------------------------------------------
 Trust Radius=3.00D-01 FncErr=1.00D-07 GrdErr=1.00D-06 EigMax=2.50D+02 EigMin=1.00D-04
 Number of steps in this run=     86 maximum allowed number of steps=    102.
 GradGradGradGradGradGradGradGradGradGradGradGradGradGradGradGradGradGrad

 Leave Link  103 at Mon Oct 14 00:57:01 2019, MaxMem= 10737418240 cpu:               0.3 elap:               0.0
 (Enter /apps/cent7/gaussian/g16-A.03/g16-haswell/g16/l202.exe)
                          Input orientation:                          
 ---------------------------------------------------------------------
 Center     Atomic      Atomic             Coordinates (Angstroms)
 Number     Number       Type             X           Y           Z
 ---------------------------------------------------------------------
      1          6           0        2.361700   -2.893900   -2.378400
      2          6           0        1.999700   -2.125800   -1.088200
      3          7           0        2.143400   -0.649800   -1.227400
      4          8           0        1.277000   -0.196400   -2.179000
      5          6           0        1.912700    0.075000    0.055600
      6          6           0        2.184300    1.591100   -0.045300
      7          1           0        2.308800   -3.966100   -2.189800
      8          1           0        1.659100   -2.628800   -3.168300
      9          1           0        3.372800   -2.628800   -2.687400
     10          1           0        0.937900   -2.296100   -0.910200
     11          1           0        2.732100   -2.416500   -0.335000
     12          1           0        0.514500    0.202600   -1.753500
     13          1           0        0.848600   -0.038000    0.263000
     14          1           0        2.649200   -0.328100    0.750700
     15          1           0        2.260100    2.014100    0.956400
     16          1           0        3.118300    1.758000   -0.581800
     17          1           0        1.366300    2.071800   -0.581800
 ---------------------------------------------------------------------
                    Distance matrix (angstroms):
                    1          2          3          4          5
     1  C    0.000000
     2  C    1.544551   0.000000
     3  N    2.531490   1.489497   0.000000
     4  O    2.914248   2.331250   1.364464   0.000000
     5  C    3.865272   2.481807   1.491525   2.339062   0.000000
     6  C    5.058661   3.864850   2.533903   2.927631   1.543537
     7  H    1.089946   2.166972   3.457082   3.908371   4.639957
     8  H    1.089893   2.166987   2.813908   2.653542   4.215255
     9  H    1.089992   2.166992   2.749448   3.250757   4.119038
    10  H    2.130770   1.090002   2.064982   2.476607   2.739547
    11  H    2.130866   1.090058   2.064988   3.232104   2.651708
    12  H    3.659366   2.840755   1.912245   0.960030   2.289997
    13  H    4.174042   2.740380   2.066906   2.484347   1.089997
    14  H    4.056754   2.652382   2.066931   3.237811   1.089994
    15  H    5.934617   4.624605   3.446587   3.960244   2.166157
    16  H    5.043847   4.073280   2.676701   3.124278   2.166158
    17  H    5.373711   4.275217   2.903066   2.775564   2.166112
                    6          7          8          9         10
     6  C    0.000000
     7  H    5.957923   0.000000
     8  H    5.276033   1.779872   0.000000
     9  H    5.118670   1.779908   1.779897   0.000000
    10  H    4.172756   2.511104   2.393707   3.032799   0.000000
    11  H    4.055227   2.453717   3.037102   2.447316   1.887990
    12  H    2.762990   4.559378   3.365798   4.130239   2.670941
    13  H    2.129110   4.855758   4.375269   4.667836   2.546250
    14  H    2.129102   4.690145   4.651030   4.199684   3.091951
    15  H    1.089990   6.757495   6.239461   6.005989   4.879573
    16  H    1.089974   6.000523   5.297477   4.872611   4.614945
    17  H    1.089967   6.319035   5.373207   5.527679   4.401128
                   11         12         13         14         15
    11  H    0.000000
    12  H    3.713432   0.000000
    13  H    3.092319   2.058102   0.000000
    14  H    2.355214   3.333107   1.887901   0.000000
    15  H    4.639042   3.697595   2.585392   2.383194   0.000000
    16  H    4.199585   3.251450   3.015102   2.519410   1.779931
    17  H    4.697995   2.364816   2.330870   3.030001   1.779963
                   16         17
    16  H    0.000000
    17  H    1.779880   0.000000
 Stoichiometry    C4H11NO
 Framework group  C1[X(C4H11NO)]
 Deg. of freedom    45
 Full point group                 C1      NOp   1
 Largest Abelian subgroup         C1      NOp   1
 Largest concise Abelian subgroup C1      NOp   1
                         Standard orientation:                         
 ---------------------------------------------------------------------
 Center     Atomic      Atomic             Coordinates (Angstroms)
 Number     Number       Type             X           Y           Z
 ---------------------------------------------------------------------
      1          6           0       -2.540920   -0.042104   -0.314065
      2          6           0       -1.253640   -0.637259    0.297767
      3          7           0       -0.012042    0.009257   -0.211206
      4          8           0       -0.009094    1.327686    0.140219
      5          6           0        1.228107   -0.651856    0.288401
      6          6           0        2.517610   -0.073569   -0.332301
      7          1           0       -3.404937   -0.604542    0.039657
      8          1           0       -2.637982    1.000759   -0.012600
      9          1           0       -2.488148   -0.102725   -1.401090
     10          1           0       -1.280045   -0.410582    1.363612
     11          1           0       -1.197326   -1.672788   -0.037993
     12          1           0        0.571177    1.456621    0.894088
     13          1           0        1.266144   -0.425234    1.353900
     14          1           0        1.157831   -1.686755   -0.046458
     15          1           0        3.348453   -0.753228   -0.142983
     16          1           0        2.382244    0.044153   -1.407411
     17          1           0        2.732699    0.896766    0.115155
 ---------------------------------------------------------------------
 Rotational constants (GHZ):           7.9974585           1.9407222           1.7100920
 Leave Link  202 at Mon Oct 14 00:57:01 2019, MaxMem= 10737418240 cpu:               0.6 elap:               0.0
 (Enter /apps/cent7/gaussian/g16-A.03/g16-haswell/g16/l301.exe)
 Standard basis: 6-31G(d) (6D, 7F)
 Ernie: Thresh=  0.10000D-02 Tol=  0.10000D-05 Strict=F.
 There are   112 symmetry adapted cartesian basis functions of A   symmetry.
 There are   112 symmetry adapted basis functions of A   symmetry.
   112 basis functions,   212 primitive gaussians,   112 cartesian basis functions
    25 alpha electrons       25 beta electrons
       nuclear repulsion energy       262.7473552478 Hartrees.
 IExCor=  402 DFT=T Ex+Corr=B3LYP ExCW=0 ScaHFX=  0.200000
 ScaDFX=  0.800000  0.720000  1.000000  0.810000 ScalE2=  1.000000  1.000000
 IRadAn=      5 IRanWt=     -1 IRanGd=            0 ICorTp=0 IEmpDi=  4
 NAtoms=   17 NActive=   17 NUniq=   17 SFac= 1.00D+00 NAtFMM=   60 NAOKFM=F Big=F
 Integral buffers will be    131072 words long.
 Raffenetti 2 integral format.
 Two-electron integral symmetry is turned on.
 Leave Link  301 at Mon Oct 14 00:57:01 2019, MaxMem= 10737418240 cpu:               1.3 elap:               0.1
 (Enter /apps/cent7/gaussian/g16-A.03/g16-haswell/g16/l302.exe)
 NPDir=0 NMtPBC=     1 NCelOv=     1 NCel=       1 NClECP=     1 NCelD=      1
         NCelK=      1 NCelE2=     1 NClLst=     1 CellRange=     0.0.
 One-electron integrals computed using PRISM.
 One-electron integral symmetry used in STVInt
 NBasis=   112 RedAO= T EigKep=  4.21D-03  NBF=   112
 NBsUse=   112 1.00D-06 EigRej= -1.00D+00 NBFU=   112
 Precomputing XC quadrature grid using
 IXCGrd= 4 IRadAn=           5 IRanWt=          -1 IRanGd=           0 AccXCQ= 0.00D+00.
 Generated NRdTot=       0 NPtTot=           0 NUsed=           0 NTot=          32
 NSgBfM=   112   112   112   112   112 MxSgAt=    17 MxSgA2=    17.
 Leave Link  302 at Mon Oct 14 00:57:02 2019, MaxMem= 10737418240 cpu:               3.3 elap:               0.2
 (Enter /apps/cent7/gaussian/g16-A.03/g16-haswell/g16/l303.exe)
 DipDrv:  MaxL=1.
 Leave Link  303 at Mon Oct 14 00:57:02 2019, MaxMem= 10737418240 cpu:               0.7 elap:               0.1
 (Enter /apps/cent7/gaussian/g16-A.03/g16-haswell/g16/l401.exe)
 ExpMin= 1.61D-01 ExpMax= 5.48D+03 ExpMxC= 8.25D+02 IAcc=3 IRadAn=         5 AccDes= 0.00D+00
 Harris functional with IExCor=  402 and IRadAn=       5 diagonalized for initial guess.
 HarFok:  IExCor=  402 AccDes= 0.00D+00 IRadAn=         5 IDoV= 1 UseB2=F ITyADJ=14
 ICtDFT=  3500011 ScaDFX=  1.000000  1.000000  1.000000  1.000000
 FoFCou: FMM=F IPFlag=           0 FMFlag=      100000 FMFlg1=           0
         NFxFlg=           0 DoJE=T BraDBF=F KetDBF=T FulRan=T
         wScrn=  0.000000 ICntrl=       500 IOpCl=  0 I1Cent=   200000004 NGrid=           0
         NMat0=    1 NMatS0=      1 NMatT0=    0 NMatD0=    1 NMtDS0=    0 NMtDT0=    0
 Petite list used in FoFCou.
 Harris En= -288.986721642453    
 JPrj=0 DoOrth=F DoCkMO=F.
 Leave Link  401 at Mon Oct 14 00:57:02 2019, MaxMem= 10737418240 cpu:               6.0 elap:               0.3
 (Enter /apps/cent7/gaussian/g16-A.03/g16-haswell/g16/l502.exe)
 Integral symmetry usage will be decided dynamically.
 Closed shell SCF:
 Using DIIS extrapolation, IDIIS=  1040.
 NGot= 10737418240 LenX= 10737388935 LenY= 10737375950
 Requested convergence on RMS density matrix=1.00D-08 within 128 cycles.
 Requested convergence on MAX density matrix=1.00D-06.
 Requested convergence on             energy=1.00D-06.
 No special actions if energy rises.
 Fock matrices will be formed incrementally for  20 cycles.
 Integral accuracy reduced to 1.0D-05 until final iterations.

 Cycle   1  Pass 0  IDiag  1:
 FoFJK:  IHMeth= 1 ICntrl=       0 DoSepK=F KAlg= 0 I1Cent=           0 FoldK=F
 IRaf= 970000000 NMat=       1 IRICut=       1 DoRegI=T DoRafI=F ISym2E= 0 IDoP0=0 IntGTp=1.
 FoFCou: FMM=F IPFlag=           0 FMFlag=      100000 FMFlg1=           0
         NFxFlg=           0 DoJE=F BraDBF=F KetDBF=F FulRan=T
         wScrn=  0.000000 ICntrl=         0 IOpCl=  0 I1Cent=           0 NGrid=           0
         NMat0=    1 NMatS0=      1 NMatT0=    0 NMatD0=    1 NMtDS0=    0 NMtDT0=    0
 Symmetry not used in FoFCou.
 E= -288.730114300054    
 DIIS: error= 4.15D-02 at cycle   1 NSaved=   1.
 NSaved= 1 IEnMin= 1 EnMin= -288.730114300054     IErMin= 1 ErrMin= 4.15D-02
 ErrMax= 4.15D-02  0.00D+00 EMaxC= 1.00D-01 BMatC= 2.06D-01 BMatP= 2.06D-01
 IDIUse=3 WtCom= 5.85D-01 WtEn= 4.15D-01
 Coeff-Com:  0.100D+01
 Coeff-En:   0.100D+01
 Coeff:      0.100D+01
 Gap=     0.240 Goal=   None    Shift=    0.000
 GapD=    0.240 DampG=1.000 DampE=0.500 DampFc=0.5000 IDamp=-1.
 Damping current iteration by 5.00D-01
 RMSDP=8.89D-03 MaxDP=1.45D-01              OVMax= 1.60D-01

 Cycle   2  Pass 0  IDiag  1:
 RMSU=  4.40D-03    CP:  9.79D-01
 E= -288.827207435695     Delta-E=       -0.097093135641 Rises=F Damp=T
 DIIS: error= 8.53D-03 at cycle   2 NSaved=   2.
 NSaved= 2 IEnMin= 2 EnMin= -288.827207435695     IErMin= 2 ErrMin= 8.53D-03
 ErrMax= 8.53D-03  0.00D+00 EMaxC= 1.00D-01 BMatC= 9.47D-03 BMatP= 2.06D-01
 IDIUse=3 WtCom= 9.15D-01 WtEn= 8.53D-02
 Coeff-Com:  0.677D-01 0.932D+00
 Coeff-En:   0.932D-01 0.907D+00
 Coeff:      0.699D-01 0.930D+00
 Gap=     0.260 Goal=   None    Shift=    0.000
 RMSDP=1.27D-03 MaxDP=1.67D-02 DE=-9.71D-02 OVMax= 8.22D-02

 Cycle   3  Pass 0  IDiag  1:
 RMSU=  1.24D-03    CP:  9.78D-01  9.48D-01
 E= -288.940455099759     Delta-E=       -0.113247664064 Rises=F Damp=F
 DIIS: error= 3.62D-03 at cycle   3 NSaved=   3.
 NSaved= 3 IEnMin= 3 EnMin= -288.940455099759     IErMin= 3 ErrMin= 3.62D-03
 ErrMax= 3.62D-03  0.00D+00 EMaxC= 1.00D-01 BMatC= 2.54D-03 BMatP= 9.47D-03
 IDIUse=3 WtCom= 9.64D-01 WtEn= 3.62D-02
 Coeff-Com:  0.910D-03 0.300D+00 0.699D+00
 Coeff-En:   0.000D+00 0.000D+00 0.100D+01
 Coeff:      0.877D-03 0.289D+00 0.710D+00
 Gap=     0.261 Goal=   None    Shift=    0.000
 RMSDP=6.02D-04 MaxDP=1.53D-02 DE=-1.13D-01 OVMax= 1.35D-02

 Cycle   4  Pass 0  IDiag  1:
 RMSU=  4.94D-04    CP:  9.79D-01  9.39D-01  7.26D-01
 E= -288.941328168554     Delta-E=       -0.000873068795 Rises=F Damp=F
 DIIS: error= 2.81D-03 at cycle   4 NSaved=   4.
 NSaved= 4 IEnMin= 4 EnMin= -288.941328168554     IErMin= 4 ErrMin= 2.81D-03
 ErrMax= 2.81D-03  0.00D+00 EMaxC= 1.00D-01 BMatC= 1.36D-03 BMatP= 2.54D-03
 IDIUse=3 WtCom= 9.72D-01 WtEn= 2.81D-02
 Coeff-Com: -0.306D-02 0.610D-01 0.428D+00 0.514D+00
 Coeff-En:   0.000D+00 0.000D+00 0.366D+00 0.634D+00
 Coeff:     -0.297D-02 0.592D-01 0.426D+00 0.517D+00
 Gap=     0.257 Goal=   None    Shift=    0.000
 RMSDP=2.89D-04 MaxDP=7.43D-03 DE=-8.73D-04 OVMax= 5.75D-03

 Cycle   5  Pass 0  IDiag  1:
 RMSU=  1.01D-04    CP:  9.78D-01  9.53D-01  8.14D-01  5.16D-01
 E= -288.942359227814     Delta-E=       -0.001031059260 Rises=F Damp=F
 DIIS: error= 3.58D-04 at cycle   5 NSaved=   5.
 NSaved= 5 IEnMin= 5 EnMin= -288.942359227814     IErMin= 5 ErrMin= 3.58D-04
 ErrMax= 3.58D-04  0.00D+00 EMaxC= 1.00D-01 BMatC= 1.85D-05 BMatP= 1.36D-03
 IDIUse=3 WtCom= 9.96D-01 WtEn= 3.58D-03
 Coeff-Com: -0.304D-03 0.154D-02 0.104D+00 0.180D+00 0.714D+00
 Coeff-En:   0.000D+00 0.000D+00 0.000D+00 0.000D+00 0.100D+01
 Coeff:     -0.303D-03 0.153D-02 0.104D+00 0.180D+00 0.715D+00
 Gap=     0.258 Goal=   None    Shift=    0.000
 RMSDP=4.45D-05 MaxDP=7.21D-04 DE=-1.03D-03 OVMax= 7.79D-04

 Cycle   6  Pass 0  IDiag  1:
 RMSU=  2.32D-05    CP:  9.78D-01  9.49D-01  8.21D-01  5.45D-01  7.09D-01
 E= -288.942373426858     Delta-E=       -0.000014199044 Rises=F Damp=F
 DIIS: error= 6.73D-05 at cycle   6 NSaved=   6.
 NSaved= 6 IEnMin= 6 EnMin= -288.942373426858     IErMin= 6 ErrMin= 6.73D-05
 ErrMax= 6.73D-05  0.00D+00 EMaxC= 1.00D-01 BMatC= 1.56D-06 BMatP= 1.85D-05
 IDIUse=1 WtCom= 1.00D+00 WtEn= 0.00D+00
 Coeff-Com: -0.192D-04-0.729D-03 0.464D-01 0.853D-01 0.382D+00 0.487D+00
 Coeff:     -0.192D-04-0.729D-03 0.464D-01 0.853D-01 0.382D+00 0.487D+00
 Gap=     0.257 Goal=   None    Shift=    0.000
 RMSDP=1.34D-05 MaxDP=3.25D-04 DE=-1.42D-05 OVMax= 3.62D-04

 Cycle   7  Pass 0  IDiag  1:
 RMSU=  7.30D-06    CP:  9.78D-01  9.50D-01  8.20D-01  5.47D-01  7.39D-01
                    CP:  5.69D-01
 E= -288.942374771364     Delta-E=       -0.000001344506 Rises=F Damp=F
 DIIS: error= 1.40D-05 at cycle   7 NSaved=   7.
 NSaved= 7 IEnMin= 7 EnMin= -288.942374771364     IErMin= 7 ErrMin= 1.40D-05
 ErrMax= 1.40D-05  0.00D+00 EMaxC= 1.00D-01 BMatC= 6.57D-08 BMatP= 1.56D-06
 IDIUse=1 WtCom= 1.00D+00 WtEn= 0.00D+00
 Coeff-Com:  0.678D-04-0.499D-03 0.818D-02 0.167D-01 0.855D-01 0.209D+00
 Coeff-Com:  0.682D+00
 Coeff:      0.678D-04-0.499D-03 0.818D-02 0.167D-01 0.855D-01 0.209D+00
 Coeff:      0.682D+00
 Gap=     0.257 Goal=   None    Shift=    0.000
 RMSDP=2.99D-06 MaxDP=6.32D-05 DE=-1.34D-06 OVMax= 7.50D-05

 Initial convergence to 1.0D-05 achieved.  Increase integral accuracy.
 Cycle   8  Pass 1  IDiag  1:
 E= -288.942360522790     Delta-E=        0.000014248574 Rises=F Damp=F
 DIIS: error= 1.11D-05 at cycle   1 NSaved=   1.
 NSaved= 1 IEnMin= 1 EnMin= -288.942360522790     IErMin= 1 ErrMin= 1.11D-05
 ErrMax= 1.11D-05  0.00D+00 EMaxC= 1.00D-01 BMatC= 8.10D-09 BMatP= 8.10D-09
 IDIUse=1 WtCom= 1.00D+00 WtEn= 0.00D+00
 Coeff-Com:  0.100D+01
 Coeff:      0.100D+01
 Gap=     0.257 Goal=   None    Shift=    0.000
 RMSDP=2.99D-06 MaxDP=6.32D-05 DE= 1.42D-05 OVMax= 2.33D-05

 Cycle   9  Pass 1  IDiag  1:
 RMSU=  1.92D-06    CP:  1.00D+00
 E= -288.942360526377     Delta-E=       -0.000000003587 Rises=F Damp=F
 DIIS: error= 2.61D-06 at cycle   2 NSaved=   2.
 NSaved= 2 IEnMin= 2 EnMin= -288.942360526377     IErMin= 2 ErrMin= 2.61D-06
 ErrMax= 2.61D-06  0.00D+00 EMaxC= 1.00D-01 BMatC= 2.56D-09 BMatP= 8.10D-09
 IDIUse=1 WtCom= 1.00D+00 WtEn= 0.00D+00
 Coeff-Com:  0.311D+00 0.689D+00
 Coeff:      0.311D+00 0.689D+00
 Gap=     0.257 Goal=   None    Shift=    0.000
 RMSDP=7.84D-07 MaxDP=1.54D-05 DE=-3.59D-09 OVMax= 1.82D-05

 Cycle  10  Pass 1  IDiag  1:
 RMSU=  6.36D-07    CP:  1.00D+00  7.63D-01
 E= -288.942360527845     Delta-E=       -0.000000001468 Rises=F Damp=F
 DIIS: error= 1.82D-06 at cycle   3 NSaved=   3.
 NSaved= 3 IEnMin= 3 EnMin= -288.942360527845     IErMin= 3 ErrMin= 1.82D-06
 ErrMax= 1.82D-06  0.00D+00 EMaxC= 1.00D-01 BMatC= 1.14D-09 BMatP= 2.56D-09
 IDIUse=1 WtCom= 1.00D+00 WtEn= 0.00D+00
 Coeff-Com:  0.298D-01 0.398D+00 0.572D+00
 Coeff:      0.298D-01 0.398D+00 0.572D+00
 Gap=     0.257 Goal=   None    Shift=    0.000
 RMSDP=3.21D-07 MaxDP=7.99D-06 DE=-1.47D-09 OVMax= 8.51D-06

 Cycle  11  Pass 1  IDiag  1:
 RMSU=  1.55D-07    CP:  1.00D+00  8.47D-01  6.41D-01
 E= -288.942360528786     Delta-E=       -0.000000000941 Rises=F Damp=F
 DIIS: error= 4.79D-07 at cycle   4 NSaved=   4.
 NSaved= 4 IEnMin= 4 EnMin= -288.942360528786     IErMin= 4 ErrMin= 4.79D-07
 ErrMax= 4.79D-07  0.00D+00 EMaxC= 1.00D-01 BMatC= 5.58D-11 BMatP= 1.14D-09
 IDIUse=1 WtCom= 1.00D+00 WtEn= 0.00D+00
 Coeff-Com: -0.207D-02 0.169D+00 0.293D+00 0.540D+00
 Coeff:     -0.207D-02 0.169D+00 0.293D+00 0.540D+00
 Gap=     0.257 Goal=   None    Shift=    0.000
 RMSDP=6.53D-08 MaxDP=1.43D-06 DE=-9.41D-10 OVMax= 1.29D-06

 Cycle  12  Pass 1  IDiag  1:
 RMSU=  3.16D-08    CP:  1.00D+00  8.52D-01  6.54D-01  6.39D-01
 E= -288.942360528831     Delta-E=       -0.000000000044 Rises=F Damp=F
 DIIS: error= 9.06D-08 at cycle   5 NSaved=   5.
 NSaved= 5 IEnMin= 5 EnMin= -288.942360528831     IErMin= 5 ErrMin= 9.06D-08
 ErrMax= 9.06D-08  0.00D+00 EMaxC= 1.00D-01 BMatC= 2.49D-12 BMatP= 5.58D-11
 IDIUse=1 WtCom= 1.00D+00 WtEn= 0.00D+00
 Coeff-Com: -0.208D-02 0.730D-01 0.131D+00 0.284D+00 0.514D+00
 Coeff:     -0.208D-02 0.730D-01 0.131D+00 0.284D+00 0.514D+00
 Gap=     0.257 Goal=   None    Shift=    0.000
 RMSDP=1.50D-08 MaxDP=2.49D-07 DE=-4.42D-11 OVMax= 2.68D-07

 Cycle  13  Pass 1  IDiag  1:
 RMSU=  9.75D-09    CP:  1.00D+00  8.54D-01  6.55D-01  6.20D-01  6.74D-01
 E= -288.942360528832     Delta-E=       -0.000000000002 Rises=F Damp=F
 DIIS: error= 1.34D-08 at cycle   6 NSaved=   6.
 NSaved= 6 IEnMin= 6 EnMin= -288.942360528832     IErMin= 6 ErrMin= 1.34D-08
 ErrMax= 1.34D-08  0.00D+00 EMaxC= 1.00D-01 BMatC= 4.49D-14 BMatP= 2.49D-12
 IDIUse=1 WtCom= 1.00D+00 WtEn= 0.00D+00
 Coeff-Com: -0.617D-03 0.140D-01 0.255D-01 0.608D-01 0.163D+00 0.738D+00
 Coeff:     -0.617D-03 0.140D-01 0.255D-01 0.608D-01 0.163D+00 0.738D+00
 Gap=     0.257 Goal=   None    Shift=    0.000
 RMSDP=2.53D-09 MaxDP=5.30D-08 DE=-1.59D-12 OVMax= 5.04D-08

 SCF Done:  E(RB3LYP) =  -288.942360529     A.U. after   13 cycles
            NFock= 13  Conv=0.25D-08     -V/T= 2.0089
 KE= 2.863836307194D+02 PE=-1.197968317033D+03 EE= 3.598949705368D+02
 Leave Link  502 at Mon Oct 14 00:57:04 2019, MaxMem= 10737418240 cpu:              41.7 elap:               1.8
 (Enter /apps/cent7/gaussian/g16-A.03/g16-haswell/g16/l601.exe)
 Copying SCF densities to generalized density rwf, IOpCl= 0 IROHF=0.

 **********************************************************************

            Population analysis using the SCF density.

 **********************************************************************

 Orbital symmetries:
       Occupied  (A) (A) (A) (A) (A) (A) (A) (A) (A) (A) (A) (A)
                 (A) (A) (A) (A) (A) (A) (A) (A) (A) (A) (A) (A)
                 (A)
       Virtual   (A) (A) (A) (A) (A) (A) (A) (A) (A) (A) (A) (A)
                 (A) (A) (A) (A) (A) (A) (A) (A) (A) (A) (A) (A)
                 (A) (A) (A) (A) (A) (A) (A) (A) (A) (A) (A) (A)
                 (A) (A) (A) (A) (A) (A) (A) (A) (A) (A) (A) (A)
                 (A) (A) (A) (A) (A) (A) (A) (A) (A) (A) (A) (A)
                 (A) (A) (A) (A) (A) (A) (A) (A) (A) (A) (A) (A)
                 (A) (A) (A) (A) (A) (A) (A) (A) (A) (A) (A) (A)
                 (A) (A) (A)
 The electronic state is 1-A.
 Alpha  occ. eigenvalues --  -19.16362 -14.36329 -10.21611 -10.20354 -10.17857
 Alpha  occ. eigenvalues --  -10.16577  -1.08024  -0.83923  -0.76556  -0.70584
 Alpha  occ. eigenvalues --   -0.61911  -0.60165  -0.50270  -0.49324  -0.46431
 Alpha  occ. eigenvalues --   -0.45072  -0.40900  -0.38777  -0.37658  -0.36116
 Alpha  occ. eigenvalues --   -0.35486  -0.34432  -0.33900  -0.29766  -0.19856
 Alpha virt. eigenvalues --    0.05890   0.11125   0.12432   0.13085   0.14491
 Alpha virt. eigenvalues --    0.15793   0.17192   0.17952   0.18845   0.19135
 Alpha virt. eigenvalues --    0.19566   0.20715   0.21434   0.23990   0.25964
 Alpha virt. eigenvalues --    0.26810   0.48183   0.53129   0.54542   0.56143
 Alpha virt. eigenvalues --    0.57139   0.57820   0.59191   0.60436   0.66493
 Alpha virt. eigenvalues --    0.69736   0.72587   0.79730   0.80171   0.80964
 Alpha virt. eigenvalues --    0.83508   0.85822   0.88115   0.89743   0.90177
 Alpha virt. eigenvalues --    0.90538   0.92473   0.93781   0.95151   0.97418
 Alpha virt. eigenvalues --    0.97932   1.02294   1.04168   1.07290   1.10132
 Alpha virt. eigenvalues --    1.16199   1.24642   1.35105   1.36718   1.37658
 Alpha virt. eigenvalues --    1.42005   1.56923   1.60674   1.62739   1.69904
 Alpha virt. eigenvalues --    1.80776   1.88325   1.91315   1.93024   1.97064
 Alpha virt. eigenvalues --    1.98865   2.00033   2.01501   2.02308   2.06955
 Alpha virt. eigenvalues --    2.11308   2.21035   2.22904   2.24501   2.29185
 Alpha virt. eigenvalues --    2.30218   2.32536   2.38840   2.44397   2.48883
 Alpha virt. eigenvalues --    2.58200   2.61368   2.65709   2.76493   2.85775
 Alpha virt. eigenvalues --    2.93046   3.69581   4.03599   4.19239   4.20920
 Alpha virt. eigenvalues --    4.40769   4.47095
          Condensed to atoms (all electrons):
               1          2          3          4          5          6
     1  C    5.103579   0.382160  -0.046912  -0.004083   0.005104  -0.000147
     2  C    0.382160   4.941490   0.288428  -0.062076  -0.049213   0.006437
     3  N   -0.046912   0.288428   6.757859   0.131778   0.313090  -0.056175
     4  O   -0.004083  -0.062076   0.131778   8.259814  -0.040927   0.005302
     5  C    0.005104  -0.049213   0.313090  -0.040927   4.972322   0.366001
     6  C   -0.000147   0.006437  -0.056175   0.005302   0.366001   5.120779
     7  H    0.362886  -0.029159   0.003430   0.000096  -0.000136   0.000001
     8  H    0.377275  -0.031803  -0.005640   0.009494   0.000204  -0.000001
     9  H    0.367009  -0.035289   0.004232  -0.000256  -0.000053  -0.000017
    10  H   -0.059520   0.330128  -0.055097   0.005383  -0.011266  -0.000540
    11  H   -0.041403   0.364322  -0.038676   0.004895  -0.000137  -0.000139
    12  H   -0.000650  -0.003894  -0.037921   0.203551  -0.016283  -0.005109
    13  H   -0.000425  -0.014160  -0.061461  -0.006494   0.325448  -0.067751
    14  H   -0.000022   0.000485  -0.039084   0.004436   0.371003  -0.038032
    15  H    0.000002  -0.000096   0.003256   0.000158  -0.028882   0.367331
    16  H   -0.000016  -0.000164   0.005109  -0.001638  -0.032502   0.365158
    17  H    0.000003   0.000063  -0.003372   0.004797  -0.033263   0.376315
               7          8          9         10         11         12
     1  C    0.362886   0.377275   0.367009  -0.059520  -0.041403  -0.000650
     2  C   -0.029159  -0.031803  -0.035289   0.330128   0.364322  -0.003894
     3  N    0.003430  -0.005640   0.004232  -0.055097  -0.038676  -0.037921
     4  O    0.000096   0.009494  -0.000256   0.005383   0.004895   0.203551
     5  C   -0.000136   0.000204  -0.000053  -0.011266  -0.000137  -0.016283
     6  C    0.000001  -0.000001  -0.000017  -0.000540  -0.000139  -0.005109
     7  H    0.581957  -0.029105  -0.027353   0.001277  -0.003038   0.000026
     8  H   -0.029105   0.540159  -0.025822  -0.003883   0.005212  -0.000210
     9  H   -0.027353  -0.025822   0.559615   0.006888  -0.002923   0.000142
    10  H    0.001277  -0.003883   0.006888   0.677502  -0.021298   0.008946
    11  H   -0.003038   0.005212  -0.002923  -0.021298   0.593778  -0.000244
    12  H    0.000026  -0.000210   0.000142   0.008946  -0.000244   0.446712
    13  H    0.000025   0.000011   0.000055   0.016020   0.000556   0.028037
    14  H   -0.000014  -0.000014  -0.000009  -0.000419   0.002619   0.000254
    15  H   -0.000000  -0.000000   0.000000   0.000013  -0.000019  -0.000045
    16  H    0.000000   0.000000   0.000008   0.000063   0.000015   0.001221
    17  H   -0.000000  -0.000002   0.000000  -0.000020  -0.000008   0.002324
              13         14         15         16         17
     1  C   -0.000425  -0.000022   0.000002  -0.000016   0.000003
     2  C   -0.014160   0.000485  -0.000096  -0.000164   0.000063
     3  N   -0.061461  -0.039084   0.003256   0.005109  -0.003372
     4  O   -0.006494   0.004436   0.000158  -0.001638   0.004797
     5  C    0.325448   0.371003  -0.028882  -0.032502  -0.033263
     6  C   -0.067751  -0.038032   0.367331   0.365158   0.376315
     7  H    0.000025  -0.000014  -0.000000   0.000000  -0.000000
     8  H    0.000011  -0.000014  -0.000000   0.000000  -0.000002
     9  H    0.000055  -0.000009   0.000000   0.000008   0.000000
    10  H    0.016020  -0.000419   0.000013   0.000063  -0.000020
    11  H    0.000556   0.002619  -0.000019   0.000015  -0.000008
    12  H    0.028037   0.000254  -0.000045   0.001221   0.002324
    13  H    0.696050  -0.022873   0.001497   0.007354  -0.007741
    14  H   -0.022873   0.571064  -0.005095  -0.001674   0.005263
    15  H    0.001497  -0.005095   0.568994  -0.026061  -0.029490
    16  H    0.007354  -0.001674  -0.026061   0.539750  -0.026839
    17  H   -0.007741   0.005263  -0.029490  -0.026839   0.571558
 Mulliken charges:
               1
     1  C   -0.444840
     2  C   -0.087659
     3  N   -0.162844
     4  O   -0.514228
     5  C   -0.140510
     6  C   -0.439411
     7  H    0.139106
     8  H    0.164125
     9  H    0.153773
    10  H    0.105824
    11  H    0.136490
    12  H    0.373143
    13  H    0.105853
    14  H    0.152112
    15  H    0.148437
    16  H    0.170216
    17  H    0.140412
 Sum of Mulliken charges =  -0.00000
 Mulliken charges with hydrogens summed into heavy atoms:
               1
     1  C    0.012165
     2  C    0.154656
     3  N   -0.162844
     4  O   -0.141085
     5  C    0.117455
     6  C    0.019654
 Electronic spatial extent (au):  <R**2>=            770.6220
 Charge=             -0.0000 electrons
 Dipole moment (field-independent basis, Debye):
    X=              0.9493    Y=             -1.1976    Z=              1.5281  Tot=              2.1611
 Quadrupole moment (field-independent basis, Debye-Ang):
   XX=            -36.7877   YY=            -38.9221   ZZ=            -38.9911
   XY=              1.0624   XZ=              0.7596   YZ=              2.5577
 Traceless Quadrupole moment (field-independent basis, Debye-Ang):
   XX=              1.4459   YY=             -0.6885   ZZ=             -0.7574
   XY=              1.0624   XZ=              0.7596   YZ=              2.5577
 Octapole moment (field-independent basis, Debye-Ang**2):
  XXX=              1.2333  YYY=              2.8397  ZZZ=              0.7740  XYY=              2.6623
  XXY=              0.1968  XXZ=              0.7097  XZZ=              1.0532  YZZ=              4.4619
  YYZ=              2.1181  XYZ=              1.5809
 Hexadecapole moment (field-independent basis, Debye-Ang**3):
 XXXX=           -780.1482 YYYY=           -162.2635 ZZZZ=            -88.3286 XXXY=             -1.5728
 XXXZ=             -1.5306 YYYX=              2.5063 YYYZ=              9.6703 ZZZX=              0.6565
 ZZZY=              4.7111 XXYY=           -151.9799 XXZZ=           -145.5232 YYZZ=            -41.8625
 XXYZ=              2.7456 YYXZ=              2.4049 ZZXY=              1.7363
 N-N= 2.627473552478D+02 E-N=-1.197968314889D+03  KE= 2.863836307194D+02
 No NMR shielding tensors so no spin-rotation constants.
 Leave Link  601 at Mon Oct 14 00:57:04 2019, MaxMem= 10737418240 cpu:               2.2 elap:               0.1
 (Enter /apps/cent7/gaussian/g16-A.03/g16-haswell/g16/l701.exe)
 ... and contract with generalized density number  0.
 Compute integral first derivatives.
 Leave Link  701 at Mon Oct 14 00:57:04 2019, MaxMem= 10737418240 cpu:               3.1 elap:               0.2
 (Enter /apps/cent7/gaussian/g16-A.03/g16-haswell/g16/l702.exe)
 L702 exits ... SP integral derivatives will be done elsewhere.
 Leave Link  702 at Mon Oct 14 00:57:04 2019, MaxMem= 10737418240 cpu:               0.6 elap:               0.0
 (Enter /apps/cent7/gaussian/g16-A.03/g16-haswell/g16/l703.exe)
 Integral derivatives from FoFJK, PRISM(SPDF).
 Compute integral first derivatives, UseDBF=F ICtDFT=           0.
 Calling FoFJK, ICntrl=      2127 FMM=F ISym2X=0 I1Cent= 0 IOpClX= 0 NMat=1 NMatS=1 NMatT=0.
 FoFJK:  IHMeth= 1 ICntrl=    2127 DoSepK=F KAlg= 0 I1Cent=           0 FoldK=F
 IRaf=         0 NMat=       1 IRICut=       1 DoRegI=T DoRafI=F ISym2E= 0 IDoP0=0 IntGTp=1.
 FoFCou: FMM=F IPFlag=           0 FMFlag=      100000 FMFlg1=         800
         NFxFlg=           0 DoJE=F BraDBF=F KetDBF=F FulRan=T
         wScrn=  0.000000 ICntrl=      2127 IOpCl=  0 I1Cent=           0 NGrid=           0
         NMat0=    1 NMatS0=      1 NMatT0=    0 NMatD0=    1 NMtDS0=    0 NMtDT0=    0
 Symmetry not used in FoFCou.
 Leave Link  703 at Mon Oct 14 00:57:05 2019, MaxMem= 10737418240 cpu:              11.2 elap:               0.5
 (Enter /apps/cent7/gaussian/g16-A.03/g16-haswell/g16/l716.exe)
 Dipole        = 3.73491135D-01-4.71163239D-01 6.01193527D-01
 ***** Axes restored to original set *****
 -------------------------------------------------------------------
 Center     Atomic                   Forces (Hartrees/Bohr)
 Number     Number              X              Y              Z
 -------------------------------------------------------------------
      1        6          -0.002160253    0.013948017    0.007320571
      2        6           0.003525548    0.016981789   -0.022661673
      3        7           0.041119141   -0.009994924    0.033835470
      4        8          -0.010432363    0.011392050   -0.041763269
      5        6           0.016980379    0.005913018   -0.032397889
      6        6          -0.001371409   -0.012665343   -0.006672343
      7        1          -0.000429138   -0.003327322   -0.000018230
      8        1           0.000395557   -0.000811049   -0.003551426
      9        1           0.002820311   -0.000704042   -0.002984716
     10        1          -0.004563673   -0.012438536    0.017542772
     11        1          -0.010199360   -0.003266203    0.011475469
     12        1          -0.018419810    0.001337658    0.010043182
     13        1          -0.007254911   -0.009184431    0.021212108
     14        1          -0.011532372   -0.008277640    0.008845773
     15        1          -0.001350301    0.002596504    0.002105430
     16        1           0.002229365    0.002442732   -0.000900452
     17        1           0.000643290    0.006057720   -0.001430776
 -------------------------------------------------------------------
 Cartesian Forces:  Max     0.041763269 RMS     0.013797890
 Leave Link  716 at Mon Oct 14 00:57:05 2019, MaxMem= 10737418240 cpu:               0.6 elap:               0.0
 (Enter /apps/cent7/gaussian/g16-A.03/g16-haswell/g16/l103.exe)

 GradGradGradGradGradGradGradGradGradGradGradGradGradGradGradGradGradGrad
 Berny optimization.
 FormGI is forming the generalized inverse of G from B-inverse, IUseBI=4.
 Internal  Forces:  Max     0.044672456 RMS     0.008044547
 Search for a local minimum.
 Step number   1 out of a maximum of   86
 All quantities printed in internal units (Hartrees-Bohrs-Radians)
 RMS Force = .80445D-02 SwitMx=.10000D-02 MixMth= 1
 Mixed Optimization -- RFO/linear search
 Second derivative matrix not updated -- first step.
 ITU=  0
     Eigenvalues ---    0.00230   0.00230   0.00481   0.00508   0.01765
     Eigenvalues ---    0.03208   0.04469   0.04488   0.05611   0.05611
     Eigenvalues ---    0.05715   0.05715   0.05715   0.05716   0.09065
     Eigenvalues ---    0.09066   0.12571   0.12579   0.16000   0.16000
     Eigenvalues ---    0.16000   0.16000   0.16000   0.16000   0.16000
     Eigenvalues ---    0.17138   0.20717   0.22554   0.22556   0.28120
     Eigenvalues ---    0.28208   0.33283   0.33505   0.34806   0.34812
     Eigenvalues ---    0.34813   0.34813   0.34814   0.34814   0.34816
     Eigenvalues ---    0.34816   0.34819   0.34825   0.52055   0.55467
 RFO step:  Lambda=-2.17173750D-02 EMin= 2.30000000D-03
 Linear search not attempted -- first point.
 Iteration  1 RMS(Cart)=  0.07020602 RMS(Int)=  0.00300489
 Iteration  2 RMS(Cart)=  0.00293806 RMS(Int)=  0.00024454
 Iteration  3 RMS(Cart)=  0.00001132 RMS(Int)=  0.00024432
 Iteration  4 RMS(Cart)=  0.00000000 RMS(Int)=  0.00024432
 ITry= 1 IFail=0 DXMaxC= 2.58D-01 DCOld= 1.00D+10 DXMaxT= 3.00D-01 DXLimC= 3.00D+00 Rises=F
 Variable       Old X    -DE/DX   Delta X   Delta X   Delta X     New X
                                 (Linear)    (Quad)   (Total)
    R1        2.91878  -0.00502   0.00000  -0.01658  -0.01658   2.90220
    R2        2.05970   0.00329   0.00000   0.00890   0.00890   2.06859
    R3        2.05960   0.00212   0.00000   0.00573   0.00573   2.06533
    R4        2.05979   0.00329   0.00000   0.00890   0.00890   2.06868
    R5        2.81474  -0.00860   0.00000  -0.02410  -0.02410   2.79064
    R6        2.05981   0.00925   0.00000   0.02502   0.02502   2.08483
    R7        2.05991   0.00195   0.00000   0.00527   0.00527   2.06518
    R8        2.57846   0.04467   0.00000   0.08238   0.08238   2.66084
    R9        2.81857  -0.01407   0.00000  -0.03967  -0.03967   2.77890
   R10        1.81419   0.01964   0.00000   0.03407   0.03407   1.84826
   R11        2.91686  -0.00106   0.00000  -0.00350  -0.00350   2.91336
   R12        2.05980   0.01207   0.00000   0.03264   0.03264   2.09243
   R13        2.05979   0.00091   0.00000   0.00246   0.00246   2.06225
   R14        2.05978   0.00285   0.00000   0.00770   0.00770   2.06748
   R15        2.05975   0.00273   0.00000   0.00737   0.00737   2.06713
   R16        2.05974   0.00289   0.00000   0.00782   0.00782   2.06756
    A1        1.91058  -0.00052   0.00000  -0.00371  -0.00369   1.90689
    A2        1.91065   0.00365   0.00000   0.02054   0.02043   1.93108
    A3        1.91056   0.00303   0.00000   0.01705   0.01694   1.92750
    A4        1.91070  -0.00169   0.00000  -0.01008  -0.01007   1.90063
    A5        1.91063  -0.00141   0.00000  -0.00870  -0.00869   1.90194
    A6        1.91068  -0.00305   0.00000  -0.01509  -0.01532   1.89536
    A7        1.97373  -0.01725   0.00000  -0.05030  -0.04978   1.92394
    A8        1.86191   0.00591   0.00000   0.04083   0.04130   1.90321
    A9        1.86199   0.00881   0.00000   0.04278   0.04302   1.90501
   A10        1.83803   0.01001   0.00000   0.07613   0.07661   1.91463
   A11        1.83798   0.00314   0.00000   0.00843   0.00914   1.84713
   A12        2.09440  -0.01302   0.00000  -0.12530  -0.12500   1.96940
   A13        1.91049  -0.00270   0.00000  -0.02708  -0.02733   1.88316
   A14        1.96734  -0.00473   0.00000  -0.03000  -0.03028   1.93706
   A15        1.91795   0.00418   0.00000   0.00867   0.00774   1.92569
   A16        1.91062  -0.00271   0.00000  -0.01492  -0.01492   1.89570
   A17        1.97562  -0.01577   0.00000  -0.04259  -0.04226   1.93337
   A18        1.83827   0.00858   0.00000   0.06604   0.06629   1.90456
   A19        1.83831   0.00332   0.00000   0.01266   0.01328   1.85159
   A20        1.86089   0.00673   0.00000   0.04722   0.04743   1.90832
   A21        1.86089   0.00856   0.00000   0.04468   0.04498   1.90586
   A22        2.09435  -0.01365   0.00000  -0.13485  -0.13448   1.95987
   A23        1.91064   0.00014   0.00000  -0.00055  -0.00058   1.91006
   A24        1.91066   0.00159   0.00000   0.00894   0.00876   1.91942
   A25        1.91060   0.00740   0.00000   0.04186   0.04163   1.95223
   A26        1.91063  -0.00125   0.00000  -0.00912  -0.00910   1.90153
   A27        1.91069  -0.00383   0.00000  -0.02145  -0.02153   1.88915
   A28        1.91058  -0.00405   0.00000  -0.01968  -0.02003   1.89055
    D1        3.06798  -0.00199   0.00000  -0.01850  -0.01863   3.04935
    D2       -1.20282   0.00457   0.00000   0.07190   0.07187  -1.13095
    D3        1.05560  -0.00200   0.00000  -0.02813  -0.02796   1.02764
    D4       -1.12075  -0.00215   0.00000  -0.02054  -0.02073  -1.14148
    D5        0.89164   0.00440   0.00000   0.06986   0.06976   0.96140
    D6       -3.13313  -0.00216   0.00000  -0.03017  -0.03007   3.11999
    D7        0.97367  -0.00179   0.00000  -0.01600  -0.01607   0.95760
    D8        2.98605   0.00476   0.00000   0.07440   0.07443   3.06048
    D9       -1.03871  -0.00180   0.00000  -0.02563  -0.02541  -1.06411
   D10        1.09258   0.00023   0.00000   0.03060   0.03011   1.12269
   D11       -3.05036   0.00040   0.00000   0.00150   0.00163  -3.04872
   D12       -0.93403  -0.00411   0.00000  -0.03901  -0.03928  -0.97331
   D13        1.20622  -0.00395   0.00000  -0.06811  -0.06776   1.13846
   D14        3.11925   0.00388   0.00000   0.06133   0.06117  -3.10277
   D15       -1.02369   0.00404   0.00000   0.03223   0.03268  -0.99100
   D16        1.77784  -0.00877   0.00000  -0.18496  -0.18507   1.59277
   D17       -0.39156  -0.00381   0.00000  -0.13463  -0.13452  -0.52607
   D18        3.04996   0.00127   0.00000   0.00304   0.00316   3.05312
   D19       -1.20672   0.00649   0.00000   0.07832   0.07846  -1.12826
   D20        1.02344  -0.00294   0.00000  -0.03654  -0.03658   0.98687
   D21       -1.09716  -0.00246   0.00000  -0.04636  -0.04639  -1.14355
   D22        0.92934   0.00276   0.00000   0.02892   0.02891   0.95825
   D23       -3.12368  -0.00667   0.00000  -0.08594  -0.08613   3.07338
   D24       -2.87973   0.00129   0.00000  -0.00070  -0.00055  -2.88028
   D25       -0.78531   0.00082   0.00000  -0.00673  -0.00671  -0.79202
   D26        1.30901   0.00137   0.00000   0.00027   0.00045   1.30946
   D27        1.39040  -0.00483   0.00000  -0.08706  -0.08705   1.30335
   D28       -2.79838  -0.00531   0.00000  -0.09309  -0.09320  -2.89158
   D29       -0.70405  -0.00475   0.00000  -0.08609  -0.08604  -0.79009
   D30       -0.86662   0.00217   0.00000   0.01942   0.01934  -0.84728
   D31        1.22779   0.00170   0.00000   0.01340   0.01319   1.24098
   D32       -2.96107   0.00225   0.00000   0.02039   0.02035  -2.94072
         Item               Value     Threshold  Converged?
 Maximum Force            0.044672     0.000450     NO 
 RMS     Force            0.008045     0.000300     NO 
 Maximum Displacement     0.257560     0.001800     NO 
 RMS     Displacement     0.070303     0.001200     NO 
 Predicted change in Energy=-1.303589D-02
 Lowest energy point so far.  Saving SCF results.
 GradGradGradGradGradGradGradGradGradGradGradGradGradGradGradGradGradGrad

 Leave Link  103 at Mon Oct 14 00:57:05 2019, MaxMem= 10737418240 cpu:               1.5 elap:               0.1
 (Enter /apps/cent7/gaussian/g16-A.03/g16-haswell/g16/l202.exe)
                          Input orientation:                          
 ---------------------------------------------------------------------
 Center     Atomic      Atomic             Coordinates (Angstroms)
 Number     Number       Type             X           Y           Z
 ---------------------------------------------------------------------
      1          6           0        2.372308   -2.818731   -2.371819
      2          6           0        1.982595   -2.098308   -1.072692
      3          7           0        2.157464   -0.639909   -1.225211
      4          8           0        1.253482   -0.196292   -2.209410
      5          6           0        1.910372    0.055970    0.046466
      6          6           0        2.216297    1.561226   -0.085481
      7          1           0        2.327467   -3.900730   -2.212032
      8          1           0        1.687640   -2.551696   -3.180778
      9          1           0        3.389257   -2.544905   -2.670491
     10          1           0        0.928448   -2.323970   -0.838181
     11          1           0        2.668045   -2.399137   -0.276469
     12          1           0        0.419284    0.066305   -1.771511
     13          1           0        0.849495   -0.078808    0.333547
     14          1           0        2.594969   -0.387135    0.771664
     15          1           0        2.286651    2.007190    0.911086
     16          1           0        3.167087    1.704999   -0.606914
     17          1           0        1.435638    2.088231   -0.642173
 ---------------------------------------------------------------------
                    Distance matrix (angstroms):
                    1          2          3          4          5
     1  C    0.000000
     2  C    1.535779   0.000000
     3  N    2.471464   1.476742   0.000000
     4  O    2.855754   2.332680   1.408058   0.000000
     5  C    3.784890   2.428712   1.470532   2.363074   0.000000
     6  C    4.943248   3.797550   2.479403   2.920095   1.541686
     7  H    1.094653   2.160037   3.411110   3.856982   4.574960
     8  H    1.092928   2.176369   2.774870   2.584565   4.155073
     9  H    1.094701   2.175111   2.689825   3.207821   4.041473
    10  H    2.163692   1.103243   2.120456   2.552044   2.722294
    11  H    2.157316   1.092845   2.062931   3.254193   2.589576
    12  H    3.535266   2.760043   1.954087   0.978059   2.351275
    13  H    4.140669   2.709207   2.110769   2.577525   1.107267
    14  H    3.980417   2.589356   2.059809   3.274570   1.091296
    15  H    5.837321   4.569785   3.404054   3.957305   2.167121
    16  H    4.920436   4.010625   2.626827   3.137640   2.173830
    17  H    5.286521   4.244009   2.881617   2.776411   2.197654
                    6          7          8          9         10
     6  C    0.000000
     7  H    5.862384   0.000000
     8  H    5.174598   1.779814   0.000000
     9  H    4.991836   1.782090   1.776495   0.000000
    10  H    4.161713   2.516127   2.473053   3.075996   0.000000
    11  H    3.990617   2.473293   3.069116   2.504543   1.829581
    12  H    2.882142   4.424092   3.232444   4.055530   2.616060
    13  H    2.175647   4.824051   4.378144   4.642873   2.533759
    14  H    2.161989   4.617288   4.596778   4.139480   3.019970
    15  H    1.094065   6.682743   6.155128   5.896185   4.864524
    16  H    1.093877   5.891143   5.189700   4.729629   4.614930
    17  H    1.094107   6.255196   5.294992   5.421868   4.445579
                   11         12         13         14         15
    11  H    0.000000
    12  H    3.656567   0.000000
    13  H    3.010510   2.153464   0.000000
    14  H    2.269819   3.377418   1.825840   0.000000
    15  H    4.579461   3.801371   2.598144   2.418117   0.000000
    16  H    4.147550   3.404706   3.072078   2.569984   1.780678
    17  H    4.667873   2.529143   2.447784   3.077404   1.772965
                   16         17
    16  H    0.000000
    17  H    1.773704   0.000000
 Stoichiometry    C4H11NO
 Framework group  C1[X(C4H11NO)]
 Deg. of freedom    45
 Full point group                 C1      NOp   1
 RotChk:  IX=0 Diff= 2.58D-02
 Largest Abelian subgroup         C1      NOp   1
 Largest concise Abelian subgroup C1      NOp   1
                         Standard orientation:                         
 ---------------------------------------------------------------------
 Center     Atomic      Atomic             Coordinates (Angstroms)
 Number     Number       Type             X           Y           Z
 ---------------------------------------------------------------------
      1          6           0       -2.472653   -0.039251   -0.344794
      2          6           0       -1.221474   -0.652351    0.301176
      3          7           0       -0.004628    0.001416   -0.220976
      4          8           0       -0.033794    1.351538    0.177707
      5          6           0        1.207210   -0.656287    0.290237
      6          6           0        2.470567   -0.052544   -0.354913
      7          1           0       -3.356874   -0.596447   -0.019292
      8          1           0       -2.585179    1.007079   -0.049800
      9          1           0       -2.402633   -0.088681   -1.436134
     10          1           0       -1.277081   -0.515695    1.394509
     11          1           0       -1.144812   -1.702430    0.008316
     12          1           0        0.429722    1.434008    1.035000
     13          1           0        1.256660   -0.522713    1.388306
     14          1           0        1.125000   -1.706225    0.004233
     15          1           0        3.323016   -0.714307   -0.174966
     16          1           0        2.324854    0.053648   -1.433828
     17          1           0        2.708173    0.932151    0.058595
 ---------------------------------------------------------------------
 Rotational constants (GHZ):           7.6433955           2.0110022           1.7630495
 Leave Link  202 at Mon Oct 14 00:57:05 2019, MaxMem= 10737418240 cpu:               0.2 elap:               0.0
 (Enter /apps/cent7/gaussian/g16-A.03/g16-haswell/g16/l301.exe)
 Standard basis: 6-31G(d) (6D, 7F)
 Ernie: Thresh=  0.10000D-02 Tol=  0.10000D-05 Strict=F.
 There are   112 symmetry adapted cartesian basis functions of A   symmetry.
 There are   112 symmetry adapted basis functions of A   symmetry.
   112 basis functions,   212 primitive gaussians,   112 cartesian basis functions
    25 alpha electrons       25 beta electrons
       nuclear repulsion energy       263.2245085763 Hartrees.
 IExCor=  402 DFT=T Ex+Corr=B3LYP ExCW=0 ScaHFX=  0.200000
 ScaDFX=  0.800000  0.720000  1.000000  0.810000 ScalE2=  1.000000  1.000000
 IRadAn=      5 IRanWt=     -1 IRanGd=            0 ICorTp=0 IEmpDi=  4
 NAtoms=   17 NActive=   17 NUniq=   17 SFac= 1.00D+00 NAtFMM=   60 NAOKFM=F Big=F
 Integral buffers will be    131072 words long.
 Raffenetti 2 integral format.
 Two-electron integral symmetry is turned on.
 Leave Link  301 at Mon Oct 14 00:57:05 2019, MaxMem= 10737418240 cpu:               1.2 elap:               0.1
 (Enter /apps/cent7/gaussian/g16-A.03/g16-haswell/g16/l302.exe)
 NPDir=0 NMtPBC=     1 NCelOv=     1 NCel=       1 NClECP=     1 NCelD=      1
         NCelK=      1 NCelE2=     1 NClLst=     1 CellRange=     0.0.
 One-electron integrals computed using PRISM.
 One-electron integral symmetry used in STVInt
 NBasis=   112 RedAO= T EigKep=  4.13D-03  NBF=   112
 NBsUse=   112 1.00D-06 EigRej= -1.00D+00 NBFU=   112
 Precomputing XC quadrature grid using
 IXCGrd= 4 IRadAn=           5 IRanWt=          -1 IRanGd=           0 AccXCQ= 0.00D+00.
 Generated NRdTot=       0 NPtTot=           0 NUsed=           0 NTot=          32
 NSgBfM=   112   112   112   112   112 MxSgAt=    17 MxSgA2=    17.
 Leave Link  302 at Mon Oct 14 00:57:05 2019, MaxMem= 10737418240 cpu:               2.9 elap:               0.1
 (Enter /apps/cent7/gaussian/g16-A.03/g16-haswell/g16/l303.exe)
 DipDrv:  MaxL=1.
 Leave Link  303 at Mon Oct 14 00:57:05 2019, MaxMem= 10737418240 cpu:               0.6 elap:               0.0
 (Enter /apps/cent7/gaussian/g16-A.03/g16-haswell/g16/l401.exe)
 Initial guess from the checkpoint file:  "1.chk"
 B after Tr=    -0.000000    0.000000    0.000000
         Rot=    0.999954   -0.008964    0.001529   -0.002982 Ang=  -1.10 deg.
 Guess basis will be translated and rotated to current coordinates.
 JPrj=2 DoOrth=T DoCkMO=T.
 Generating alternative initial guess.
 ExpMin= 1.61D-01 ExpMax= 5.48D+03 ExpMxC= 8.25D+02 IAcc=2 IRadAn=         4 AccDes= 0.00D+00
 Harris functional with IExCor=  402 and IRadAn=       4 diagonalized for initial guess.
 HarFok:  IExCor=  402 AccDes= 0.00D+00 IRadAn=         4 IDoV= 1 UseB2=F ITyADJ=14
 ICtDFT=  3500011 ScaDFX=  1.000000  1.000000  1.000000  1.000000
 FoFCou: FMM=F IPFlag=           0 FMFlag=      100000 FMFlg1=           0
         NFxFlg=           0 DoJE=T BraDBF=F KetDBF=T FulRan=T
         wScrn=  0.000000 ICntrl=       500 IOpCl=  0 I1Cent=   200000004 NGrid=           0
         NMat0=    1 NMatS0=      1 NMatT0=    0 NMatD0=    1 NMtDS0=    0 NMtDT0=    0
 Petite list used in FoFCou.
 Harris En= -288.997671455413    
 Leave Link  401 at Mon Oct 14 00:57:05 2019, MaxMem= 10737418240 cpu:               5.5 elap:               0.3
 (Enter /apps/cent7/gaussian/g16-A.03/g16-haswell/g16/l502.exe)
 Integral symmetry usage will be decided dynamically.
 Closed shell SCF:
 Using DIIS extrapolation, IDIIS=  1040.
 NGot= 10737418240 LenX= 10737388935 LenY= 10737375950
 Requested convergence on RMS density matrix=1.00D-08 within 128 cycles.
 Requested convergence on MAX density matrix=1.00D-06.
 Requested convergence on             energy=1.00D-06.
 No special actions if energy rises.
 Fock matrices will be formed incrementally for  20 cycles.
 Integral accuracy reduced to 1.0D-05 until final iterations.

 Cycle   1  Pass 0  IDiag  1:
 FoFJK:  IHMeth= 1 ICntrl=       0 DoSepK=F KAlg= 0 I1Cent=           0 FoldK=F
 IRaf= 970000000 NMat=       1 IRICut=       1 DoRegI=T DoRafI=F ISym2E= 0 IDoP0=0 IntGTp=1.
 FoFCou: FMM=F IPFlag=           0 FMFlag=      100000 FMFlg1=           0
         NFxFlg=           0 DoJE=F BraDBF=F KetDBF=F FulRan=T
         wScrn=  0.000000 ICntrl=         0 IOpCl=  0 I1Cent=           0 NGrid=           0
         NMat0=    1 NMatS0=      1 NMatT0=    0 NMatD0=    1 NMtDS0=    0 NMtDT0=    0
 Symmetry not used in FoFCou.
 E= -288.949945801813    
 DIIS: error= 4.89D-03 at cycle   1 NSaved=   1.
 NSaved= 1 IEnMin= 1 EnMin= -288.949945801813     IErMin= 1 ErrMin= 4.89D-03
 ErrMax= 4.89D-03  0.00D+00 EMaxC= 1.00D-01 BMatC= 3.90D-03 BMatP= 3.90D-03
 IDIUse=3 WtCom= 9.51D-01 WtEn= 4.89D-02
 Coeff-Com:  0.100D+01
 Coeff-En:   0.100D+01
 Coeff:      0.100D+01
 Gap=     1.695 Goal=   None    Shift=    0.000
 GapD=    1.695 DampG=2.000 DampE=1.000 DampFc=2.0000 IDamp=-1.
 RMSDP=1.08D-03 MaxDP=2.51D-02              OVMax= 3.11D-02

 Cycle   2  Pass 0  IDiag  1:
 RMSU=  1.08D-03    CP:  1.00D+00
 E= -288.956228202066     Delta-E=       -0.006282400253 Rises=F Damp=F
 DIIS: error= 1.11D-03 at cycle   2 NSaved=   2.
 NSaved= 2 IEnMin= 2 EnMin= -288.956228202066     IErMin= 2 ErrMin= 1.11D-03
 ErrMax= 1.11D-03  0.00D+00 EMaxC= 1.00D-01 BMatC= 2.40D-04 BMatP= 3.90D-03
 IDIUse=3 WtCom= 9.89D-01 WtEn= 1.11D-02
 Coeff-Com:  0.413D-01 0.959D+00
 Coeff-En:   0.000D+00 0.100D+01
 Coeff:      0.408D-01 0.959D+00
 Gap=     0.277 Goal=   None    Shift=    0.000
 RMSDP=2.84D-04 MaxDP=7.29D-03 DE=-6.28D-03 OVMax= 6.84D-03

 Cycle   3  Pass 0  IDiag  1:
 RMSU=  2.77D-04    CP:  1.00D+00  1.06D+00
 E= -288.956088462282     Delta-E=        0.000139739784 Rises=F Damp=F
 DIIS: error= 1.86D-03 at cycle   3 NSaved=   3.
 NSaved= 3 IEnMin= 2 EnMin= -288.956228202066     IErMin= 2 ErrMin= 1.11D-03
 ErrMax= 1.86D-03  0.00D+00 EMaxC= 1.00D-01 BMatC= 4.95D-04 BMatP= 2.40D-04
 IDIUse=3 WtCom= 1.88D-01 WtEn= 8.12D-01
 Coeff-Com: -0.392D-01 0.611D+00 0.428D+00
 Coeff-En:   0.000D+00 0.614D+00 0.386D+00
 Coeff:     -0.738D-02 0.613D+00 0.394D+00
 Gap=     0.278 Goal=   None    Shift=    0.000
 RMSDP=1.46D-04 MaxDP=4.52D-03 DE= 1.40D-04 OVMax= 3.35D-03

 Cycle   4  Pass 0  IDiag  1:
 RMSU=  5.53D-05    CP:  1.00D+00  1.08D+00  5.23D-01
 E= -288.956451960955     Delta-E=       -0.000363498673 Rises=F Damp=F
 DIIS: error= 1.20D-04 at cycle   4 NSaved=   4.
 NSaved= 4 IEnMin= 4 EnMin= -288.956451960955     IErMin= 4 ErrMin= 1.20D-04
 ErrMax= 1.20D-04  0.00D+00 EMaxC= 1.00D-01 BMatC= 2.69D-06 BMatP= 2.40D-04
 IDIUse=3 WtCom= 9.99D-01 WtEn= 1.20D-03
 Coeff-Com: -0.177D-01 0.200D+00 0.141D+00 0.676D+00
 Coeff-En:   0.000D+00 0.000D+00 0.000D+00 0.100D+01
 Coeff:     -0.177D-01 0.200D+00 0.141D+00 0.676D+00
 Gap=     0.278 Goal=   None    Shift=    0.000
 RMSDP=2.36D-05 MaxDP=3.70D-04 DE=-3.63D-04 OVMax= 4.94D-04

 Cycle   5  Pass 0  IDiag  1:
 RMSU=  2.00D-05    CP:  1.00D+00  1.09D+00  5.08D-01  8.43D-01
 E= -288.956454274607     Delta-E=       -0.000002313652 Rises=F Damp=F
 DIIS: error= 4.40D-05 at cycle   5 NSaved=   5.
 NSaved= 5 IEnMin= 5 EnMin= -288.956454274607     IErMin= 5 ErrMin= 4.40D-05
 ErrMax= 4.40D-05  0.00D+00 EMaxC= 1.00D-01 BMatC= 5.23D-07 BMatP= 2.69D-06
 IDIUse=1 WtCom= 1.00D+00 WtEn= 0.00D+00
 Coeff-Com: -0.349D-02 0.203D-01 0.162D-01 0.306D+00 0.661D+00
 Coeff:     -0.349D-02 0.203D-01 0.162D-01 0.306D+00 0.661D+00
 Gap=     0.278 Goal=   None    Shift=    0.000
 RMSDP=8.86D-06 MaxDP=1.57D-04 DE=-2.31D-06 OVMax= 1.99D-04

 Initial convergence to 1.0D-05 achieved.  Increase integral accuracy.
 Cycle   6  Pass 1  IDiag  1:
 E= -288.956444120173     Delta-E=        0.000010154434 Rises=F Damp=F
 DIIS: error= 1.35D-05 at cycle   1 NSaved=   1.
 NSaved= 1 IEnMin= 1 EnMin= -288.956444120173     IErMin= 1 ErrMin= 1.35D-05
 ErrMax= 1.35D-05  0.00D+00 EMaxC= 1.00D-01 BMatC= 5.24D-08 BMatP= 5.24D-08
 IDIUse=1 WtCom= 1.00D+00 WtEn= 0.00D+00
 Coeff-Com:  0.100D+01
 Coeff:      0.100D+01
 Gap=     0.278 Goal=   None    Shift=    0.000
 RMSDP=8.86D-06 MaxDP=1.57D-04 DE= 1.02D-05 OVMax= 1.56D-04

 Cycle   7  Pass 1  IDiag  1:
 RMSU=  5.42D-06    CP:  1.00D+00
 E= -288.956444088368     Delta-E=        0.000000031804 Rises=F Damp=F
 DIIS: error= 1.92D-05 at cycle   2 NSaved=   2.
 NSaved= 2 IEnMin= 1 EnMin= -288.956444120173     IErMin= 1 ErrMin= 1.35D-05
 ErrMax= 1.92D-05  0.00D+00 EMaxC= 1.00D-01 BMatC= 9.49D-08 BMatP= 5.24D-08
 IDIUse=1 WtCom= 1.00D+00 WtEn= 0.00D+00
 Coeff-Com:  0.577D+00 0.423D+00
 Coeff:      0.577D+00 0.423D+00
 Gap=     0.278 Goal=   None    Shift=    0.000
 RMSDP=2.99D-06 MaxDP=7.69D-05 DE= 3.18D-08 OVMax= 8.50D-05

 Cycle   8  Pass 1  IDiag  1:
 RMSU=  1.21D-06    CP:  1.00D+00  4.96D-01
 E= -288.956444168023     Delta-E=       -0.000000079655 Rises=F Damp=F
 DIIS: error= 2.48D-06 at cycle   3 NSaved=   3.
 NSaved= 3 IEnMin= 3 EnMin= -288.956444168023     IErMin= 3 ErrMin= 2.48D-06
 ErrMax= 2.48D-06  0.00D+00 EMaxC= 1.00D-01 BMatC= 1.40D-09 BMatP= 5.24D-08
 IDIUse=1 WtCom= 1.00D+00 WtEn= 0.00D+00
 Coeff-Com:  0.188D+00 0.172D+00 0.640D+00
 Coeff:      0.188D+00 0.172D+00 0.640D+00
 Gap=     0.278 Goal=   None    Shift=    0.000
 RMSDP=3.92D-07 MaxDP=8.26D-06 DE=-7.97D-08 OVMax= 8.03D-06

 Cycle   9  Pass 1  IDiag  1:
 RMSU=  3.19D-07    CP:  1.00D+00  5.18D-01  8.40D-01
 E= -288.956444169066     Delta-E=       -0.000000001043 Rises=F Damp=F
 DIIS: error= 1.06D-06 at cycle   4 NSaved=   4.
 NSaved= 4 IEnMin= 4 EnMin= -288.956444169066     IErMin= 4 ErrMin= 1.06D-06
 ErrMax= 1.06D-06  0.00D+00 EMaxC= 1.00D-01 BMatC= 2.02D-10 BMatP= 1.40D-09
 IDIUse=1 WtCom= 1.00D+00 WtEn= 0.00D+00
 Coeff-Com:  0.336D-01 0.405D-01 0.306D+00 0.620D+00
 Coeff:      0.336D-01 0.405D-01 0.306D+00 0.620D+00
 Gap=     0.278 Goal=   None    Shift=    0.000
 RMSDP=1.33D-07 MaxDP=3.76D-06 DE=-1.04D-09 OVMax= 2.96D-06

 Cycle  10  Pass 1  IDiag  1:
 RMSU=  1.20D-07    CP:  1.00D+00  5.21D-01  8.54D-01  8.40D-01
 E= -288.956444169194     Delta-E=       -0.000000000128 Rises=F Damp=F
 DIIS: error= 5.28D-07 at cycle   5 NSaved=   5.
 NSaved= 5 IEnMin= 5 EnMin= -288.956444169194     IErMin= 5 ErrMin= 5.28D-07
 ErrMax= 5.28D-07  0.00D+00 EMaxC= 1.00D-01 BMatC= 3.71D-11 BMatP= 2.02D-10
 IDIUse=1 WtCom= 1.00D+00 WtEn= 0.00D+00
 Coeff-Com: -0.867D-02-0.364D-02 0.705D-01 0.348D+00 0.594D+00
 Coeff:     -0.867D-02-0.364D-02 0.705D-01 0.348D+00 0.594D+00
 Gap=     0.278 Goal=   None    Shift=    0.000
 RMSDP=6.00D-08 MaxDP=1.36D-06 DE=-1.28D-10 OVMax= 1.30D-06

 Cycle  11  Pass 1  IDiag  1:
 RMSU=  2.79D-08    CP:  1.00D+00  5.23D-01  8.81D-01  8.68D-01  6.67D-01
 E= -288.956444169224     Delta-E=       -0.000000000031 Rises=F Damp=F
 DIIS: error= 5.30D-08 at cycle   6 NSaved=   6.
 NSaved= 6 IEnMin= 6 EnMin= -288.956444169224     IErMin= 6 ErrMin= 5.30D-08
 ErrMax= 5.30D-08  0.00D+00 EMaxC= 1.00D-01 BMatC= 7.67D-13 BMatP= 3.71D-11
 IDIUse=1 WtCom= 1.00D+00 WtEn= 0.00D+00
 Coeff-Com: -0.425D-02-0.255D-02 0.198D-01 0.122D+00 0.242D+00 0.623D+00
 Coeff:     -0.425D-02-0.255D-02 0.198D-01 0.122D+00 0.242D+00 0.623D+00
 Gap=     0.278 Goal=   None    Shift=    0.000
 RMSDP=1.09D-08 MaxDP=1.66D-07 DE=-3.07D-11 OVMax= 2.36D-07

 Cycle  12  Pass 1  IDiag  1:
 RMSU=  9.09D-09    CP:  1.00D+00  5.23D-01  8.83D-01  8.78D-01  6.87D-01
                    CP:  8.62D-01
 E= -288.956444169224     Delta-E=        0.000000000001 Rises=F Damp=F
 DIIS: error= 1.86D-08 at cycle   7 NSaved=   7.
 NSaved= 7 IEnMin= 6 EnMin= -288.956444169224     IErMin= 7 ErrMin= 1.86D-08
 ErrMax= 1.86D-08  0.00D+00 EMaxC= 1.00D-01 BMatC= 1.13D-13 BMatP= 7.67D-13
 IDIUse=1 WtCom= 1.00D+00 WtEn= 0.00D+00
 Coeff-Com: -0.572D-03-0.689D-03-0.364D-02-0.344D-02 0.108D-01 0.281D+00
 Coeff-Com:  0.717D+00
 Coeff:     -0.572D-03-0.689D-03-0.364D-02-0.344D-02 0.108D-01 0.281D+00
 Coeff:      0.717D+00
 Gap=     0.278 Goal=   None    Shift=    0.000
 RMSDP=3.62D-09 MaxDP=7.45D-08 DE= 9.09D-13 OVMax= 1.03D-07

 SCF Done:  E(RB3LYP) =  -288.956444169     A.U. after   12 cycles
            NFock= 12  Conv=0.36D-08     -V/T= 2.0094
 KE= 2.862730907495D+02 PE=-1.198887402213D+03 EE= 3.604333587177D+02
 Leave Link  502 at Mon Oct 14 00:57:07 2019, MaxMem= 10737418240 cpu:              42.4 elap:               1.8
 (Enter /apps/cent7/gaussian/g16-A.03/g16-haswell/g16/l701.exe)
 ... and contract with generalized density number  0.
 Compute integral first derivatives.
 Leave Link  701 at Mon Oct 14 00:57:07 2019, MaxMem= 10737418240 cpu:               2.3 elap:               0.1
 (Enter /apps/cent7/gaussian/g16-A.03/g16-haswell/g16/l702.exe)
 L702 exits ... SP integral derivatives will be done elsewhere.
 Leave Link  702 at Mon Oct 14 00:57:07 2019, MaxMem= 10737418240 cpu:               0.9 elap:               0.1
 (Enter /apps/cent7/gaussian/g16-A.03/g16-haswell/g16/l703.exe)
 Integral derivatives from FoFJK, PRISM(SPDF).
 Compute integral first derivatives, UseDBF=F ICtDFT=           0.
 Calling FoFJK, ICntrl=      2127 FMM=F ISym2X=0 I1Cent= 0 IOpClX= 0 NMat=1 NMatS=1 NMatT=0.
 FoFJK:  IHMeth= 1 ICntrl=    2127 DoSepK=F KAlg= 0 I1Cent=           0 FoldK=F
 IRaf=         0 NMat=       1 IRICut=       1 DoRegI=T DoRafI=F ISym2E= 0 IDoP0=0 IntGTp=1.
 FoFCou: FMM=F IPFlag=           0 FMFlag=      100000 FMFlg1=         800
         NFxFlg=           0 DoJE=F BraDBF=F KetDBF=F FulRan=T
         wScrn=  0.000000 ICntrl=      2127 IOpCl=  0 I1Cent=           0 NGrid=           0
         NMat0=    1 NMatS0=      1 NMatT0=    0 NMatD0=    1 NMtDS0=    0 NMtDT0=    0
 Symmetry not used in FoFCou.
 Leave Link  703 at Mon Oct 14 00:57:08 2019, MaxMem= 10737418240 cpu:              11.4 elap:               0.5
 (Enter /apps/cent7/gaussian/g16-A.03/g16-haswell/g16/l716.exe)
 Dipole        = 3.05830553D-01-5.09694707D-01 6.63386675D-01
 ***** Axes restored to original set *****
 -------------------------------------------------------------------
 Center     Atomic                   Forces (Hartrees/Bohr)
 Number     Number              X              Y              Z
 -------------------------------------------------------------------
      1        6          -0.001752796    0.000127906    0.005114740
      2        6           0.003863013    0.007207853   -0.017874963
      3        7           0.007352025   -0.011276949    0.017077711
      4        8          -0.003962431    0.012090037   -0.012613944
      5        6           0.005135356    0.013570742   -0.020240469
      6        6          -0.001749941   -0.005064160    0.002800842
      7        1           0.000200125   -0.001354745   -0.001667294
      8        1           0.000467463    0.000045541   -0.000008636
      9        1          -0.000091542   -0.000205793    0.000261295
     10        1           0.001194293   -0.003273127    0.007046034
     11        1          -0.004275002   -0.002663749    0.004449306
     12        1          -0.003452441   -0.004919811    0.003534778
     13        1           0.001018644   -0.003252447    0.007860278
     14        1          -0.004237630   -0.002530275    0.004048641
     15        1          -0.000439790    0.002060432    0.000361123
     16        1           0.000195807   -0.000354844    0.000585307
     17        1           0.000534846   -0.000206611   -0.000734749
 -------------------------------------------------------------------
 Cartesian Forces:  Max     0.020240469 RMS     0.006488180
 Leave Link  716 at Mon Oct 14 00:57:08 2019, MaxMem= 10737418240 cpu:               0.4 elap:               0.0
 (Enter /apps/cent7/gaussian/g16-A.03/g16-haswell/g16/l103.exe)

 GradGradGradGradGradGradGradGradGradGradGradGradGradGradGradGradGradGrad
 Berny optimization.
 Using GEDIIS/GDIIS optimizer.
 FormGI is forming the generalized inverse of G from B-inverse, IUseBI=4.
 Internal  Forces:  Max     0.013365609 RMS     0.002650538
 Search for a local minimum.
 Step number   2 out of a maximum of   86
 All quantities printed in internal units (Hartrees-Bohrs-Radians)
 RMS Force = .26505D-02 SwitMx=.10000D-02 MixMth= 1
 Mixed Optimization -- RFO/linear search
 Update second derivatives using D2CorX and points    1    2
 DE= -1.41D-02 DEPred=-1.30D-02 R= 1.08D+00
 TightC=F SS=  1.41D+00  RLast= 4.48D-01 DXNew= 5.0454D-01 1.3428D+00
 Trust test= 1.08D+00 RLast= 4.48D-01 DXMaxT set to 5.05D-01
 ITU=  1  0
 Use linear search instead of GDIIS.
     Eigenvalues ---    0.00230   0.00230   0.00482   0.00508   0.01667
     Eigenvalues ---    0.03588   0.04403   0.04491   0.04673   0.05442
     Eigenvalues ---    0.05459   0.05546   0.05652   0.05661   0.08736
     Eigenvalues ---    0.08928   0.12467   0.12504   0.15632   0.16000
     Eigenvalues ---    0.16000   0.16000   0.16000   0.16000   0.16197
     Eigenvalues ---    0.16915   0.20382   0.22129   0.25099   0.27997
     Eigenvalues ---    0.28367   0.33164   0.33659   0.34639   0.34808
     Eigenvalues ---    0.34813   0.34813   0.34814   0.34815   0.34816
     Eigenvalues ---    0.34818   0.34824   0.35224   0.48133   0.55442
 RFO step:  Lambda=-5.70705215D-03 EMin= 2.29994996D-03
 Quartic linear search produced a step of  0.43587.
 Iteration  1 RMS(Cart)=  0.05160994 RMS(Int)=  0.01284680
 Iteration  2 RMS(Cart)=  0.01582963 RMS(Int)=  0.00068363
 Iteration  3 RMS(Cart)=  0.00056405 RMS(Int)=  0.00032219
 Iteration  4 RMS(Cart)=  0.00000062 RMS(Int)=  0.00032219
 ITry= 1 IFail=0 DXMaxC= 3.55D-01 DCOld= 1.00D+10 DXMaxT= 5.05D-01 DXLimC= 3.00D+00 Rises=F
 Variable       Old X    -DE/DX   Delta X   Delta X   Delta X     New X
                                 (Linear)    (Quad)   (Total)
    R1        2.90220  -0.00278  -0.00723  -0.00874  -0.01597   2.88624
    R2        2.06859   0.00109   0.00388   0.00177   0.00565   2.07424
    R3        2.06533  -0.00028   0.00250  -0.00270  -0.00021   2.06513
    R4        2.06868  -0.00021   0.00388  -0.00333   0.00055   2.06923
    R5        2.79064  -0.00011  -0.01051   0.00635  -0.00415   2.78649
    R6        2.08483   0.00103   0.01091  -0.00303   0.00788   2.09271
    R7        2.06518   0.00129   0.00230   0.00361   0.00590   2.07108
    R8        2.66084   0.01337   0.03591   0.01262   0.04852   2.70937
    R9        2.77890  -0.00268  -0.01729   0.00021  -0.01708   2.76182
   R10        1.84826   0.00321   0.01485  -0.00142   0.01343   1.86169
   R11        2.91336  -0.00403  -0.00152  -0.01850  -0.02002   2.89334
   R12        2.09243   0.00146   0.01423  -0.00348   0.01075   2.10318
   R13        2.06225   0.00106   0.00107   0.00348   0.00455   2.06680
   R14        2.06748   0.00114   0.00336   0.00232   0.00567   2.07316
   R15        2.06713  -0.00016   0.00321  -0.00269   0.00052   2.06765
   R16        2.06756  -0.00011   0.00341  -0.00263   0.00078   2.06834
    A1        1.90689   0.00278  -0.00161   0.02725   0.02559   1.93248
    A2        1.93108  -0.00012   0.00890  -0.00830   0.00049   1.93157
    A3        1.92750  -0.00065   0.00738  -0.01228  -0.00496   1.92254
    A4        1.90063  -0.00109  -0.00439  -0.00282  -0.00729   1.89334
    A5        1.90194  -0.00092  -0.00379  -0.00300  -0.00679   1.89515
    A6        1.89536  -0.00004  -0.00668  -0.00093  -0.00772   1.88764
    A7        1.92394   0.00226  -0.02170   0.04627   0.02361   1.94755
    A8        1.90321   0.00113   0.01800   0.00639   0.02358   1.92679
    A9        1.90501   0.00074   0.01875  -0.00118   0.01723   1.92224
   A10        1.91463   0.00007   0.03339  -0.00819   0.02432   1.93896
   A11        1.84713   0.00016   0.00399   0.01135   0.01513   1.86226
   A12        1.96940  -0.00426  -0.05448  -0.05242  -0.10630   1.86310
   A13        1.88316  -0.00011  -0.01191   0.01118  -0.00055   1.88261
   A14        1.93706   0.00526  -0.01320   0.04413   0.03085   1.96790
[...]
   zz         0.504258D+02      0.747233D+01      0.831409D+01

 ----------------------------------------------------------------------
 1\1\GINC-BROWN-A185\Freq\RB3LYP\6-31G(d)\C4H11N1O1\FINEJ\14-Oct-2019\0
 \\#P Geom=AllCheck Guess=TCheck SCRF=Check GenChk RB3LYP/6-31G(d) Freq
 \\Title Card Required\\0,1\C,2.3364725905,-2.7912517637,-2.3940825121\
 C,1.9978425684,-2.0642974202,-1.0964361429\N,2.1696994946,-0.616718388
 ,-1.2170765317\O,1.2302866026,-0.128119427,-2.1785218425\C,1.950852051
 ,0.0904792451,0.0446705548\C,2.2414573499,1.5829846471,-0.0777258937\H
 ,2.2112029302,-3.8725583053,-2.2693816988\H,1.6858539401,-2.4553604923
 ,-3.2055811764\H,3.3726499372,-2.589370599,-2.6835277583\H,0.962922717
 9,-2.3097632962,-0.7758315582\H,2.665524988,-2.395292918,-0.2918489595
 \H,0.3380770741,-0.3382389302,-1.8186421953\H,0.9140765657,-0.07175881
 47,0.4088857965\H,2.6211106608,-0.3665097442,0.7826428243\H,2.08159905
 59,2.0828633606,0.8840740069\H,3.2785925724,1.7440834036,-0.388452117\
 H,1.5882789008,2.0431294423,-0.8235647959\\Version=ES64L-G16RevA.03\St
 ate=1-A\HF=-288.9625384\RMSD=2.901e-09\RMSF=2.929e-05\ZeroPoint=0.1535
 305\Thermal=0.1535305\Dipole=-0.4129069,-0.378114,0.6971867\DipoleDeri
 v=0.0807417,0.000345,0.0096981,0.0198467,0.040013,-0.0634657,-0.005993
 7,-0.0378164,0.0271287,0.3990042,0.0171272,-0.0857853,0.0793218,0.4993
 813,0.0882699,-0.1047931,-0.0199331,0.2015864,-0.2992827,-0.178726,0.3
 418596,-0.1158784,-0.3387015,-0.1353792,0.2231276,-0.137925,-0.137919,
 -0.0299739,0.1724716,-0.3016627,0.0711485,-0.5579192,-0.1016337,-0.110
 2644,-0.097478,-0.4338003,0.3988017,0.0600986,-0.0649686,0.0427178,0.3
 309957,0.0954889,-0.130777,0.2017626,0.3698964,0.081361,-0.0044587,0.0
 050803,-0.002887,-0.0162625,0.0003119,-0.0189642,-0.0261949,0.0827297,
 0.0608301,-0.0260592,0.016187,-0.0117093,-0.1794938,-0.0160592,0.01912
 68,0.0130615,0.0277367,-0.0078914,0.0289165,-0.0821527,0.0314296,0.077
 2124,0.0575197,-0.052739,0.0138959,-0.0423469,-0.1121083,-0.0124089,0.
 0691323,-0.0524215,0.0624145,0.0096513,0.0406589,-0.0166073,0.0206022,
 -0.2282546,-0.1111583,0.0965415,0.0446722,-0.0965701,-0.0357671,0.0822
 215,0.0107781,-0.0343995,-0.0207943,0.0254986,-0.0938273,0.0291637,-0.
 0042201,0.0034297,-0.0809413,0.0302744,-0.0947297,-0.0131072,-0.013252
 2,0.01124,-0.0977936,0.2787798,0.0744715,0.1708815,0.0779583,0.1801783
 ,-0.2270076,-0.0217853,0.143412,-0.0983543,-0.0695335,-0.007059,0.0081
 345,-0.0568461,-0.0624455,-0.0219961,0.0635658,-0.0753536,0.0503754,-0
 .046647,0.0601109,-0.0702256,0.0336458,-0.0510475,0.0598784,0.0066503,
 0.0365733,-0.0043737,-0.0392352,-0.0813533,0.0273511,-0.1105796,-0.111
 5731,-0.1121024,-0.0555857,0.0459013,-0.0090773,0.0285554,0.0065069,0.
 0621048,0.0324861,0.0544853,-0.0080986,0.0487609,-0.0718753,0.0238194,
 0.0312308,0.0449567,-0.0589088,0.0895177,0.0039179\Polar=52.1922233,-1
 .095447,61.4995247,1.5767319,5.1024821,54.6549912\Quadrupole=1.2696727
 ,0.0795689,-1.3492416,-0.3009233,0.5937238,1.0745552\PG=C01 [X(C4H11N1
 O1)]\NImag=0\\0.58104643,0.01247020,0.56564670,0.02036656,-0.04329188,
 0.51456402,-0.08971474,0.01239082,0.02420736,0.57770368,0.01347823,-0.
 09863580,-0.04571392,-0.02046179,0.46752698,0.02569087,-0.03940071,-0.
 17605843,0.04274421,-0.01188828,0.56391813,0.00201870,0.00522980,-0.00
 066675,-0.07008086,0.00522110,-0.00743956,0.30874586,-0.00027150,-0.02
 980614,-0.00497701,-0.05431723,-0.19278758,0.00714243,-0.02852138,0.48
 428223,-0.00535930,-0.03500632,0.00620259,0.00028901,-0.00659756,-0.08
 879927,0.04567498,0.04598520,0.42402659,0.00118436,0.00045770,-0.00039
 761,-0.01884372,-0.00134319,-0.00611249,-0.10941801,0.04948401,-0.0952
 4088,0.45859898,-0.00037572,0.00003672,-0.00086181,0.03458687,-0.02059
 455,0.03680509,0.00086807,-0.08172629,0.03002471,0.04279083,0.14385269
 ,0.00028985,-0.00248555,-0.00040311,-0.01936638,0.01521455,-0.01695730
 ,-0.00344760,0.03203720,-0.12647754,-0.06518020,-0.11718661,0.29941945
 ,-0.00037206,0.00093465,0.00009591,-0.00470051,-0.01172676,-0.00075390
 ,-0.07204072,0.03296492,0.04804089,-0.01813329,-0.00420639,-0.03963493
 ,0.57792496,-0.00119980,-0.00529631,0.00208083,0.00861659,-0.02682475,
 -0.03625224,0.00562882,-0.12010775,-0.03959991,0.00464631,0.00612486,0
 .01743069,-0.02106869,0.52085762,0.00021369,0.00286103,-0.00044248,0.0
 0939639,-0.00781565,0.00332978,-0.00505179,-0.05467250,-0.15929979,-0.
 00175936,-0.00304327,-0.04436121,0.04380534,-0.04830881,0.51033620,0.0
 0074248,0.00049061,0.00007288,-0.00037931,0.00049153,0.00127501,0.0020
 2033,0.00616619,-0.00243907,0.00118069,0.00009518,0.00045352,-0.088047
 85,-0.02575561,0.00261768,0.58260765,-0.00031350,-0.00014400,0.0004247
 1,-0.00059723,0.00031547,-0.00170791,-0.00134969,-0.02363695,-0.009210
 37,0.00016507,-0.00181375,0.00041869,-0.02381057,-0.19295490,0.0168089
 2,-0.02083239,0.48891125,-0.00030120,-0.00193679,0.00087703,-0.0005835
 9,-0.00097105,-0.00605256,-0.00333907,-0.03915192,0.00003575,-0.000567
 02,-0.00123960,0.00145163,0.00247160,0.02308752,-0.08341542,0.00073777
 ,0.00744452,0.58975875,-0.05341377,-0.03042192,0.00398486,-0.00057599,
 0.00771745,-0.00205637,-0.00025742,0.00017646,0.00072930,0.00029218,0.
 00068078,0.00061826,0.00045467,0.00048443,-0.00022694,-0.00006171,0.00
 006937,0.00020979,0.05171369,-0.02956973,-0.30586662,0.03074459,-0.003
 01047,-0.01348463,0.00513824,0.00097305,-0.00085154,-0.00380259,-0.000
 35652,-0.00017859,-0.00057298,0.00032904,-0.00049164,0.00093576,0.0001
 0261,-0.00004955,-0.00035096,0.03299803,0.33279461,0.00428897,0.032779
 24,-0.05357507,-0.00487338,-0.02932782,0.00601739,0.00054921,-0.002763
 58,-0.00715973,0.00021325,0.00104128,0.00074138,0.00007636,-0.00161569
 ,0.00084569,0.00014011,-0.00011335,-0.00059521,-0.00498474,-0.03320706
 ,0.05556479,-0.14937363,0.04968921,-0.12017280,0.00565946,-0.00410763,
 0.00691855,-0.00007213,0.00003526,-0.00106846,-0.00024267,0.00100163,0
 .00092898,-0.00006986,-0.00010943,-0.00005207,-0.00002508,0.00004910,-
 0.00007805,0.00284362,-0.00127283,0.00517852,0.15734069,0.05076775,-0.
 07516661,0.06457944,-0.01116772,0.00580737,-0.01308145,-0.00114622,0.0
 0105326,0.00023021,0.00102444,-0.00129927,-0.00015262,0.00015665,-0.00
 020741,-0.00002738,0.00001433,-0.00005082,0.00012698,0.02064536,-0.008
 55503,0.02413790,-0.05690209,0.07782787,-0.11881893,0.06205144,-0.1953
 0743,-0.01868019,0.00894912,-0.02308045,-0.00103929,0.00179495,-0.0003
 5378,0.00095963,0.00147878,0.00208348,-0.00017444,-0.00015444,-0.00017
 486,0.00005486,0.00000018,0.00008566,-0.00072707,0.00085058,-0.0018990
 0,0.13008428,-0.06755077,0.21366549,-0.29076640,-0.04738516,0.06398373
 ,-0.00695829,-0.00144602,0.00210164,0.00077578,-0.00017236,-0.00081769
 ,-0.00007614,0.00075095,0.00012029,0.00030295,0.00017877,-0.00011678,-
 0.00002586,0.00001930,0.00005349,-0.00132882,-0.00048100,-0.00030951,-
 0.01754962,-0.00448247,0.00542650,0.31322915,-0.04878751,-0.05935151,0
 .01434472,0.01679875,0.00239786,-0.00465093,0.00057405,0.00185990,0.00
 074537,-0.00003766,-0.00048801,0.00024598,0.00006031,-0.00013548,-0.00
 051775,-0.00008153,0.00001454,0.00008114,-0.03176513,-0.00412951,0.008
 01751,0.01075216,0.00192627,-0.00362162,0.05276235,0.05848046,0.061924
 45,0.01287516,-0.06642437,0.03066714,0.00650950,-0.00928188,-0.0009770
 0,0.00122053,0.00189371,-0.00001800,0.00004807,0.00018572,-0.00007419,
 -0.00001859,-0.00012398,-0.00011628,0.00000979,0.00003873,0.00304950,0
 .00069757,-0.00204836,-0.02351260,-0.00620349,0.00782401,-0.07177351,-
 0.01254903,0.07179902,-0.00734946,-0.00100618,0.00165229,-0.24478441,-
 0.03301327,0.05497629,-0.00919947,-0.01222434,0.00033156,0.00713644,0.
 00167632,-0.00040063,0.00070289,0.00156851,0.00153184,0.00057772,-0.00
 008452,-0.00041762,0.00000374,0.00066646,0.00022346,0.00078363,-0.0000
 5254,0.00026002,0.00124112,0.00079904,0.00141120,0.26898988,0.01570539
 ,0.00422866,-0.00433137,-0.03536592,-0.05802923,0.01289780,-0.03708574
 ,-0.02882521,0.01106011,-0.00435528,0.00434315,-0.00441943,-0.00307715
 ,0.00292160,0.00582910,0.00045404,-0.00027387,-0.00050635,-0.00015330,
 0.00044272,0.00078596,-0.00078204,0.00022070,0.00026925,0.00052124,-0.
 00104895,-0.00374603,0.04924247,0.07192371,0.02835212,0.00446541,-0.00
 826854,0.05543648,0.00993147,-0.07036410,0.00334393,0.00620720,-0.0004
 0559,0.00223512,-0.00111867,0.00049772,-0.00191087,-0.00030326,0.00061
 668,0.00002195,-0.00009791,0.00003600,-0.00042080,-0.00009657,0.001019
 57,-0.00037342,0.00097009,0.00116868,0.00138993,-0.00307532,-0.0047623
 0,-0.06567367,-0.01275266,0.07232682,0.00564694,-0.00294072,0.00694308
 ,-0.15191437,0.04769833,-0.11712952,0.00066198,-0.00076724,0.00302146,
 0.00241478,0.00064518,0.00038007,-0.00027348,-0.00043974,-0.00096537,0
 .00023235,0.00007710,0.00048687,0.00012779,-0.00042569,-0.00063390,0.0
 0084845,0.00079063,0.00200948,0.00092061,-0.00052330,-0.00019667,-0.01
 900105,0.00900390,-0.02163350,0.15879442,-0.01093903,0.00565156,-0.013
 16455,0.04060017,-0.07252655,0.05126257,0.02214013,-0.01051931,0.02624
 120,0.00210697,-0.00952603,0.00379195,0.00129571,-0.00009299,0.0005051
 1,-0.00026486,0.00024350,-0.00007397,-0.00032567,0.00049175,0.00062517
 ,0.00146949,-0.00144095,-0.00344515,0.00020323,0.00032889,0.00086650,-
 0.00362540,0.00307339,-0.00530222,-0.05166604,0.08538257,-0.01727161,0
 .00760458,-0.02156081,-0.11566788,0.05780084,-0.18433243,-0.00307737,0
 .00226555,-0.00464996,0.00048651,0.00112829,0.00129648,-0.00030602,-0.
 00172983,-0.00106451,0.00035470,0.00022887,0.00038222,-0.00006845,-0.0
 0019329,0.00108352,0.00186099,-0.00328153,-0.00399690,0.00024413,0.000
 69014,0.00106861,0.00563195,-0.00340106,0.00740016,0.12707400,-0.05986
 746,0.20377795,-0.00036930,0.00032725,-0.00010622,0.00349633,-0.001268
 74,0.00092925,-0.04414212,0.00248110,-0.00640055,-0.33380054,-0.074882
 46,0.12787918,0.00372657,0.00005106,0.00151754,-0.00036743,-0.00009298
 ,-0.00031137,0.00015031,-0.00002792,0.00009294,-0.00016204,0.00030611,
 0.00040430,0.00015931,-0.00026982,-0.00010396,0.00002296,0.00350372,-0
 .00072063,0.00084298,-0.00078848,0.00022952,0.36944763,-0.00049534,-0.
 00087497,-0.00004397,0.00921859,0.00473449,-0.00241130,0.01832292,-0.0
 0042041,-0.00337796,-0.09262152,-0.04023994,0.05925607,-0.00255434,0.0
 0013382,0.00032594,-0.00015496,-0.00018255,-0.00047098,-0.00007632,0.0
 0003585,-0.00016114,0.00026420,-0.00018769,-0.00045601,-0.00036102,0.0
 0021376,0.00020876,-0.00296946,0.00044774,0.00068468,-0.00122373,-0.00
 032060,0.00006893,0.07207387,0.03722613,0.00052726,0.00001965,0.000167
 00,-0.00304107,-0.00274596,0.00164605,-0.03631570,-0.00403221,0.003505
 03,0.16137494,0.05998957,-0.11343688,-0.00939200,0.00033495,0.00601305
 ,0.00072638,-0.00049813,-0.00052770,-0.00003295,0.00001719,0.00002169,
 0.00026792,-0.00004412,-0.00037691,-0.00015688,0.00009143,-0.00032517,
 0.00204907,-0.00059043,0.00015925,0.00021021,-0.00012649,-0.00014284,-
 0.12112575,-0.05339455,0.10318824,0.00058174,0.00043250,-0.00015415,0.
 00064826,-0.00235154,-0.00038387,-0.01081321,0.00640958,0.01101403,0.0
 0706803,-0.00032557,-0.00166812,-0.24506309,-0.03352365,0.05479468,-0.
 00630191,-0.00089515,0.00129469,0.00000259,0.00017201,0.00014581,0.000
 00687,-0.00006290,0.00000680,0.00007090,-0.00028460,-0.00028889,0.0008
 9392,0.00206970,0.00004448,-0.00007978,-0.00000608,-0.00000831,0.00006
 532,-0.00002331,0.00357280,0.26988409,-0.00024181,-0.00033795,-0.00006
 134,0.00321761,0.00394957,-0.00093307,0.01798712,-0.00052767,-0.011766
 46,0.00082656,-0.00085338,0.00237604,-0.03252834,-0.05785178,0.0098422
 5,-0.03253009,-0.00538526,0.00969482,-0.00005033,-0.00010502,-0.000049
 09,0.00000347,0.00005371,0.00004033,-0.00016313,-0.00004439,0.00013271
 ,-0.00119620,0.00049387,0.00050184,0.00010876,-0.00008645,0.00002748,-
 0.00139585,0.00024658,0.00088513,0.03381771,0.06237572,-0.00033873,-0.
 00046452,0.00009581,0.00131614,0.00516300,-0.00035946,0.03310464,-0.00
 637758,-0.02708245,0.00490916,-0.00072292,0.00576184,0.05689297,0.0128
 6430,-0.07043460,0.00276432,0.00151608,0.00029915,-0.00011439,-0.00019
 260,-0.00010071,0.00001894,0.00004860,0.00003476,-0.00015883,0.0001775
 5,0.00019875,-0.00165849,-0.00068208,0.00057507,-0.00005724,-0.0002877
 1,0.00011356,-0.00328901,-0.00060000,0.00031688,-0.07408403,-0.0069083
 1,0.08113727,0.00024092,-0.00044826,0.00020602,-0.00026715,0.00105707,
 -0.00015536,0.00138852,-0.00251038,0.00307169,0.00251091,-0.00054620,0
 .00006105,-0.15292552,0.06695958,-0.10764438,0.00498250,-0.00341540,0.
 00568427,0.00000936,-0.00004606,-0.00006689,-0.00000778,0.00009645,0.0
 0019772,-0.00002524,0.00002763,0.00002662,-0.00007810,-0.00000881,-0.0
 0012591,0.00079883,-0.00022179,0.00043634,0.00078044,0.00055214,0.0011
 4737,-0.01906354,0.01219852,-0.02000343,0.15966865,-0.00015236,0.00039
 023,0.00012005,-0.00042307,-0.00130653,-0.00090701,-0.00990956,0.00633
 459,-0.00955386,-0.00140822,0.00009259,-0.00548896,0.06962673,-0.09362
 478,0.07304326,0.02072439,-0.01497452,0.02258564,-0.00001776,0.0000363
 6,0.00006136,-0.00006971,0.00010817,-0.00005742,0.00000177,0.00000179,
 0.00002212,0.00000954,-0.00007063,0.00001307,-0.00015195,-0.00104222,-
 0.00120236,0.00028789,-0.00019811,0.00004805,-0.00328271,0.00231087,-0
 .00338815,-0.07299755,0.10570963,0.00042518,-0.00018106,0.00022672,-0.
 00129790,0.00131975,0.00014392,-0.02010330,0.01378631,-0.02223203,-0.0
 0117520,-0.00284830,-0.00842245,-0.10073846,0.06668480,-0.16225929,-0.
 00059570,0.00115113,-0.00025958,0.00002774,-0.00001391,0.00002915,-0.0
 0002231,0.00027919,0.00030677,0.00000711,0.00002511,-0.00005022,0.0000
 0711,-0.00029880,0.00009543,0.00047263,-0.00115186,0.00057985,0.000805
 86,-0.00015411,-0.00020214,0.00581405,-0.00413714,0.00823572,0.1163336
 3,-0.07456124,0.18259817,-0.00005002,-0.00019345,0.00005000,0.00047804
 ,-0.00008169,-0.00045559,-0.00020211,-0.00045346,0.00018010,0.00031804
 ,-0.00088393,-0.00022319,-0.00056667,-0.00233848,-0.00657445,-0.055571
 32,0.01739016,0.03458095,0.00002749,-0.00003614,-0.00004276,-0.0000003
 1,0.00001489,0.00002205,0.00001142,-0.00000755,0.00000337,0.00000696,0
 .00013243,-0.00002344,0.00000653,-0.00001408,0.00002849,0.00014743,0.0
 0007504,0.00004918,0.00001927,0.00040615,-0.00012496,0.00009072,0.0002
 1621,0.00021642,0.05408032,-0.00015866,-0.00065119,0.00028593,-0.00019
 880,0.00009679,-0.00204398,-0.00076928,-0.00826880,0.00223477,0.000003
 12,0.00063872,0.00045783,0.00664906,-0.01126307,-0.03087626,0.01662339
 ,-0.10272890,-0.10325496,0.00006507,-0.00013354,-0.00022045,-0.0000261
 0,0.00003223,-0.00000819,0.00003054,0.00003536,0.00000341,-0.00021032,
 -0.00021725,0.00002070,0.00007869,0.00005572,0.00005220,-0.00005285,-0
 .00004020,-0.00010857,-0.00060312,0.00115280,0.00028530,0.00072542,0.0
 0113016,0.00023544,-0.01853511,0.11116640,-0.00000862,0.00004551,-0.00
 000517,-0.00024303,0.00051929,0.00023388,-0.00054406,0.00117638,0.0002
 0302,0.00046133,-0.00114897,-0.00010126,-0.00045550,0.00365612,0.00378
 850,0.03411602,-0.10529055,-0.25453529,0.00000629,-0.00000967,0.000021
 78,0.00001139,0.00002698,0.00001813,0.00000095,0.00001385,-0.00000708,
 -0.00005641,-0.00011797,0.00000724,0.00000128,-0.00002574,0.00001260,0
 .00007364,0.00007283,0.00010049,-0.00041093,-0.00058931,0.00029469,0.0
 0000907,-0.00060109,0.00048126,-0.03808254,0.11520098,0.27480559,-0.00
 002897,-0.00005929,0.00001492,0.00030657,0.00002579,-0.00021494,0.0007
 5994,0.00070178,-0.00033972,-0.00005015,-0.00052430,-0.00053452,-0.005
 83732,-0.00096397,0.00192203,-0.29149328,-0.03457260,0.07089387,0.0000
 1230,-0.00001854,-0.00002534,-0.00000653,0.00000644,0.00000258,0.00002
 544,-0.00002099,-0.00001557,0.00004781,0.00021619,0.00005121,-0.000023
 57,-0.00000795,0.00000174,0.00013318,0.00033305,0.00020219,0.00132718,
 -0.00118216,0.00035190,0.00091054,-0.00033572,-0.00001267,-0.00238031,
 0.00032154,0.00042164,0.31392634,0.00013908,0.00007615,-0.00002714,0.0
 0004754,-0.00037519,0.00013914,0.00040540,0.00283661,0.00058125,0.0000
 3724,0.00009308,-0.00037575,-0.03504340,-0.00593987,0.01078687,-0.0320
 5528,-0.05351332,0.00953447,0.00000107,0.00001376,0.00001684,0.0000026
 1,-0.00000472,-0.00000850,0.00002849,-0.00004812,-0.00007360,0.0003928
 8,0.00028697,-0.00006974,-0.00003840,-0.00001347,0.00003076,0.00023614
 ,0.00000412,0.00037566,-0.00134425,-0.00685504,0.00011983,0.00043488,0
 .00156244,0.00003849,0.01526916,0.00187994,-0.00273502,0.03863358,0.05
 823599,0.00000051,0.00004021,-0.00001981,-0.00007600,-0.00035652,0.000
 11216,-0.00103050,0.00008756,0.00093181,0.00003292,-0.00016922,-0.0004
 2164,0.00325711,0.00028467,-0.00205799,0.07084778,0.01095818,-0.071573
 66,0.00000716,0.00002806,0.00001361,-0.00000593,-0.00001259,-0.0000021
 2,0.00000929,-0.00001093,0.00000908,0.00007716,-0.00002689,-0.00010958
 ,-0.00000888,0.00003393,-0.00003672,0.00016041,0.00025853,-0.00008938,
 0.00011155,0.00078638,0.00095758,0.00034649,-0.00014020,-0.00015512,0.
 02792382,0.00525096,-0.00700986,-0.07919796,-0.01295512,0.07137820,-0.
 00002323,0.00003223,-0.00008009,-0.00007299,0.00011111,0.00006578,-0.0
 0014506,0.00081860,-0.00068735,-0.00013988,-0.00135125,-0.00027563,0.0
 0491835,-0.00273469,0.00659196,-0.15006998,0.06819395,-0.11081539,-0.0
 0000004,0.00000368,0.00002788,0.00002695,-0.00000910,0.00001169,-0.000
 00631,0.00000379,-0.00000561,0.00000542,-0.00002084,0.00000702,-0.0000
 0340,0.00004368,0.00005128,-0.00013102,-0.00035980,-0.00006296,0.00075
 336,0.00072201,0.00047103,0.00098595,-0.00211792,-0.00016419,0.0035845
 2,-0.00394259,0.00469949,-0.01762917,0.01285327,-0.02245495,0.15794653
 ,-0.00005568,0.00010109,-0.00010728,0.00006528,-0.00026373,-0.00010839
 ,0.00143143,0.00111104,0.00181221,-0.00141987,0.00153799,-0.00054710,0
 .02199856,-0.01524717,0.02432339,0.06651246,-0.09377640,0.07540148,-0.
 00002757,0.00003062,-0.00000707,0.00000269,-0.00011708,-0.00013251,-0.
 00000549,-0.00001285,-0.00000336,0.00002700,0.00008263,0.00002188,-0.0
 0022578,0.00034119,-0.00022212,-0.00048805,-0.00057801,-0.00022116,-0.
 00019862,0.00146381,-0.00055078,-0.00185723,-0.00646005,-0.00017378,-0
 .01096015,0.00711483,-0.01019363,-0.00255284,0.00176068,-0.00405700,-0
 .07224613,0.10291142,0.00001892,0.00002462,-0.00006796,-0.00022730,0.0
 0000922,-0.00011544,0.00035924,0.00027153,-0.00033834,-0.00022210,-0.0
 0217642,-0.00085629,-0.00119989,0.00155888,-0.00129577,-0.11103194,0.0
 7795715,-0.17600549,-0.00000119,0.00002766,0.00001952,0.00001606,-0.00
 004543,0.00000445,-0.00000386,-0.00000721,0.00000573,0.00005487,0.0000
 3086,0.00000748,0.00002600,0.00011870,0.00006922,-0.00003514,0.0001942
 9,-0.00001667,0.00019941,0.00015774,-0.00004388,0.00047567,0.00000676,
 0.00088382,-0.01752744,0.01248490,-0.01830854,0.00647863,-0.00537845,0
 .00807342,0.12262006,-0.08523477,0.18798474\\0.00001280,-0.00000675,-0
 .00003089,-0.00000310,0.00001990,0.00006571,0.00003814,-0.00003896,-0.
 00003075,-0.00003399,0.00002030,-0.00005672,-0.00006136,-0.00003706,0.
 00012551,0.00003209,0.00003388,-0.00002910,-0.00000244,-0.00000272,0.0
 0000519,-0.00000698,0.00000559,-0.00000094,-0.00000013,-0.00000057,-0.
 00000215,0.00000034,-0.00000850,-0.00001026,-0.00000648,0.00000036,-0.
 00001494,0.00001739,-0.00000700,0.00001375,0.00003774,0.00002484,-0.00
 002641,-0.00000307,0.00000382,-0.00002473,0.00000187,0.00000209,0.0000
 1049,-0.00000922,0.00000653,0.00000935,-0.00001360,-0.00001576,-0.0000
 0309\\\@


 THE FIRST MORNING OF CREATION WROTE WHAT THE LAST DAWN OF
 RECKONING SHALL READ. -- OMAR KHAYYAM
 Job cpu time:       0 days  0 hours  4 minutes 53.4 seconds.
 Elapsed time:       0 days  0 hours  0 minutes 12.7 seconds.
 File lengths (MBytes):  RWF=     30 Int=      0 D2E=      0 Chk=      2 Scr=      1
 Normal termination of Gaussian 16 at Mon Oct 14 00:57:38 2019.
real 37.78
user 802.51
sys 10.22
Machine:
brown-a185
brown-a185
brown-a185
brown-a185
brown-a185
brown-a185
brown-a185
brown-a185
brown-a185
brown-a185
brown-a185
brown-a185
brown-a185
brown-a185
brown-a185
brown-a185
brown-a185
brown-a185
brown-a185
brown-a185
brown-a185
brown-a185
brown-a185
brown-a185
