Title Card Required                                                     
Freq      RB3LYP                                                      6-31G(d)            
Number of atoms                            I               15
Info1-9                                    I   N=           9
          40          40        1002           0           0         100
           6          18        -502
Full Title                                 C   N=           2
Title Card Required     
Route                                      C   N=           6
#P opt freq b3lyp/6-31g(d) geom=connectivity temperature=0.0
01          
Charge                                     I                0
Multiplicity                               I                1
Number of electrons                        I               58
Number of alpha electrons                  I               29
Number of beta electrons                   I               29
Number of basis functions                  I              134
Number of independent functions            I              134
Number of point charges in /Mol/           I                0
Number of translation vectors              I                0
Atomic numbers                             I   N=          15
           8           7           6           6           6           6
           6           6           1           1           1           1
           1           1           1
Nuclear charges                            R   N=          15
  8.00000000E+00  7.00000000E+00  6.00000000E+00  6.00000000E+00  6.00000000E+00
  6.00000000E+00  6.00000000E+00  6.00000000E+00  1.00000000E+00  1.00000000E+00
  1.00000000E+00  1.00000000E+00  1.00000000E+00  1.00000000E+00  1.00000000E+00
Current cartesian coordinates              R   N=          45
 -5.11499773E+00  7.78610872E-01 -5.10001464E-01 -3.45429497E+00 -1.13764594E+00
  4.27932280E-01 -8.69843079E-01 -4.94468973E-01  1.38368534E-01 -4.75892028E-02
  2.01925019E+00  1.45253481E-01  2.53168417E+00  2.55067480E+00  2.90381423E-02
  4.31204130E+00  6.08381934E-01 -8.60864575E-02  3.48143795E+00 -1.89753894E+00
 -9.56378315E-02  9.11285491E-01 -2.45442851E+00  6.77548329E-03 -6.07997005E+00
  1.23420597E+00  9.82628066E-01 -3.88497688E+00 -2.71928069E+00 -5.80071049E-01
 -1.43266957E+00  3.52585824E+00  2.05897071E-01  3.14898029E+00  4.51011293E+00
  2.31173782E-02  6.31706197E+00  1.03798667E+00 -1.75808851E-01  4.84006348E+00
 -3.43473705E+00 -1.97904198E-01  2.77457582E-01 -4.41073452E+00  3.59220768E-04
Number of symbols in /Mol/                 I                0
Force Field                                I                0
Atom Types                                 C   N=          15
                                                            
                                                            
                                                            
Int Atom Types                             I   N=          15
           0           0           0           0           0           0
           0           0           0           0           0           0
           0           0           0
MM charges                                 R   N=          15
  0.00000000E+00  0.00000000E+00  0.00000000E+00  0.00000000E+00  0.00000000E+00
  0.00000000E+00  0.00000000E+00  0.00000000E+00  0.00000000E+00  0.00000000E+00
  0.00000000E+00  0.00000000E+00  0.00000000E+00  0.00000000E+00  0.00000000E+00
Integer atomic weights                     I   N=          15
          16          14          12          12          12          12
          12          12           1           1           1           1
           1           1           1
Real atomic weights                        R   N=          15
  1.59949146E+01  1.40030740E+01  1.20000000E+01  1.20000000E+01  1.20000000E+01
  1.20000000E+01  1.20000000E+01  1.20000000E+01  1.00782504E+00  1.00782504E+00
  1.00782504E+00  1.00782504E+00  1.00782504E+00  1.00782504E+00  1.00782504E+00
Atom fragment info                         I   N=          15
           0           0           0           0           0           0
           0           0           0           0           0           0
           0           0           0
Atom residue num                           I   N=          15
           0           0           0           0           0           0
           0           0           0           0           0           0
           0           0           0
Nuclear spins                              I   N=          15
           0           2           0           0           0           0
           0           0           1           1           1           1
           1           1           1
Nuclear ZEff                               R   N=          15
 -5.60000000E+00 -4.55000000E+00 -3.60000000E+00 -3.60000000E+00 -3.60000000E+00
 -3.60000000E+00 -3.60000000E+00 -3.60000000E+00 -1.00000000E+00 -1.00000000E+00
 -1.00000000E+00 -1.00000000E+00 -1.00000000E+00 -1.00000000E+00 -1.00000000E+00
Nuclear ZNuc                               R   N=          15
  8.00000000E+00  7.00000000E+00  6.00000000E+00  6.00000000E+00  6.00000000E+00
  6.00000000E+00  6.00000000E+00  6.00000000E+00  1.00000000E+00  1.00000000E+00
  1.00000000E+00  1.00000000E+00  1.00000000E+00  1.00000000E+00  1.00000000E+00
Nuclear QMom                               R   N=          15
  0.00000000E+00  2.04400000E+00  0.00000000E+00  0.00000000E+00  0.00000000E+00
  0.00000000E+00  0.00000000E+00  0.00000000E+00  0.00000000E+00  0.00000000E+00
  0.00000000E+00  0.00000000E+00  0.00000000E+00  0.00000000E+00  0.00000000E+00
Nuclear GFac                               R   N=          15
  0.00000000E+00  4.03761000E-01  0.00000000E+00  0.00000000E+00  0.00000000E+00
  0.00000000E+00  0.00000000E+00  0.00000000E+00  2.79284600E+00  2.79284600E+00
  2.79284600E+00  2.79284600E+00  2.79284600E+00  2.79284600E+00  2.79284600E+00
MicOpt                                     I   N=          15
          -1          -1          -1          -1          -1          -1
          -1          -1          -1          -1          -1          -1
          -1          -1          -1
Number of residues                         I                0
Number of secondary structures             I                0
Redundant internal dimensions              I   N=           4
          67          15          22          30
Redundant internal coordinate indices      I   N=         268
           1           2           0           0           1           9
           0           0           2           3           0           0
           2          10           0           0           3           4
           0           0           3           8           0           0
           4           5           0           0           4          11
           0           0           5           6           0           0
           5          12           0           0           6           7
           0           0           6          13           0           0
           7           8           0           0           7          14
           0           0           8          15           0           0
           2           1           9           0           1           2
           3           0           1           2          10           0
           3           2          10           0           2           3
           4           0           2           3           8           0
           4           3           8           0           3           4
           5           0           3           4          11           0
           5           4          11           0           4           5
           6           0           4           5          12           0
           6           5          12           0           5           6
           7           0           5           6          13           0
           7           6          13           0           6           7
           8           0           6           7          14           0
           8           7          14           0           3           8
           7           0           3           8          15           0
           7           8          15           0           9           1
           2           3           9           1           2          10
           1           2           3           4           1           2
           3           8          10           2           3           4
          10           2           3           8           2           3
           4           5           2           3           4          11
           8           3           4           5           8           3
           4          11           2           3           8           7
           2           3           8          15           4           3
           8           7           4           3           8          15
           3           4           5           6           3           4
           5          12          11           4           5           6
          11           4           5          12           4           5
           6           7           4           5           6          13
          12           5           6           7          12           5
           6          13           5           6           7           8
           5           6           7          14          13           6
           7           8          13           6           7          14
           6           7           8           3           6           7
           8          15          14           7           8           3
          14           7           8          15
Redundant internal coordinates             R   N=          67
  2.70364449E+00  1.83485187E+00  2.67897655E+00  1.92435082E+00  2.64479354E+00
  2.65163668E+00  2.63601390E+00  2.04743573E+00  2.63731430E+00  2.05438247E+00
  2.64000616E+00  2.05249074E+00  2.63178612E+00  2.05409342E+00  2.05643191E+00
  1.78934880E+00  1.96590952E+00  1.83728876E+00  1.93544107E+00  2.12683885E+00
  2.06680053E+00  2.08727015E+00  2.08943560E+00  2.08190072E+00  2.11167634E+00
  2.11062071E+00  2.07878561E+00  2.09377448E+00  2.07925243E+00  2.10274157E+00
  2.10118103E+00  2.10361934E+00  2.09720493E+00  2.08233245E+00  2.09613294E+00
  2.09011033E+00  2.09691009E+00 -2.09659715E+00  2.07551556E+00  5.07939778E-01
 -2.70643555E+00  2.56192622E+00 -6.52449105E-01  3.06462901E+00 -9.67315546E-02
 -3.34871670E-03  3.11847602E+00 -3.06151472E+00  7.15019310E-02  8.99016109E-03
 -3.14117849E+00 -3.69371526E-03  3.13466912E+00 -3.12517369E+00  1.31891431E-02
  5.05929304E-03 -3.14138418E+00 -3.13327600E+00  3.46583491E-03  6.48339323E-04
  3.13406030E+00 -3.13609794E+00 -2.68597852E-03 -7.66596161E-03 -3.14064895E+00
 -3.14114713E+00  9.05519295E-03
ZRed-IntVec                                I   N=          67
           0           0           0           0           0           0
           0           0           0           0           0           0
           0           0           0           0           0           0
           0           0           0           0           0           0
           0           0           0           0           0           0
           0           0           0           0           0           0
           0           0           0           0           0           0
           0           0           0           0           0           0
           0           0           0           0           0           0
           0           0           0           0           0           0
           0           0           0           0           0           0
           0
ZRed-FPVec                                 R   N=          67
  0.00000000E+00  0.00000000E+00  0.00000000E+00  0.00000000E+00  0.00000000E+00
  0.00000000E+00  0.00000000E+00  0.00000000E+00  0.00000000E+00  0.00000000E+00
  0.00000000E+00  0.00000000E+00  0.00000000E+00  0.00000000E+00  0.00000000E+00
  0.00000000E+00  0.00000000E+00  0.00000000E+00  0.00000000E+00  0.00000000E+00
  0.00000000E+00  0.00000000E+00  0.00000000E+00  0.00000000E+00  0.00000000E+00
  0.00000000E+00  0.00000000E+00  0.00000000E+00  0.00000000E+00  0.00000000E+00
  0.00000000E+00  0.00000000E+00  0.00000000E+00  0.00000000E+00  0.00000000E+00
  0.00000000E+00  0.00000000E+00  0.00000000E+00  0.00000000E+00  0.00000000E+00
  0.00000000E+00  0.00000000E+00  0.00000000E+00  0.00000000E+00  0.00000000E+00
  0.00000000E+00  0.00000000E+00  0.00000000E+00  0.00000000E+00  0.00000000E+00
  0.00000000E+00  0.00000000E+00  0.00000000E+00  0.00000000E+00  0.00000000E+00
  0.00000000E+00  0.00000000E+00  0.00000000E+00  0.00000000E+00  0.00000000E+00
  0.00000000E+00  0.00000000E+00  0.00000000E+00  0.00000000E+00  0.00000000E+00
  0.00000000E+00  0.00000000E+00
ZRed-Constraint1                           R   N=          67
  2.70364449E+00  1.83485187E+00  2.67897655E+00  1.92435082E+00  2.64479354E+00
  2.65163668E+00  2.63601390E+00  2.04743573E+00  2.63731430E+00  2.05438247E+00
  2.64000616E+00  2.05249074E+00  2.63178612E+00  2.05409342E+00  2.05643191E+00
  1.78934880E+00  1.96590952E+00  1.83728876E+00  1.93544107E+00  2.12683885E+00
  2.06680053E+00  2.08727015E+00  2.08943560E+00  2.08190072E+00  2.11167634E+00
  2.11062071E+00  2.07878561E+00  2.09377448E+00  2.07925243E+00  2.10274157E+00
  2.10118103E+00  2.10361934E+00  2.09720493E+00  2.08233245E+00  2.09613294E+00
  2.09011033E+00  2.09691009E+00 -2.09659715E+00  2.07551556E+00  5.07939778E-01
 -2.70643555E+00  2.56192622E+00 -6.52449105E-01  3.06462901E+00 -9.67315546E-02
 -3.34871670E-03  3.11847602E+00 -3.06151472E+00  7.15019310E-02  8.99016109E-03
 -3.14117849E+00 -3.69371526E-03  3.13466912E+00 -3.12517369E+00  1.31891431E-02
  5.05929304E-03 -3.14138418E+00 -3.13327600E+00  3.46583492E-03  6.48339323E-04
  3.13406030E+00 -3.13609794E+00 -2.68597852E-03 -7.66596161E-03 -3.14064895E+00
 -3.14114713E+00  9.05519295E-03
ZRed-Constraint2                           R   N=          67
  2.46407569E+00  1.81409591E+00  2.56389234E+00  1.90854948E+00  2.67491262E+00
  2.66556441E+00  2.65952045E+00  2.05987562E+00  2.65798651E+00  2.05988148E+00
  2.65750020E+00  2.05970850E+00  2.65751877E+00  2.05979985E+00  2.05969899E+00
  1.91059318E+00  2.15804398E+00  2.02556356E+00  2.09957776E+00  2.15456818E+00
  2.05286697E+00  2.07575000E+00  2.10321049E+00  2.09492515E+00  2.08504966E+00
  2.09252027E+00  2.09585072E+00  2.09481431E+00  2.09549046E+00  2.09396011E+00
  2.09373473E+00  2.09300132E+00  2.09508503E+00  2.09509896E+00  2.10577014E+00
  2.09138006E+00  2.08603510E+00 -1.87876254E+00  1.26284318E+00 -1.14770321E-01
  3.02622964E+00  3.02680874E+00 -1.15376609E-01  3.11632598E+00 -2.51821586E-02
 -2.46666342E-02  3.11701053E+00 -3.11358120E+00  2.80508060E-02  2.74463957E-02
 -3.11410691E+00 -3.23539313E-03  3.13837201E+00  3.13827322E+00 -3.30468334E-03
  2.87988853E-02 -3.11271579E+00 -3.11280851E+00  2.88621217E-02 -2.60876950E-02
  3.11541743E+00  3.11542699E+00 -2.62531909E-02 -2.29822224E-03  3.13925520E+00
  3.13938196E+00 -2.24991970E-03
SymInf integers                            I   N=          26
           1           1           1           1           1           0
           0           0           0           0           0           0
           0           0           0           0           0           0
           0           0           0           0           0           0
           0           0
RotTr to input orientation                 R   N=          12
 -6.01852793E-01 -7.96852119E-01  5.29142352E-02  6.64100837E-01 -5.36186022E-01
 -5.21032272E-01  4.43557543E-01 -2.78444340E-01  8.51895214E-01 -9.19465769E-01
 -3.26232384E+00  4.00668704E-01
Number of contracted shells                I               46
Number of primitive shells                 I              116
Pure/Cartesian d shells                    I                1
Pure/Cartesian f shells                    I                0
Highest angular momentum                   I                2
Largest degree of contraction              I                6
Shell types                                I   N=          46
           0          -1          -1           2           0          -1
          -1           2           0          -1          -1           2
           0          -1          -1           2           0          -1
          -1           2           0          -1          -1           2
           0          -1          -1           2           0          -1
          -1           2           0           0           0           0
           0           0           0           0           0           0
           0           0           0           0
Number of primitives per shell             I   N=          46
           6           3           1           1           6           3
           1           1           6           3           1           1
           6           3           1           1           6           3
           1           1           6           3           1           1
           6           3           1           1           6           3
           1           1           3           1           3           1
           3           1           3           1           3           1
           3           1           3           1
Shell to atom map                          I   N=          46
           1           1           1           1           2           2
           2           2           3           3           3           3
           4           4           4           4           5           5
           5           5           6           6           6           6
           7           7           7           7           8           8
           8           8           9           9          10          10
          11          11          12          12          13          13
          14          14          15          15
Primitive exponents                        R   N=         116
  5.48467166E+03  8.25234946E+02  1.88046958E+02  5.29645000E+01  1.68975704E+01
  5.79963534E+00  1.55396162E+01  3.59993359E+00  1.01376175E+00  2.70005823E-01
  8.00000000E-01  4.17351146E+03  6.27457911E+02  1.42902093E+02  4.02343293E+01
  1.28202129E+01  4.39043701E+00  1.16263619E+01  2.71627981E+00  7.72218397E-01
  2.12031498E-01  8.00000000E-01  3.04752488E+03  4.57369518E+02  1.03948685E+02
  2.92101553E+01  9.28666296E+00  3.16392696E+00  7.86827235E+00  1.88128854E+00
  5.44249258E-01  1.68714478E-01  8.00000000E-01  3.04752488E+03  4.57369518E+02
  1.03948685E+02  2.92101553E+01  9.28666296E+00  3.16392696E+00  7.86827235E+00
  1.88128854E+00  5.44249258E-01  1.68714478E-01  8.00000000E-01  3.04752488E+03
  4.57369518E+02  1.03948685E+02  2.92101553E+01  9.28666296E+00  3.16392696E+00
  7.86827235E+00  1.88128854E+00  5.44249258E-01  1.68714478E-01  8.00000000E-01
  3.04752488E+03  4.57369518E+02  1.03948685E+02  2.92101553E+01  9.28666296E+00
  3.16392696E+00  7.86827235E+00  1.88128854E+00  5.44249258E-01  1.68714478E-01
  8.00000000E-01  3.04752488E+03  4.57369518E+02  1.03948685E+02  2.92101553E+01
  9.28666296E+00  3.16392696E+00  7.86827235E+00  1.88128854E+00  5.44249258E-01
  1.68714478E-01  8.00000000E-01  3.04752488E+03  4.57369518E+02  1.03948685E+02
  2.92101553E+01  9.28666296E+00  3.16392696E+00  7.86827235E+00  1.88128854E+00
  5.44249258E-01  1.68714478E-01  8.00000000E-01  1.87311370E+01  2.82539436E+00
  6.40121692E-01  1.61277759E-01  1.87311370E+01  2.82539436E+00  6.40121692E-01
  1.61277759E-01  1.87311370E+01  2.82539436E+00  6.40121692E-01  1.61277759E-01
  1.87311370E+01  2.82539436E+00  6.40121692E-01  1.61277759E-01  1.87311370E+01
  2.82539436E+00  6.40121692E-01  1.61277759E-01  1.87311370E+01  2.82539436E+00
  6.40121692E-01  1.61277759E-01  1.87311370E+01  2.82539436E+00  6.40121692E-01
  1.61277759E-01
Contraction coefficients                   R   N=         116
  1.83107443E-03  1.39501722E-02  6.84450781E-02  2.32714336E-01  4.70192898E-01
  3.58520853E-01 -1.10777550E-01 -1.48026263E-01  1.13076702E+00  1.00000000E+00
  1.00000000E+00  1.83477216E-03  1.39946270E-02  6.85865518E-02  2.32240873E-01
  4.69069948E-01  3.60455199E-01 -1.14961182E-01 -1.69117479E-01  1.14585195E+00
  1.00000000E+00  1.00000000E+00  1.83473713E-03  1.40373228E-02  6.88426223E-02
  2.32184443E-01  4.67941348E-01  3.62311985E-01 -1.19332420E-01 -1.60854152E-01
  1.14345644E+00  1.00000000E+00  1.00000000E+00  1.83473713E-03  1.40373228E-02
  6.88426223E-02  2.32184443E-01  4.67941348E-01  3.62311985E-01 -1.19332420E-01
 -1.60854152E-01  1.14345644E+00  1.00000000E+00  1.00000000E+00  1.83473713E-03
  1.40373228E-02  6.88426223E-02  2.32184443E-01  4.67941348E-01  3.62311985E-01
 -1.19332420E-01 -1.60854152E-01  1.14345644E+00  1.00000000E+00  1.00000000E+00
  1.83473713E-03  1.40373228E-02  6.88426223E-02  2.32184443E-01  4.67941348E-01
  3.62311985E-01 -1.19332420E-01 -1.60854152E-01  1.14345644E+00  1.00000000E+00
  1.00000000E+00  1.83473713E-03  1.40373228E-02  6.88426223E-02  2.32184443E-01
  4.67941348E-01  3.62311985E-01 -1.19332420E-01 -1.60854152E-01  1.14345644E+00
  1.00000000E+00  1.00000000E+00  1.83473713E-03  1.40373228E-02  6.88426223E-02
  2.32184443E-01  4.67941348E-01  3.62311985E-01 -1.19332420E-01 -1.60854152E-01
  1.14345644E+00  1.00000000E+00  1.00000000E+00  3.34946043E-02  2.34726953E-01
  8.13757326E-01  1.00000000E+00  3.34946043E-02  2.34726953E-01  8.13757326E-01
  1.00000000E+00  3.34946043E-02  2.34726953E-01  8.13757326E-01  1.00000000E+00
  3.34946043E-02  2.34726953E-01  8.13757326E-01  1.00000000E+00  3.34946043E-02
  2.34726953E-01  8.13757326E-01  1.00000000E+00  3.34946043E-02  2.34726953E-01
  8.13757326E-01  1.00000000E+00  3.34946043E-02  2.34726953E-01  8.13757326E-01
  1.00000000E+00
P(S=P) Contraction coefficients            R   N=         116
  0.00000000E+00  0.00000000E+00  0.00000000E+00  0.00000000E+00  0.00000000E+00
  0.00000000E+00  7.08742682E-02  3.39752839E-01  7.27158577E-01  1.00000000E+00
  0.00000000E+00  0.00000000E+00  0.00000000E+00  0.00000000E+00  0.00000000E+00
  0.00000000E+00  0.00000000E+00  6.75797439E-02  3.23907296E-01  7.40895140E-01
  1.00000000E+00  0.00000000E+00  0.00000000E+00  0.00000000E+00  0.00000000E+00
  0.00000000E+00  0.00000000E+00  0.00000000E+00  6.89990666E-02  3.16423961E-01
  7.44308291E-01  1.00000000E+00  0.00000000E+00  0.00000000E+00  0.00000000E+00
  0.00000000E+00  0.00000000E+00  0.00000000E+00  0.00000000E+00  6.89990666E-02
  3.16423961E-01  7.44308291E-01  1.00000000E+00  0.00000000E+00  0.00000000E+00
  0.00000000E+00  0.00000000E+00  0.00000000E+00  0.00000000E+00  0.00000000E+00
  6.89990666E-02  3.16423961E-01  7.44308291E-01  1.00000000E+00  0.00000000E+00
  0.00000000E+00  0.00000000E+00  0.00000000E+00  0.00000000E+00  0.00000000E+00
  0.00000000E+00  6.89990666E-02  3.16423961E-01  7.44308291E-01  1.00000000E+00
  0.00000000E+00  0.00000000E+00  0.00000000E+00  0.00000000E+00  0.00000000E+00
  0.00000000E+00  0.00000000E+00  6.89990666E-02  3.16423961E-01  7.44308291E-01
  1.00000000E+00  0.00000000E+00  0.00000000E+00  0.00000000E+00  0.00000000E+00
  0.00000000E+00  0.00000000E+00  0.00000000E+00  6.89990666E-02  3.16423961E-01
  7.44308291E-01  1.00000000E+00  0.00000000E+00  0.00000000E+00  0.00000000E+00
  0.00000000E+00  0.00000000E+00  0.00000000E+00  0.00000000E+00  0.00000000E+00
  0.00000000E+00  0.00000000E+00  0.00000000E+00  0.00000000E+00  0.00000000E+00
  0.00000000E+00  0.00000000E+00  0.00000000E+00  0.00000000E+00  0.00000000E+00
  0.00000000E+00  0.00000000E+00  0.00000000E+00  0.00000000E+00  0.00000000E+00
  0.00000000E+00  0.00000000E+00  0.00000000E+00  0.00000000E+00  0.00000000E+00
  0.00000000E+00
Coordinates of each shell                  R   N=         138
 -5.11499773E+00  7.78610872E-01 -5.10001464E-01 -5.11499773E+00  7.78610872E-01
 -5.10001464E-01 -5.11499773E+00  7.78610872E-01 -5.10001464E-01 -5.11499773E+00
  7.78610872E-01 -5.10001464E-01 -3.45429497E+00 -1.13764594E+00  4.27932280E-01
 -3.45429497E+00 -1.13764594E+00  4.27932280E-01 -3.45429497E+00 -1.13764594E+00
  4.27932280E-01 -3.45429497E+00 -1.13764594E+00  4.27932280E-01 -8.69843079E-01
 -4.94468973E-01  1.38368534E-01 -8.69843079E-01 -4.94468973E-01  1.38368534E-01
 -8.69843079E-01 -4.94468973E-01  1.38368534E-01 -8.69843079E-01 -4.94468973E-01
  1.38368534E-01 -4.75892028E-02  2.01925019E+00  1.45253481E-01 -4.75892028E-02
  2.01925019E+00  1.45253481E-01 -4.75892028E-02  2.01925019E+00  1.45253481E-01
 -4.75892028E-02  2.01925019E+00  1.45253481E-01  2.53168417E+00  2.55067480E+00
  2.90381423E-02  2.53168417E+00  2.55067480E+00  2.90381423E-02  2.53168417E+00
  2.55067480E+00  2.90381423E-02  2.53168417E+00  2.55067480E+00  2.90381423E-02
  4.31204130E+00  6.08381934E-01 -8.60864575E-02  4.31204130E+00  6.08381934E-01
 -8.60864575E-02  4.31204130E+00  6.08381934E-01 -8.60864575E-02  4.31204130E+00
  6.08381934E-01 -8.60864575E-02  3.48143795E+00 -1.89753894E+00 -9.56378315E-02
  3.48143795E+00 -1.89753894E+00 -9.56378315E-02  3.48143795E+00 -1.89753894E+00
 -9.56378315E-02  3.48143795E+00 -1.89753894E+00 -9.56378315E-02  9.11285491E-01
 -2.45442851E+00  6.77548329E-03  9.11285491E-01 -2.45442851E+00  6.77548329E-03
  9.11285491E-01 -2.45442851E+00  6.77548329E-03  9.11285491E-01 -2.45442851E+00
  6.77548329E-03 -6.07997005E+00  1.23420597E+00  9.82628066E-01 -6.07997005E+00
  1.23420597E+00  9.82628066E-01 -3.88497688E+00 -2.71928069E+00 -5.80071049E-01
 -3.88497688E+00 -2.71928069E+00 -5.80071049E-01 -1.43266957E+00  3.52585824E+00
  2.05897071E-01 -1.43266957E+00  3.52585824E+00  2.05897071E-01  3.14898029E+00
  4.51011293E+00  2.31173782E-02  3.14898029E+00  4.51011293E+00  2.31173782E-02
  6.31706197E+00  1.03798667E+00 -1.75808851E-01  6.31706197E+00  1.03798667E+00
 -1.75808851E-01  4.84006348E+00 -3.43473705E+00 -1.97904198E-01  4.84006348E+00
 -3.43473705E+00 -1.97904198E-01  2.77457582E-01 -4.41073452E+00  3.59220768E-04
  2.77457582E-01 -4.41073452E+00  3.59220768E-04
Num ILSW                                   I              100
ILSW                                       I   N=         100
           0           1           0           0           2           0
           0           0           0           0         402          -1
           5           0           0           0           2           0
           0           0           0           0           1           0
           1           0           0           0           0           0
           0           0      100000           0          -1           0
           0           0           0           0           0           0
           0           0           0           1           0           0
           0 -2000000000           1           0           0           0
           0           0           4          52           0           0
           0           0           5           0           0           0
           0           0           0          15           0           1
           0           0           0           0           0           0
           0           0           0           0           0           0
           0           0           0           0           0           0
           0           0           0           0           0           0
           0           0           0           0
Num RLSW                                   I               52
RLSW                                       R   N=          52
  8.00000000E-01  7.20000000E-01  1.00000000E+00  8.10000000E-01  2.00000000E-01
  0.00000000E+00  0.00000000E+00  1.00000000E+00  0.00000000E+00  0.00000000E+00
  0.00000000E+00  0.00000000E+00  1.00000000E+00  0.00000000E+00  0.00000000E+00
  0.00000000E+00  0.00000000E+00  1.00000000E+00  0.00000000E+00  0.00000000E+00
  0.00000000E+00  0.00000000E+00  1.00000000E+00  0.00000000E+00  0.00000000E+00
  0.00000000E+00  0.00000000E+00  1.00000000E+00  0.00000000E+00  0.00000000E+00
  0.00000000E+00  0.00000000E+00  1.00000000E+00  0.00000000E+00  0.00000000E+00
  0.00000000E+00  0.00000000E+00  0.00000000E+00  1.00000000E+00  1.00000000E+00
  0.00000000E+00  1.00000000E+00  0.00000000E+00  0.00000000E+00  0.00000000E+00
  0.00000000E+00  0.00000000E+00  0.00000000E+00  0.00000000E+00  0.00000000E+00
  0.00000000E+00  0.00000000E+00
MxBond                                     I                3
NBond                                      I   N=          15
           2           3           3           3           3           3
           3           3           1           1           1           1
           1           1           1
IBond                                      I   N=          45
           2           9           0           1           3          10
           2           4           8           3           5          11
           4           6          12           5           7          13
           6           8          14           3           7          15
           1           0           0           2           0           0
           4           0           0           5           0           0
           6           0           0           7           0           0
           8           0           0
RBond                                      R   N=          45
  1.00000000E+00  1.00000000E+00  0.00000000E+00  1.00000000E+00  1.00000000E+00
  1.00000000E+00  1.00000000E+00  2.00000000E+00  1.00000000E+00  2.00000000E+00
  1.00000000E+00  1.00000000E+00  1.00000000E+00  2.00000000E+00  1.00000000E+00
  2.00000000E+00  1.00000000E+00  1.00000000E+00  1.00000000E+00  2.00000000E+00
  1.00000000E+00  1.00000000E+00  2.00000000E+00  1.00000000E+00  1.00000000E+00
  0.00000000E+00  0.00000000E+00  1.00000000E+00  0.00000000E+00  0.00000000E+00