 Entering Gaussian System, Link 0=/apps/cent7/gaussian/g16-A.03/g16-haswell/g16/g16
 Initial command:
 /apps/cent7/gaussian/g16-A.03/g16-haswell/g16/l1.exe "/scratch/brown/finej/gaussian/Gau-156128.inp" -scrdir="/scratch/brown/finej/gaussian/"
 Entering Link 1 = /apps/cent7/gaussian/g16-A.03/g16-haswell/g16/l1.exe PID=    156130.
  
 Copyright (c) 1988,1990,1992,1993,1995,1998,2003,2009,2016,
            Gaussian, Inc.  All Rights Reserved.
  
 This is part of the Gaussian(R) 16 program.  It is based on
 the Gaussian(R) 09 system (copyright 2009, Gaussian, Inc.),
 the Gaussian(R) 03 system (copyright 2003, Gaussian, Inc.),
 the Gaussian(R) 98 system (copyright 1998, Gaussian, Inc.),
 the Gaussian(R) 94 system (copyright 1995, Gaussian, Inc.),
 the Gaussian 92(TM) system (copyright 1992, Gaussian, Inc.),
 the Gaussian 90(TM) system (copyright 1990, Gaussian, Inc.),
 the Gaussian 88(TM) system (copyright 1988, Gaussian, Inc.),
 the Gaussian 86(TM) system (copyright 1986, Carnegie Mellon
 University), and the Gaussian 82(TM) system (copyright 1983,
 Carnegie Mellon University). Gaussian is a federally registered
 trademark of Gaussian, Inc.
  
 This software contains proprietary and confidential information,
 including trade secrets, belonging to Gaussian, Inc.
  
 This software is provided under written license and may be
 used, copied, transmitted, or stored only in accord with that
 written license.
  
 The following legend is applicable only to US Government
 contracts under FAR:
  
                    RESTRICTED RIGHTS LEGEND
  
 Use, reproduction and disclosure by the US Government is
 subject to restrictions as set forth in subparagraphs (a)
 and (c) of the Commercial Computer Software - Restricted
 Rights clause in FAR 52.227-19.
  
 Gaussian, Inc.
 340 Quinnipiac St., Bldg. 40, Wallingford CT 06492
  
  
 ---------------------------------------------------------------
 Warning -- This program may not be used in any manner that
 competes with the business of Gaussian, Inc. or will provide
 assistance to any competitor of Gaussian, Inc.  The licensee
 of this program is prohibited from giving any competitor of
 Gaussian, Inc. access to this program.  By using this program,
 the user acknowledges that Gaussian, Inc. is engaged in the
 business of creating and licensing software in the field of
 computational chemistry and represents and warrants to the
 licensee that it is not a competitor of Gaussian, Inc. and that
 it will not use this program in any manner prohibited above.
 ---------------------------------------------------------------
  

 Cite this work as:
 Gaussian 16, Revision A.03,
 M. J. Frisch, G. W. Trucks, H. B. Schlegel, G. E. Scuseria, 
 M. A. Robb, J. R. Cheeseman, G. Scalmani, V. Barone, 
 G. A. Petersson, H. Nakatsuji, X. Li, M. Caricato, A. V. Marenich, 
 J. Bloino, B. G. Janesko, R. Gomperts, B. Mennucci, H. P. Hratchian, 
 J. V. Ortiz, A. F. Izmaylov, J. L. Sonnenberg, D. Williams-Young, 
 F. Ding, F. Lipparini, F. Egidi, J. Goings, B. Peng, A. Petrone, 
 T. Henderson, D. Ranasinghe, V. G. Zakrzewski, J. Gao, N. Rega, 
 G. Zheng, W. Liang, M. Hada, M. Ehara, K. Toyota, R. Fukuda, 
 J. Hasegawa, M. Ishida, T. Nakajima, Y. Honda, O. Kitao, H. Nakai, 
 T. Vreven, K. Throssell, J. A. Montgomery, Jr., J. E. Peralta, 
 F. Ogliaro, M. J. Bearpark, J. J. Heyd, E. N. Brothers, K. N. Kudin, 
 V. N. Staroverov, T. A. Keith, R. Kobayashi, J. Normand, 
 K. Raghavachari, A. P. Rendell, J. C. Burant, S. S. Iyengar, 
 J. Tomasi, M. Cossi, J. M. Millam, M. Klene, C. Adamo, R. Cammi, 
 J. W. Ochterski, R. L. Martin, K. Morokuma, O. Farkas, 
 J. B. Foresman, and D. J. Fox, Gaussian, Inc., Wallingford CT, 2016.
 
 ******************************************
 Gaussian 16:  ES64L-G16RevA.03 25-Dec-2016
                14-Oct-2019 
 ******************************************
 %chk=10.chk
 %nprocshared=24
 Will use up to   24 processors via shared memory.
 %mem=80GB
 --------------------------------------------------------------
 #P opt freq b3lyp/6-31g(d) geom=connectivity temperature=0.001
 --------------------------------------------------------------
 1/18=20,19=15,26=3,38=1,57=2,112=-1000/1,3;
 2/9=110,12=2,17=6,18=5,40=1/2;
 3/5=1,6=6,7=1,11=2,25=1,30=1,71=1,74=-5/1,2,3;
 4//1;
 5/5=2,38=5/2;
 6/7=2,8=2,9=2,10=2,28=1/1;
 7//1,2,3,16;
 1/18=20,19=15,26=3/3(2);
 2/9=110/2;
 99//99;
 2/9=110/2;
 3/5=1,6=6,7=1,11=2,25=1,30=1,71=1,74=-5/1,2,3;
 4/5=5,16=3,69=1/1;
 5/5=2,38=5/2;
 7//1,2,3,16;
 1/18=20,19=15,26=3/3(-5);
 2/9=110/2;
 6/7=2,8=2,9=2,10=2,19=2,28=1/1;
 99/9=1/99;
 Leave Link    1 at Mon Oct 14 00:05:22 2019, MaxMem= 10737418240 cpu:               0.9 elap:               0.0
 (Enter /apps/cent7/gaussian/g16-A.03/g16-haswell/g16/l101.exe)
 -------------------
 Title Card Required
 -------------------
 Symbolic Z-matrix:
 Charge =  0 Multiplicity = 1
 O                     1.4199    0.2754   -0.1395 
 N                     0.2167    0.0158    0.2908 
 C                    -0.3604   -1.2098    0.2157 
 C                     0.2259   -2.3083   -0.4575 
 C                    -0.4136   -3.5619   -0.471 
 C                    -1.6429   -3.7289    0.1918 
 C                    -2.2492   -2.6366    0.8375 
 C                    -1.6098   -1.3841    0.8468 
 H                     2.0071    0.4021    0.6093 
 H                    -0.2863    0.7918    0.6968 
 H                     1.1799   -2.1875   -0.9708 
 H                     0.0426   -4.4024   -0.9941 
 H                    -2.1261   -4.7058    0.2051 
 H                    -3.2136   -2.7606    1.3301 
 H                    -2.0866   -0.5414    1.3473 
 
 ITRead=  0  0  0  0  0  0  0  0  0  0  0  0  0  0  0
 MicOpt= -1 -1 -1 -1 -1 -1 -1 -1 -1 -1 -1 -1 -1 -1 -1
 NAtoms=     15 NQM=       15 NQMF=       0 NMMI=      0 NMMIF=      0
                NMic=       0 NMicF=      0.
                    Isotopes and Nuclear Properties:
 (Nuclear quadrupole moments (NQMom) in fm**2, nuclear magnetic moments (NMagM)
  in nuclear magnetons)

  Atom         1           2           3           4           5           6           7           8           9          10
 IAtWgt=          16          14          12          12          12          12          12          12           1           1
 AtmWgt=  15.9949146  14.0030740  12.0000000  12.0000000  12.0000000  12.0000000  12.0000000  12.0000000   1.0078250   1.0078250
 NucSpn=           0           2           0           0           0           0           0           0           1           1
 AtZEff=  -0.0000000  -0.0000000  -0.0000000  -0.0000000  -0.0000000  -0.0000000  -0.0000000  -0.0000000  -0.0000000  -0.0000000
 NQMom=    0.0000000   2.0440000   0.0000000   0.0000000   0.0000000   0.0000000   0.0000000   0.0000000   0.0000000   0.0000000
 NMagM=    0.0000000   0.4037610   0.0000000   0.0000000   0.0000000   0.0000000   0.0000000   0.0000000   2.7928460   2.7928460
 AtZNuc=   8.0000000   7.0000000   6.0000000   6.0000000   6.0000000   6.0000000   6.0000000   6.0000000   1.0000000   1.0000000

  Atom        11          12          13          14          15
 IAtWgt=           1           1           1           1           1
 AtmWgt=   1.0078250   1.0078250   1.0078250   1.0078250   1.0078250
 NucSpn=           1           1           1           1           1
 AtZEff=  -0.0000000  -0.0000000  -0.0000000  -0.0000000  -0.0000000
 NQMom=    0.0000000   0.0000000   0.0000000   0.0000000   0.0000000
 NMagM=    2.7928460   2.7928460   2.7928460   2.7928460   2.7928460
 AtZNuc=   1.0000000   1.0000000   1.0000000   1.0000000   1.0000000
 Leave Link  101 at Mon Oct 14 00:05:22 2019, MaxMem= 10737418240 cpu:               8.2 elap:               0.4
 (Enter /apps/cent7/gaussian/g16-A.03/g16-haswell/g16/l103.exe)

 GradGradGradGradGradGradGradGradGradGradGradGradGradGradGradGradGradGrad
 Berny optimization.
 Initialization pass.
                           ----------------------------
                           !    Initial Parameters    !
                           ! (Angstroms and Degrees)  !
 --------------------------                            --------------------------
 ! Name  Definition              Value          Derivative Info.                !
 --------------------------------------------------------------------------------
 ! R1    R(1,2)                  1.3039         estimate D2E/DX2                !
 ! R2    R(1,9)                  0.96           estimate D2E/DX2                !
 ! R3    R(2,3)                  1.3568         estimate D2E/DX2                !
 ! R4    R(2,10)                 1.01           estimate D2E/DX2                !
 ! R5    R(3,4)                  1.4155         estimate D2E/DX2                !
 ! R6    R(3,8)                  1.4106         estimate D2E/DX2                !
 ! R7    R(4,5)                  1.4074         estimate D2E/DX2                !
 ! R8    R(4,11)                 1.09           estimate D2E/DX2                !
 ! R9    R(5,6)                  1.4065         estimate D2E/DX2                !
 ! R10   R(5,12)                 1.09           estimate D2E/DX2                !
 ! R11   R(6,7)                  1.4063         estimate D2E/DX2                !
 ! R12   R(6,13)                 1.09           estimate D2E/DX2                !
 ! R13   R(7,8)                  1.4063         estimate D2E/DX2                !
 ! R14   R(7,14)                 1.09           estimate D2E/DX2                !
 ! R15   R(8,15)                 1.0899         estimate D2E/DX2                !
 ! A1    A(2,1,9)              109.4689         estimate D2E/DX2                !
 ! A2    A(1,2,3)              123.6468         estimate D2E/DX2                !
 ! A3    A(1,2,10)             116.0562         estimate D2E/DX2                !
 ! A4    A(3,2,10)             120.2969         estimate D2E/DX2                !
 ! A5    A(2,3,4)              123.4477         estimate D2E/DX2                !
 ! A6    A(2,3,8)              117.6206         estimate D2E/DX2                !
 ! A7    A(4,3,8)              118.9317         estimate D2E/DX2                !
 ! A8    A(3,4,5)              120.5051         estimate D2E/DX2                !
 ! A9    A(3,4,11)             120.0304         estimate D2E/DX2                !
 ! A10   A(5,4,11)             119.4645         estimate D2E/DX2                !
 ! A11   A(4,5,6)              119.8926         estimate D2E/DX2                !
 ! A12   A(4,5,12)             120.0834         estimate D2E/DX2                !
 ! A13   A(6,5,12)             120.024          estimate D2E/DX2                !
 ! A14   A(5,6,7)              120.0628         estimate D2E/DX2                !
 ! A15   A(5,6,13)             119.9751         estimate D2E/DX2                !
 ! A16   A(7,6,13)             119.9622         estimate D2E/DX2                !
 ! A17   A(6,7,8)              119.9201         estimate D2E/DX2                !
 ! A18   A(6,7,14)             120.0395         estimate D2E/DX2                !
 ! A19   A(8,7,14)             120.0403         estimate D2E/DX2                !
 ! A20   A(3,8,7)              120.6517         estimate D2E/DX2                !
 ! A21   A(3,8,15)             119.8273         estimate D2E/DX2                !
 ! A22   A(7,8,15)             119.521          estimate D2E/DX2                !
 ! D1    D(9,1,2,3)           -107.6452         estimate D2E/DX2                !
 ! D2    D(9,1,2,10)            72.3556         estimate D2E/DX2                !
 ! D3    D(1,2,3,4)             -6.5759         estimate D2E/DX2                !
 ! D4    D(1,2,3,8)            173.3902         estimate D2E/DX2                !
 ! D5    D(10,2,3,4)           173.4234         estimate D2E/DX2                !
 ! D6    D(10,2,3,8)            -6.6106         estimate D2E/DX2                !
 ! D7    D(2,3,4,5)            178.5523         estimate D2E/DX2                !
 ! D8    D(2,3,4,11)            -1.4428         estimate D2E/DX2                !
 ! D9    D(8,3,4,5)             -1.4133         estimate D2E/DX2                !
 ! D10   D(8,3,4,11)           178.5915         estimate D2E/DX2                !
 ! D11   D(2,3,8,7)           -178.3951         estimate D2E/DX2                !
 ! D12   D(2,3,8,15)             1.6072         estimate D2E/DX2                !
 ! D13   D(4,3,8,7)              1.5726         estimate D2E/DX2                !
 ! D14   D(4,3,8,15)          -178.4252         estimate D2E/DX2                !
 ! D15   D(3,4,5,6)             -0.1854         estimate D2E/DX2                !
 ! D16   D(3,4,5,12)           179.8155         estimate D2E/DX2                !
 ! D17   D(11,4,5,6)           179.8098         estimate D2E/DX2                !
 ! D18   D(11,4,5,12)           -0.1893         estimate D2E/DX2                !
 ! D19   D(4,5,6,7)              1.6501         estimate D2E/DX2                !
 ! D20   D(4,5,6,13)          -178.3455         estimate D2E/DX2                !
 ! D21   D(12,5,6,7)          -178.3508         estimate D2E/DX2                !
 ! D22   D(12,5,6,13)            1.6537         estimate D2E/DX2                !
 ! D23   D(5,6,7,8)             -1.4947         estimate D2E/DX2                !
 ! D24   D(5,6,7,14)           178.5003         estimate D2E/DX2                !
 ! D25   D(13,6,7,8)           178.5008         estimate D2E/DX2                !
 ! D26   D(13,6,7,14)           -1.5042         estimate D2E/DX2                !
 ! D27   D(6,7,8,3)             -0.1317         estimate D2E/DX2                !
 ! D28   D(6,7,8,15)           179.8661         estimate D2E/DX2                !
 ! D29   D(14,7,8,3)           179.8733         estimate D2E/DX2                !
 ! D30   D(14,7,8,15)           -0.1289         estimate D2E/DX2                !
 --------------------------------------------------------------------------------
 Trust Radius=3.00D-01 FncErr=1.00D-07 GrdErr=1.00D-06 EigMax=2.50D+02 EigMin=1.00D-04
 Number of steps in this run=     77 maximum allowed number of steps=    100.
 GradGradGradGradGradGradGradGradGradGradGradGradGradGradGradGradGradGrad

 Leave Link  103 at Mon Oct 14 00:05:23 2019, MaxMem= 10737418240 cpu:               0.5 elap:               0.0
 (Enter /apps/cent7/gaussian/g16-A.03/g16-haswell/g16/l202.exe)
                          Input orientation:                          
 ---------------------------------------------------------------------
 Center     Atomic      Atomic             Coordinates (Angstroms)
 Number     Number       Type             X           Y           Z
 ---------------------------------------------------------------------
      1          8           0        1.419900    0.275400   -0.139500
      2          7           0        0.216700    0.015800    0.290800
      3          6           0       -0.360400   -1.209800    0.215700
      4          6           0        0.225900   -2.308300   -0.457500
      5          6           0       -0.413600   -3.561900   -0.471000
      6          6           0       -1.642900   -3.728900    0.191800
      7          6           0       -2.249200   -2.636600    0.837500
      8          6           0       -1.609800   -1.384100    0.846800
      9          1           0        2.007100    0.402100    0.609300
     10          1           0       -0.286300    0.791800    0.696800
     11          1           0        1.179900   -2.187500   -0.970800
     12          1           0        0.042600   -4.402400   -0.994100
     13          1           0       -2.126100   -4.705800    0.205100
     14          1           0       -3.213600   -2.760600    1.330100
     15          1           0       -2.086600   -0.541400    1.347300
 ---------------------------------------------------------------------
                    Distance matrix (angstroms):
                    1          2          3          4          5
     1  O    0.000000
     2  N    1.303933   0.000000
     3  C    2.345518   1.356753   0.000000
     4  C    2.863960   2.441614   1.415503   0.000000
     5  C    4.265734   3.711813   2.450870   1.407358   0.000000
     6  C    5.052220   4.182187   2.826879   2.435592   1.406546
     7  C    4.785036   3.662618   2.447439   2.812637   2.436756
     8  C    3.592466   2.367479   1.410556   2.434161   2.812526
     9  H    0.959978   1.859086   2.891055   3.414235   4.768662
    10  H    1.969057   1.009961   2.059939   3.347443   4.509398
    11  H    2.610467   2.715496   2.176282   1.090039   2.162873
    12  H    4.950668   4.604538   3.437836   2.169515   1.090042
    13  H    6.124150   5.271581   3.916609   3.423295   2.167550
    14  H    5.731173   4.533817   3.433310   3.902595   3.424331
    15  H    3.895289   2.594582   2.169572   3.424455   3.902379
                    6          7          8          9         10
     6  C    0.000000
     7  C    1.406289   0.000000
     8  C    2.434791   1.406298   0.000000
     9  H    5.528288   5.234679   4.040901   0.000000
    10  H    4.746801   3.953062   2.551214   2.327919   0.000000
    11  H    3.419905   3.902610   3.425135   3.144361   3.715758
    12  H    2.168149   3.424201   3.902496   5.432621   5.472388
    13  H    1.089951   2.167181   3.422285   6.583112   5.818096
    14  H    2.168048   1.089999   2.168065   6.146376   4.646472
    15  H    3.419387   2.162452   1.089946   4.265351   2.332735
                   11         12         13         14         15
    11  H    0.000000
    12  H    2.489935   0.000000
    13  H    4.319052   2.496676   0.000000
    14  H    4.992537   4.324379   2.496414   0.000000
    15  H    4.330503   4.992291   4.318380   2.489031   0.000000
 Stoichiometry    C6H7NO
 Framework group  C1[X(C6H7NO)]
 Deg. of freedom    39
 Full point group                 C1      NOp   1
 Largest Abelian subgroup         C1      NOp   1
 Largest concise Abelian subgroup C1      NOp   1
                         Standard orientation:                         
 ---------------------------------------------------------------------
 Center     Atomic      Atomic             Coordinates (Angstroms)
 Number     Number       Type             X           Y           Z
 ---------------------------------------------------------------------
      1          8           0       -2.748695    0.399835    0.015574
      2          7           0       -1.809914   -0.500614   -0.074541
      3          6           0       -0.484856   -0.209780   -0.054097
      4          6           0        0.024336    1.110895   -0.067821
      5          6           0        1.411512    1.342308   -0.014470
      6          6           0        2.301287    0.255310    0.057000
      7          6           0        1.807701   -1.061404    0.040138
      8          6           0        0.421286   -1.290134   -0.016541
      9          1           0       -3.164882    0.342870    0.878767
     10          1           0       -2.120186   -1.457621   -0.163371
     11          1           0       -0.659038    1.958520   -0.119942
     12          1           0        1.796271    2.362091   -0.028470
     13          1           0        3.374374    0.433556    0.125593
     14          1           0        2.498890   -1.903669    0.070881
     15          1           0        0.045935   -2.313300   -0.031524
 ---------------------------------------------------------------------
 Rotational constants (GHZ):           5.0876430           1.5063932           1.1679754
 Leave Link  202 at Mon Oct 14 00:05:23 2019, MaxMem= 10737418240 cpu:               0.4 elap:               0.0
 (Enter /apps/cent7/gaussian/g16-A.03/g16-haswell/g16/l301.exe)
 Standard basis: 6-31G(d) (6D, 7F)
 Ernie: Thresh=  0.10000D-02 Tol=  0.10000D-05 Strict=F.
 There are   134 symmetry adapted cartesian basis functions of A   symmetry.
 There are   134 symmetry adapted basis functions of A   symmetry.
   134 basis functions,   252 primitive gaussians,   134 cartesian basis functions
    29 alpha electrons       29 beta electrons
       nuclear repulsion energy       344.7478090774 Hartrees.
 IExCor=  402 DFT=T Ex+Corr=B3LYP ExCW=0 ScaHFX=  0.200000
 ScaDFX=  0.800000  0.720000  1.000000  0.810000 ScalE2=  1.000000  1.000000
 IRadAn=      5 IRanWt=     -1 IRanGd=            0 ICorTp=0 IEmpDi=  4
 NAtoms=   15 NActive=   15 NUniq=   15 SFac= 1.00D+00 NAtFMM=   60 NAOKFM=F Big=F
 Integral buffers will be    131072 words long.
 Raffenetti 2 integral format.
 Two-electron integral symmetry is turned on.
 Leave Link  301 at Mon Oct 14 00:05:23 2019, MaxMem= 10737418240 cpu:               1.3 elap:               0.1
 (Enter /apps/cent7/gaussian/g16-A.03/g16-haswell/g16/l302.exe)
 NPDir=0 NMtPBC=     1 NCelOv=     1 NCel=       1 NClECP=     1 NCelD=      1
         NCelK=      1 NCelE2=     1 NClLst=     1 CellRange=     0.0.
 One-electron integrals computed using PRISM.
 One-electron integral symmetry used in STVInt
 NBasis=   134 RedAO= T EigKep=  4.97D-04  NBF=   134
 NBsUse=   134 1.00D-06 EigRej= -1.00D+00 NBFU=   134
 Precomputing XC quadrature grid using
 IXCGrd= 4 IRadAn=           5 IRanWt=          -1 IRanGd=           0 AccXCQ= 0.00D+00.
 Generated NRdTot=       0 NPtTot=           0 NUsed=           0 NTot=          32
 NSgBfM=   134   134   134   134   134 MxSgAt=    15 MxSgA2=    15.
 Leave Link  302 at Mon Oct 14 00:05:23 2019, MaxMem= 10737418240 cpu:               3.2 elap:               0.2
 (Enter /apps/cent7/gaussian/g16-A.03/g16-haswell/g16/l303.exe)
 DipDrv:  MaxL=1.
 Leave Link  303 at Mon Oct 14 00:05:23 2019, MaxMem= 10737418240 cpu:               1.3 elap:               0.1
 (Enter /apps/cent7/gaussian/g16-A.03/g16-haswell/g16/l401.exe)
 ExpMin= 1.61D-01 ExpMax= 5.48D+03 ExpMxC= 8.25D+02 IAcc=3 IRadAn=         5 AccDes= 0.00D+00
 Harris functional with IExCor=  402 and IRadAn=       5 diagonalized for initial guess.
 HarFok:  IExCor=  402 AccDes= 0.00D+00 IRadAn=         5 IDoV= 1 UseB2=F ITyADJ=14
 ICtDFT=  3500011 ScaDFX=  1.000000  1.000000  1.000000  1.000000
 FoFCou: FMM=F IPFlag=           0 FMFlag=      100000 FMFlg1=           0
         NFxFlg=           0 DoJE=T BraDBF=F KetDBF=T FulRan=T
         wScrn=  0.000000 ICntrl=       500 IOpCl=  0 I1Cent=   200000004 NGrid=           0
         NMat0=    1 NMatS0=      1 NMatT0=    0 NMatD0=    1 NMtDS0=    0 NMtDT0=    0
 Petite list used in FoFCou.
 Harris En= -362.764064793343    
 JPrj=0 DoOrth=F DoCkMO=F.
 Leave Link  401 at Mon Oct 14 00:05:23 2019, MaxMem= 10737418240 cpu:               6.9 elap:               0.3
 (Enter /apps/cent7/gaussian/g16-A.03/g16-haswell/g16/l502.exe)
 Integral symmetry usage will be decided dynamically.
 Closed shell SCF:
 Using DIIS extrapolation, IDIIS=  1040.
 NGot= 10737418240 LenX= 10737377521 LenY= 10737359124
 Requested convergence on RMS density matrix=1.00D-08 within 128 cycles.
 Requested convergence on MAX density matrix=1.00D-06.
 Requested convergence on             energy=1.00D-06.
 No special actions if energy rises.
 Fock matrices will be formed incrementally for  20 cycles.
 Integral accuracy reduced to 1.0D-05 until final iterations.

 Cycle   1  Pass 0  IDiag  1:
 FoFJK:  IHMeth= 1 ICntrl=       0 DoSepK=F KAlg= 0 I1Cent=           0 FoldK=F
 IRaf= 960000000 NMat=       1 IRICut=       1 DoRegI=T DoRafI=F ISym2E= 0 IDoP0=0 IntGTp=1.
 FoFCou: FMM=F IPFlag=           0 FMFlag=      100000 FMFlg1=           0
         NFxFlg=           0 DoJE=F BraDBF=F KetDBF=F FulRan=T
         wScrn=  0.000000 ICntrl=         0 IOpCl=  0 I1Cent=           0 NGrid=           0
         NMat0=    1 NMatS0=      1 NMatT0=    0 NMatD0=    1 NMtDS0=    0 NMtDT0=    0
 Symmetry not used in FoFCou.
 E= -362.532577239001    
 DIIS: error= 4.70D-02 at cycle   1 NSaved=   1.
 NSaved= 1 IEnMin= 1 EnMin= -362.532577239001     IErMin= 1 ErrMin= 4.70D-02
 ErrMax= 4.70D-02  0.00D+00 EMaxC= 1.00D-01 BMatC= 1.93D-01 BMatP= 1.93D-01
 IDIUse=3 WtCom= 5.30D-01 WtEn= 4.70D-01
 Coeff-Com:  0.100D+01
 Coeff-En:   0.100D+01
 Coeff:      0.100D+01
 Gap=     0.270 Goal=   None    Shift=    0.000
 GapD=    0.270 DampG=1.000 DampE=0.500 DampFc=0.5000 IDamp=-1.
 Damping current iteration by 5.00D-01
 RMSDP=8.12D-03 MaxDP=1.51D-01              OVMax= 2.72D-01

 Cycle   2  Pass 0  IDiag  1:
 RMSU=  4.01D-03    CP:  9.79D-01
 E= -362.622815568390     Delta-E=       -0.090238329389 Rises=F Damp=T
 DIIS: error= 6.65D-03 at cycle   2 NSaved=   2.
 NSaved= 2 IEnMin= 2 EnMin= -362.622815568390     IErMin= 2 ErrMin= 6.65D-03
 ErrMax= 6.65D-03  0.00D+00 EMaxC= 1.00D-01 BMatC= 1.45D-02 BMatP= 1.93D-01
 IDIUse=3 WtCom= 9.33D-01 WtEn= 6.65D-02
 Coeff-Com:  0.745D-01 0.925D+00
 Coeff-En:   0.128D+00 0.872D+00
 Coeff:      0.781D-01 0.922D+00
 Gap=     0.251 Goal=   None    Shift=    0.000
 RMSDP=2.09D-03 MaxDP=4.27D-02 DE=-9.02D-02 OVMax= 2.04D-01

 Cycle   3  Pass 0  IDiag  1:
 RMSU=  1.93D-03    CP:  9.70D-01  8.10D-01
 E= -362.729704556356     Delta-E=       -0.106888987965 Rises=F Damp=F
 DIIS: error= 8.36D-03 at cycle   3 NSaved=   3.
 NSaved= 3 IEnMin= 3 EnMin= -362.729704556356     IErMin= 2 ErrMin= 6.65D-03
 ErrMax= 8.36D-03  0.00D+00 EMaxC= 1.00D-01 BMatC= 1.17D-02 BMatP= 1.45D-02
 IDIUse=3 WtCom= 9.16D-01 WtEn= 8.36D-02
 Coeff-Com: -0.798D-02 0.470D+00 0.538D+00
 Coeff-En:   0.000D+00 0.000D+00 0.100D+01
 Coeff:     -0.731D-02 0.431D+00 0.577D+00
 Gap=     0.198 Goal=   None    Shift=    0.000
 RMSDP=1.26D-03 MaxDP=3.47D-02 DE=-1.07D-01 OVMax= 7.96D-02

 Cycle   4  Pass 0  IDiag  1:
 RMSU=  9.66D-04    CP:  9.72D-01  8.92D-01  6.22D-01
 E= -362.737401462007     Delta-E=       -0.007696905651 Rises=F Damp=F
 DIIS: error= 5.90D-03 at cycle   4 NSaved=   4.
 NSaved= 4 IEnMin= 4 EnMin= -362.737401462007     IErMin= 4 ErrMin= 5.90D-03
 ErrMax= 5.90D-03  0.00D+00 EMaxC= 1.00D-01 BMatC= 3.64D-03 BMatP= 1.17D-02
 IDIUse=3 WtCom= 9.41D-01 WtEn= 5.90D-02
 Coeff-Com: -0.109D-01 0.102D+00 0.370D+00 0.539D+00
 Coeff-En:   0.000D+00 0.000D+00 0.290D+00 0.710D+00
 Coeff:     -0.102D-01 0.956D-01 0.365D+00 0.549D+00
 Gap=     0.191 Goal=   None    Shift=    0.000
 RMSDP=5.73D-04 MaxDP=9.98D-03 DE=-7.70D-03 OVMax= 2.98D-02

 Cycle   5  Pass 0  IDiag  1:
 RMSU=  2.18D-04    CP:  9.71D-01  8.71D-01  7.61D-01  5.37D-01
 E= -362.741196490817     Delta-E=       -0.003795028810 Rises=F Damp=F
 DIIS: error= 1.34D-03 at cycle   5 NSaved=   5.
 NSaved= 5 IEnMin= 5 EnMin= -362.741196490817     IErMin= 5 ErrMin= 1.34D-03
 ErrMax= 1.34D-03  0.00D+00 EMaxC= 1.00D-01 BMatC= 1.29D-04 BMatP= 3.64D-03
 IDIUse=3 WtCom= 9.87D-01 WtEn= 1.34D-02
 Coeff-Com: -0.405D-02 0.162D-01 0.139D+00 0.270D+00 0.579D+00
 Coeff-En:   0.000D+00 0.000D+00 0.000D+00 0.000D+00 0.100D+01
 Coeff:     -0.399D-02 0.160D-01 0.137D+00 0.266D+00 0.585D+00
 Gap=     0.191 Goal=   None    Shift=    0.000
 RMSDP=1.17D-04 MaxDP=2.36D-03 DE=-3.80D-03 OVMax= 7.57D-03

 Cycle   6  Pass 0  IDiag  1:
 RMSU=  7.24D-05    CP:  9.71D-01  8.74D-01  7.54D-01  6.02D-01  7.12D-01
 E= -362.741312382703     Delta-E=       -0.000115891886 Rises=F Damp=F
 DIIS: error= 5.08D-04 at cycle   6 NSaved=   6.
 NSaved= 6 IEnMin= 6 EnMin= -362.741312382703     IErMin= 6 ErrMin= 5.08D-04
 ErrMax= 5.08D-04  0.00D+00 EMaxC= 1.00D-01 BMatC= 2.55D-05 BMatP= 1.29D-04
 IDIUse=3 WtCom= 9.95D-01 WtEn= 5.08D-03
 Coeff-Com: -0.104D-02-0.722D-03 0.412D-01 0.957D-01 0.352D+00 0.513D+00
 Coeff-En:   0.000D+00 0.000D+00 0.000D+00 0.000D+00 0.148D+00 0.852D+00
 Coeff:     -0.103D-02-0.718D-03 0.410D-01 0.952D-01 0.351D+00 0.514D+00
 Gap=     0.191 Goal=   None    Shift=    0.000
 RMSDP=3.62D-05 MaxDP=9.67D-04 DE=-1.16D-04 OVMax= 2.13D-03

 Cycle   7  Pass 0  IDiag  1:
 RMSU=  1.24D-05    CP:  9.71D-01  8.73D-01  7.57D-01  5.99D-01  7.56D-01
                    CP:  5.69D-01
 E= -362.741337232389     Delta-E=       -0.000024849686 Rises=F Damp=F
 DIIS: error= 1.87D-05 at cycle   7 NSaved=   7.
 NSaved= 7 IEnMin= 7 EnMin= -362.741337232389     IErMin= 7 ErrMin= 1.87D-05
 ErrMax= 1.87D-05  0.00D+00 EMaxC= 1.00D-01 BMatC= 1.54D-07 BMatP= 2.55D-05
 IDIUse=1 WtCom= 1.00D+00 WtEn= 0.00D+00
 Coeff-Com:  0.137D-03-0.103D-02 0.145D-02 0.299D-02 0.295D-01 0.922D-01
 Coeff-Com:  0.875D+00
 Coeff:      0.137D-03-0.103D-02 0.145D-02 0.299D-02 0.295D-01 0.922D-01
 Coeff:      0.875D+00
 Gap=     0.191 Goal=   None    Shift=    0.000
 RMSDP=4.04D-06 MaxDP=7.62D-05 DE=-2.48D-05 OVMax= 1.38D-04

 Initial convergence to 1.0D-05 achieved.  Increase integral accuracy.
 Cycle   8  Pass 1  IDiag  1:
 E= -362.741340427735     Delta-E=       -0.000003195346 Rises=F Damp=F
 DIIS: error= 1.51D-05 at cycle   1 NSaved=   1.
 NSaved= 1 IEnMin= 1 EnMin= -362.741340427735     IErMin= 1 ErrMin= 1.51D-05
 ErrMax= 1.51D-05  0.00D+00 EMaxC= 1.00D-01 BMatC= 4.10D-08 BMatP= 4.10D-08
 IDIUse=1 WtCom= 1.00D+00 WtEn= 0.00D+00
 Coeff-Com:  0.100D+01
 Coeff:      0.100D+01
 Gap=     0.191 Goal=   None    Shift=    0.000
 RMSDP=4.04D-06 MaxDP=7.62D-05 DE=-3.20D-06 OVMax= 8.35D-05

 Cycle   9  Pass 1  IDiag  1:
 RMSU=  5.43D-06    CP:  1.00D+00
 E= -362.741340411720     Delta-E=        0.000000016015 Rises=F Damp=F
 DIIS: error= 2.08D-05 at cycle   2 NSaved=   2.
 NSaved= 2 IEnMin= 1 EnMin= -362.741340427735     IErMin= 1 ErrMin= 1.51D-05
 ErrMax= 2.08D-05  0.00D+00 EMaxC= 1.00D-01 BMatC= 6.32D-08 BMatP= 4.10D-08
 IDIUse=1 WtCom= 1.00D+00 WtEn= 0.00D+00
 Coeff-Com:  0.558D+00 0.442D+00
 Coeff:      0.558D+00 0.442D+00
 Gap=     0.191 Goal=   None    Shift=    0.000
 RMSDP=1.79D-06 MaxDP=4.93D-05 DE= 1.60D-08 OVMax= 5.36D-05

 Cycle  10  Pass 1  IDiag  1:
 RMSU=  1.61D-06    CP:  1.00D+00  8.55D-01
 E= -362.741340460949     Delta-E=       -0.000000049229 Rises=F Damp=F
 DIIS: error= 1.71D-06 at cycle   3 NSaved=   3.
 NSaved= 3 IEnMin= 3 EnMin= -362.741340460949     IErMin= 3 ErrMin= 1.71D-06
 ErrMax= 1.71D-06  0.00D+00 EMaxC= 1.00D-01 BMatC= 8.30D-10 BMatP= 4.10D-08
 IDIUse=1 WtCom= 1.00D+00 WtEn= 0.00D+00
 Coeff-Com:  0.359D-01 0.109D+00 0.855D+00
 Coeff:      0.359D-01 0.109D+00 0.855D+00
 Gap=     0.191 Goal=   None    Shift=    0.000
 RMSDP=3.70D-07 MaxDP=7.71D-06 DE=-4.92D-08 OVMax= 2.01D-05

 Cycle  11  Pass 1  IDiag  1:
 RMSU=  3.04D-07    CP:  1.00D+00  8.81D-01  9.01D-01
 E= -362.741340461163     Delta-E=       -0.000000000214 Rises=F Damp=F
 DIIS: error= 2.03D-06 at cycle   4 NSaved=   4.
 NSaved= 4 IEnMin= 4 EnMin= -362.741340461163     IErMin= 3 ErrMin= 1.71D-06
 ErrMax= 2.03D-06  0.00D+00 EMaxC= 1.00D-01 BMatC= 5.21D-10 BMatP= 8.30D-10
 IDIUse=1 WtCom= 1.00D+00 WtEn= 0.00D+00
 Coeff-Com: -0.458D-02 0.494D-01 0.562D+00 0.393D+00
 Coeff:     -0.458D-02 0.494D-01 0.562D+00 0.393D+00
 Gap=     0.191 Goal=   None    Shift=    0.000
 RMSDP=1.96D-07 MaxDP=4.49D-06 DE=-2.14D-10 OVMax= 1.09D-05

 Cycle  12  Pass 1  IDiag  1:
 RMSU=  5.89D-08    CP:  1.00D+00  8.79D-01  9.27D-01  4.02D-01
 E= -362.741340461755     Delta-E=       -0.000000000592 Rises=F Damp=F
 DIIS: error= 1.60D-07 at cycle   5 NSaved=   5.
 NSaved= 5 IEnMin= 5 EnMin= -362.741340461755     IErMin= 5 ErrMin= 1.60D-07
 ErrMax= 1.60D-07  0.00D+00 EMaxC= 1.00D-01 BMatC= 6.54D-12 BMatP= 5.21D-10
 IDIUse=1 WtCom= 1.00D+00 WtEn= 0.00D+00
 Coeff-Com: -0.426D-02 0.160D-01 0.204D+00 0.170D+00 0.613D+00
 Coeff:     -0.426D-02 0.160D-01 0.204D+00 0.170D+00 0.613D+00
 Gap=     0.191 Goal=   None    Shift=    0.000
 RMSDP=2.54D-08 MaxDP=6.20D-07 DE=-5.92D-10 OVMax= 1.10D-06

 Cycle  13  Pass 1  IDiag  1:
 RMSU=  1.78D-08    CP:  1.00D+00  8.79D-01  9.26D-01  4.35D-01  7.50D-01
 E= -362.741340461761     Delta-E=       -0.000000000006 Rises=F Damp=F
 DIIS: error= 4.38D-08 at cycle   6 NSaved=   6.
 NSaved= 6 IEnMin= 6 EnMin= -362.741340461761     IErMin= 6 ErrMin= 4.38D-08
 ErrMax= 4.38D-08  0.00D+00 EMaxC= 1.00D-01 BMatC= 7.00D-13 BMatP= 6.54D-12
 IDIUse=1 WtCom= 1.00D+00 WtEn= 0.00D+00
 Coeff-Com: -0.159D-02 0.434D-02 0.601D-01 0.537D-01 0.301D+00 0.582D+00
 Coeff:     -0.159D-02 0.434D-02 0.601D-01 0.537D-01 0.301D+00 0.582D+00
 Gap=     0.191 Goal=   None    Shift=    0.000
 RMSDP=7.29D-09 MaxDP=2.76D-07 DE=-5.80D-12 OVMax= 4.01D-07

 SCF Done:  E(RB3LYP) =  -362.741340462     A.U. after   13 cycles
            NFock= 13  Conv=0.73D-08     -V/T= 2.0092
 KE= 3.594357908354D+02 PE=-1.533874633794D+03 EE= 4.669496934199D+02
 Leave Link  502 at Mon Oct 14 00:05:25 2019, MaxMem= 10737418240 cpu:              46.8 elap:               2.0
 (Enter /apps/cent7/gaussian/g16-A.03/g16-haswell/g16/l601.exe)
 Copying SCF densities to generalized density rwf, IOpCl= 0 IROHF=0.

 **********************************************************************

            Population analysis using the SCF density.

 **********************************************************************

 Orbital symmetries:
       Occupied  (A) (A) (A) (A) (A) (A) (A) (A) (A) (A) (A) (A)
                 (A) (A) (A) (A) (A) (A) (A) (A) (A) (A) (A) (A)
                 (A) (A) (A) (A) (A)
       Virtual   (A) (A) (A) (A) (A) (A) (A) (A) (A) (A) (A) (A)
                 (A) (A) (A) (A) (A) (A) (A) (A) (A) (A) (A) (A)
                 (A) (A) (A) (A) (A) (A) (A) (A) (A) (A) (A) (A)
                 (A) (A) (A) (A) (A) (A) (A) (A) (A) (A) (A) (A)
                 (A) (A) (A) (A) (A) (A) (A) (A) (A) (A) (A) (A)
                 (A) (A) (A) (A) (A) (A) (A) (A) (A) (A) (A) (A)
                 (A) (A) (A) (A) (A) (A) (A) (A) (A) (A) (A) (A)
                 (A) (A) (A) (A) (A) (A) (A) (A) (A) (A) (A) (A)
                 (A) (A) (A) (A) (A) (A) (A) (A) (A)
 The electronic state is 1-A.
 Alpha  occ. eigenvalues --  -19.19749 -14.39184 -10.22436 -10.18176 -10.18043
 Alpha  occ. eigenvalues --  -10.17737 -10.17349 -10.16805  -1.13232  -0.88028
 Alpha  occ. eigenvalues --   -0.81024  -0.72873  -0.70994  -0.61723  -0.60491
 Alpha  occ. eigenvalues --   -0.56478  -0.53319  -0.47840  -0.46084  -0.42881
 Alpha  occ. eigenvalues --   -0.42380  -0.40623  -0.36024  -0.34605  -0.33374
 Alpha  occ. eigenvalues --   -0.32362  -0.28179  -0.23534  -0.18111
 Alpha virt. eigenvalues --    0.00997   0.02925   0.06408   0.08920   0.10692
 Alpha virt. eigenvalues --    0.15501   0.16682   0.17582   0.19025   0.19650
 Alpha virt. eigenvalues --    0.22274   0.27724   0.31310   0.32176   0.36419
 Alpha virt. eigenvalues --    0.36759   0.49184   0.52662   0.53580   0.55644
 Alpha virt. eigenvalues --    0.56671   0.60300   0.60618   0.60981   0.61160
 Alpha virt. eigenvalues --    0.62630   0.62736   0.64253   0.66704   0.67942
 Alpha virt. eigenvalues --    0.68711   0.75811   0.78209   0.78665   0.83841
 Alpha virt. eigenvalues --    0.84443   0.85678   0.86542   0.87839   0.89636
 Alpha virt. eigenvalues --    0.92986   0.94688   0.96189   0.97468   1.03014
 Alpha virt. eigenvalues --    1.03597   1.07177   1.11419   1.12942   1.17954
 Alpha virt. eigenvalues --    1.18615   1.26686   1.30530   1.34271   1.40690
 Alpha virt. eigenvalues --    1.43371   1.44958   1.48094   1.50984   1.51224
 Alpha virt. eigenvalues --    1.52501   1.53820   1.60916   1.72307   1.78291
 Alpha virt. eigenvalues --    1.79930   1.85948   1.89325   1.93855   1.95749
 Alpha virt. eigenvalues --    1.97782   2.00998   2.01691   2.06690   2.12314
 Alpha virt. eigenvalues --    2.14546   2.16107   2.21880   2.24921   2.26718
 Alpha virt. eigenvalues --    2.31133   2.35382   2.41798   2.50660   2.55007
 Alpha virt. eigenvalues --    2.55613   2.60462   2.61637   2.66882   2.71997
 Alpha virt. eigenvalues --    2.73799   2.73995   2.85214   2.88228   2.95177
 Alpha virt. eigenvalues --    3.22073   3.39878   3.72474   3.94384   4.08741
 Alpha virt. eigenvalues --    4.12618   4.15108   4.33969   4.38477   4.70745
          Condensed to atoms (all electrons):
               1          2          3          4          5          6
     1  O    8.177120   0.145187  -0.045990   0.000677   0.000325  -0.000004
     2  N    0.145187   6.890526   0.274938  -0.072185   0.004522   0.000538
     3  C   -0.045990   0.274938   4.530424   0.519403  -0.006662  -0.036400
     4  C    0.000677  -0.072185   0.519403   5.031368   0.522126  -0.041301
     5  C    0.000325   0.004522  -0.006662   0.522126   4.853306   0.546382
     6  C   -0.000004   0.000538  -0.036400  -0.041301   0.546382   4.891401
     7  C   -0.000065   0.004304  -0.005182  -0.039414  -0.024164   0.547043
     8  C    0.004669  -0.064898   0.492339  -0.055055  -0.041296  -0.042525
     9  H    0.233820  -0.060338   0.002175   0.000566  -0.000014  -0.000003
    10  H   -0.040442   0.328694  -0.042571   0.007193  -0.000031  -0.000002
    11  H    0.010855  -0.012705  -0.036645   0.351561  -0.044569   0.004667
    12  H   -0.000001  -0.000101   0.003154  -0.039937   0.357388  -0.041953
    13  H   -0.000000   0.000003   0.000708   0.004659  -0.043570   0.357393
    14  H    0.000001  -0.000106   0.003290   0.000742   0.004532  -0.041663
    15  H    0.000022  -0.008265  -0.053105   0.005621   0.000384   0.004753
               7          8          9         10         11         12
     1  O   -0.000065   0.004669   0.233820  -0.040442   0.010855  -0.000001
     2  N    0.004304  -0.064898  -0.060338   0.328694  -0.012705  -0.000101
     3  C   -0.005182   0.492339   0.002175  -0.042571  -0.036645   0.003154
     4  C   -0.039414  -0.055055   0.000566   0.007193   0.351561  -0.039937
     5  C   -0.024164  -0.041296  -0.000014  -0.000031  -0.044569   0.357388
     6  C    0.547043  -0.042525  -0.000003  -0.000002   0.004667  -0.041953
     7  C    4.829172   0.540415   0.000002  -0.000171   0.000259   0.004479
     8  C    0.540415   5.061191   0.000043  -0.003198   0.006233   0.000804
     9  H    0.000002   0.000043   0.416982  -0.000874  -0.000510   0.000000
    10  H   -0.000171  -0.003198  -0.000874   0.424344   0.000083   0.000003
    11  H    0.000259   0.006233  -0.000510   0.000083   0.594567  -0.005220
    12  H    0.004479   0.000804   0.000000   0.000003  -0.005220   0.600655
    13  H   -0.043409   0.004937   0.000000  -0.000000  -0.000165  -0.005350
    14  H    0.356158  -0.040077  -0.000000  -0.000009   0.000013  -0.000182
    15  H   -0.038275   0.347851  -0.000010   0.008892  -0.000150   0.000014
              13         14         15
     1  O   -0.000000   0.000001   0.000022
     2  N    0.000003  -0.000106  -0.008265
     3  C    0.000708   0.003290  -0.053105
     4  C    0.004659   0.000742   0.005621
     5  C   -0.043570   0.004532   0.000384
     6  C    0.357393  -0.041663   0.004753
     7  C   -0.043409   0.356158  -0.038275
     8  C    0.004937  -0.040077   0.347851
     9  H    0.000000  -0.000000  -0.000010
    10  H   -0.000000  -0.000009   0.008892
    11  H   -0.000165   0.000013  -0.000150
    12  H   -0.005350  -0.000182   0.000014
    13  H    0.615364  -0.005418  -0.000178
    14  H   -0.005418   0.603965  -0.005710
    15  H   -0.000178  -0.005710   0.630113
 Mulliken charges:
               1
     1  O   -0.486173
     2  N   -0.430115
     3  C    0.400124
     4  C   -0.196023
     5  C   -0.128661
     6  C   -0.148327
     7  C   -0.131152
     8  C   -0.211432
     9  H    0.408161
    10  H    0.318088
    11  H    0.131727
    12  H    0.126247
    13  H    0.115026
    14  H    0.124464
    15  H    0.108044
 Sum of Mulliken charges =  -0.00000
 Mulliken charges with hydrogens summed into heavy atoms:
               1
     1  O   -0.078012
     2  N   -0.112026
     3  C    0.400124
     4  C   -0.064296
     5  C   -0.002414
     6  C   -0.033300
     7  C   -0.006688
     8  C   -0.103387
 Electronic spatial extent (au):  <R**2>=            972.6779
 Charge=              0.0000 electrons
 Dipole moment (field-independent basis, Debye):
    X=             -1.8025    Y=             -1.3043    Z=              1.3845  Tot=              2.6205
 Quadrupole moment (field-independent basis, Debye-Ang):
   XX=            -39.2398   YY=            -41.4140   ZZ=            -48.8357
   XY=              3.3030   XZ=             -4.6468   YZ=              0.7167
 Traceless Quadrupole moment (field-independent basis, Debye-Ang):
   XX=              3.9234   YY=              1.7492   ZZ=             -5.6725
   XY=              3.3030   XZ=             -4.6468   YZ=              0.7167
 Octapole moment (field-independent basis, Debye-Ang**2):
  XXX=            -30.7307  YYY=             -2.6586  ZZZ=              2.2942  XYY=             -7.3169
  XXY=             -7.6505  XXZ=             17.3278  XZZ=            -14.2529  YZZ=              0.7148
  YYZ=             -0.3818  XYZ=             -2.4706
 Hexadecapole moment (field-independent basis, Debye-Ang**3):
 XXXX=           -766.7857 YYYY=           -300.4879 ZZZZ=            -51.0659 XXXY=             12.6271
 XXXZ=            -53.8644 YYYX=              8.5064 YYYZ=              0.7259 ZZZX=             -7.6678
 ZZZY=              1.0630 XXYY=           -177.6137 XXZZ=           -148.0736 YYZZ=            -68.8747
 XXYZ=              7.1852 YYXZ=             -0.1853 ZZXY=             -2.5188
 N-N= 3.447478090774D+02 E-N=-1.533874641661D+03  KE= 3.594357908354D+02
 No NMR shielding tensors so no spin-rotation constants.
 Leave Link  601 at Mon Oct 14 00:05:25 2019, MaxMem= 10737418240 cpu:               2.1 elap:               0.1
 (Enter /apps/cent7/gaussian/g16-A.03/g16-haswell/g16/l701.exe)
 ... and contract with generalized density number  0.
 Compute integral first derivatives.
 Leave Link  701 at Mon Oct 14 00:05:26 2019, MaxMem= 10737418240 cpu:               2.5 elap:               0.1
 (Enter /apps/cent7/gaussian/g16-A.03/g16-haswell/g16/l702.exe)
 L702 exits ... SP integral derivatives will be done elsewhere.
 Leave Link  702 at Mon Oct 14 00:05:26 2019, MaxMem= 10737418240 cpu:               0.4 elap:               0.0
 (Enter /apps/cent7/gaussian/g16-A.03/g16-haswell/g16/l703.exe)
 Integral derivatives from FoFJK, PRISM(SPDF).
 Compute integral first derivatives, UseDBF=F ICtDFT=           0.
 Calling FoFJK, ICntrl=      2127 FMM=F ISym2X=0 I1Cent= 0 IOpClX= 0 NMat=1 NMatS=1 NMatT=0.
 FoFJK:  IHMeth= 1 ICntrl=    2127 DoSepK=F KAlg= 0 I1Cent=           0 FoldK=F
 IRaf=         0 NMat=       1 IRICut=       1 DoRegI=T DoRafI=F ISym2E= 0 IDoP0=0 IntGTp=1.
 FoFCou: FMM=F IPFlag=           0 FMFlag=      100000 FMFlg1=         800
         NFxFlg=           0 DoJE=F BraDBF=F KetDBF=F FulRan=T
         wScrn=  0.000000 ICntrl=      2127 IOpCl=  0 I1Cent=           0 NGrid=           0
         NMat0=    1 NMatS0=      1 NMatT0=    0 NMatD0=    1 NMtDS0=    0 NMtDT0=    0
 Symmetry not used in FoFCou.
 Leave Link  703 at Mon Oct 14 00:05:26 2019, MaxMem= 10737418240 cpu:              12.9 elap:               0.6
 (Enter /apps/cent7/gaussian/g16-A.03/g16-haswell/g16/l716.exe)
 Dipole        =-7.09153086D-01-5.13165857D-01 5.44705252D-01
 ***** Axes restored to original set *****
 -------------------------------------------------------------------
 Center     Atomic                   Forces (Hartrees/Bohr)
 Number     Number              X              Y              Z
 -------------------------------------------------------------------
      1        8           0.059822689    0.017113883   -0.044917029
      2        7          -0.058019982    0.004113201    0.029358081
      3        6          -0.008043343   -0.024250875    0.000339245
      4        6           0.001018125   -0.006089945   -0.001532183
      5        6          -0.006440555    0.013475354    0.008996242
      6        6           0.000493541   -0.000934844   -0.001295909
      7        6           0.012468638    0.005157251   -0.006243181
      8        6          -0.009825086   -0.012975987   -0.000027340
      9        1           0.009816627   -0.004483748    0.014365086
     10        1          -0.002642968    0.001085902   -0.001792136
     11        1          -0.002963854    0.001976553    0.002543853
     12        1           0.000109746    0.002709109    0.001338254
     13        1           0.000427390    0.002317132   -0.000755098
     14        1           0.002474987    0.001154632   -0.000420267
     15        1           0.001304046   -0.000367620    0.000042381
 -------------------------------------------------------------------
 Cartesian Forces:  Max     0.059822689 RMS     0.016328943
 Leave Link  716 at Mon Oct 14 00:05:26 2019, MaxMem= 10737418240 cpu:               0.6 elap:               0.0
 (Enter /apps/cent7/gaussian/g16-A.03/g16-haswell/g16/l103.exe)

 GradGradGradGradGradGradGradGradGradGradGradGradGradGradGradGradGradGrad
 Berny optimization.
 FormGI is forming the generalized inverse of G from B-inverse, IUseBI=4.
 GSVD:  received Info=                   1 from GESDD.
 Internal  Forces:  Max     0.076856551 RMS     0.010661987
 Search for a local minimum.
 Step number   1 out of a maximum of   77
 All quantities printed in internal units (Hartrees-Bohrs-Radians)
 RMS Force = .10662D-01 SwitMx=.10000D-02 MixMth= 1
 Mixed Optimization -- RFO/linear search
 Second derivative matrix not updated -- first step.
 ITU=  0
     Eigenvalues ---    0.01919   0.01942   0.01976   0.01987   0.01997
     Eigenvalues ---    0.02004   0.02004   0.02006   0.02031   0.02264
     Eigenvalues ---    0.02359   0.02566   0.16000   0.16000   0.16000
     Eigenvalues ---    0.16000   0.16000   0.16000   0.16000   0.21997
     Eigenvalues ---    0.21998   0.22000   0.23473   0.25000   0.34808
     Eigenvalues ---    0.34808   0.34813   0.34818   0.34819   0.40229
     Eigenvalues ---    0.40487   0.43657   0.44204   0.44490   0.44580
     Eigenvalues ---    0.45979   0.53609   0.55478   0.66113
 RFO step:  Lambda=-1.48605955D-02 EMin= 1.91898365D-02
 Linear search not attempted -- first point.
 Iteration  1 RMS(Cart)=  0.06163164 RMS(Int)=  0.00249651
 Iteration  2 RMS(Cart)=  0.00333707 RMS(Int)=  0.00009420
 Iteration  3 RMS(Cart)=  0.00000917 RMS(Int)=  0.00009392
 Iteration  4 RMS(Cart)=  0.00000000 RMS(Int)=  0.00009392
 ITry= 1 IFail=0 DXMaxC= 2.36D-01 DCOld= 1.00D+10 DXMaxT= 3.00D-01 DXLimC= 3.00D+00 Rises=F
 Variable       Old X    -DE/DX   Delta X   Delta X   Delta X     New X
                                 (Linear)    (Quad)   (Total)
    R1        2.46408   0.07686   0.00000   0.11370   0.11370   2.57777
    R2        1.81410   0.01662   0.00000   0.02917   0.02917   1.84327
    R3        2.56389   0.01976   0.00000   0.03586   0.03586   2.59975
    R4        1.90855   0.00143   0.00000   0.00301   0.00301   1.91156
    R5        2.67491  -0.00933   0.00000  -0.02058  -0.02059   2.65433
    R6        2.66556  -0.00049   0.00000  -0.00056  -0.00058   2.66498
    R7        2.65952  -0.01200   0.00000  -0.02635  -0.02634   2.63318
    R8        2.05988  -0.00357   0.00000  -0.00984  -0.00984   2.05003
    R9        2.65799  -0.00929   0.00000  -0.02070  -0.02068   2.63731
   R10        2.05988  -0.00269   0.00000  -0.00740  -0.00740   2.05248
   R11        2.65750  -0.00862   0.00000  -0.01902  -0.01901   2.63849
   R12        2.05971  -0.00228   0.00000  -0.00627  -0.00627   2.05344
   R13        2.65752  -0.01362   0.00000  -0.02936  -0.02937   2.62815
   R14        2.05980  -0.00251   0.00000  -0.00692  -0.00692   2.05288
   R15        2.05970  -0.00084   0.00000  -0.00230  -0.00230   2.05740
    A1        1.91059  -0.00407   0.00000  -0.02325  -0.02325   1.88734
    A2        2.15804  -0.00735   0.00000  -0.03130  -0.03160   2.12645
    A3        2.02556   0.00474   0.00000   0.02174   0.02144   2.04700
    A4        2.09958   0.00261   0.00000   0.00956   0.00926   2.10884
    A5        2.15457  -0.00790   0.00000  -0.03064  -0.03063   2.12394
    A6        2.05287   0.00838   0.00000   0.03084   0.03085   2.08372
    A7        2.07575  -0.00048   0.00000  -0.00019  -0.00028   2.07547
    A8        2.10321  -0.00250   0.00000  -0.01030  -0.01034   2.09287
    A9        2.09493  -0.00135   0.00000  -0.00970  -0.00968   2.08524
   A10        2.08505   0.00385   0.00000   0.02000   0.02002   2.10507
   A11        2.09252   0.00545   0.00000   0.02188   0.02186   2.11438
   A12        2.09585  -0.00407   0.00000  -0.01863  -0.01865   2.07721
   A13        2.09481  -0.00138   0.00000  -0.00325  -0.00327   2.09155
   A14        2.09549  -0.00403   0.00000  -0.01873  -0.01874   2.07675
   A15        2.09396   0.00217   0.00000   0.01027   0.01027   2.10423
   A16        2.09373   0.00186   0.00000   0.00846   0.00846   2.10220
   A17        2.09300   0.00300   0.00000   0.01263   0.01259   2.10559
   A18        2.09509  -0.00044   0.00000  -0.00023  -0.00021   2.09487
   A19        2.09510  -0.00256   0.00000  -0.01240  -0.01238   2.08272
   A20        2.10577  -0.00143   0.00000  -0.00451  -0.00459   2.10118
   A21        2.09138  -0.00009   0.00000  -0.00233  -0.00230   2.08908
   A22        2.08604   0.00151   0.00000   0.00684   0.00687   2.09291
    D1       -1.87876   0.00465   0.00000   0.11368   0.11360  -1.76516
    D2        1.26284   0.00639   0.00000   0.15875   0.15883   1.42167
    D3       -0.11477   0.00230   0.00000   0.06052   0.06050  -0.05427
    D4        3.02623   0.00276   0.00000   0.07319   0.07312   3.09935
    D5        3.02681   0.00050   0.00000   0.01362   0.01369   3.04050
    D6       -0.11538   0.00095   0.00000   0.02630   0.02631  -0.08907
    D7        3.11633   0.00073   0.00000   0.02110   0.02094   3.13727
    D8       -0.02518   0.00069   0.00000   0.02003   0.01992  -0.00526
    D9       -0.02467   0.00027   0.00000   0.00825   0.00838  -0.01629
   D10        3.11701   0.00023   0.00000   0.00718   0.00735   3.12436
   D11       -3.11358  -0.00107   0.00000  -0.03114  -0.03127   3.13833
   D12        0.02805  -0.00083   0.00000  -0.02466  -0.02486   0.00319
   D13        0.02745  -0.00064   0.00000  -0.01907  -0.01902   0.00842
   D14       -3.11411  -0.00041   0.00000  -0.01258  -0.01261  -3.12671
   D15       -0.00324   0.00044   0.00000   0.01293   0.01298   0.00975
   D16        3.13837   0.00005   0.00000   0.00145   0.00151   3.13988
   D17        3.13827   0.00048   0.00000   0.01399   0.01402  -3.13089
   D18       -0.00330   0.00009   0.00000   0.00252   0.00255  -0.00076
   D19        0.02880  -0.00082   0.00000  -0.02385  -0.02386   0.00494
   D20       -3.11272  -0.00066   0.00000  -0.01948  -0.01958  -3.13229
   D21       -3.11281  -0.00043   0.00000  -0.01238  -0.01229  -3.12510
   D22        0.02886  -0.00027   0.00000  -0.00801  -0.00801   0.02085
   D23       -0.02609   0.00049   0.00000   0.01327   0.01314  -0.01294
   D24        3.11542   0.00062   0.00000   0.01703   0.01689   3.13231
   D25        3.11543   0.00033   0.00000   0.00890   0.00887   3.12429
   D26       -0.02625   0.00046   0.00000   0.01267   0.01261  -0.01364
   D27       -0.00230   0.00034   0.00000   0.00873   0.00857   0.00627
   D28        3.13926   0.00010   0.00000   0.00227   0.00213   3.14139
   D29        3.13938   0.00020   0.00000   0.00496   0.00485  -3.13896
   D30       -0.00225  -0.00003   0.00000  -0.00150  -0.00159  -0.00384
         Item               Value     Threshold  Converged?
 Maximum Force            0.076857     0.000450     NO 
 RMS     Force            0.010662     0.000300     NO 
 Maximum Displacement     0.236215     0.001800     NO 
 RMS     Displacement     0.062763     0.001200     NO 
 Predicted change in Energy=-8.007949D-03
 Lowest energy point so far.  Saving SCF results.
 GradGradGradGradGradGradGradGradGradGradGradGradGradGradGradGradGradGrad

 Leave Link  103 at Mon Oct 14 00:05:26 2019, MaxMem= 10737418240 cpu:               0.9 elap:               0.1
 (Enter /apps/cent7/gaussian/g16-A.03/g16-haswell/g16/l202.exe)
                          Input orientation:                          
 ---------------------------------------------------------------------
 Center     Atomic      Atomic             Coordinates (Angstroms)
 Number     Number       Type             X           Y           Z
 ---------------------------------------------------------------------
      1          8           0        1.434699    0.270900   -0.226881
      2          7           0        0.201807    0.035476    0.307267
      3          6           0       -0.387220   -1.206616    0.253525
      4          6           0        0.221688   -2.283954   -0.410931
      5          6           0       -0.405677   -3.527862   -0.437904
      6          6           0       -1.642866   -3.725784    0.176829
      7          6           0       -2.257310   -2.651047    0.822466
      8          6           0       -1.641226   -1.405004    0.867457
      9          1           0        2.084584    0.277100    0.500475
     10          1           0       -0.285922    0.823361    0.712979
     11          1           0        1.178772   -2.137239   -0.900136
     12          1           0        0.077426   -4.350390   -0.957261
     13          1           0       -2.119632   -4.702047    0.157401
     14          1           0       -3.224425   -2.784034    1.299052
     15          1           0       -2.131102   -0.575062    1.373961
 ---------------------------------------------------------------------
                    Distance matrix (angstroms):
                    1          2          3          4          5
     1  O    0.000000
     2  N    1.364098   0.000000
     3  C    2.394417   1.375731   0.000000
     4  C    2.834175   2.428160   1.404609   0.000000
     5  C    4.226358   3.690758   2.422105   1.393420   0.000000
     6  C    5.060422   4.191290   2.815801   2.429176   1.395603
     7  C    4.823882   3.678327   2.430496   2.793109   2.405386
     8  C    3.669816   2.405321   1.410249   2.424310   2.781559
     9  H    0.975416   1.908025   2.893478   3.295458   4.643241
    10  H    2.036931   1.011555   2.083787   3.343090   4.502445
    11  H    2.513544   2.670763   2.156229   1.084830   2.158232
    12  H    4.871546   4.566215   3.400766   2.142298   1.086127
    13  H    6.124634   5.277847   3.902374   3.413496   2.161190
    14  H    5.776550   4.546684   3.410440   3.879409   3.393470
    15  H    3.999161   2.636865   2.166879   3.412005   3.870268
                    6          7          8          9         10
     6  C    0.000000
     7  C    1.396226   0.000000
     8  C    2.421361   1.390757   0.000000
     9  H    5.479207   5.246881   4.104365   0.000000
    10  H    4.777392   3.996232   2.612724   2.441896   0.000000
    11  H    3.412472   3.877888   3.407777   2.934491   3.675952
    12  H    2.153067   3.392077   3.867642   5.250460   5.448800
    13  H    1.086634   2.160525   3.406397   6.525721   5.848187
    14  H    2.155831   1.086338   2.143482   6.180116   4.689518
    15  H    3.405664   2.151695   1.088728   4.388755   2.407732
                   11         12         13         14         15
    11  H    0.000000
    12  H    2.472703   0.000000
    13  H    4.309999   2.488614   0.000000
    14  H    4.964163   4.294955   2.490524   0.000000
    15  H    4.308966   4.956339   4.302576   2.465871   0.000000
 Stoichiometry    C6H7NO
 Framework group  C1[X(C6H7NO)]
 Deg. of freedom    39
 Full point group                 C1      NOp   1
 RotChk:  IX=0 Diff= 3.02D-02
 Largest Abelian subgroup         C1      NOp   1
 Largest concise Abelian subgroup C1      NOp   1
                         Standard orientation:                         
 ---------------------------------------------------------------------
 Center     Atomic      Atomic             Coordinates (Angstroms)
 Number     Number       Type             X           Y           Z
 ---------------------------------------------------------------------
      1          8           0       -2.765871    0.411614   -0.033230
      2          7           0       -1.806432   -0.557845   -0.052938
      3          6           0       -0.465334   -0.252253   -0.026353
      4          6           0       -0.010852    1.076701   -0.042265
      5          6           0        1.356289    1.343986   -0.009042
      6          6           0        2.293159    0.310270    0.028525
      7          6           0        1.842962   -1.011383    0.026551
      8          6           0        0.481955   -1.296556    0.003274
      9          1           0       -3.117942    0.471959    0.874426
     10          1           0       -2.118085   -1.517204   -0.128755
     11          1           0       -0.731316    1.886801   -0.081335
     12          1           0        1.691632    2.376946   -0.023547
     13          1           0        3.356872    0.529598    0.062943
     14          1           0        2.557752   -1.829184    0.046733
     15          1           0        0.144004   -2.331503    0.001801
 ---------------------------------------------------------------------
 Rotational constants (GHZ):           5.1119481           1.5042408           1.1670048
 Leave Link  202 at Mon Oct 14 00:05:26 2019, MaxMem= 10737418240 cpu:               0.2 elap:               0.0
 (Enter /apps/cent7/gaussian/g16-A.03/g16-haswell/g16/l301.exe)
 Standard basis: 6-31G(d) (6D, 7F)
 Ernie: Thresh=  0.10000D-02 Tol=  0.10000D-05 Strict=F.
 There are   134 symmetry adapted cartesian basis functions of A   symmetry.
 There are   134 symmetry adapted basis functions of A   symmetry.
   134 basis functions,   252 primitive gaussians,   134 cartesian basis functions
    29 alpha electrons       29 beta electrons
       nuclear repulsion energy       344.2899093024 Hartrees.
 IExCor=  402 DFT=T Ex+Corr=B3LYP ExCW=0 ScaHFX=  0.200000
 ScaDFX=  0.800000  0.720000  1.000000  0.810000 ScalE2=  1.000000  1.000000
 IRadAn=      5 IRanWt=     -1 IRanGd=            0 ICorTp=0 IEmpDi=  4
 NAtoms=   15 NActive=   15 NUniq=   15 SFac= 1.00D+00 NAtFMM=   60 NAOKFM=F Big=F
 Integral buffers will be    131072 words long.
 Raffenetti 2 integral format.
 Two-electron integral symmetry is turned on.
 Leave Link  301 at Mon Oct 14 00:05:27 2019, MaxMem= 10737418240 cpu:               1.2 elap:               0.1
 (Enter /apps/cent7/gaussian/g16-A.03/g16-haswell/g16/l302.exe)
 NPDir=0 NMtPBC=     1 NCelOv=     1 NCel=       1 NClECP=     1 NCelD=      1
         NCelK=      1 NCelE2=     1 NClLst=     1 CellRange=     0.0.
 One-electron integrals computed using PRISM.
 One-electron integral symmetry used in STVInt
 NBasis=   134 RedAO= T EigKep=  4.68D-04  NBF=   134
 NBsUse=   134 1.00D-06 EigRej= -1.00D+00 NBFU=   134
 Precomputing XC quadrature grid using
 IXCGrd= 4 IRadAn=           5 IRanWt=          -1 IRanGd=           0 AccXCQ= 0.00D+00.
 Generated NRdTot=       0 NPtTot=           0 NUsed=           0 NTot=          32
 NSgBfM=   134   134   134   134   134 MxSgAt=    15 MxSgA2=    15.
 Leave Link  302 at Mon Oct 14 00:05:27 2019, MaxMem= 10737418240 cpu:               2.8 elap:               0.1
 (Enter /apps/cent7/gaussian/g16-A.03/g16-haswell/g16/l303.exe)
 DipDrv:  MaxL=1.
 Leave Link  303 at Mon Oct 14 00:05:27 2019, MaxMem= 10737418240 cpu:               0.5 elap:               0.0
 (Enter /apps/cent7/gaussian/g16-A.03/g16-haswell/g16/l401.exe)
 Initial guess from the checkpoint file:  "10.chk"
 B after Tr=     0.000000    0.000000    0.000000
         Rot=    0.999953    0.003535   -0.000347   -0.008972 Ang=   1.11 deg.
 Guess basis will be translated and rotated to current coordinates.
 JPrj=2 DoOrth=T DoCkMO=T.
 Generating alternative initial guess.
 ExpMin= 1.61D-01 ExpMax= 5.48D+03 ExpMxC= 8.25D+02 IAcc=2 IRadAn=         4 AccDes= 0.00D+00
 Harris functional with IExCor=  402 and IRadAn=       4 diagonalized for initial guess.
 HarFok:  IExCor=  402 AccDes= 0.00D+00 IRadAn=         4 IDoV= 1 UseB2=F ITyADJ=14
 ICtDFT=  3500011 ScaDFX=  1.000000  1.000000  1.000000  1.000000
 FoFCou: FMM=F IPFlag=           0 FMFlag=      100000 FMFlg1=           0
         NFxFlg=           0 DoJE=T BraDBF=F KetDBF=T FulRan=T
         wScrn=  0.000000 ICntrl=       500 IOpCl=  0 I1Cent=   200000004 NGrid=           0
         NMat0=    1 NMatS0=      1 NMatT0=    0 NMatD0=    1 NMtDS0=    0 NMtDT0=    0
 Petite list used in FoFCou.
 Harris En= -362.776994172305    
 Leave Link  401 at Mon Oct 14 00:05:27 2019, MaxMem= 10737418240 cpu:               6.0 elap:               0.3
 (Enter /apps/cent7/gaussian/g16-A.03/g16-haswell/g16/l502.exe)
 Integral symmetry usage will be decided dynamically.
 Closed shell SCF:
 Using DIIS extrapolation, IDIIS=  1040.
 NGot= 10737418240 LenX= 10737377521 LenY= 10737359124
 Requested convergence on RMS density matrix=1.00D-08 within 128 cycles.
 Requested convergence on MAX density matrix=1.00D-06.
 Requested convergence on             energy=1.00D-06.
 No special actions if energy rises.
 Fock matrices will be formed incrementally for  20 cycles.
 Integral accuracy reduced to 1.0D-05 until final iterations.

 Cycle   1  Pass 0  IDiag  1:
 FoFJK:  IHMeth= 1 ICntrl=       0 DoSepK=F KAlg= 0 I1Cent=           0 FoldK=F
 IRaf= 960000000 NMat=       1 IRICut=       1 DoRegI=T DoRafI=F ISym2E= 0 IDoP0=0 IntGTp=1.
 FoFCou: FMM=F IPFlag=           0 FMFlag=      100000 FMFlg1=           0
         NFxFlg=           0 DoJE=F BraDBF=F KetDBF=F FulRan=T
         wScrn=  0.000000 ICntrl=         0 IOpCl=  0 I1Cent=           0 NGrid=           0
         NMat0=    1 NMatS0=      1 NMatT0=    0 NMatD0=    1 NMtDS0=    0 NMtDT0=    0
 Symmetry not used in FoFCou.
 E= -362.741706178458    
 DIIS: error= 4.05D-03 at cycle   1 NSaved=   1.
 NSaved= 1 IEnMin= 1 EnMin= -362.741706178458     IErMin= 1 ErrMin= 4.05D-03
 ErrMax= 4.05D-03  0.00D+00 EMaxC= 1.00D-01 BMatC= 5.04D-03 BMatP= 5.04D-03
 IDIUse=3 WtCom= 9.59D-01 WtEn= 4.05D-02
 Coeff-Com:  0.100D+01
 Coeff-En:   0.100D+01
 Coeff:      0.100D+01
 Gap=     1.877 Goal=   None    Shift=    0.000
 GapD=    1.877 DampG=2.000 DampE=1.000 DampFc=2.0000 IDamp=-1.
 RMSDP=8.93D-04 MaxDP=2.13D-02              OVMax= 3.15D-02

 Cycle   2  Pass 0  IDiag  1:
 RMSU=  8.93D-04    CP:  1.00D+00
 E= -362.749838148504     Delta-E=       -0.008131970046 Rises=F Damp=F
 DIIS: error= 1.20D-03 at cycle   2 NSaved=   2.
 NSaved= 2 IEnMin= 2 EnMin= -362.749838148504     IErMin= 2 ErrMin= 1.20D-03
 ErrMax= 1.20D-03  0.00D+00 EMaxC= 1.00D-01 BMatC= 3.02D-04 BMatP= 5.04D-03
 IDIUse=3 WtCom= 9.88D-01 WtEn= 1.20D-02
 Coeff-Com:  0.450D-01 0.955D+00
 Coeff-En:   0.000D+00 0.100D+01
 Coeff:      0.445D-01 0.956D+00
 Gap=     0.201 Goal=   None    Shift=    0.000
 RMSDP=2.83D-04 MaxDP=6.52D-03 DE=-8.13D-03 OVMax= 1.06D-02

 Cycle   3  Pass 0  IDiag  1:
 RMSU=  2.80D-04    CP:  1.00D+00  1.04D+00
 E= -362.749733764574     Delta-E=        0.000104383930 Rises=F Damp=F
 DIIS: error= 1.58D-03 at cycle   3 NSaved=   3.
 NSaved= 3 IEnMin= 2 EnMin= -362.749838148504     IErMin= 2 ErrMin= 1.20D-03
 ErrMax= 1.58D-03  0.00D+00 EMaxC= 1.00D-01 BMatC= 4.83D-04 BMatP= 3.02D-04
 IDIUse=3 WtCom= 2.01D-01 WtEn= 7.99D-01
 Coeff-Com: -0.415D-01 0.576D+00 0.466D+00
 Coeff-En:   0.000D+00 0.573D+00 0.427D+00
 Coeff:     -0.833D-02 0.573D+00 0.435D+00
 Gap=     0.198 Goal=   None    Shift=    0.000
 RMSDP=1.63D-04 MaxDP=4.13D-03 DE= 1.04D-04 OVMax= 6.85D-03

 Cycle   4  Pass 0  IDiag  1:
 RMSU=  6.05D-05    CP:  1.00D+00  1.07D+00  4.71D-01
 E= -362.750140922736     Delta-E=       -0.000407158162 Rises=F Damp=F
 DIIS: error= 1.17D-04 at cycle   4 NSaved=   4.
 NSaved= 4 IEnMin= 4 EnMin= -362.750140922736     IErMin= 4 ErrMin= 1.17D-04
 ErrMax= 1.17D-04  0.00D+00 EMaxC= 1.00D-01 BMatC= 2.10D-06 BMatP= 3.02D-04
 IDIUse=3 WtCom= 9.99D-01 WtEn= 1.17D-03
 Coeff-Com: -0.127D-01 0.129D+00 0.125D+00 0.759D+00
 Coeff-En:   0.000D+00 0.000D+00 0.000D+00 0.100D+01
 Coeff:     -0.127D-01 0.129D+00 0.125D+00 0.759D+00
 Gap=     0.199 Goal=   None    Shift=    0.000
 RMSDP=2.35D-05 MaxDP=5.24D-04 DE=-4.07D-04 OVMax= 1.30D-03

 Cycle   5  Pass 0  IDiag  1:
 RMSU=  2.00D-05    CP:  1.00D+00  1.08D+00  4.93D-01  8.60D-01
 E= -362.750141917708     Delta-E=       -0.000000994972 Rises=F Damp=F
 DIIS: error= 7.40D-05 at cycle   5 NSaved=   5.
 NSaved= 5 IEnMin= 5 EnMin= -362.750141917708     IErMin= 5 ErrMin= 7.40D-05
 ErrMax= 7.40D-05  0.00D+00 EMaxC= 1.00D-01 BMatC= 1.56D-06 BMatP= 2.10D-06
 IDIUse=1 WtCom= 1.00D+00 WtEn= 0.00D+00
 Coeff-Com: -0.429D-02 0.233D-01 0.338D-01 0.477D+00 0.470D+00
 Coeff:     -0.429D-02 0.233D-01 0.338D-01 0.477D+00 0.470D+00
 Gap=     0.198 Goal=   None    Shift=    0.000
 RMSDP=1.12D-05 MaxDP=2.29D-04 DE=-9.95D-07 OVMax= 6.27D-04

 Cycle   6  Pass 0  IDiag  1:
 RMSU=  6.81D-06    CP:  1.00D+00  1.08D+00  4.94D-01  9.36D-01  6.24D-01
 E= -362.750143393446     Delta-E=       -0.000001475738 Rises=F Damp=F
 DIIS: error= 2.30D-05 at cycle   6 NSaved=   6.
 NSaved= 6 IEnMin= 6 EnMin= -362.750143393446     IErMin= 6 ErrMin= 2.30D-05
 ErrMax= 2.30D-05  0.00D+00 EMaxC= 1.00D-01 BMatC= 9.63D-08 BMatP= 1.56D-06
 IDIUse=1 WtCom= 1.00D+00 WtEn= 0.00D+00
 Coeff-Com: -0.171D-03-0.831D-02-0.236D-02 0.138D+00 0.238D+00 0.635D+00
 Coeff:     -0.171D-03-0.831D-02-0.236D-02 0.138D+00 0.238D+00 0.635D+00
 Gap=     0.198 Goal=   None    Shift=    0.000
 RMSDP=3.18D-06 MaxDP=5.53D-05 DE=-1.48D-06 OVMax= 1.50D-04

 Initial convergence to 1.0D-05 achieved.  Increase integral accuracy.
 Cycle   7  Pass 1  IDiag  1:
 E= -362.750133570266     Delta-E=        0.000009823180 Rises=F Damp=F
 DIIS: error= 9.48D-06 at cycle   1 NSaved=   1.
 NSaved= 1 IEnMin= 1 EnMin= -362.750133570266     IErMin= 1 ErrMin= 9.48D-06
 ErrMax= 9.48D-06  0.00D+00 EMaxC= 1.00D-01 BMatC= 1.66D-08 BMatP= 1.66D-08
 IDIUse=1 WtCom= 1.00D+00 WtEn= 0.00D+00
 Coeff-Com:  0.100D+01
 Coeff:      0.100D+01
 Gap=     0.198 Goal=   None    Shift=    0.000
 RMSDP=3.18D-06 MaxDP=5.53D-05 DE= 9.82D-06 OVMax= 1.33D-04

 Cycle   8  Pass 1  IDiag  1:
 RMSU=  3.92D-06    CP:  1.00D+00
 E= -362.750133553508     Delta-E=        0.000000016758 Rises=F Damp=F
 DIIS: error= 1.75D-05 at cycle   2 NSaved=   2.
 NSaved= 2 IEnMin= 1 EnMin= -362.750133570266     IErMin= 1 ErrMin= 9.48D-06
 ErrMax= 1.75D-05  0.00D+00 EMaxC= 1.00D-01 BMatC= 2.99D-08 BMatP= 1.66D-08
 IDIUse=1 WtCom= 1.00D+00 WtEn= 0.00D+00
 Coeff-Com:  0.583D+00 0.417D+00
 Coeff:      0.583D+00 0.417D+00
 Gap=     0.198 Goal=   None    Shift=    0.000
 RMSDP=1.66D-06 MaxDP=3.18D-05 DE= 1.68D-08 OVMax= 1.02D-04

 Cycle   9  Pass 1  IDiag  1:
 RMSU=  1.46D-06    CP:  1.00D+00  8.00D-01
 E= -362.750133585168     Delta-E=       -0.000000031660 Rises=F Damp=F
 DIIS: error= 4.03D-06 at cycle   3 NSaved=   3.
 NSaved= 3 IEnMin= 3 EnMin= -362.750133585168     IErMin= 3 ErrMin= 4.03D-06
 ErrMax= 4.03D-06  0.00D+00 EMaxC= 1.00D-01 BMatC= 1.63D-09 BMatP= 1.66D-08
 IDIUse=1 WtCom= 1.00D+00 WtEn= 0.00D+00
 Coeff-Com:  0.136D+00 0.204D+00 0.660D+00
 Coeff:      0.136D+00 0.204D+00 0.660D+00
 Gap=     0.198 Goal=   None    Shift=    0.000
 RMSDP=4.60D-07 MaxDP=9.41D-06 DE=-3.17D-08 OVMax= 2.43D-05

 Cycle  10  Pass 1  IDiag  1:
 RMSU=  3.37D-07    CP:  1.00D+00  8.37D-01  8.11D-01
 E= -362.750133586612     Delta-E=       -0.000000001443 Rises=F Damp=F
 DIIS: error= 9.71D-07 at cycle   4 NSaved=   4.
 NSaved= 4 IEnMin= 4 EnMin= -362.750133586612     IErMin= 4 ErrMin= 9.71D-07
 ErrMax= 9.71D-07  0.00D+00 EMaxC= 1.00D-01 BMatC= 3.89D-10 BMatP= 1.63D-09
 IDIUse=1 WtCom= 1.00D+00 WtEn= 0.00D+00
 Coeff-Com: -0.177D-02 0.633D-01 0.397D+00 0.541D+00
 Coeff:     -0.177D-02 0.633D-01 0.397D+00 0.541D+00
 Gap=     0.198 Goal=   None    Shift=    0.000
 RMSDP=1.62D-07 MaxDP=3.59D-06 DE=-1.44D-09 OVMax= 8.50D-06

 Cycle  11  Pass 1  IDiag  1:
 RMSU=  4.87D-08    CP:  1.00D+00  8.37D-01  8.51D-01  5.75D-01
 E= -362.750133586993     Delta-E=       -0.000000000382 Rises=F Damp=F
 DIIS: error= 1.63D-07 at cycle   5 NSaved=   5.
 NSaved= 5 IEnMin= 5 EnMin= -362.750133586993     IErMin= 5 ErrMin= 1.63D-07
 ErrMax= 1.63D-07  0.00D+00 EMaxC= 1.00D-01 BMatC= 1.17D-11 BMatP= 3.89D-10
 IDIUse=1 WtCom= 1.00D+00 WtEn= 0.00D+00
 Coeff-Com: -0.392D-02 0.308D-01 0.207D+00 0.304D+00 0.463D+00
 Coeff:     -0.392D-02 0.308D-01 0.207D+00 0.304D+00 0.463D+00
 Gap=     0.198 Goal=   None    Shift=    0.000
 RMSDP=2.52D-08 MaxDP=6.99D-07 DE=-3.82D-10 OVMax= 1.14D-06

 Cycle  12  Pass 1  IDiag  1:
 RMSU=  1.60D-08    CP:  1.00D+00  8.38D-01  8.49D-01  5.69D-01  6.12D-01
 E= -362.750133587006     Delta-E=       -0.000000000013 Rises=F Damp=F
 DIIS: error= 2.64D-08 at cycle   6 NSaved=   6.
 NSaved= 6 IEnMin= 6 EnMin= -362.750133587006     IErMin= 6 ErrMin= 2.64D-08
 ErrMax= 2.64D-08  0.00D+00 EMaxC= 1.00D-01 BMatC= 2.22D-13 BMatP= 1.17D-11
 IDIUse=1 WtCom= 1.00D+00 WtEn= 0.00D+00
 Coeff-Com: -0.125D-02 0.574D-02 0.397D-01 0.629D-01 0.158D+00 0.735D+00
 Coeff:     -0.125D-02 0.574D-02 0.397D-01 0.629D-01 0.158D+00 0.735D+00
 Gap=     0.198 Goal=   None    Shift=    0.000
 RMSDP=4.88D-09 MaxDP=1.31D-07 DE=-1.31D-11 OVMax= 1.73D-07

 SCF Done:  E(RB3LYP) =  -362.750133587     A.U. after   12 cycles
            NFock= 12  Conv=0.49D-08     -V/T= 2.0093
 KE= 3.593903913999D+02 PE=-1.533011641273D+03 EE= 4.665812069833D+02
 Leave Link  502 at Mon Oct 14 00:05:29 2019, MaxMem= 10737418240 cpu:              44.5 elap:               1.9
 (Enter /apps/cent7/gaussian/g16-A.03/g16-haswell/g16/l701.exe)
 ... and contract with generalized density number  0.
 Compute integral first derivatives.
 Leave Link  701 at Mon Oct 14 00:05:29 2019, MaxMem= 10737418240 cpu:               2.3 elap:               0.1
 (Enter /apps/cent7/gaussian/g16-A.03/g16-haswell/g16/l702.exe)
 L702 exits ... SP integral derivatives will be done elsewhere.
 Leave Link  702 at Mon Oct 14 00:05:29 2019, MaxMem= 10737418240 cpu:               0.5 elap:               0.0
 (Enter /apps/cent7/gaussian/g16-A.03/g16-haswell/g16/l703.exe)
 Integral derivatives from FoFJK, PRISM(SPDF).
 Compute integral first derivatives, UseDBF=F ICtDFT=           0.
 Calling FoFJK, ICntrl=      2127 FMM=F ISym2X=0 I1Cent= 0 IOpClX= 0 NMat=1 NMatS=1 NMatT=0.
 FoFJK:  IHMeth= 1 ICntrl=    2127 DoSepK=F KAlg= 0 I1Cent=           0 FoldK=F
 IRaf=         0 NMat=       1 IRICut=       1 DoRegI=T DoRafI=F ISym2E= 0 IDoP0=0 IntGTp=1.
 FoFCou: FMM=F IPFlag=           0 FMFlag=      100000 FMFlg1=         800
         NFxFlg=           0 DoJE=F BraDBF=F KetDBF=F FulRan=T
         wScrn=  0.000000 ICntrl=      2127 IOpCl=  0 I1Cent=           0 NGrid=           0
         NMat0=    1 NMatS0=      1 NMatT0=    0 NMatD0=    1 NMtDS0=    0 NMtDT0=    0
 Symmetry not used in FoFCou.
 Leave Link  703 at Mon Oct 14 00:05:30 2019, MaxMem= 10737418240 cpu:              12.9 elap:               0.6
 (Enter /apps/cent7/gaussian/g16-A.03/g16-haswell/g16/l716.exe)
 Dipole        =-5.99288379D-01-4.56814081D-01 5.68441079D-01
 ***** Axes restored to original set *****
 -------------------------------------------------------------------
 Center     Atomic                   Forces (Hartrees/Bohr)
 Number     Number              X              Y              Z
 -------------------------------------------------------------------
      1        8           0.013004664    0.008665798   -0.012968061
      2        7          -0.016249803   -0.001378130    0.015159593
      3        6          -0.000892189   -0.005240407   -0.001557002
      4        6           0.002501632   -0.001470019   -0.000205562
      5        6          -0.001143647    0.000897380    0.000643996
      6        6          -0.000391337   -0.002518988   -0.000245011
      7        6           0.001459230    0.000288787   -0.000584687
      8        6          -0.000387976    0.002392207   -0.000123024
      9        1          -0.001755364   -0.004329996    0.003185414
     10        1           0.003602889    0.001762208   -0.003748191
     11        1          -0.000510904    0.000548153    0.000355652
     12        1           0.000738851   -0.000525503   -0.000167284
     13        1          -0.000036927    0.000466205   -0.000479279
     14        1          -0.000363401    0.000368872    0.000548406
     15        1           0.000424280    0.000073432    0.000185042
 -------------------------------------------------------------------
 Cartesian Forces:  Max     0.016249803 RMS     0.004783575
 Leave Link  716 at Mon Oct 14 00:05:30 2019, MaxMem= 10737418240 cpu:               0.5 elap:               0.0
 (Enter /apps/cent7/gaussian/g16-A.03/g16-haswell/g16/l103.exe)

 GradGradGradGradGradGradGradGradGradGradGradGradGradGradGradGradGradGrad
 Berny optimization.
 Using GEDIIS/GDIIS optimizer.
 FormGI is forming the generalized inverse of G from B-inverse, IUseBI=4.
 Internal  Forces:  Max     0.014747017 RMS     0.002399459
 Search for a local minimum.
 Step number   2 out of a maximum of   77
 All quantities printed in internal units (Hartrees-Bohrs-Radians)
 RMS Force = .23995D-02 SwitMx=.10000D-02 MixMth= 1
 Mixed Optimization -- RFO/linear search
 Update second derivatives using D2CorX and points    1    2
 DE= -8.79D-03 DEPred=-8.01D-03 R= 1.10D+00
 TightC=F SS=  1.41D+00  RLast= 2.79D-01 DXNew= 5.0454D-01 8.3704D-01
 Trust test= 1.10D+00 RLast= 2.79D-01 DXMaxT set to 5.05D-01
 ITU=  1  0
 Use linear search instead of GDIIS.
     Eigenvalues ---    0.01924   0.01942   0.01976   0.01993   0.01996
     Eigenvalues ---    0.02003   0.02004   0.02006   0.02036   0.02240
     Eigenvalues ---    0.02330   0.02476   0.15165   0.15998   0.15999
     Eigenvalues ---    0.16000   0.16000   0.16000   0.16212   0.21784
     Eigenvalues ---    0.22001   0.22084   0.23459   0.25519   0.34779
     Eigenvalues ---    0.34811   0.34816   0.34819   0.34899   0.40205
     Eigenvalues ---    0.40472   0.43765   0.44278   0.44544   0.45559
     Eigenvalues ---    0.46271   0.52805   0.55717   0.59480
 RFO step:  Lambda=-2.58334889D-03 EMin= 1.92355331D-02
 Quartic linear search produced a step of  0.32184.
 Iteration  1 RMS(Cart)=  0.04803822 RMS(Int)=  0.00455728
 Iteration  2 RMS(Cart)=  0.00520779 RMS(Int)=  0.00035636
 Iteration  3 RMS(Cart)=  0.00005110 RMS(Int)=  0.00035279
 Iteration  4 RMS(Cart)=  0.00000001 RMS(Int)=  0.00035279
 ITry= 1 IFail=0 DXMaxC= 2.58D-01 DCOld= 1.00D+10 DXMaxT= 5.05D-01 DXLimC= 3.00D+00 Rises=F
 Variable       Old X    -DE/DX   Delta X   Delta X   Delta X     New X
                                 (Linear)    (Quad)   (Total)
    R1        2.57777   0.01475   0.03659   0.00507   0.04166   2.61943
    R2        1.84327   0.00118   0.00939  -0.00337   0.00602   1.84928
    R3        2.59975   0.00373   0.01154   0.00152   0.01306   2.61282
    R4        1.91156  -0.00187   0.00097  -0.00593  -0.00496   1.90661
    R5        2.65433   0.00109  -0.00663   0.00752   0.00090   2.65522
    R6        2.66498  -0.00137  -0.00019  -0.00406  -0.00425   2.66073
    R7        2.63318   0.00039  -0.00848   0.00672  -0.00175   2.63143
    R8        2.05003  -0.00054  -0.00317   0.00003  -0.00314   2.04690
    R9        2.63731   0.00029  -0.00666   0.00528  -0.00137   2.63594
   R10        2.05248   0.00081  -0.00238   0.00455   0.00217   2.05465
   R11        2.63849   0.00145  -0.00612   0.00828   0.00217   2.64065
   R12        2.05344  -0.00039  -0.00202  -0.00017  -0.00219   2.05125
   R13        2.62815   0.00043  -0.00945   0.00733  -0.00212   2.62603
   R14        2.05288   0.00052  -0.00223   0.00337   0.00115   2.05403
   R15        2.05740  -0.00005  -0.00074   0.00029  -0.00045   2.05695
    A1        1.88734  -0.00766  -0.00748  -0.05716  -0.06464   1.82270
    A2        2.12645  -0.00218  -0.01017  -0.00712  -0.01846   2.10799
    A3        2.04700  -0.00343   0.00690  -0.03528  -0.02947   2.01753
    A4        2.10884   0.00555   0.00298   0.03956   0.04127   2.15011
    A5        2.12394   0.00030  -0.00986   0.00792  -0.00193   2.12201
    A6        2.08372  -0.00134   0.00993  -0.01308  -0.00314   2.08057
    A7        2.07547   0.00104  -0.00009   0.00531   0.00513   2.08060
    A8        2.09287  -0.00041  -0.00333  -0.00018  -0.00357   2.08931
    A9        2.08524  -0.00044  -0.00312  -0.00217  -0.00527   2.07997
   A10        2.10507   0.00085   0.00644   0.00235   0.00881   2.11388
   A11        2.11438   0.00019   0.00703  -0.00278   0.00421   2.11858
   A12        2.07721  -0.00039  -0.00600   0.00052  -0.00547   2.07174
   A13        2.09155   0.00020  -0.00105   0.00230   0.00126   2.09281
   A14        2.07675  -0.00087  -0.00603  -0.00081  -0.00688   2.06987
   A15        2.10423   0.00038   0.00330  -0.00020   0.00313   2.10735
   A16        2.10220   0.00049   0.00272   0.00101   0.00375   2.10595
   A17        2.10559   0.00099   0.00405   0.00348   0.00748   2.11307
   A18        2.09487   0.00002  -0.00007   0.00125   0.00121   2.09608
   A19        2.08272  -0.00102  -0.00398  -0.00473  -0.00869   2.07403
   A20        2.10118  -0.00094  -0.00148  -0.00476  -0.00631   2.09486
   A21        2.08908   0.00013  -0.00074   0.00059  -0.00012   2.08896
   A22        2.09291   0.00080   0.00221   0.00421   0.00645   2.09936
    D1       -1.76516   0.00252   0.03656   0.09948   0.13727  -1.62789
    D2        1.42167   0.00388   0.05112   0.16988   0.21977   1.64145
    D3       -0.05427   0.00177   0.01947   0.08384   0.10383   0.04956
    D4        3.09935   0.00153   0.02353   0.06958   0.09361  -3.09022
    D5        3.04050   0.00012   0.00441   0.00901   0.01292   3.05342
    D6       -0.08907  -0.00011   0.00847  -0.00524   0.00271  -0.08636
    D7        3.13727   0.00004   0.00674   0.00089   0.00758  -3.13834
    D8       -0.00526  -0.00009   0.00641  -0.00655  -0.00013  -0.00539
    D9       -0.01629   0.00026   0.00270   0.01496   0.01773   0.00145
   D10        3.12436   0.00013   0.00237   0.00752   0.01003   3.13439
   D11        3.13833   0.00001  -0.01007   0.00205  -0.00804   3.13029
   D12        0.00319  -0.00009  -0.00800  -0.00420  -0.01226  -0.00907
   D13        0.00842  -0.00022  -0.00612  -0.01183  -0.01796  -0.00953
   D14       -3.12671  -0.00032  -0.00406  -0.01808  -0.02218   3.13429
   D15        0.00975  -0.00007   0.00418  -0.00473  -0.00047   0.00928
   D16        3.13988  -0.00001   0.00049  -0.00073  -0.00019   3.13969
   D17       -3.13089   0.00006   0.00451   0.00280   0.00739  -3.12350
   D18       -0.00076   0.00012   0.00082   0.00680   0.00768   0.00692
   D19        0.00494  -0.00019  -0.00768  -0.00896  -0.01660  -0.01166
   D20       -3.13229  -0.00021  -0.00630  -0.01055  -0.01687   3.13402
   D21       -3.12510  -0.00024  -0.00396  -0.01298  -0.01685   3.14124
   D22        0.02085  -0.00026  -0.00258  -0.01457  -0.01712   0.00374
   D23       -0.01294   0.00022   0.00423   0.01214   0.01631   0.00337
   D24        3.13231   0.00022   0.00544   0.01121   0.01656  -3.13431
   D25        3.12429   0.00024   0.00285   0.01372   0.01658   3.14087
   D26       -0.01364   0.00024   0.00406   0.01279   0.01683   0.00319
   D27        0.00627  -0.00002   0.00276  -0.00176   0.00089   0.00716
   D28        3.14139   0.00008   0.00069   0.00449   0.00512  -3.13668
   D29       -3.13896  -0.00001   0.00156  -0.00083   0.00066  -3.13830
   D30       -0.00384   0.00009  -0.00051   0.00543   0.00489   0.00105
         Item               Value     Threshold  Converged?
 Maximum Force            0.014747     0.000450     NO 
 RMS     Force            0.002399     0.000300     NO 
 Maximum Displacement     0.257545     0.001800     NO 
 RMS     Displacement     0.051994     0.001200     NO 
 Predicted change in Energy=-1.418762D-03
 Lowest energy point so far.  Saving SCF results.
 GradGradGradGradGradGradGradGradGradGradGradGradGradGradGradGradGradGrad

 Leave Link  103 at Mon Oct 14 00:05:30 2019, MaxMem= 10737418240 cpu:               0.6 elap:               0.1
 (Enter /apps/cent7/gaussian/g16-A.03/g16-haswell/g16/l202.exe)
                          Input orientation:                          
 ---------------------------------------------------------------------
 Center     Atomic      Atomic             Coordinates (Angstroms)
 Number     Number       Type             X           Y           Z
 ---------------------------------------------------------------------
      1          8           0        1.397947    0.302507   -0.288962
      2          7           0        0.190292    0.049794    0.342780
      3          6           0       -0.393983   -1.201641    0.277708
      4          6           0        0.235533   -2.274613   -0.375515
      5          6           0       -0.390142   -3.517801   -0.420851
[...]
 ! D30   D(14,7,8,15)            0.5207         -DE/DX =    0.0                 !
 --------------------------------------------------------------------------------
 GradGradGradGradGradGradGradGradGradGradGradGradGradGradGradGradGradGrad

 Leave Link  103 at Mon Oct 14 00:06:23 2019, MaxMem= 10737418240 cpu:               0.9 elap:               0.1
 (Enter /apps/cent7/gaussian/g16-A.03/g16-haswell/g16/l9999.exe)

 ----------------------------------------------------------------------

 Electric dipole moment (input orientation):
 (Debye = 10**-18 statcoulomb cm , SI units = C m)
                  (au)            (Debye)         (10**-30 SI)
   Tot        0.391274D+00      0.994520D+00      0.331736D+01
   x          0.110684D+00      0.281332D+00      0.938422D+00
   y          0.285725D+00      0.726240D+00      0.242248D+01
   z          0.243323D+00      0.618465D+00      0.206298D+01

 Dipole polarizability, Alpha (input orientation).
 (esu units = cm**3 , SI units = C**2 m**2 J**-1)
 Alpha(0;0):
               (au)            (10**-24 esu)      (10**-40 SI)
   iso        0.688639D+02      0.102046D+02      0.113541D+02
   aniso      0.633351D+02      0.938530D+01      0.104426D+02
   xx         0.789086D+02      0.116930D+02      0.130103D+02
   yx         0.155465D+02      0.230376D+01      0.256328D+01
   yy         0.869080D+02      0.128784D+02      0.143292D+02
   zx        -0.179422D+02     -0.265875D+01     -0.295826D+01
   zy         0.128748D+02      0.190785D+01      0.212277D+01
   zz         0.407750D+02      0.604223D+01      0.672289D+01

 ----------------------------------------------------------------------

 Dipole orientation:
     8          2.46134494          0.56771883          0.64435233
     7          0.23448440         -0.94650895          0.88497632
     6         -0.53842112         -2.02112187         -1.44413069
     6          1.19291592         -2.59648591         -3.35890513
     6          0.36533860         -3.81140321         -5.54697757
     6         -2.16930324         -4.47201441         -5.85456549
     6         -3.89055657         -3.89069336         -3.93910592
     6         -3.09196125         -2.66673261         -1.75039311
     1          3.63849927         -0.27384012          1.77252235
     1         -1.11391499          0.24110006          1.57383769
     1          3.15478922         -2.05722875         -3.13032708
     1          1.72395657         -4.23837927         -7.02763147
     1         -2.79852059         -5.41803218         -7.56390869
     1         -5.87448964         -4.37882530         -4.15132407
     1         -4.44256454         -2.22106590         -0.26507693

 Electric dipole moment (dipole orientation):
 (Debye = 10**-18 statcoulomb cm , SI units = C m)
                  (au)            (Debye)         (10**-30 SI)
   Tot        0.391274D+00      0.994520D+00      0.331736D+01
   x          0.000000D+00      0.000000D+00      0.000000D+00
   y          0.000000D+00      0.000000D+00      0.000000D+00
   z          0.391274D+00      0.994520D+00      0.331736D+01

 Dipole polarizability, Alpha (dipole orientation).
 (esu units = cm**3 , SI units = C**2 m**2 J**-1)
 Alpha(0;0):
               (au)            (10**-24 esu)      (10**-40 SI)
   iso        0.688639D+02      0.102046D+02      0.113541D+02
   aniso      0.633351D+02      0.938530D+01      0.104426D+02
   xx         0.827999D+02      0.122697D+02      0.136519D+02
   yx         0.121732D+02      0.180389D+01      0.200710D+01
   yy         0.435609D+02      0.645506D+01      0.718223D+01
   zx         0.334600D+01      0.495826D+00      0.551681D+00
   zy         0.263799D+02      0.390910D+01      0.434946D+01
   zz         0.802307D+02      0.118890D+02      0.132283D+02

 ----------------------------------------------------------------------
 1\1\GINC-BROWN-A110\Freq\RB3LYP\6-31G(d)\C6H7N1O1\FINEJ\14-Oct-2019\0\
 \#P Geom=AllCheck Guess=TCheck SCRF=Check GenChk RB3LYP/6-31G(d) Freq\
 \Title Card Required\\0,1\O,1.296415922,0.284750095,-0.375788151\N,0.3
 142319241,-0.010015756,0.6218843163\C,-0.3508186318,-1.2396442468,0.38
 63794851\C,0.2723092719,-2.3006196295,-0.2805714563\C,-0.3896763628,-3
 .5218984006,-0.4072630345\C,-1.6662928944,-3.7045678675,0.1262160724\C
 ,-2.2846469375,-2.6418914961,0.7895810521\C,-1.6377548867,-1.415199754
 1,0.9173271818\H,2.1142060968,0.3424527825,0.1444583654\H,-0.341029868
 7,0.768887088,0.5914991343\H,1.2571361454,-2.1529812068,-0.707416323\H
 ,0.1009327773,-4.3372908713,-0.9329003772\H,-2.1749504505,-4.658711597
 8,0.0234615665\H,-3.2815681927,-2.7635620313,1.2053557086\H,-2.1248939
 123,-0.5919071076,1.4360764595\\Version=ES64L-G16RevA.03\State=1-A\HF=
 -362.7604875\RMSD=1.711e-09\RMSF=2.447e-05\ZeroPoint=0.1216634\Thermal
 =0.1216634\Dipole=0.1106844,0.2857247,0.2433227\DipoleDeriv=-0.4052593
 ,-0.1461469,0.1197863,-0.1603363,-0.5597283,0.0187336,0.3854444,0.2856
 753,-0.2223024,-0.0727639,-0.3671958,-0.2437321,-0.2730962,-0.5015004,
 -0.1167334,-0.5524091,-0.6532174,-0.2302481,0.2548811,0.4489215,0.1279
 75,0.5194102,0.8555953,0.0607854,0.1895989,0.172595,0.0823941,0.003594
 7,0.0598681,-0.0445323,-0.1448973,-0.2880815,0.0120222,-0.1535477,-0.1
 013011,-0.1233247,0.1164685,-0.0189406,-0.1080351,0.0561596,0.137911,0
 .0613253,-0.0762712,0.1050095,-0.0199951,-0.1629303,0.0788533,0.035352
 2,0.0752823,-0.0414877,0.0007092,0.0323198,-0.0032756,-0.163755,0.1244
 188,0.0681846,-0.0735925,-0.0070032,0.1203963,0.0822974,-0.1068086,0.0
 391272,-0.0323433,-0.1557279,-0.2682021,-0.1067048,-0.0943701,-0.15747
 65,0.0542815,-0.0261011,0.1603184,-0.0877368,0.2527031,0.0593389,-0.04
 37776,0.0325329,0.3410464,0.0035633,-0.0570251,0.0103749,0.1881369,0.0
 726179,0.1176849,0.0766165,0.0165329,0.130989,0.0269672,0.1008772,0.19
 1281,0.2362453,-0.0371244,-0.0209992,0.0591894,-0.0187671,0.0950925,-0
 .0048961,0.058806,-0.0125895,0.0877401,0.0306796,0.0617189,0.0585022,0
 .0502578,-0.0487659,-0.0780031,0.0575217,-0.0823379,0.0510704,0.025804
 9,-0.0832839,0.0139298,-0.0844021,-0.0811282,-0.0309157,0.0140409,-0.0
 317971,0.1005732,-0.0934382,-0.0323874,0.0833406,-0.0244887,0.0596046,
 -0.0044692,0.0834292,-0.0028702,0.0691702,0.0460755,0.0425856,0.045682
 5,0.0571852,-0.0624664,-0.0856676,0.0501248,-0.0769924,0.0643753\Polar
 =78.9086006,15.5465434,86.9080158,-17.9421531,12.8748053,40.7749778\Qu
 adrupole=2.9743859,1.7536402,-4.7280262,0.8004619,-0.9029135,2.6133499
 \PG=C01 [X(C6H7N1O1)]\NImag=0\\0.54394708,0.06165952,0.06728340,0.1137
 0324,-0.01458713,0.33110827,-0.15072363,-0.01300778,0.08691459,0.50080
 082,-0.01645781,-0.06438985,0.01480942,-0.08219703,0.61149668,0.078914
 38,0.01675202,-0.12699004,-0.10903025,0.00048646,0.19401127,-0.0278690
 0,-0.02404328,-0.00945477,-0.11713205,-0.06424729,0.02547931,0.6015790
 1,-0.00926677,-0.00313816,0.00087746,-0.04288621,-0.22278531,-0.012781
 43,0.03799165,0.63007162,0.02409599,0.03043687,-0.00216599,0.00061672,
 -0.06509964,-0.06525627,-0.19685517,0.14349570,0.30455975,0.00023187,0
 .00237917,0.00095677,0.01924263,-0.01418563,-0.00841980,-0.16633086,0.
 08718905,0.07545598,0.64513726,0.00482543,-0.00146660,-0.00327415,0.00
 741999,-0.04290281,-0.02237059,0.03160000,-0.21748021,-0.06988279,0.09
 353858,0.63024649,-0.00014234,-0.00188642,0.00118084,-0.00091911,-0.01
 167522,-0.00153121,0.05872774,-0.09714196,-0.12594870,-0.21403133,0.13
 978233,0.27580207,-0.00060109,-0.00278054,0.00112106,-0.00540059,0.004
 09907,0.00495310,0.05994606,-0.01479106,-0.02981291,-0.16680452,-0.072
 55053,0.02474828,0.60314097,-0.00067403,0.00052536,0.00077573,0.001832
 75,0.00457764,0.00062041,0.02764134,-0.05368161,-0.03299688,-0.1287849
 6,-0.28823052,-0.02374517,0.04757921,0.65979252,-0.00034976,0.00122820
 ,-0.00001735,0.00727887,-0.00216874,0.00347057,-0.01710869,-0.01191689
 ,0.00508476,0.00578955,-0.04963090,-0.07623127,-0.20514555,0.16739151,
 0.28880065,0.00089071,0.00045589,-0.00100211,0.00091500,-0.00325394,-0
 .00248382,-0.04581736,0.02391965,0.02683802,-0.02235379,-0.07024378,-0
 .01027454,-0.29491730,-0.00617967,0.10897557,0.59763020,-0.00022374,-0
 .00070231,0.00194428,-0.00424283,-0.00435104,-0.00339313,0.02478907,-0
 .00663812,-0.01028787,-0.02794853,0.01620309,0.01601329,-0.06276169,-0
 .12505821,0.00553048,0.10154205,0.67835003,-0.00041618,-0.00037519,0.0
 0110405,-0.00231490,0.00051342,-0.00093572,0.02717866,-0.01165208,-0.0
 2221127,0.00367646,0.03607727,0.01851165,0.08834518,-0.02103556,-0.108
 26994,-0.18602806,0.15036170,0.26206671,-0.00156829,-0.00179450,-0.000
 68850,-0.00020309,0.00564356,0.00720456,-0.02435205,-0.03118272,0.0004
 1554,-0.00240146,0.00218836,-0.00103982,-0.02213328,0.02019278,0.02106
 042,-0.15757853,0.09075480,0.07780343,0.64409387,0.00183611,0.00150871
 ,-0.00344987,0.00580807,0.00146800,-0.00005223,-0.07430378,0.01958085,
 0.03936645,-0.00137230,-0.05914773,-0.01739252,0.06478476,0.04141217,-
 0.01770165,0.03369243,-0.24286902,-0.08127684,0.07493140,0.62888420,0.
 00084868,0.00001528,0.00131149,0.00397835,-0.00120784,0.00195032,-0.01
 351878,0.02022559,0.01627076,-0.00223359,-0.01922309,-0.01211775,0.036
 23806,0.00265309,-0.00848756,0.05793943,-0.10771483,-0.12370661,-0.211
 43119,0.14121535,0.27689736,0.00130344,-0.00034504,0.00110349,-0.02837
 857,-0.01993856,0.00121581,-0.26988839,-0.04508117,0.08176592,-0.01587
 733,0.05509842,0.03077682,-0.04295032,-0.02571829,0.00764165,0.0520959
 9,-0.01675289,-0.02650565,-0.16341497,-0.07383667,0.02462997,0.5871686
 5,-0.00774413,-0.00518352,0.00081661,-0.03840999,-0.00665655,0.0105527
 4,0.01044027,-0.12346131,-0.02494115,0.01997370,0.03997220,0.00116194,
 -0.03042689,-0.02285791,0.00805075,0.02571808,-0.05077204,-0.03247469,
 -0.12897275,-0.29467237,-0.02449960,0.05969910,0.67784827,-0.00025228,
 -0.00170608,-0.00014003,-0.00253745,0.00152153,0.00978024,0.09932920,0
 .00313286,-0.10947969,0.01807360,-0.01572833,-0.00492841,0.00735282,0.
 00671144,-0.00738801,-0.01271584,-0.01188381,0.00924455,0.00501281,-0.
 05133515,-0.07390606,-0.19388915,0.17018618,0.26838190,-0.33895713,-0.
 02713594,-0.19240918,-0.02464936,-0.00110550,-0.00486402,-0.00488313,-
 0.00129227,0.00062817,-0.00011942,0.00071601,0.00036833,0.00004563,-0.
 00003578,-0.00032375,-0.00002608,0.00045724,0.00016390,-0.00026259,-0.
 00042135,0.00027588,0.00067768,-0.00034540,-0.00016673,0.37174104,-0.0
 1886123,-0.00440495,-0.00229838,-0.00981111,-0.00390269,-0.00376915,-0
 .00550150,-0.00092918,0.00051827,-0.00080306,0.00047977,0.00111493,0.0
 0020779,-0.00042447,-0.00016403,0.00018510,0.00016218,-0.00006883,-0.0
 0026737,0.00007542,0.00019034,0.00031282,-0.00116269,0.00015873,0.0316
 8833,0.00995302,-0.24870043,-0.01226375,-0.19415357,0.04391001,0.00547
 766,0.00811686,0.00446441,-0.00025545,-0.00186719,-0.00063502,-0.00015
 379,0.00020125,0.00017080,0.00010865,-0.00007363,-0.00010279,0.0000260
 0,0.00002940,0.00023224,-0.00010880,-0.00033231,0.00032298,0.00145280,
 -0.00005774,0.19552849,0.00511076,0.18991438,-0.02765194,0.00800080,0.
 00217223,-0.19318092,0.19126865,0.00895658,0.01109462,-0.01984150,-0.0
 0648198,-0.00206048,-0.00200623,0.00056102,0.00009769,-0.00096156,-0.0
 0043772,0.00071495,-0.00029864,-0.00024169,0.00027778,0.00069787,0.001
 24747,0.00110144,-0.00233739,-0.00112911,-0.00380081,0.00289957,0.0048
 4878,0.21438619,-0.01337436,0.01197620,0.00386929,0.17481848,-0.274161
 56,0.01180443,0.02202001,-0.02955448,0.00144960,-0.00425126,-0.0029051
 5,0.00171256,0.00104975,0.00010834,-0.00203162,-0.00042884,0.00075962,
 0.00059610,-0.00090255,-0.00087287,-0.00130227,0.00206648,0.00275106,-
 0.00146873,-0.00233084,0.00070585,0.00056237,-0.17805331,0.29156216,0.
 03355028,-0.02009120,-0.01020756,-0.02591061,0.05708680,-0.01818481,-0
 .00115526,-0.02219323,-0.00550324,-0.00116532,0.00134441,0.00259429,-0
 .00026431,-0.00182101,0.00001211,0.00099606,0.00066257,-0.00019654,-0.
 00049342,0.00008837,-0.00111598,0.00146876,0.00230833,0.00053906,0.000
 95657,0.00012058,-0.00212343,-0.00906906,-0.01756576,0.03393722,0.0005
 9265,-0.00280693,-0.00160399,-0.00232628,-0.00075491,-0.00047846,-0.00
 929178,-0.00253724,0.00608075,-0.29208853,-0.03559899,0.11161685,-0.00
 908121,0.00014346,0.00535195,0.00204594,-0.00334917,0.00123799,0.00063
 690,0.00024347,-0.00022806,0.00102913,0.00202564,0.00272643,0.00023850
 ,-0.00010205,-0.00010685,0.00003657,0.00033995,0.00012367,0.30929692,-
 0.00114937,-0.00167387,0.00020913,0.00060952,0.00026296,0.00030403,0.0
 2263890,0.00956382,-0.00884216,-0.03751382,-0.06038075,0.00781952,-0.0
 2562665,0.00090893,0.01216434,-0.00226981,-0.00388508,-0.00270175,0.00
 006182,-0.00109452,-0.00040605,0.00041906,-0.00367129,-0.00320155,-0.0
 0025701,-0.00050770,-0.00001293,-0.00001609,0.00001121,0.00043475,0.04
 205859,0.05960008,-0.00082236,0.00191590,-0.00006110,-0.00081289,0.001
 35476,-0.00245576,0.01451605,0.00275491,-0.00208180,0.11306876,0.00672
 499,-0.08594620,-0.00482756,-0.00022288,0.00358382,0.00147408,-0.00251
 028,0.00519734,-0.00026964,-0.00044923,-0.00012983,0.00204472,-0.00378
 561,0.00272728,-0.00001544,-0.00080175,0.00013107,0.00002319,0.0004488
 3,-0.00009665,-0.12314214,-0.00705448,0.08212508,0.00004728,0.00015150
 ,-0.00000294,0.00078799,-0.00043398,-0.00010526,-0.00004038,-0.0039427
 8,0.00177304,0.01024644,-0.01226071,-0.00802066,-0.11300589,0.09079219
 ,0.06917595,-0.00800385,0.02406362,0.01368984,-0.00384681,-0.00294681,
 0.00396123,-0.00059568,-0.00081745,-0.00012385,-0.00000940,-0.00003082
 ,-0.00000912,-0.00018036,-0.00026122,-0.00014086,0.00005783,0.00098580
 ,-0.00160318,0.11487382,-0.00018131,0.00004696,0.00022639,0.00140282,-
 0.00060617,-0.00080180,-0.00482092,-0.00260791,-0.00163882,0.01430385,
 -0.01679355,-0.01370645,0.09061572,-0.21383868,-0.10668497,-0.00295504
 ,0.00673652,0.00280982,-0.00178824,0.00168717,-0.00099253,-0.00080351,
 -0.00009947,0.00047110,0.00008442,-0.00002475,-0.00000447,-0.00021650,
 -0.00037151,-0.00010780,0.00051967,0.00066320,0.00145036,-0.09709606,0
 .22465709,0.00004814,0.00001014,0.00005764,0.00003406,-0.00033741,0.00
 003285,0.00188342,-0.00135926,0.00600809,0.00163197,-0.00134177,0.0012
 2149,0.06930825,-0.10687856,-0.10732390,0.00378510,-0.00983587,-0.0026
 5438,0.00432627,-0.00048396,0.00457694,-0.00014286,0.00052244,-0.00008
 823,0.00001393,0.00000092,0.00001162,-0.00010320,-0.00001522,-0.000052
 70,-0.00194941,0.00117008,-0.00277563,-0.07716512,0.11755612,0.1044503
 4,0.00008152,-0.00021837,-0.00020713,-0.00001417,-0.00012282,-0.000267
 48,-0.00085741,0.00080425,0.00043592,-0.00337031,0.00018615,0.00483971
 ,-0.00915513,-0.02696087,-0.00493535,-0.11676207,-0.11868355,-0.002497
 68,0.01020185,0.01431690,0.00070934,0.00010642,0.00151465,0.00356761,0
 .00003016,0.00007431,0.00002496,-0.00010946,0.00003171,0.00007625,-0.0
 0041509,-0.00135856,-0.00006859,0.00028731,0.00095228,-0.00159138,0.11
 934004,-0.00015189,-0.00013616,0.00015976,0.00007691,0.00011903,0.0002
 1048,0.00072806,0.00038122,-0.00013823,-0.00106990,0.00212178,-0.00113
 749,0.00047181,0.00004742,-0.00055248,-0.11854426,-0.27331036,-0.03078
 355,-0.01322403,-0.01690720,-0.00018879,0.00264466,-0.00103438,-0.0039
 0674,0.00002058,0.00001097,0.00000963,0.00010803,-0.00002019,-0.000071
 12,0.00001146,-0.00001673,-0.00023804,0.00025390,0.00037162,0.00137634
 ,0.12861012,0.28879960,-0.00008574,0.00004979,-0.00021084,-0.00032483,
 -0.00000055,-0.00045334,0.00060676,-0.00019642,-0.00063243,0.00437083,
 -0.00177041,0.00395669,0.00498411,0.01235531,0.00299840,-0.00255696,-0
 .03088185,-0.04133367,-0.00907575,-0.01298419,0.00043280,0.00392015,-0
 .00322287,0.00353386,0.00001322,-0.00000857,0.00003847,-0.00016140,0.0
 0027317,0.00008455,0.00048260,0.00040475,0.00057763,-0.00184993,0.0010
 7180,-0.00256383,0.00139849,0.03427883,0.03567049,-0.00043896,-0.00023
 394,0.00004804,-0.00036012,0.00021690,0.00031878,0.00207707,-0.0033123
 5,0.00128856,0.00057769,0.00012769,-0.00039012,0.00151624,0.00207670,0
 .00309200,-0.00904526,-0.00382389,0.00395332,-0.28989086,-0.03146724,0
 .10607233,-0.01011394,0.00039192,0.00569542,0.00001387,-0.00005420,0.0
 0007935,0.00000238,0.00005163,0.00007197,-0.00024632,0.00010294,-0.000
 34210,-0.00055176,-0.00025971,0.00030877,0.00016029,0.00079515,-0.0014
 9534,0.30613291,-0.00053678,-0.00038421,-0.00001996,-0.00077471,0.0007
 8792,0.00079607,-0.00260848,-0.00428035,-0.00307232,-0.00002291,-0.001
 13435,-0.00023767,0.00094829,-0.00318003,-0.00393411,0.02329703,0.0078
 8846,-0.00886803,-0.03112700,-0.06180525,0.00521521,-0.02656735,0.0007
 3009,0.01153798,-0.00004283,-0.00007012,0.00009284,0.00001725,0.000020
 70,0.00003920,0.00013729,0.00005523,0.00034325,0.00126868,0.00028463,-
 0.00061229,0.00010078,0.00052812,0.00147965,0.03496435,0.05989693,-0.0
 0028835,0.00001421,-0.00006965,0.00017547,0.00006906,0.00044522,0.0016
 8061,-0.00261363,0.00568121,-0.00037466,-0.00022971,-0.00026138,0.0026
 2574,-0.00451214,0.00388120,0.01374186,0.00350441,-0.00261321,0.105950
 78,0.00547656,-0.08213514,-0.00363041,-0.00077802,0.00338628,-0.000049
 14,-0.00008427,0.00003667,-0.00001547,0.00002015,-0.00000488,-0.000373
 87,0.00034338,-0.00076742,0.00082403,0.00010055,-0.00006056,-0.0017596
 5,0.00115036,-0.00250841,-0.11689844,-0.00398505,0.07778107,0.00071547
 ,-0.00028057,-0.00065080,0.00062233,0.00146927,-0.00139342,-0.00823434
 ,0.02422948,0.01375544,-0.00402921,-0.00304039,0.00317918,-0.00069725,
 -0.00094327,-0.00006513,0.00021144,-0.00352184,0.00195538,0.01044152,-
 0.01196286,-0.00848911,-0.11226357,0.08929063,0.06905652,-0.00003898,0
 .00006343,-0.00002781,-0.00072765,-0.00077564,0.00095528,-0.00048524,0
 .00131468,0.00077709,-0.00006654,0.00024251,-0.00038797,0.00047605,-0.
 00073061,-0.00022621,0.00016675,0.00094639,-0.00160852,0.11390921,0.00
 030036,0.00013900,-0.00005858,-0.00063888,0.00104375,0.00164169,-0.002
 32405,0.00495913,0.00163297,-0.00143199,0.00141832,-0.00068168,-0.0008
 1903,-0.00010094,0.00042011,-0.00493489,-0.00251372,-0.00112180,0.0154
 8645,-0.01724758,-0.01397986,0.08880293,-0.21173009,-0.10448941,0.0000
 0031,0.00003934,-0.00004151,0.00073905,-0.00000939,-0.00023489,-0.0003
 3023,0.00016451,0.00006927,0.00027414,-0.00010515,0.00022829,0.0007530
 1,-0.00095475,-0.00084845,0.00042405,0.00066223,0.00152414,-0.09630122
 ,0.22423534,-0.00010328,0.00048734,-0.00074614,-0.00105803,-0.00082970
 ,-0.00200018,0.00422650,-0.01037618,-0.00245800,0.00383579,-0.00032346
 ,0.00349664,0.00020292,0.00059604,-0.00003985,0.00141402,-0.00153508,0
 .00576763,0.00099226,-0.00091228,0.00049158,0.06927779,-0.10534984,-0.
 10160501,-0.00012022,-0.00001954,0.00012814,-0.00016964,0.00164711,0.0
 0031856,0.00026255,-0.00063107,-0.00002784,-0.00040316,0.00025070,-0.0
 0083976,0.00027497,-0.00016896,0.00040963,-0.00180254,0.00122521,-0.00
 279099,-0.07682993,0.11593971,0.09989558\\0.00002921,0.00002843,-0.000
 05628,-0.00006904,-0.00005271,0.00004064,-0.00001358,0.00001234,0.0000
 1919,0.00005301,-0.00003820,-0.00002781,-0.00002048,0.00001724,0.00000
 727,-0.00000186,0.00000621,0.00001385,0.00001119,-0.00002423,-0.000021
 27,-0.00000349,0.00004946,0.00001091,-0.00000598,0.00000506,0.00000847
 ,0.00003439,-0.00000988,-0.00000552,-0.00001551,0.00001908,0.00001205,
 -0.00000071,-0.00000680,0.00000335,-0.00000284,0.00000445,-0.00000404,
 -0.00000160,-0.00000270,0.00000194,0.00000730,-0.00000776,-0.00000275\
 \\@


 WORK FAITHFULLY FOR EIGHT HOURS A DAY AND DON'T WORRY.
 IN TIME YOU MAY BECOME BOSS AND WORK TWELVE HOURS A DAY
 AND HAVE ALL THE WORRY.
 Job cpu time:       0 days  0 hours  5 minutes 52.5 seconds.
 Elapsed time:       0 days  0 hours  0 minutes 15.2 seconds.
 File lengths (MBytes):  RWF=     37 Int=      0 D2E=      0 Chk=      3 Scr=      1
 Normal termination of Gaussian 16 at Mon Oct 14 00:06:23 2019.
real 60.81
user 1310.22
sys 15.28
Machine:
brown-a110
brown-a110
brown-a110
brown-a110
brown-a110
brown-a110
brown-a110
brown-a110
brown-a110
brown-a110
brown-a110
brown-a110
brown-a110
brown-a110
brown-a110
brown-a110
brown-a110
brown-a110
brown-a110
brown-a110
brown-a110
brown-a110
brown-a110
brown-a110
