Title Card Required                                                     
Freq      RB3LYP                                                      6-31G(d)            
Number of atoms                            I               16
Info1-9                                    I   N=           9
          42          42        1002           0           0         100
           6          18        -502
Full Title                                 C   N=           2
Title Card Required     
Route                                      C   N=           6
#P opt freq b3lyp/6-31g(d) geom=connectivity temperature=0.0
01          
Charge                                     I                1
Multiplicity                               I                1
Number of electrons                        I               58
Number of alpha electrons                  I               29
Number of beta electrons                   I               29
Number of basis functions                  I              136
Number of independent functions            I              136
Number of point charges in /Mol/           I                0
Number of translation vectors              I                0
Atomic numbers                             I   N=          16
           8           7           6           6           6           6
           6           6           1           1           1           1
           1           1           1           1
Nuclear charges                            R   N=          16
  8.00000000E+00  7.00000000E+00  6.00000000E+00  6.00000000E+00  6.00000000E+00
  6.00000000E+00  6.00000000E+00  6.00000000E+00  1.00000000E+00  1.00000000E+00
  1.00000000E+00  1.00000000E+00  1.00000000E+00  1.00000000E+00  1.00000000E+00
  1.00000000E+00
Current cartesian coordinates              R   N=          48
 -5.04519965E+00  3.88618151E-01  1.20325432E+00 -3.50339579E+00 -3.54536447E-01
 -9.00484078E-01 -7.62855480E-01 -1.60678437E-01 -4.99038618E-01  3.20346054E-01
  2.24108651E+00 -3.84763490E-01  2.91263077E+00  2.39629150E+00  4.16996659E-02
  4.34452390E+00  1.93108778E-01  3.47361876E-01  3.20613879E+00 -2.18620408E+00
  2.34720387E-01  6.11144108E-01 -2.38702217E+00 -1.85943478E-01 -4.16806159E+00
 -2.81620867E-01  2.69091148E+00 -4.01644693E+00 -2.16060147E+00 -1.41581932E+00
 -8.18432921E-01  3.93487930E+00 -6.09676251E-01  3.81473437E+00  4.23523725E+00
  1.30961378E-01  6.36476101E+00  3.35434710E-01  6.72243967E-01  4.32854870E+00
 -3.88578455E+00  4.68013992E-01 -2.91301340E-01 -4.23131710E+00 -2.86596105E-01
 -4.12000245E+00  8.47090055E-01 -2.29690321E+00
Number of symbols in /Mol/                 I                0
Force Field                                I                0
Atom Types                                 C   N=          16
                                                            
                                                            
                                                            
            
Int Atom Types                             I   N=          16
           0           0           0           0           0           0
           0           0           0           0           0           0
           0           0           0           0
MM charges                                 R   N=          16
  0.00000000E+00  0.00000000E+00  0.00000000E+00  0.00000000E+00  0.00000000E+00
  0.00000000E+00  0.00000000E+00  0.00000000E+00  0.00000000E+00  0.00000000E+00
  0.00000000E+00  0.00000000E+00  0.00000000E+00  0.00000000E+00  0.00000000E+00
  0.00000000E+00
Integer atomic weights                     I   N=          16
          16          14          12          12          12          12
          12          12           1           1           1           1
           1           1           1           1
Real atomic weights                        R   N=          16
  1.59949146E+01  1.40030740E+01  1.20000000E+01  1.20000000E+01  1.20000000E+01
  1.20000000E+01  1.20000000E+01  1.20000000E+01  1.00782504E+00  1.00782504E+00
  1.00782504E+00  1.00782504E+00  1.00782504E+00  1.00782504E+00  1.00782504E+00
  1.00782504E+00
Atom fragment info                         I   N=          16
           0           0           0           0           0           0
           0           0           0           0           0           0
           0           0           0           0
Atom residue num                           I   N=          16
           0           0           0           0           0           0
           0           0           0           0           0           0
           0           0           0           0
Nuclear spins                              I   N=          16
           0           2           0           0           0           0
           0           0           1           1           1           1
           1           1           1           1
Nuclear ZEff                               R   N=          16
 -5.60000000E+00 -4.55000000E+00 -3.60000000E+00 -3.60000000E+00 -3.60000000E+00
 -3.60000000E+00 -3.60000000E+00 -3.60000000E+00 -1.00000000E+00 -1.00000000E+00
 -1.00000000E+00 -1.00000000E+00 -1.00000000E+00 -1.00000000E+00 -1.00000000E+00
 -1.00000000E+00
Nuclear ZNuc                               R   N=          16
  8.00000000E+00  7.00000000E+00  6.00000000E+00  6.00000000E+00  6.00000000E+00
  6.00000000E+00  6.00000000E+00  6.00000000E+00  1.00000000E+00  1.00000000E+00
  1.00000000E+00  1.00000000E+00  1.00000000E+00  1.00000000E+00  1.00000000E+00
  1.00000000E+00
Nuclear QMom                               R   N=          16
  0.00000000E+00  2.04400000E+00  0.00000000E+00  0.00000000E+00  0.00000000E+00
  0.00000000E+00  0.00000000E+00  0.00000000E+00  0.00000000E+00  0.00000000E+00
  0.00000000E+00  0.00000000E+00  0.00000000E+00  0.00000000E+00  0.00000000E+00
  0.00000000E+00
Nuclear GFac                               R   N=          16
  0.00000000E+00  4.03761000E-01  0.00000000E+00  0.00000000E+00  0.00000000E+00
  0.00000000E+00  0.00000000E+00  0.00000000E+00  2.79284600E+00  2.79284600E+00
  2.79284600E+00  2.79284600E+00  2.79284600E+00  2.79284600E+00  2.79284600E+00
  2.79284600E+00
MicOpt                                     I   N=          16
          -1          -1          -1          -1          -1          -1
          -1          -1          -1          -1          -1          -1
          -1          -1          -1          -1
Number of residues                         I                0
Number of secondary structures             I                0
Redundant internal dimensions              I   N=           4
          74          16          25          33
Redundant internal coordinate indices      I   N=         296
           1           2           0           0           1           9
           0           0           2           3           0           0
           2          10           0           0           2          16
           0           0           3           4           0           0
           3           8           0           0           4           5
           0           0           4          11           0           0
           5           6           0           0           5          12
           0           0           6           7           0           0
           6          13           0           0           7           8
           0           0           7          14           0           0
           8          15           0           0           2           1
           9           0           1           2           3           0
           1           2          10           0           1           2
          16           0           3           2          10           0
           3           2          16           0          10           2
          16           0           2           3           4           0
           2           3           8           0           4           3
           8           0           3           4           5           0
           3           4          11           0           5           4
          11           0           4           5           6           0
           4           5          12           0           6           5
          12           0           5           6           7           0
           5           6          13           0           7           6
          13           0           6           7           8           0
           6           7          14           0           8           7
          14           0           3           8           7           0
           3           8          15           0           7           8
          15           0           9           1           2           3
           9           1           2          10           9           1
           2          16           1           2           3           4
           1           2           3           8          10           2
           3           4          10           2           3           8
          16           2           3           4          16           2
           3           8           2           3           4           5
           2           3           4          11           8           3
           4           5           8           3           4          11
           2           3           8           7           2           3
           8          15           4           3           8           7
           4           3           8          15           3           4
           5           6           3           4           5          12
          11           4           5           6          11           4
           5          12           4           5           6           7
           4           5           6          13          12           5
           6           7          12           5           6          13
           5           6           7           8           5           6
           7          14          13           6           7           8
          13           6           7          14           6           7
           8           3           6           7           8          15
          14           7           8           3          14           7
           8          15
Redundant internal coordinates             R   N=          74
  2.71203856E+00  1.85248896E+00  2.77656272E+00  1.94696244E+00  1.94270338E+00
  2.63720671E+00  2.63486430E+00  2.63171037E+00  2.05337218E+00  2.64532822E+00
  2.05023902E+00  2.64002622E+00  2.05113700E+00  2.63652866E+00  2.05007407E+00
  2.05571460E+00  1.82824263E+00  2.01511415E+00  1.88567430E+00  1.77996384E+00
  1.94242241E+00  1.95413590E+00  1.87535864E+00  2.06605655E+00  2.06336374E+00
  2.15338147E+00  2.05478860E+00  2.11612949E+00  2.11225148E+00  2.09761828E+00
  2.08674452E+00  2.09881983E+00  2.10862661E+00  2.08707542E+00  2.08748140E+00
  2.09423655E+00  2.10159911E+00  2.08734667E+00  2.05765848E+00  2.12153504E+00
  2.10391789E+00 -7.00320420E-01  1.48679909E+00 -2.82327549E+00 -1.24541569E+00
  1.86743339E+00  2.88020352E+00 -2.90132710E-01  7.80941229E-01 -2.38939500E+00
  3.12197635E+00 -1.36460661E-02  1.07138517E-02 -3.12490857E+00 -3.12405417E+00
  3.05393643E-02 -1.27477058E-02 -3.14133948E+00 -3.22830024E-03  3.13588633E+00
  3.13240809E+00 -1.16625910E-02 -1.67771573E-03  3.13782419E+00 -3.14077507E+00
 -1.27316148E-03 -4.04527530E-04  3.13855880E+00 -3.13990595E+00 -9.42623473E-04
  7.26917649E-03  3.13599813E+00 -3.13171571E+00 -2.98675035E-03
ZRed-IntVec                                I   N=          74
           0           0           0           0           0           0
           0           0           0           0           0           0
           0           0           0           0           0           0
           0           0           0           0           0           0
           0           0           0           0           0           0
           0           0           0           0           0           0
           0           0           0           0           0           0
           0           0           0           0           0           0
           0           0           0           0           0           0
           0           0           0           0           0           0
           0           0           0           0           0           0
           0           0           0           0           0           0
           0           0
ZRed-FPVec                                 R   N=          74
  0.00000000E+00  0.00000000E+00  0.00000000E+00  0.00000000E+00  0.00000000E+00
  0.00000000E+00  0.00000000E+00  0.00000000E+00  0.00000000E+00  0.00000000E+00
  0.00000000E+00  0.00000000E+00  0.00000000E+00  0.00000000E+00  0.00000000E+00
  0.00000000E+00  0.00000000E+00  0.00000000E+00  0.00000000E+00  0.00000000E+00
  0.00000000E+00  0.00000000E+00  0.00000000E+00  0.00000000E+00  0.00000000E+00
  0.00000000E+00  0.00000000E+00  0.00000000E+00  0.00000000E+00  0.00000000E+00
  0.00000000E+00  0.00000000E+00  0.00000000E+00  0.00000000E+00  0.00000000E+00
  0.00000000E+00  0.00000000E+00  0.00000000E+00  0.00000000E+00  0.00000000E+00
  0.00000000E+00  0.00000000E+00  0.00000000E+00  0.00000000E+00  0.00000000E+00
  0.00000000E+00  0.00000000E+00  0.00000000E+00  0.00000000E+00  0.00000000E+00
  0.00000000E+00  0.00000000E+00  0.00000000E+00  0.00000000E+00  0.00000000E+00
  0.00000000E+00  0.00000000E+00  0.00000000E+00  0.00000000E+00  0.00000000E+00
  0.00000000E+00  0.00000000E+00  0.00000000E+00  0.00000000E+00  0.00000000E+00
  0.00000000E+00  0.00000000E+00  0.00000000E+00  0.00000000E+00  0.00000000E+00
  0.00000000E+00  0.00000000E+00  0.00000000E+00  0.00000000E+00
ZRed-Constraint1                           R   N=          74
  2.71203856E+00  1.85248896E+00  2.77656272E+00  1.94696244E+00  1.94270338E+00
  2.63720671E+00  2.63486430E+00  2.63171037E+00  2.05337218E+00  2.64532822E+00
  2.05023902E+00  2.64002622E+00  2.05113700E+00  2.63652866E+00  2.05007407E+00
  2.05571460E+00  1.82824263E+00  2.01511415E+00  1.88567430E+00  1.77996384E+00
  1.94242241E+00  1.95413590E+00  1.87535864E+00  2.06605655E+00  2.06336374E+00
  2.15338147E+00  2.05478860E+00  2.11612949E+00  2.11225148E+00  2.09761828E+00
  2.08674452E+00  2.09881983E+00  2.10862661E+00  2.08707542E+00  2.08748140E+00
  2.09423655E+00  2.10159911E+00  2.08734667E+00  2.05765848E+00  2.12153504E+00
  2.10391789E+00 -7.00320420E-01  1.48679909E+00 -2.82327549E+00 -1.24541569E+00
  1.86743339E+00  2.88020352E+00 -2.90132710E-01  7.80941229E-01 -2.38939500E+00
  3.12197635E+00 -1.36460661E-02  1.07138517E-02 -3.12490857E+00 -3.12405417E+00
  3.05393643E-02 -1.27477058E-02 -3.14133948E+00 -3.22830024E-03  3.13588633E+00
  3.13240809E+00 -1.16625910E-02 -1.67771573E-03  3.13782419E+00 -3.14077507E+00
 -1.27316148E-03 -4.04527530E-04  3.13855880E+00 -3.13990595E+00 -9.42623473E-04
  7.26917649E-03  3.13599813E+00 -3.13171571E+00 -2.98675035E-03
ZRed-Constraint2                           R   N=          74
  2.46407569E+00  1.81409591E+00  2.56389234E+00  1.88972613E+00  1.88972612E+00
  2.67491262E+00  2.66556441E+00  2.65952045E+00  2.05987562E+00  2.65798651E+00
  2.05988148E+00  2.65750020E+00  2.05970850E+00  2.65751877E+00  2.05979985E+00
  2.05969899E+00  1.91059318E+00  2.15804398E+00  1.85557796E+00  1.85557796E+00
  1.85557796E+00  1.85557796E+00  1.86709077E+00  2.15456818E+00  2.05286697E+00
  2.07575000E+00  2.10321049E+00  2.09492515E+00  2.08504966E+00  2.09252027E+00
  2.09585072E+00  2.09481431E+00  2.09549046E+00  2.09396011E+00  2.09373473E+00
  2.09300132E+00  2.09508503E+00  2.09509896E+00  2.10577014E+00  2.09138006E+00
  2.08603510E+00 -1.87876254E+00  2.70202185E-01  2.25545804E+00 -1.14770321E-01
  3.02622964E+00 -2.26373505E+00  8.77264912E-01  2.03419440E+00 -1.10799094E+00
  3.11632598E+00 -2.51821586E-02 -2.46666342E-02  3.11701053E+00 -3.11358120E+00
  2.80508060E-02  2.74463957E-02 -3.11410691E+00 -3.23539313E-03  3.13837201E+00
  3.13827322E+00 -3.30468334E-03  2.87988853E-02 -3.11271579E+00 -3.11280851E+00
  2.88621217E-02 -2.60876950E-02  3.11541743E+00  3.11542699E+00 -2.62531909E-02
 -2.29822224E-03  3.13925520E+00  3.13938196E+00 -2.24991970E-03
SymInf integers                            I   N=          26
           1           1           1           1           1           0
           0           0           0           0           0           0
           0           0           0           0           0           0
           0           0           0           0           0           0
           0           0
RotTr to input orientation                 R   N=          12
 -5.46752696E-01 -8.36427438E-01 -3.80871370E-02  6.32148708E-01 -3.82537155E-01
 -6.73834798E-01  5.49044169E-01 -3.92497727E-01  7.37899745E-01 -8.61563401E-01
 -3.16418928E+00  4.60327917E-01
Number of contracted shells                I               48
Number of primitive shells                 I              120
Pure/Cartesian d shells                    I                1
Pure/Cartesian f shells                    I                0
Highest angular momentum                   I                2
Largest degree of contraction              I                6
Shell types                                I   N=          48
           0          -1          -1           2           0          -1
          -1           2           0          -1          -1           2
           0          -1          -1           2           0          -1
          -1           2           0          -1          -1           2
           0          -1          -1           2           0          -1
          -1           2           0           0           0           0
           0           0           0           0           0           0
           0           0           0           0           0           0
Number of primitives per shell             I   N=          48
           6           3           1           1           6           3
           1           1           6           3           1           1
           6           3           1           1           6           3
           1           1           6           3           1           1
           6           3           1           1           6           3
           1           1           3           1           3           1
           3           1           3           1           3           1
           3           1           3           1           3           1
Shell to atom map                          I   N=          48
           1           1           1           1           2           2
           2           2           3           3           3           3
           4           4           4           4           5           5
           5           5           6           6           6           6
           7           7           7           7           8           8
           8           8           9           9          10          10
          11          11          12          12          13          13
          14          14          15          15          16          16
Primitive exponents                        R   N=         120
  5.48467166E+03  8.25234946E+02  1.88046958E+02  5.29645000E+01  1.68975704E+01
  5.79963534E+00  1.55396162E+01  3.59993359E+00  1.01376175E+00  2.70005823E-01
  8.00000000E-01  4.17351146E+03  6.27457911E+02  1.42902093E+02  4.02343293E+01
  1.28202129E+01  4.39043701E+00  1.16263619E+01  2.71627981E+00  7.72218397E-01
  2.12031498E-01  8.00000000E-01  3.04752488E+03  4.57369518E+02  1.03948685E+02
  2.92101553E+01  9.28666296E+00  3.16392696E+00  7.86827235E+00  1.88128854E+00
  5.44249258E-01  1.68714478E-01  8.00000000E-01  3.04752488E+03  4.57369518E+02
  1.03948685E+02  2.92101553E+01  9.28666296E+00  3.16392696E+00  7.86827235E+00
  1.88128854E+00  5.44249258E-01  1.68714478E-01  8.00000000E-01  3.04752488E+03
  4.57369518E+02  1.03948685E+02  2.92101553E+01  9.28666296E+00  3.16392696E+00
  7.86827235E+00  1.88128854E+00  5.44249258E-01  1.68714478E-01  8.00000000E-01
  3.04752488E+03  4.57369518E+02  1.03948685E+02  2.92101553E+01  9.28666296E+00
  3.16392696E+00  7.86827235E+00  1.88128854E+00  5.44249258E-01  1.68714478E-01
  8.00000000E-01  3.04752488E+03  4.57369518E+02  1.03948685E+02  2.92101553E+01
  9.28666296E+00  3.16392696E+00  7.86827235E+00  1.88128854E+00  5.44249258E-01
  1.68714478E-01  8.00000000E-01  3.04752488E+03  4.57369518E+02  1.03948685E+02
  2.92101553E+01  9.28666296E+00  3.16392696E+00  7.86827235E+00  1.88128854E+00
  5.44249258E-01  1.68714478E-01  8.00000000E-01  1.87311370E+01  2.82539436E+00
  6.40121692E-01  1.61277759E-01  1.87311370E+01  2.82539436E+00  6.40121692E-01
  1.61277759E-01  1.87311370E+01  2.82539436E+00  6.40121692E-01  1.61277759E-01
  1.87311370E+01  2.82539436E+00  6.40121692E-01  1.61277759E-01  1.87311370E+01
  2.82539436E+00  6.40121692E-01  1.61277759E-01  1.87311370E+01  2.82539436E+00
  6.40121692E-01  1.61277759E-01  1.87311370E+01  2.82539436E+00  6.40121692E-01
  1.61277759E-01  1.87311370E+01  2.82539436E+00  6.40121692E-01  1.61277759E-01
Contraction coefficients                   R   N=         120
  1.83107443E-03  1.39501722E-02  6.84450781E-02  2.32714336E-01  4.70192898E-01
  3.58520853E-01 -1.10777550E-01 -1.48026263E-01  1.13076702E+00  1.00000000E+00
  1.00000000E+00  1.83477216E-03  1.39946270E-02  6.85865518E-02  2.32240873E-01
  4.69069948E-01  3.60455199E-01 -1.14961182E-01 -1.69117479E-01  1.14585195E+00
  1.00000000E+00  1.00000000E+00  1.83473713E-03  1.40373228E-02  6.88426223E-02
  2.32184443E-01  4.67941348E-01  3.62311985E-01 -1.19332420E-01 -1.60854152E-01
  1.14345644E+00  1.00000000E+00  1.00000000E+00  1.83473713E-03  1.40373228E-02
  6.88426223E-02  2.32184443E-01  4.67941348E-01  3.62311985E-01 -1.19332420E-01
 -1.60854152E-01  1.14345644E+00  1.00000000E+00  1.00000000E+00  1.83473713E-03
  1.40373228E-02  6.88426223E-02  2.32184443E-01  4.67941348E-01  3.62311985E-01
 -1.19332420E-01 -1.60854152E-01  1.14345644E+00  1.00000000E+00  1.00000000E+00
  1.83473713E-03  1.40373228E-02  6.88426223E-02  2.32184443E-01  4.67941348E-01
  3.62311985E-01 -1.19332420E-01 -1.60854152E-01  1.14345644E+00  1.00000000E+00
  1.00000000E+00  1.83473713E-03  1.40373228E-02  6.88426223E-02  2.32184443E-01
  4.67941348E-01  3.62311985E-01 -1.19332420E-01 -1.60854152E-01  1.14345644E+00
  1.00000000E+00  1.00000000E+00  1.83473713E-03  1.40373228E-02  6.88426223E-02
  2.32184443E-01  4.67941348E-01  3.62311985E-01 -1.19332420E-01 -1.60854152E-01
  1.14345644E+00  1.00000000E+00  1.00000000E+00  3.34946043E-02  2.34726953E-01
  8.13757326E-01  1.00000000E+00  3.34946043E-02  2.34726953E-01  8.13757326E-01
  1.00000000E+00  3.34946043E-02  2.34726953E-01  8.13757326E-01  1.00000000E+00
  3.34946043E-02  2.34726953E-01  8.13757326E-01  1.00000000E+00  3.34946043E-02
  2.34726953E-01  8.13757326E-01  1.00000000E+00  3.34946043E-02  2.34726953E-01
  8.13757326E-01  1.00000000E+00  3.34946043E-02  2.34726953E-01  8.13757326E-01
  1.00000000E+00  3.34946043E-02  2.34726953E-01  8.13757326E-01  1.00000000E+00
P(S=P) Contraction coefficients            R   N=         120
  0.00000000E+00  0.00000000E+00  0.00000000E+00  0.00000000E+00  0.00000000E+00
  0.00000000E+00  7.08742682E-02  3.39752839E-01  7.27158577E-01  1.00000000E+00
  0.00000000E+00  0.00000000E+00  0.00000000E+00  0.00000000E+00  0.00000000E+00
  0.00000000E+00  0.00000000E+00  6.75797439E-02  3.23907296E-01  7.40895140E-01
  1.00000000E+00  0.00000000E+00  0.00000000E+00  0.00000000E+00  0.00000000E+00
  0.00000000E+00  0.00000000E+00  0.00000000E+00  6.89990666E-02  3.16423961E-01
  7.44308291E-01  1.00000000E+00  0.00000000E+00  0.00000000E+00  0.00000000E+00
  0.00000000E+00  0.00000000E+00  0.00000000E+00  0.00000000E+00  6.89990666E-02
  3.16423961E-01  7.44308291E-01  1.00000000E+00  0.00000000E+00  0.00000000E+00
  0.00000000E+00  0.00000000E+00  0.00000000E+00  0.00000000E+00  0.00000000E+00
  6.89990666E-02  3.16423961E-01  7.44308291E-01  1.00000000E+00  0.00000000E+00
  0.00000000E+00  0.00000000E+00  0.00000000E+00  0.00000000E+00  0.00000000E+00
  0.00000000E+00  6.89990666E-02  3.16423961E-01  7.44308291E-01  1.00000000E+00
  0.00000000E+00  0.00000000E+00  0.00000000E+00  0.00000000E+00  0.00000000E+00
  0.00000000E+00  0.00000000E+00  6.89990666E-02  3.16423961E-01  7.44308291E-01
  1.00000000E+00  0.00000000E+00  0.00000000E+00  0.00000000E+00  0.00000000E+00
  0.00000000E+00  0.00000000E+00  0.00000000E+00  6.89990666E-02  3.16423961E-01
  7.44308291E-01  1.00000000E+00  0.00000000E+00  0.00000000E+00  0.00000000E+00
  0.00000000E+00  0.00000000E+00  0.00000000E+00  0.00000000E+00  0.00000000E+00
  0.00000000E+00  0.00000000E+00  0.00000000E+00  0.00000000E+00  0.00000000E+00
  0.00000000E+00  0.00000000E+00  0.00000000E+00  0.00000000E+00  0.00000000E+00
  0.00000000E+00  0.00000000E+00  0.00000000E+00  0.00000000E+00  0.00000000E+00
  0.00000000E+00  0.00000000E+00  0.00000000E+00  0.00000000E+00  0.00000000E+00
  0.00000000E+00  0.00000000E+00  0.00000000E+00  0.00000000E+00  0.00000000E+00
Coordinates of each shell                  R   N=         144
 -5.04519965E+00  3.88618151E-01  1.20325432E+00 -5.04519965E+00  3.88618151E-01
  1.20325432E+00 -5.04519965E+00  3.88618151E-01  1.20325432E+00 -5.04519965E+00
  3.88618151E-01  1.20325432E+00 -3.50339579E+00 -3.54536447E-01 -9.00484078E-01
 -3.50339579E+00 -3.54536447E-01 -9.00484078E-01 -3.50339579E+00 -3.54536447E-01
 -9.00484078E-01 -3.50339579E+00 -3.54536447E-01 -9.00484078E-01 -7.62855480E-01
 -1.60678437E-01 -4.99038618E-01 -7.62855480E-01 -1.60678437E-01 -4.99038618E-01
 -7.62855480E-01 -1.60678437E-01 -4.99038618E-01 -7.62855480E-01 -1.60678437E-01
 -4.99038618E-01  3.20346054E-01  2.24108651E+00 -3.84763490E-01  3.20346054E-01
  2.24108651E+00 -3.84763490E-01  3.20346054E-01  2.24108651E+00 -3.84763490E-01
  3.20346054E-01  2.24108651E+00 -3.84763490E-01  2.91263077E+00  2.39629150E+00
  4.16996659E-02  2.91263077E+00  2.39629150E+00  4.16996659E-02  2.91263077E+00
  2.39629150E+00  4.16996659E-02  2.91263077E+00  2.39629150E+00  4.16996659E-02
  4.34452390E+00  1.93108778E-01  3.47361876E-01  4.34452390E+00  1.93108778E-01
  3.47361876E-01  4.34452390E+00  1.93108778E-01  3.47361876E-01  4.34452390E+00
  1.93108778E-01  3.47361876E-01  3.20613879E+00 -2.18620408E+00  2.34720387E-01
  3.20613879E+00 -2.18620408E+00  2.34720387E-01  3.20613879E+00 -2.18620408E+00
  2.34720387E-01  3.20613879E+00 -2.18620408E+00  2.34720387E-01  6.11144108E-01
 -2.38702217E+00 -1.85943478E-01  6.11144108E-01 -2.38702217E+00 -1.85943478E-01
  6.11144108E-01 -2.38702217E+00 -1.85943478E-01  6.11144108E-01 -2.38702217E+00
 -1.85943478E-01 -4.16806159E+00 -2.81620867E-01  2.69091148E+00 -4.16806159E+00
 -2.81620867E-01  2.69091148E+00 -4.01644693E+00 -2.16060147E+00 -1.41581932E+00
 -4.01644693E+00 -2.16060147E+00 -1.41581932E+00 -8.18432921E-01  3.93487930E+00
 -6.09676251E-01 -8.18432921E-01  3.93487930E+00 -6.09676251E-01  3.81473437E+00
  4.23523725E+00  1.30961378E-01  3.81473437E+00  4.23523725E+00  1.30961378E-01
  6.36476101E+00  3.35434710E-01  6.72243967E-01  6.36476101E+00  3.35434710E-01
  6.72243967E-01  4.32854870E+00 -3.88578455E+00  4.68013992E-01  4.32854870E+00
 -3.88578455E+00  4.68013992E-01 -2.91301340E-01 -4.23131710E+00 -2.86596105E-01
 -2.91301340E-01 -4.23131710E+00 -2.86596105E-01 -4.12000245E+00  8.47090055E-01
 -2.29690321E+00 -4.12000245E+00  8.47090055E-01 -2.29690321E+00
Num ILSW                                   I              100
ILSW                                       I   N=         100
           0           1           0           0           2           0
           0           0           0           0         402          -1
           5           0           0           0           2           0
           0           0           0           0           1           0
           1           0           0           0           0           0
           0           0      100000           0          -1           0
           0           0           0           0           0           0
           0           0           0           1           0           0
           0 -2000000000           1           0           0           0
           0           0           4          52           0           0
           0           0           5           0           0           0
           0           0           0          16           0           1
           0           0           0           0           0           0
           0           0           0           0           0           0
           0           0           0           0           0           0
           0           0           0           0           0           0
           0           0           0           0
Num RLSW                                   I               52
RLSW                                       R   N=          52
  8.00000000E-01  7.20000000E-01  1.00000000E+00  8.10000000E-01  2.00000000E-01
  0.00000000E+00  0.00000000E+00  1.00000000E+00  0.00000000E+00  0.00000000E+00
  0.00000000E+00  0.00000000E+00  1.00000000E+00  0.00000000E+00  0.00000000E+00
  0.00000000E+00  0.00000000E+00  1.00000000E+00  0.00000000E+00  0.00000000E+00
  0.00000000E+00  0.00000000E+00  1.00000000E+00  0.00000000E+00  0.00000000E+00
  0.00000000E+00  0.00000000E+00  1.00000000E+00  0.00000000E+00  0.00000000E+00
  0.00000000E+00  0.00000000E+00  1.00000000E+00  0.00000000E+00  0.00000000E+00
  0.00000000E+00  0.00000000E+00  0.00000000E+00  1.00000000E+00  1.00000000E+00
  0.00000000E+00  1.00000000E+00  0.00000000E+00  0.00000000E+00  0.00000000E+00
  0.00000000E+00  0.00000000E+00  0.00000000E+00  0.00000000E+00  0.00000000E+00