 Entering Gaussian System, Link 0=/apps/cent7/gaussian/g16-A.03/g16-haswell/g16/g16
 Initial command:
 /apps/cent7/gaussian/g16-A.03/g16-haswell/g16/l1.exe "/scratch/brown/finej/gaussian/Gau-148634.inp" -scrdir="/scratch/brown/finej/gaussian/"
 Entering Link 1 = /apps/cent7/gaussian/g16-A.03/g16-haswell/g16/l1.exe PID=    148635.
  
 Copyright (c) 1988,1990,1992,1993,1995,1998,2003,2009,2016,
            Gaussian, Inc.  All Rights Reserved.
  
 This is part of the Gaussian(R) 16 program.  It is based on
 the Gaussian(R) 09 system (copyright 2009, Gaussian, Inc.),
 the Gaussian(R) 03 system (copyright 2003, Gaussian, Inc.),
 the Gaussian(R) 98 system (copyright 1998, Gaussian, Inc.),
 the Gaussian(R) 94 system (copyright 1995, Gaussian, Inc.),
 the Gaussian 92(TM) system (copyright 1992, Gaussian, Inc.),
 the Gaussian 90(TM) system (copyright 1990, Gaussian, Inc.),
 the Gaussian 88(TM) system (copyright 1988, Gaussian, Inc.),
 the Gaussian 86(TM) system (copyright 1986, Carnegie Mellon
 University), and the Gaussian 82(TM) system (copyright 1983,
 Carnegie Mellon University). Gaussian is a federally registered
 trademark of Gaussian, Inc.
  
 This software contains proprietary and confidential information,
 including trade secrets, belonging to Gaussian, Inc.
  
 This software is provided under written license and may be
 used, copied, transmitted, or stored only in accord with that
 written license.
  
 The following legend is applicable only to US Government
 contracts under FAR:
  
                    RESTRICTED RIGHTS LEGEND
  
 Use, reproduction and disclosure by the US Government is
 subject to restrictions as set forth in subparagraphs (a)
 and (c) of the Commercial Computer Software - Restricted
 Rights clause in FAR 52.227-19.
  
 Gaussian, Inc.
 340 Quinnipiac St., Bldg. 40, Wallingford CT 06492
  
  
 ---------------------------------------------------------------
 Warning -- This program may not be used in any manner that
 competes with the business of Gaussian, Inc. or will provide
 assistance to any competitor of Gaussian, Inc.  The licensee
 of this program is prohibited from giving any competitor of
 Gaussian, Inc. access to this program.  By using this program,
 the user acknowledges that Gaussian, Inc. is engaged in the
 business of creating and licensing software in the field of
 computational chemistry and represents and warrants to the
 licensee that it is not a competitor of Gaussian, Inc. and that
 it will not use this program in any manner prohibited above.
 ---------------------------------------------------------------
  

 Cite this work as:
 Gaussian 16, Revision A.03,
 M. J. Frisch, G. W. Trucks, H. B. Schlegel, G. E. Scuseria, 
 M. A. Robb, J. R. Cheeseman, G. Scalmani, V. Barone, 
 G. A. Petersson, H. Nakatsuji, X. Li, M. Caricato, A. V. Marenich, 
 J. Bloino, B. G. Janesko, R. Gomperts, B. Mennucci, H. P. Hratchian, 
 J. V. Ortiz, A. F. Izmaylov, J. L. Sonnenberg, D. Williams-Young, 
 F. Ding, F. Lipparini, F. Egidi, J. Goings, B. Peng, A. Petrone, 
 T. Henderson, D. Ranasinghe, V. G. Zakrzewski, J. Gao, N. Rega, 
 G. Zheng, W. Liang, M. Hada, M. Ehara, K. Toyota, R. Fukuda, 
 J. Hasegawa, M. Ishida, T. Nakajima, Y. Honda, O. Kitao, H. Nakai, 
 T. Vreven, K. Throssell, J. A. Montgomery, Jr., J. E. Peralta, 
 F. Ogliaro, M. J. Bearpark, J. J. Heyd, E. N. Brothers, K. N. Kudin, 
 V. N. Staroverov, T. A. Keith, R. Kobayashi, J. Normand, 
 K. Raghavachari, A. P. Rendell, J. C. Burant, S. S. Iyengar, 
 J. Tomasi, M. Cossi, J. M. Millam, M. Klene, C. Adamo, R. Cammi, 
 J. W. Ochterski, R. L. Martin, K. Morokuma, O. Farkas, 
 J. B. Foresman, and D. J. Fox, Gaussian, Inc., Wallingford CT, 2016.
 
 ******************************************
 Gaussian 16:  ES64L-G16RevA.03 25-Dec-2016
                14-Oct-2019 
 ******************************************
 %chk=10_p.chk
 %nprocshared=24
 Will use up to   24 processors via shared memory.
 %mem=80GB
 --------------------------------------------------------------
 #P opt freq b3lyp/6-31g(d) geom=connectivity temperature=0.001
 --------------------------------------------------------------
 1/18=20,19=15,26=3,38=1,57=2,112=-1000/1,3;
 2/9=110,12=2,17=6,18=5,40=1/2;
 3/5=1,6=6,7=1,11=2,25=1,30=1,71=1,74=-5/1,2,3;
 4//1;
 5/5=2,38=5/2;
 6/7=2,8=2,9=2,10=2,28=1/1;
 7//1,2,3,16;
 1/18=20,19=15,26=3/3(2);
 2/9=110/2;
 99//99;
 2/9=110/2;
 3/5=1,6=6,7=1,11=2,25=1,30=1,71=1,74=-5/1,2,3;
 4/5=5,16=3,69=1/1;
 5/5=2,38=5/2;
 7//1,2,3,16;
 1/18=20,19=15,26=3/3(-5);
 2/9=110/2;
 6/7=2,8=2,9=2,10=2,19=2,28=1/1;
 99/9=1/99;
 Leave Link    1 at Mon Oct 14 00:12:19 2019, MaxMem= 10737418240 cpu:               0.9 elap:               0.0
 (Enter /apps/cent7/gaussian/g16-A.03/g16-haswell/g16/l101.exe)
 -------------------
 Title Card Required
 -------------------
 Symbolic Z-matrix:
 Charge =  1 Multiplicity = 1
 O                     1.4199    0.2754   -0.1395 
 N                     0.2167    0.0158    0.2908 
 C                    -0.3604   -1.2098    0.2157 
 C                     0.2259   -2.3083   -0.4575 
 C                    -0.4136   -3.5619   -0.471 
 C                    -1.6429   -3.7289    0.1918 
 C                    -2.2492   -2.6366    0.8375 
 C                    -1.6098   -1.3841    0.8468 
 H                     2.0071    0.4021    0.6093 
 H                     0.20178   0.27466   1.2566 
 H                     1.1799   -2.1875   -0.9708 
 H                     0.0426   -4.4024   -0.9941 
 H                    -2.1261   -4.7058    0.2051 
 H                    -3.2136   -2.7606    1.3301 
 H                    -2.0866   -0.5414    1.3473 
 H                    -0.39512   0.64433  -0.18943 
 
 ITRead=  0  0  0  0  0  0  0  0  0  0  0  0  0  0  0  0
 MicOpt= -1 -1 -1 -1 -1 -1 -1 -1 -1 -1 -1 -1 -1 -1 -1 -1
 NAtoms=     16 NQM=       16 NQMF=       0 NMMI=      0 NMMIF=      0
                NMic=       0 NMicF=      0.
                    Isotopes and Nuclear Properties:
 (Nuclear quadrupole moments (NQMom) in fm**2, nuclear magnetic moments (NMagM)
  in nuclear magnetons)

  Atom         1           2           3           4           5           6           7           8           9          10
 IAtWgt=          16          14          12          12          12          12          12          12           1           1
 AtmWgt=  15.9949146  14.0030740  12.0000000  12.0000000  12.0000000  12.0000000  12.0000000  12.0000000   1.0078250   1.0078250
 NucSpn=           0           2           0           0           0           0           0           0           1           1
 AtZEff=  -0.0000000  -0.0000000  -0.0000000  -0.0000000  -0.0000000  -0.0000000  -0.0000000  -0.0000000  -0.0000000  -0.0000000
 NQMom=    0.0000000   2.0440000   0.0000000   0.0000000   0.0000000   0.0000000   0.0000000   0.0000000   0.0000000   0.0000000
 NMagM=    0.0000000   0.4037610   0.0000000   0.0000000   0.0000000   0.0000000   0.0000000   0.0000000   2.7928460   2.7928460
 AtZNuc=   8.0000000   7.0000000   6.0000000   6.0000000   6.0000000   6.0000000   6.0000000   6.0000000   1.0000000   1.0000000

  Atom        11          12          13          14          15          16
 IAtWgt=           1           1           1           1           1           1
 AtmWgt=   1.0078250   1.0078250   1.0078250   1.0078250   1.0078250   1.0078250
 NucSpn=           1           1           1           1           1           1
 AtZEff=  -0.0000000  -0.0000000  -0.0000000  -0.0000000  -0.0000000  -0.0000000
 NQMom=    0.0000000   0.0000000   0.0000000   0.0000000   0.0000000   0.0000000
 NMagM=    2.7928460   2.7928460   2.7928460   2.7928460   2.7928460   2.7928460
 AtZNuc=   1.0000000   1.0000000   1.0000000   1.0000000   1.0000000   1.0000000
 Leave Link  101 at Mon Oct 14 00:12:19 2019, MaxMem= 10737418240 cpu:               8.2 elap:               0.4
 (Enter /apps/cent7/gaussian/g16-A.03/g16-haswell/g16/l103.exe)

 GradGradGradGradGradGradGradGradGradGradGradGradGradGradGradGradGradGrad
 Berny optimization.
 Initialization pass.
                           ----------------------------
                           !    Initial Parameters    !
                           ! (Angstroms and Degrees)  !
 --------------------------                            --------------------------
 ! Name  Definition              Value          Derivative Info.                !
 --------------------------------------------------------------------------------
 ! R1    R(1,2)                  1.3039         estimate D2E/DX2                !
 ! R2    R(1,9)                  0.96           estimate D2E/DX2                !
 ! R3    R(2,3)                  1.3568         estimate D2E/DX2                !
 ! R4    R(2,10)                 1.0            estimate D2E/DX2                !
 ! R5    R(2,16)                 1.0            estimate D2E/DX2                !
 ! R6    R(3,4)                  1.4155         estimate D2E/DX2                !
 ! R7    R(3,8)                  1.4106         estimate D2E/DX2                !
 ! R8    R(4,5)                  1.4074         estimate D2E/DX2                !
 ! R9    R(4,11)                 1.09           estimate D2E/DX2                !
 ! R10   R(5,6)                  1.4065         estimate D2E/DX2                !
 ! R11   R(5,12)                 1.09           estimate D2E/DX2                !
 ! R12   R(6,7)                  1.4063         estimate D2E/DX2                !
 ! R13   R(6,13)                 1.09           estimate D2E/DX2                !
 ! R14   R(7,8)                  1.4063         estimate D2E/DX2                !
 ! R15   R(7,14)                 1.09           estimate D2E/DX2                !
 ! R16   R(8,15)                 1.0899         estimate D2E/DX2                !
 ! A1    A(2,1,9)              109.4689         estimate D2E/DX2                !
 ! A2    A(1,2,3)              123.6468         estimate D2E/DX2                !
 ! A3    A(1,2,10)             106.3168         estimate D2E/DX2                !
 ! A4    A(1,2,16)             106.3168         estimate D2E/DX2                !
 ! A5    A(3,2,10)             106.3168         estimate D2E/DX2                !
 ! A6    A(3,2,16)             106.3168         estimate D2E/DX2                !
 ! A7    A(10,2,16)            106.9764         estimate D2E/DX2                !
 ! A8    A(2,3,4)              123.4477         estimate D2E/DX2                !
 ! A9    A(2,3,8)              117.6206         estimate D2E/DX2                !
 ! A10   A(4,3,8)              118.9317         estimate D2E/DX2                !
 ! A11   A(3,4,5)              120.5051         estimate D2E/DX2                !
 ! A12   A(3,4,11)             120.0304         estimate D2E/DX2                !
 ! A13   A(5,4,11)             119.4645         estimate D2E/DX2                !
 ! A14   A(4,5,6)              119.8926         estimate D2E/DX2                !
 ! A15   A(4,5,12)             120.0834         estimate D2E/DX2                !
 ! A16   A(6,5,12)             120.024          estimate D2E/DX2                !
 ! A17   A(5,6,7)              120.0628         estimate D2E/DX2                !
 ! A18   A(5,6,13)             119.9751         estimate D2E/DX2                !
 ! A19   A(7,6,13)             119.9622         estimate D2E/DX2                !
 ! A20   A(6,7,8)              119.9201         estimate D2E/DX2                !
 ! A21   A(6,7,14)             120.0395         estimate D2E/DX2                !
 ! A22   A(8,7,14)             120.0403         estimate D2E/DX2                !
 ! A23   A(3,8,7)              120.6517         estimate D2E/DX2                !
 ! A24   A(3,8,15)             119.8273         estimate D2E/DX2                !
 ! A25   A(7,8,15)             119.521          estimate D2E/DX2                !
 ! D1    D(9,1,2,3)           -107.6452         estimate D2E/DX2                !
 ! D2    D(9,1,2,10)            15.4814         estimate D2E/DX2                !
 ! D3    D(9,1,2,16)           129.2282         estimate D2E/DX2                !
 ! D4    D(1,2,3,4)             -6.5759         estimate D2E/DX2                !
 ! D5    D(1,2,3,8)            173.3902         estimate D2E/DX2                !
 ! D6    D(10,2,3,4)          -129.7025         estimate D2E/DX2                !
 ! D7    D(10,2,3,8)            50.2636         estimate D2E/DX2                !
 ! D8    D(16,2,3,4)           116.5508         estimate D2E/DX2                !
 ! D9    D(16,2,3,8)           -63.4832         estimate D2E/DX2                !
 ! D10   D(2,3,4,5)            178.5523         estimate D2E/DX2                !
 ! D11   D(2,3,4,11)            -1.4428         estimate D2E/DX2                !
 ! D12   D(8,3,4,5)             -1.4133         estimate D2E/DX2                !
 ! D13   D(8,3,4,11)           178.5915         estimate D2E/DX2                !
 ! D14   D(2,3,8,7)           -178.3951         estimate D2E/DX2                !
 ! D15   D(2,3,8,15)             1.6072         estimate D2E/DX2                !
 ! D16   D(4,3,8,7)              1.5726         estimate D2E/DX2                !
 ! D17   D(4,3,8,15)          -178.4252         estimate D2E/DX2                !
 ! D18   D(3,4,5,6)             -0.1854         estimate D2E/DX2                !
 ! D19   D(3,4,5,12)           179.8155         estimate D2E/DX2                !
 ! D20   D(11,4,5,6)           179.8098         estimate D2E/DX2                !
 ! D21   D(11,4,5,12)           -0.1893         estimate D2E/DX2                !
 ! D22   D(4,5,6,7)              1.6501         estimate D2E/DX2                !
 ! D23   D(4,5,6,13)          -178.3455         estimate D2E/DX2                !
 ! D24   D(12,5,6,7)          -178.3508         estimate D2E/DX2                !
 ! D25   D(12,5,6,13)            1.6537         estimate D2E/DX2                !
 ! D26   D(5,6,7,8)             -1.4947         estimate D2E/DX2                !
 ! D27   D(5,6,7,14)           178.5003         estimate D2E/DX2                !
 ! D28   D(13,6,7,8)           178.5008         estimate D2E/DX2                !
 ! D29   D(13,6,7,14)           -1.5042         estimate D2E/DX2                !
 ! D30   D(6,7,8,3)             -0.1317         estimate D2E/DX2                !
 ! D31   D(6,7,8,15)           179.8661         estimate D2E/DX2                !
 ! D32   D(14,7,8,3)           179.8733         estimate D2E/DX2                !
 ! D33   D(14,7,8,15)           -0.1289         estimate D2E/DX2                !
 --------------------------------------------------------------------------------
 Trust Radius=3.00D-01 FncErr=1.00D-07 GrdErr=1.00D-06 EigMax=2.50D+02 EigMin=1.00D-04
 Number of steps in this run=     84 maximum allowed number of steps=    100.
 GradGradGradGradGradGradGradGradGradGradGradGradGradGradGradGradGradGrad

 Leave Link  103 at Mon Oct 14 00:12:19 2019, MaxMem= 10737418240 cpu:               1.1 elap:               0.1
 (Enter /apps/cent7/gaussian/g16-A.03/g16-haswell/g16/l202.exe)
                          Input orientation:                          
 ---------------------------------------------------------------------
 Center     Atomic      Atomic             Coordinates (Angstroms)
 Number     Number       Type             X           Y           Z
 ---------------------------------------------------------------------
      1          8           0        1.419900    0.275400   -0.139500
      2          7           0        0.216700    0.015800    0.290800
      3          6           0       -0.360400   -1.209800    0.215700
      4          6           0        0.225900   -2.308300   -0.457500
      5          6           0       -0.413600   -3.561900   -0.471000
      6          6           0       -1.642900   -3.728900    0.191800
      7          6           0       -2.249200   -2.636600    0.837500
      8          6           0       -1.609800   -1.384100    0.846800
      9          1           0        2.007100    0.402100    0.609300
     10          1           0        0.201779    0.274658    1.256600
     11          1           0        1.179900   -2.187500   -0.970800
     12          1           0        0.042600   -4.402400   -0.994100
     13          1           0       -2.126100   -4.705800    0.205100
     14          1           0       -3.213600   -2.760600    1.330100
     15          1           0       -2.086600   -0.541400    1.347300
     16          1           0       -0.395124    0.644330   -0.189431
 ---------------------------------------------------------------------
                    Distance matrix (angstroms):
                    1          2          3          4          5
     1  O    0.000000
     2  N    1.303933   0.000000
     3  C    2.345518   1.356753   0.000000
     4  C    2.863960   2.441614   1.415503   0.000000
     5  C    4.265734   3.711813   2.450870   1.407358   0.000000
     6  C    5.052220   4.182187   2.826879   2.435592   1.406546
     7  C    4.785036   3.662618   2.447439   2.812637   2.436756
     8  C    3.592466   2.367479   1.410556   2.434161   2.812526
     9  H    0.959978   1.859086   2.891055   3.414235   4.768662
    10  H    1.852813   1.000000   1.898192   3.100063   4.252349
    11  H    2.610467   2.715496   2.176282   1.090039   2.162873
    12  H    4.950668   4.604538   3.437836   2.169515   1.090042
    13  H    6.124150   5.271581   3.916609   3.423295   2.167550
    14  H    5.731173   4.533817   3.433310   3.902595   3.424331
    15  H    3.895289   2.594582   2.169572   3.424455   3.902379
    16  H    1.852813   1.000000   1.898192   3.029118   4.215684
                    6          7          8          9         10
     6  C    0.000000
     7  C    1.406289   0.000000
     8  C    2.434791   1.406298   0.000000
     9  H    5.528288   5.234679   4.040901   0.000000
    10  H    4.534878   3.828625   2.490227   1.922088   0.000000
    11  H    3.419905   3.902610   3.425135   3.144361   3.461250
    12  H    2.168149   3.424201   3.902496   5.432621   5.192866
    13  H    1.089951   2.167181   3.422285   6.583112   5.597288
    14  H    2.168048   1.089999   2.168065   6.146376   4.569793
    15  H    3.419387   2.162452   1.089946   4.265351   2.431225
    16  H    4.563707   3.905981   2.581422   2.543094   1.607469
                   11         12         13         14         15
    11  H    0.000000
    12  H    2.489935   0.000000
    13  H    4.319052   2.496676   0.000000
    14  H    4.992537   4.324379   2.496414   0.000000
    15  H    4.330503   4.992291   4.318380   2.489031   0.000000
    16  H    3.333241   5.129189   5.637005   4.674005   2.574604
                   16
    16  H    0.000000
 Stoichiometry    C6H8NO(1+)
 Framework group  C1[X(C6H8NO)]
 Deg. of freedom    42
 Full point group                 C1      NOp   1
 Largest Abelian subgroup         C1      NOp   1
 Largest concise Abelian subgroup C1      NOp   1
                         Standard orientation:                         
 ---------------------------------------------------------------------
 Center     Atomic      Atomic             Coordinates (Angstroms)
 Number     Number       Type             X           Y           Z
 ---------------------------------------------------------------------
      1          8           0       -2.714128    0.434839    0.020133
      2          7           0       -1.783231   -0.473539   -0.072182
      3          6           0       -0.455695   -0.194183   -0.052449
      4          6           0        0.064865    1.122068   -0.064592
      5          6           0        1.454032    1.341419   -0.012097
      6          6           0        2.334452    0.246673    0.056929
      7          6           0        1.829505   -1.065704    0.038479
      8          6           0        0.441120   -1.282373   -0.017341
      9          1           0       -3.130048    0.380138    0.883601
     10          1           0       -1.945614   -1.119075    0.674085
     11          1           0       -0.611211    1.975639   -0.114817
     12          1           0        1.847567    2.357863   -0.024870
     13          1           0        3.409097    0.415545    0.124858
     14          1           0        2.513425   -1.913949    0.067327
     15          1           0        0.056938   -2.302238   -0.033565
     16          1           0       -1.954197   -0.965261   -0.925985
 ---------------------------------------------------------------------
 Rotational constants (GHZ):           5.0126161           1.4864474           1.1588628
 Leave Link  202 at Mon Oct 14 00:12:19 2019, MaxMem= 10737418240 cpu:               0.9 elap:               0.1
 (Enter /apps/cent7/gaussian/g16-A.03/g16-haswell/g16/l301.exe)
 Standard basis: 6-31G(d) (6D, 7F)
 Ernie: Thresh=  0.10000D-02 Tol=  0.10000D-05 Strict=F.
 There are   136 symmetry adapted cartesian basis functions of A   symmetry.
 There are   136 symmetry adapted basis functions of A   symmetry.
   136 basis functions,   256 primitive gaussians,   136 cartesian basis functions
    29 alpha electrons       29 beta electrons
       nuclear repulsion energy       358.7301588289 Hartrees.
 IExCor=  402 DFT=T Ex+Corr=B3LYP ExCW=0 ScaHFX=  0.200000
 ScaDFX=  0.800000  0.720000  1.000000  0.810000 ScalE2=  1.000000  1.000000
 IRadAn=      5 IRanWt=     -1 IRanGd=            0 ICorTp=0 IEmpDi=  4
 NAtoms=   16 NActive=   16 NUniq=   16 SFac= 1.00D+00 NAtFMM=   60 NAOKFM=F Big=F
 Integral buffers will be    131072 words long.
 Raffenetti 2 integral format.
 Two-electron integral symmetry is turned on.
 Leave Link  301 at Mon Oct 14 00:12:19 2019, MaxMem= 10737418240 cpu:               1.3 elap:               0.1
 (Enter /apps/cent7/gaussian/g16-A.03/g16-haswell/g16/l302.exe)
 NPDir=0 NMtPBC=     1 NCelOv=     1 NCel=       1 NClECP=     1 NCelD=      1
         NCelK=      1 NCelE2=     1 NClLst=     1 CellRange=     0.0.
 One-electron integrals computed using PRISM.
 One-electron integral symmetry used in STVInt
 NBasis=   136 RedAO= T EigKep=  4.91D-04  NBF=   136
 NBsUse=   136 1.00D-06 EigRej= -1.00D+00 NBFU=   136
 Precomputing XC quadrature grid using
 IXCGrd= 4 IRadAn=           5 IRanWt=          -1 IRanGd=           0 AccXCQ= 0.00D+00.
 Generated NRdTot=       0 NPtTot=           0 NUsed=           0 NTot=          32
 NSgBfM=   136   136   136   136   136 MxSgAt=    16 MxSgA2=    16.
 Leave Link  302 at Mon Oct 14 00:12:19 2019, MaxMem= 10737418240 cpu:               3.2 elap:               0.2
 (Enter /apps/cent7/gaussian/g16-A.03/g16-haswell/g16/l303.exe)
 DipDrv:  MaxL=1.
 Leave Link  303 at Mon Oct 14 00:12:20 2019, MaxMem= 10737418240 cpu:               0.6 elap:               0.1
 (Enter /apps/cent7/gaussian/g16-A.03/g16-haswell/g16/l401.exe)
 ExpMin= 1.61D-01 ExpMax= 5.48D+03 ExpMxC= 8.25D+02 IAcc=3 IRadAn=         5 AccDes= 0.00D+00
 Harris functional with IExCor=  402 and IRadAn=       5 diagonalized for initial guess.
 HarFok:  IExCor=  402 AccDes= 0.00D+00 IRadAn=         5 IDoV= 1 UseB2=F ITyADJ=14
 ICtDFT=  3500011 ScaDFX=  1.000000  1.000000  1.000000  1.000000
 FoFCou: FMM=F IPFlag=           0 FMFlag=      100000 FMFlg1=           0
         NFxFlg=           0 DoJE=T BraDBF=F KetDBF=T FulRan=T
         wScrn=  0.000000 ICntrl=       500 IOpCl=  0 I1Cent=   200000004 NGrid=           0
         NMat0=    1 NMatS0=      1 NMatT0=    0 NMatD0=    1 NMtDS0=    0 NMtDT0=    0
 Petite list used in FoFCou.
 Harris En= -363.127988639662    
 JPrj=0 DoOrth=F DoCkMO=F.
 Leave Link  401 at Mon Oct 14 00:12:20 2019, MaxMem= 10737418240 cpu:               6.1 elap:               0.3
 (Enter /apps/cent7/gaussian/g16-A.03/g16-haswell/g16/l502.exe)
 Integral symmetry usage will be decided dynamically.
 Closed shell SCF:
 Using DIIS extrapolation, IDIIS=  1040.
 NGot= 10737418240 LenX= 10737376316 LenY= 10737357379
 Requested convergence on RMS density matrix=1.00D-08 within 128 cycles.
 Requested convergence on MAX density matrix=1.00D-06.
 Requested convergence on             energy=1.00D-06.
 No special actions if energy rises.
 Fock matrices will be formed incrementally for  20 cycles.
 Integral accuracy reduced to 1.0D-05 until final iterations.

 Cycle   1  Pass 0  IDiag  1:
 FoFJK:  IHMeth= 1 ICntrl=       0 DoSepK=F KAlg= 0 I1Cent=           0 FoldK=F
 IRaf= 960000000 NMat=       1 IRICut=       1 DoRegI=T DoRafI=F ISym2E= 0 IDoP0=0 IntGTp=1.
 FoFCou: FMM=F IPFlag=           0 FMFlag=      100000 FMFlg1=           0
         NFxFlg=           0 DoJE=F BraDBF=F KetDBF=F FulRan=T
         wScrn=  0.000000 ICntrl=         0 IOpCl=  0 I1Cent=           0 NGrid=           0
         NMat0=    1 NMatS0=      1 NMatT0=    0 NMatD0=    1 NMtDS0=    0 NMtDT0=    0
 Symmetry not used in FoFCou.
 E= -362.883308915845    
 DIIS: error= 3.71D-02 at cycle   1 NSaved=   1.
 NSaved= 1 IEnMin= 1 EnMin= -362.883308915845     IErMin= 1 ErrMin= 3.71D-02
 ErrMax= 3.71D-02  0.00D+00 EMaxC= 1.00D-01 BMatC= 1.74D-01 BMatP= 1.74D-01
 IDIUse=3 WtCom= 6.29D-01 WtEn= 3.71D-01
 Coeff-Com:  0.100D+01
 Coeff-En:   0.100D+01
 Coeff:      0.100D+01
 Gap=     0.286 Goal=   None    Shift=    0.000
 GapD=    0.286 DampG=1.000 DampE=0.500 DampFc=0.5000 IDamp=-1.
 Damping current iteration by 5.00D-01
 RMSDP=8.29D-03 MaxDP=1.32D-01              OVMax= 2.99D-01

 Cycle   2  Pass 0  IDiag  1:
 RMSU=  4.12D-03    CP:  9.82D-01
 E= -362.948175277493     Delta-E=       -0.064866361648 Rises=F Damp=T
 DIIS: error= 7.64D-03 at cycle   2 NSaved=   2.
 NSaved= 2 IEnMin= 2 EnMin= -362.948175277493     IErMin= 2 ErrMin= 7.64D-03
 ErrMax= 7.64D-03  0.00D+00 EMaxC= 1.00D-01 BMatC= 2.15D-02 BMatP= 1.74D-01
 IDIUse=3 WtCom= 9.24D-01 WtEn= 7.64D-02
 Coeff-Com:  0.141D+00 0.859D+00
 Coeff-En:   0.250D+00 0.750D+00
 Coeff:      0.149D+00 0.851D+00
 Gap=     0.236 Goal=   None    Shift=    0.000
 RMSDP=2.33D-03 MaxDP=5.31D-02 DE=-6.49D-02 OVMax= 2.67D-01

 Cycle   3  Pass 0  IDiag  1:
 RMSU=  2.11D-03    CP:  9.72D-01  7.66D-01
 E= -363.049791404878     Delta-E=       -0.101616127385 Rises=F Damp=F
 DIIS: error= 9.21D-03 at cycle   3 NSaved=   3.
 NSaved= 3 IEnMin= 3 EnMin= -363.049791404878     IErMin= 2 ErrMin= 7.64D-03
 ErrMax= 9.21D-03  0.00D+00 EMaxC= 1.00D-01 BMatC= 1.64D-02 BMatP= 2.15D-02
 IDIUse=3 WtCom= 9.08D-01 WtEn= 9.21D-02
 Coeff-Com:  0.311D-02 0.461D+00 0.536D+00
 Coeff-En:   0.000D+00 0.000D+00 0.100D+01
 Coeff:      0.283D-02 0.419D+00 0.579D+00
 Gap=     0.225 Goal=   None    Shift=    0.000
 RMSDP=1.32D-03 MaxDP=4.04D-02 DE=-1.02D-01 OVMax= 7.81D-02

 Cycle   4  Pass 0  IDiag  1:
 RMSU=  9.83D-04    CP:  9.75D-01  8.76D-01  6.42D-01
 E= -363.062983881755     Delta-E=       -0.013192476877 Rises=F Damp=F
 DIIS: error= 5.04D-03 at cycle   4 NSaved=   4.
 NSaved= 4 IEnMin= 4 EnMin= -363.062983881755     IErMin= 4 ErrMin= 5.04D-03
 ErrMax= 5.04D-03  0.00D+00 EMaxC= 1.00D-01 BMatC= 3.66D-03 BMatP= 1.64D-02
 IDIUse=3 WtCom= 9.50D-01 WtEn= 5.04D-02
 Coeff-Com: -0.109D-01 0.105D+00 0.345D+00 0.560D+00
 Coeff-En:   0.000D+00 0.000D+00 0.226D+00 0.774D+00
 Coeff:     -0.103D-01 0.100D+00 0.339D+00 0.571D+00
 Gap=     0.223 Goal=   None    Shift=    0.000
 RMSDP=5.58D-04 MaxDP=1.13D-02 DE=-1.32D-02 OVMax= 3.12D-02

 Cycle   5  Pass 0  IDiag  1:
 RMSU=  2.13D-04    CP:  9.74D-01  8.39D-01  7.73D-01  5.85D-01
 E= -363.066949744006     Delta-E=       -0.003965862251 Rises=F Damp=F
 DIIS: error= 1.12D-03 at cycle   5 NSaved=   5.
 NSaved= 5 IEnMin= 5 EnMin= -363.066949744006     IErMin= 5 ErrMin= 1.12D-03
 ErrMax= 1.12D-03  0.00D+00 EMaxC= 1.00D-01 BMatC= 1.62D-04 BMatP= 3.66D-03
 IDIUse=3 WtCom= 9.89D-01 WtEn= 1.12D-02
 Coeff-Com: -0.556D-02 0.191D-01 0.127D+00 0.289D+00 0.570D+00
 Coeff-En:   0.000D+00 0.000D+00 0.000D+00 0.000D+00 0.100D+01
 Coeff:     -0.550D-02 0.189D-01 0.126D+00 0.286D+00 0.575D+00
 Gap=     0.223 Goal=   None    Shift=    0.000
 RMSDP=1.08D-04 MaxDP=2.47D-03 DE=-3.97D-03 OVMax= 6.62D-03

 Cycle   6  Pass 0  IDiag  1:
 RMSU=  7.71D-05    CP:  9.74D-01  8.47D-01  7.64D-01  6.32D-01  7.71D-01
 E= -363.067103202873     Delta-E=       -0.000153458867 Rises=F Damp=F
 DIIS: error= 2.62D-04 at cycle   6 NSaved=   6.
 NSaved= 6 IEnMin= 6 EnMin= -363.067103202873     IErMin= 6 ErrMin= 2.62D-04
 ErrMax= 2.62D-04  0.00D+00 EMaxC= 1.00D-01 BMatC= 1.61D-05 BMatP= 1.62D-04
 IDIUse=3 WtCom= 9.97D-01 WtEn= 2.62D-03
 Coeff-Com: -0.187D-02 0.580D-03 0.328D-01 0.939D-01 0.304D+00 0.571D+00
 Coeff-En:   0.000D+00 0.000D+00 0.000D+00 0.000D+00 0.163D-01 0.984D+00
 Coeff:     -0.186D-02 0.578D-03 0.327D-01 0.936D-01 0.303D+00 0.572D+00
 Gap=     0.223 Goal=   None    Shift=    0.000
 RMSDP=3.00D-05 MaxDP=5.34D-04 DE=-1.53D-04 OVMax= 1.21D-03

 Cycle   7  Pass 0  IDiag  1:
 RMSU=  1.12D-05    CP:  9.74D-01  8.46D-01  7.66D-01  6.36D-01  7.85D-01
                    CP:  6.56D-01
 E= -363.067118391936     Delta-E=       -0.000015189064 Rises=F Damp=F
 DIIS: error= 2.18D-05 at cycle   7 NSaved=   7.
 NSaved= 7 IEnMin= 7 EnMin= -363.067118391936     IErMin= 7 ErrMin= 2.18D-05
 ErrMax= 2.18D-05  0.00D+00 EMaxC= 1.00D-01 BMatC= 1.78D-07 BMatP= 1.61D-05
 IDIUse=1 WtCom= 1.00D+00 WtEn= 0.00D+00
 Coeff-Com: -0.174D-03-0.884D-03 0.386D-02 0.136D-01 0.565D-01 0.152D+00
 Coeff-Com:  0.775D+00
 Coeff:     -0.174D-03-0.884D-03 0.386D-02 0.136D-01 0.565D-01 0.152D+00
 Coeff:      0.775D+00
 Gap=     0.223 Goal=   None    Shift=    0.000
 RMSDP=4.28D-06 MaxDP=9.32D-05 DE=-1.52D-05 OVMax= 1.71D-04

 Initial convergence to 1.0D-05 achieved.  Increase integral accuracy.
 Cycle   8  Pass 1  IDiag  1:
 E= -363.067130281511     Delta-E=       -0.000011889575 Rises=F Damp=F
 DIIS: error= 1.71D-05 at cycle   1 NSaved=   1.
 NSaved= 1 IEnMin= 1 EnMin= -363.067130281511     IErMin= 1 ErrMin= 1.71D-05
 ErrMax= 1.71D-05  0.00D+00 EMaxC= 1.00D-01 BMatC= 6.72D-08 BMatP= 6.72D-08
 IDIUse=1 WtCom= 1.00D+00 WtEn= 0.00D+00
 Coeff-Com:  0.100D+01
 Coeff:      0.100D+01
 Gap=     0.223 Goal=   None    Shift=    0.000
 RMSDP=4.28D-06 MaxDP=9.32D-05 DE=-1.19D-05 OVMax= 1.01D-04

 Cycle   9  Pass 1  IDiag  1:
 RMSU=  5.76D-06    CP:  1.00D+00
 E= -363.067130260768     Delta-E=        0.000000020744 Rises=F Damp=F
 DIIS: error= 1.98D-05 at cycle   2 NSaved=   2.
 NSaved= 2 IEnMin= 1 EnMin= -363.067130281511     IErMin= 1 ErrMin= 1.71D-05
 ErrMax= 1.98D-05  0.00D+00 EMaxC= 1.00D-01 BMatC= 9.33D-08 BMatP= 6.72D-08
 IDIUse=1 WtCom= 1.00D+00 WtEn= 0.00D+00
 Coeff-Com:  0.543D+00 0.457D+00
 Coeff:      0.543D+00 0.457D+00
 Gap=     0.223 Goal=   None    Shift=    0.000
 RMSDP=2.04D-06 MaxDP=4.70D-05 DE= 2.07D-08 OVMax= 7.60D-05

 Cycle  10  Pass 1  IDiag  1:
 RMSU=  1.81D-06    CP:  1.00D+00  8.38D-01
 E= -363.067130338705     Delta-E=       -0.000000077937 Rises=F Damp=F
 DIIS: error= 3.19D-06 at cycle   3 NSaved=   3.
 NSaved= 3 IEnMin= 3 EnMin= -363.067130338705     IErMin= 3 ErrMin= 3.19D-06
 ErrMax= 3.19D-06  0.00D+00 EMaxC= 1.00D-01 BMatC= 1.25D-09 BMatP= 6.72D-08
 IDIUse=1 WtCom= 1.00D+00 WtEn= 0.00D+00
 Coeff-Com:  0.109D+00 0.136D+00 0.755D+00
 Coeff:      0.109D+00 0.136D+00 0.755D+00
 Gap=     0.223 Goal=   None    Shift=    0.000
 RMSDP=5.04D-07 MaxDP=1.16D-05 DE=-7.79D-08 OVMax= 3.15D-05

 Cycle  11  Pass 1  IDiag  1:
 RMSU=  4.39D-07    CP:  1.00D+00  8.55D-01  8.74D-01
 E= -363.067130338779     Delta-E=       -0.000000000074 Rises=F Damp=F
 DIIS: error= 3.16D-06 at cycle   4 NSaved=   4.
 NSaved= 4 IEnMin= 4 EnMin= -363.067130338779     IErMin= 4 ErrMin= 3.16D-06
 ErrMax= 3.16D-06  0.00D+00 EMaxC= 1.00D-01 BMatC= 1.20D-09 BMatP= 1.25D-09
 IDIUse=1 WtCom= 1.00D+00 WtEn= 0.00D+00
 Coeff-Com: -0.674D-02 0.248D-01 0.526D+00 0.456D+00
 Coeff:     -0.674D-02 0.248D-01 0.526D+00 0.456D+00
 Gap=     0.223 Goal=   None    Shift=    0.000
 RMSDP=2.74D-07 MaxDP=5.66D-06 DE=-7.39D-11 OVMax= 1.70D-05

 Cycle  12  Pass 1  IDiag  1:
 RMSU=  6.55D-08    CP:  1.00D+00  8.56D-01  9.29D-01  4.37D-01
 E= -363.067130340113     Delta-E=       -0.000000001334 Rises=F Damp=F
 DIIS: error= 3.36D-07 at cycle   5 NSaved=   5.
 NSaved= 5 IEnMin= 5 EnMin= -363.067130340113     IErMin= 5 ErrMin= 3.36D-07
 ErrMax= 3.36D-07  0.00D+00 EMaxC= 1.00D-01 BMatC= 1.94D-11 BMatP= 1.20D-09
 IDIUse=1 WtCom= 1.00D+00 WtEn= 0.00D+00
 Coeff-Com: -0.582D-02 0.108D-01 0.275D+00 0.253D+00 0.467D+00
 Coeff:     -0.582D-02 0.108D-01 0.275D+00 0.253D+00 0.467D+00
 Gap=     0.223 Goal=   None    Shift=    0.000
 RMSDP=3.57D-08 MaxDP=7.52D-07 DE=-1.33D-09 OVMax= 1.96D-06

 Cycle  13  Pass 1  IDiag  1:
 RMSU=  2.56D-08    CP:  1.00D+00  8.56D-01  9.30D-01  4.70D-01  6.93D-01
 E= -363.067130340133     Delta-E=       -0.000000000019 Rises=F Damp=F
 DIIS: error= 5.68D-08 at cycle   6 NSaved=   6.
 NSaved= 6 IEnMin= 6 EnMin= -363.067130340133     IErMin= 6 ErrMin= 5.68D-08
 ErrMax= 5.68D-08  0.00D+00 EMaxC= 1.00D-01 BMatC= 9.75D-13 BMatP= 1.94D-11
 IDIUse=1 WtCom= 1.00D+00 WtEn= 0.00D+00
 Coeff-Com: -0.154D-02 0.702D-03 0.373D-01 0.398D-01 0.202D+00 0.722D+00
 Coeff:     -0.154D-02 0.702D-03 0.373D-01 0.398D-01 0.202D+00 0.722D+00
 Gap=     0.223 Goal=   None    Shift=    0.000
 RMSDP=7.74D-09 MaxDP=2.10D-07 DE=-1.94D-11 OVMax= 3.53D-07

 SCF Done:  E(RB3LYP) =  -363.067130340     A.U. after   13 cycles
            NFock= 13  Conv=0.77D-08     -V/T= 2.0084
 KE= 3.600435184574D+02 PE=-1.550420801698D+03 EE= 4.685799940715D+02
 Leave Link  502 at Mon Oct 14 00:12:22 2019, MaxMem= 10737418240 cpu:              51.0 elap:               2.2
 (Enter /apps/cent7/gaussian/g16-A.03/g16-haswell/g16/l601.exe)
 Copying SCF densities to generalized density rwf, IOpCl= 0 IROHF=0.

 **********************************************************************

            Population analysis using the SCF density.

 **********************************************************************

 Orbital symmetries:
       Occupied  (A) (A) (A) (A) (A) (A) (A) (A) (A) (A) (A) (A)
                 (A) (A) (A) (A) (A) (A) (A) (A) (A) (A) (A) (A)
                 (A) (A) (A) (A) (A)
       Virtual   (A) (A) (A) (A) (A) (A) (A) (A) (A) (A) (A) (A)
                 (A) (A) (A) (A) (A) (A) (A) (A) (A) (A) (A) (A)
                 (A) (A) (A) (A) (A) (A) (A) (A) (A) (A) (A) (A)
                 (A) (A) (A) (A) (A) (A) (A) (A) (A) (A) (A) (A)
                 (A) (A) (A) (A) (A) (A) (A) (A) (A) (A) (A) (A)
                 (A) (A) (A) (A) (A) (A) (A) (A) (A) (A) (A) (A)
                 (A) (A) (A) (A) (A) (A) (A) (A) (A) (A) (A) (A)
                 (A) (A) (A) (A) (A) (A) (A) (A) (A) (A) (A) (A)
                 (A) (A) (A) (A) (A) (A) (A) (A) (A) (A) (A)
 The electronic state is 1-A.
 Alpha  occ. eigenvalues --  -19.43006 -14.72639 -10.41378 -10.37348 -10.36890
 Alpha  occ. eigenvalues --  -10.35594 -10.35266 -10.34981  -1.41612  -1.16455
 Alpha  occ. eigenvalues --   -1.01062  -0.92491  -0.91499  -0.88187  -0.83329
 Alpha  occ. eigenvalues --   -0.82234  -0.76169  -0.72378  -0.65781  -0.62985
 Alpha  occ. eigenvalues --   -0.60781  -0.60147  -0.58319  -0.54849  -0.52734
 Alpha  occ. eigenvalues --   -0.51938  -0.50828  -0.41783  -0.41329
 Alpha virt. eigenvalues --   -0.19026  -0.17872  -0.16586  -0.11969  -0.09089
 Alpha virt. eigenvalues --   -0.05396  -0.03708  -0.00536   0.00277   0.01240
 Alpha virt. eigenvalues --    0.04378   0.05247   0.07476   0.12306   0.14411
 Alpha virt. eigenvalues --    0.17490   0.18091   0.28368   0.35849   0.36498
 Alpha virt. eigenvalues --    0.37424   0.38102   0.39090   0.41988   0.43308
 Alpha virt. eigenvalues --    0.44067   0.44226   0.46200   0.46431   0.48974
 Alpha virt. eigenvalues --    0.50517   0.52122   0.54523   0.56388   0.59163
 Alpha virt. eigenvalues --    0.61307   0.63100   0.64577   0.67493   0.69240
 Alpha virt. eigenvalues --    0.70071   0.71438   0.72281   0.76547   0.78022
 Alpha virt. eigenvalues --    0.79649   0.81642   0.84131   0.88196   0.93979
 Alpha virt. eigenvalues --    0.94202   0.96721   1.00973   1.02691   1.06741
 Alpha virt. eigenvalues --    1.09371   1.20851   1.26450   1.26780   1.29557
 Alpha virt. eigenvalues --    1.30388   1.33034   1.34538   1.46208   1.48612
 Alpha virt. eigenvalues --    1.50338   1.58303   1.64099   1.67364   1.71216
 Alpha virt. eigenvalues --    1.72563   1.77611   1.80341   1.83658   1.88111
 Alpha virt. eigenvalues --    1.92321   1.94685   1.97427   1.98619   2.04089
 Alpha virt. eigenvalues --    2.08137   2.09054   2.12754   2.13383   2.16913
 Alpha virt. eigenvalues --    2.27885   2.31736   2.37552   2.40055   2.42039
 Alpha virt. eigenvalues --    2.48365   2.51727   2.55208   2.55532   2.62108
 Alpha virt. eigenvalues --    2.67287   2.72759   2.96603   3.21405   3.50210
 Alpha virt. eigenvalues --    3.77867   3.90448   3.94515   3.96833   4.15997
 Alpha virt. eigenvalues --    4.19108   4.51575
          Condensed to atoms (all electrons):
               1          2          3          4          5          6
     1  O    8.156608   0.123251  -0.043283   0.000270   0.000217  -0.000001
     2  N    0.123251   6.585364   0.157171  -0.051026   0.004284   0.000373
     3  C   -0.043283   0.157171   4.962174   0.553244  -0.017455  -0.035238
     4  C    0.000270  -0.051026   0.553244   4.874339   0.530265  -0.038270
     5  C    0.000217   0.004284  -0.017455   0.530265   4.832756   0.539335
     6  C   -0.000001   0.000373  -0.035238  -0.038270   0.539335   4.835432
     7  C   -0.000040   0.002835  -0.015119  -0.037940  -0.024531   0.540554
     8  C    0.004762  -0.063652   0.467605  -0.040561  -0.040439  -0.039450
     9  H    0.248713  -0.024020   0.002978   0.000137  -0.000021   0.000000
    10  H   -0.020456   0.310842  -0.043656   0.002742   0.000002   0.000058
    11  H    0.008042  -0.011081  -0.042285   0.359639  -0.030357   0.004162
    12  H   -0.000001  -0.000113   0.003213  -0.033911   0.364189  -0.034294
    13  H   -0.000000   0.000004   0.000697   0.004181  -0.036364   0.364180
    14  H    0.000000  -0.000095   0.003099   0.000723   0.003755  -0.033261
    15  H    0.000010  -0.002434  -0.073685   0.003334   0.000376   0.004160
    16  H   -0.039319   0.316181  -0.048105  -0.000235  -0.000043   0.000055
               7          8          9         10         11         12
     1  O   -0.000040   0.004762   0.248713  -0.020456   0.008042  -0.000001
     2  N    0.002835  -0.063652  -0.024020   0.310842  -0.011081  -0.000113
     3  C   -0.015119   0.467605   0.002978  -0.043656  -0.042285   0.003213
     4  C   -0.037940  -0.040561   0.000137   0.002742   0.359639  -0.033911
     5  C   -0.024531  -0.040439  -0.000021   0.000002  -0.030357   0.364189
     6  C    0.540554  -0.039450   0.000000   0.000058   0.004162  -0.034294
     7  C    4.798072   0.543303  -0.000000   0.000179   0.000158   0.003744
     8  C    0.543303   5.011416  -0.000200   0.001059   0.004755   0.000775
     9  H   -0.000000  -0.000200   0.308325  -0.010993  -0.000220   0.000000
    10  H    0.000179   0.001059  -0.010993   0.356925  -0.000035   0.000004
    11  H    0.000158   0.004755  -0.000220  -0.000035   0.519019  -0.004101
    12  H    0.003744   0.000775   0.000000   0.000004  -0.004101   0.506652
    13  H   -0.035787   0.004508   0.000000  -0.000001  -0.000124  -0.004096
    14  H    0.363639  -0.034116  -0.000000  -0.000015   0.000010  -0.000135
    15  H   -0.018706   0.363194   0.000005   0.004902  -0.000123   0.000012
    16  H   -0.000068   0.002669   0.004550  -0.020987   0.000025   0.000003
              13         14         15         16
     1  O   -0.000000   0.000000   0.000010  -0.039319
     2  N    0.000004  -0.000095  -0.002434   0.316181
     3  C    0.000697   0.003099  -0.073685  -0.048105
     4  C    0.004181   0.000723   0.003334  -0.000235
     5  C   -0.036364   0.003755   0.000376  -0.000043
     6  C    0.364180  -0.033261   0.004160   0.000055
     7  C   -0.035787   0.363639  -0.018706  -0.000068
     8  C    0.004508  -0.034116   0.363194   0.002669
     9  H    0.000000  -0.000000   0.000005   0.004550
    10  H   -0.000001  -0.000015   0.004902  -0.020987
    11  H   -0.000124   0.000010  -0.000123   0.000025
    12  H   -0.004096  -0.000135   0.000012   0.000003
    13  H    0.511332  -0.004014  -0.000138  -0.000000
    14  H   -0.004014   0.507363  -0.004590  -0.000005
    15  H   -0.000138  -0.004590   0.551299   0.002771
    16  H   -0.000000  -0.000005   0.002771   0.341519
 Mulliken charges:
               1
     1  O   -0.438774
     2  N   -0.347883
     3  C    0.168647
     4  C   -0.126930
     5  C   -0.125969
     6  C   -0.107797
     7  C   -0.120291
     8  C   -0.185627
     9  H    0.470747
    10  H    0.419431
    11  H    0.192515
    12  H    0.198059
    13  H    0.195622
    14  H    0.197642
    15  H    0.169614
    16  H    0.440991
 Sum of Mulliken charges =   1.00000
 Mulliken charges with hydrogens summed into heavy atoms:
               1
     1  O    0.031973
     2  N    0.512539
     3  C    0.168647
     4  C    0.065586
     5  C    0.072090
     6  C    0.087825
     7  C    0.077352
     8  C   -0.016013
 Electronic spatial extent (au):  <R**2>=            963.6347
 Charge=              1.0000 electrons
 Dipole moment (field-independent basis, Debye):
    X=             -4.9928    Y=             -2.4272    Z=              1.3395  Tot=              5.7108
 Quadrupole moment (field-independent basis, Debye-Ang):
   XX=            -16.4009   YY=            -34.4654   ZZ=            -43.9750
   XY=              5.5879   XZ=             -4.6709   YZ=              0.7302
 Traceless Quadrupole moment (field-independent basis, Debye-Ang):
   XX=             15.2129   YY=             -2.8516   ZZ=            -12.3613
   XY=              5.5879   XZ=             -4.6709   YZ=              0.7302
 Octapole moment (field-independent basis, Debye-Ang**2):
  XXX=            -41.0946  YYY=             -1.7981  ZZZ=              1.4553  XYY=             -4.0516
  XXY=             -9.2788  XXZ=             19.1294  XZZ=            -20.9241  YZZ=             -2.0758
  YYZ=              0.1179  XYZ=             -2.8020
 Hexadecapole moment (field-independent basis, Debye-Ang**3):
 XXXX=           -598.0559 YYYY=           -265.2503 ZZZZ=            -47.4845 XXXY=             13.6137
 XXXZ=            -57.6624 YYYX=              7.9980 YYYZ=             -0.4266 ZZZX=             -6.3325
 ZZZY=              2.1982 XXYY=           -154.8990 XXZZ=           -126.9340 YYZZ=            -62.5540
 XXYZ=              8.3054 YYXZ=             -1.4805 ZZXY=              3.1135
 N-N= 3.587301588289D+02 E-N=-1.550420803399D+03  KE= 3.600435184574D+02
 No NMR shielding tensors so no spin-rotation constants.
 Leave Link  601 at Mon Oct 14 00:12:22 2019, MaxMem= 10737418240 cpu:               2.2 elap:               0.1
 (Enter /apps/cent7/gaussian/g16-A.03/g16-haswell/g16/l701.exe)
 ... and contract with generalized density number  0.
 Compute integral first derivatives.
 Leave Link  701 at Mon Oct 14 00:12:22 2019, MaxMem= 10737418240 cpu:               2.6 elap:               0.1
 (Enter /apps/cent7/gaussian/g16-A.03/g16-haswell/g16/l702.exe)
 L702 exits ... SP integral derivatives will be done elsewhere.
 Leave Link  702 at Mon Oct 14 00:12:23 2019, MaxMem= 10737418240 cpu:               1.0 elap:               0.1
 (Enter /apps/cent7/gaussian/g16-A.03/g16-haswell/g16/l703.exe)
 Integral derivatives from FoFJK, PRISM(SPDF).
 Compute integral first derivatives, UseDBF=F ICtDFT=           0.
 Calling FoFJK, ICntrl=      2127 FMM=F ISym2X=0 I1Cent= 0 IOpClX= 0 NMat=1 NMatS=1 NMatT=0.
 FoFJK:  IHMeth= 1 ICntrl=    2127 DoSepK=F KAlg= 0 I1Cent=           0 FoldK=F
 IRaf=         0 NMat=       1 IRICut=       1 DoRegI=T DoRafI=F ISym2E= 0 IDoP0=0 IntGTp=1.
 FoFCou: FMM=F IPFlag=           0 FMFlag=      100000 FMFlg1=         800
         NFxFlg=           0 DoJE=F BraDBF=F KetDBF=F FulRan=T
         wScrn=  0.000000 ICntrl=      2127 IOpCl=  0 I1Cent=           0 NGrid=           0
         NMat0=    1 NMatS0=      1 NMatT0=    0 NMatD0=    1 NMtDS0=    0 NMtDT0=    0
 Symmetry not used in FoFCou.
 Leave Link  703 at Mon Oct 14 00:12:23 2019, MaxMem= 10737418240 cpu:              13.9 elap:               0.6
 (Enter /apps/cent7/gaussian/g16-A.03/g16-haswell/g16/l716.exe)
 Dipole        =-1.96432476D+00-9.54919059D-01 5.26992805D-01
 ***** Axes restored to original set *****
 -------------------------------------------------------------------
 Center     Atomic                   Forces (Hartrees/Bohr)
 Number     Number              X              Y              Z
 -------------------------------------------------------------------
      1        8           0.082148766    0.004422055   -0.054058826
      2        7          -0.037588211    0.059857234    0.041750022
      3        6          -0.038579640   -0.135202082   -0.015470961
      4        6           0.001718705    0.007781674    0.000933178
      5        6          -0.006980852    0.008378082    0.006653146
      6        6           0.004291174    0.004956183   -0.001543882
      7        6           0.009035663    0.002820409   -0.004710964
      8        6           0.001446605   -0.000574285   -0.000357353
      9        1           0.012213930   -0.001734057    0.008738834
     10        1          -0.013169182    0.014055087    0.026447832
     11        1          -0.002339384    0.000484782    0.002068913
     12        1           0.000018421    0.003955905    0.001869008
     13        1           0.000894879    0.003242569   -0.000666565
     14        1           0.003629360    0.002065562   -0.000880202
     15        1          -0.001188018   -0.000766882    0.001191872
     16        1          -0.015552217    0.026257765   -0.011964051
 -------------------------------------------------------------------
 Cartesian Forces:  Max     0.135202082 RMS     0.028599166
 Leave Link  716 at Mon Oct 14 00:12:23 2019, MaxMem= 10737418240 cpu:               0.5 elap:               0.0
 (Enter /apps/cent7/gaussian/g16-A.03/g16-haswell/g16/l103.exe)

 GradGradGradGradGradGradGradGradGradGradGradGradGradGradGradGradGradGrad
 Berny optimization.
 FormGI is forming the generalized inverse of G from B-inverse, IUseBI=4.
 GSVD:  received Info=                   1 from GESDD.
 Internal  Forces:  Max     0.105451661 RMS     0.019388117
 Search for a local minimum.
 Step number   1 out of a maximum of   84
 All quantities printed in internal units (Hartrees-Bohrs-Radians)
 RMS Force = .19388D-01 SwitMx=.10000D-02 MixMth= 1
 Mixed Optimization -- RFO/linear search
 Second derivative matrix not updated -- first step.
 ITU=  0
     Eigenvalues ---    0.01919   0.01942   0.01976   0.01987   0.01997
     Eigenvalues ---    0.02004   0.02004   0.02006   0.02062   0.02264
     Eigenvalues ---    0.02566   0.05823   0.08172   0.13217   0.14893
     Eigenvalues ---    0.16000   0.16000   0.16000   0.16000   0.16000
     Eigenvalues ---    0.16000   0.21997   0.21998   0.22270   0.23473
     Eigenvalues ---    0.25000   0.34808   0.34808   0.34813   0.34818
     Eigenvalues ---    0.34819   0.40229   0.40487   0.43657   0.44204
     Eigenvalues ---    0.44490   0.44580   0.47688   0.47688   0.53609
     Eigenvalues ---    0.55478   0.66113
 RFO step:  Lambda=-5.15481969D-02 EMin= 1.91921169D-02
 Linear search not attempted -- first point.
 Maximum step size (   0.300) exceeded in Quadratic search.
    -- Step size scaled by   0.917
 Iteration  1 RMS(Cart)=  0.07170312 RMS(Int)=  0.00296606
 Iteration  2 RMS(Cart)=  0.00550186 RMS(Int)=  0.00048961
 Iteration  3 RMS(Cart)=  0.00003025 RMS(Int)=  0.00048936
 Iteration  4 RMS(Cart)=  0.00000002 RMS(Int)=  0.00048936
 ITry= 1 IFail=0 DXMaxC= 2.50D-01 DCOld= 1.00D+10 DXMaxT= 3.00D-01 DXLimC= 3.00D+00 Rises=F
 Variable       Old X    -DE/DX   Delta X   Delta X   Delta X     New X
                                 (Linear)    (Quad)   (Total)
    R1        2.46408   0.10256   0.00000   0.13199   0.13199   2.59607
    R2        1.81410   0.01406   0.00000   0.02127   0.02127   1.83536
    R3        2.56389   0.10545   0.00000   0.16459   0.16459   2.72848
    R4        1.88973   0.02938   0.00000   0.05099   0.05099   1.94072
    R5        1.88973   0.03176   0.00000   0.05513   0.05513   1.94486
    R6        2.67491  -0.01959   0.00000  -0.03741  -0.03737   2.63754
    R7        2.66556  -0.01071   0.00000  -0.02006  -0.02000   2.64556
    R8        2.65952  -0.01273   0.00000  -0.02371  -0.02373   2.63579
    R9        2.05988  -0.00297   0.00000  -0.00681  -0.00681   2.05306
   R10        2.65799  -0.00992   0.00000  -0.01826  -0.01832   2.63967
   R11        2.05988  -0.00394   0.00000  -0.00904  -0.00904   2.05084
   R12        2.65750  -0.00819   0.00000  -0.01489  -0.01493   2.64257
   R13        2.05971  -0.00331   0.00000  -0.00760  -0.00760   2.05211
   R14        2.65752  -0.01487   0.00000  -0.02726  -0.02725   2.63027
   R15        2.05980  -0.00384   0.00000  -0.00882  -0.00882   2.05098
   R16        2.05970   0.00047   0.00000   0.00109   0.00109   2.06079
    A1        1.91059   0.00646   0.00000   0.02799   0.02799   1.93859
    A2        2.15804  -0.04019   0.00000  -0.13279  -0.13178   2.02627
    A3        1.85558   0.01964   0.00000   0.08182   0.08328   1.93886
    A4        1.85558   0.00533   0.00000   0.00168   0.00174   1.85731
    A5        1.85558   0.00879   0.00000   0.03289   0.03435   1.88993
    A6        1.85558   0.01732   0.00000   0.05917   0.05791   1.91349
    A7        1.86709  -0.00905   0.00000  -0.03846  -0.03956   1.82753
    A8        2.15457  -0.00967   0.00000  -0.02951  -0.02957   2.12500
    A9        2.05287  -0.00210   0.00000  -0.00649  -0.00655   2.04632
   A10        2.07575   0.01177   0.00000   0.03601   0.03610   2.11185
   A11        2.10321  -0.00686   0.00000  -0.02312  -0.02310   2.08011
   A12        2.09493   0.00242   0.00000   0.00721   0.00720   2.10212
   A13        2.08505   0.00443   0.00000   0.01591   0.01590   2.10095
   A14        2.09252   0.00157   0.00000   0.00583   0.00575   2.09827
   A15        2.09585  -0.00266   0.00000  -0.01104  -0.01100   2.08485
   A16        2.09481   0.00109   0.00000   0.00522   0.00526   2.10007
   A17        2.09549   0.00025   0.00000   0.00203   0.00191   2.09740
   A18        2.09396   0.00008   0.00000  -0.00012  -0.00007   2.09389
   A19        2.09373  -0.00033   0.00000  -0.00191  -0.00185   2.09189
   A20        2.09300   0.00014   0.00000   0.00184   0.00180   2.09480
   A21        2.09509   0.00179   0.00000   0.00712   0.00714   2.10223
   A22        2.09510  -0.00192   0.00000  -0.00897  -0.00895   2.08615
   A23        2.10577  -0.00685   0.00000  -0.02222  -0.02215   2.08362
   A24        2.09138   0.00514   0.00000   0.01854   0.01851   2.10989
   A25        2.08604   0.00171   0.00000   0.00367   0.00364   2.08967
    D1       -1.87876   0.00181   0.00000   0.01516   0.01738  -1.86138
    D2        0.27020   0.00228   0.00000   0.03890   0.03763   0.30783
    D3        2.25546   0.00322   0.00000   0.03273   0.03177   2.28723
    D4       -0.11477   0.00366   0.00000   0.02509   0.02531  -0.08946
    D5        3.02623   0.00412   0.00000   0.03063   0.03073   3.05696
    D6       -2.26374  -0.00167   0.00000  -0.02060  -0.01993  -2.28367
    D7        0.87726  -0.00121   0.00000  -0.01505  -0.01451   0.86275
    D8        2.03419  -0.00313   0.00000  -0.01827  -0.01898   2.01522
    D9       -1.10799  -0.00266   0.00000  -0.01272  -0.01356  -1.12155
   D10        3.11633   0.00097   0.00000   0.01246   0.01246   3.12879
   D11       -0.02518   0.00082   0.00000   0.01073   0.01076  -0.01442
   D12       -0.02467   0.00050   0.00000   0.00686   0.00686  -0.01781
   D13        3.11701   0.00035   0.00000   0.00512   0.00516   3.12217
   D14       -3.11358  -0.00110   0.00000  -0.01426  -0.01433  -3.12791
   D15        0.02805  -0.00081   0.00000  -0.01087  -0.01096   0.01709
   D16        0.02745  -0.00067   0.00000  -0.00899  -0.00898   0.01846
   D17       -3.11411  -0.00038   0.00000  -0.00560  -0.00561  -3.11972
   D18       -0.00324   0.00006   0.00000   0.00144   0.00152  -0.00172
   D19        3.13837  -0.00005   0.00000  -0.00021  -0.00016   3.13821
   D20        3.13827   0.00021   0.00000   0.00317   0.00322   3.14149
   D21       -0.00330   0.00010   0.00000   0.00151   0.00154  -0.00177
   D22        0.02880  -0.00068   0.00000  -0.00840  -0.00838   0.02042
   D23       -3.11272  -0.00046   0.00000  -0.00628  -0.00632  -3.11903
   D24       -3.11281  -0.00057   0.00000  -0.00675  -0.00669  -3.11949
   D25        0.02886  -0.00036   0.00000  -0.00463  -0.00462   0.02424
   D26       -0.02609   0.00055   0.00000   0.00640   0.00634  -0.01975
   D27        3.11542   0.00060   0.00000   0.00682   0.00673   3.12215
   D28        3.11543   0.00034   0.00000   0.00428   0.00428   3.11970
   D29       -0.02625   0.00039   0.00000   0.00470   0.00467  -0.02158
   D30       -0.00230   0.00030   0.00000   0.00287   0.00275   0.00045
   D31        3.13926   0.00001   0.00000  -0.00051  -0.00058   3.13868
   D32        3.13938   0.00025   0.00000   0.00245   0.00236  -3.14144
   D33       -0.00225  -0.00004   0.00000  -0.00093  -0.00097  -0.00322
         Item               Value     Threshold  Converged?
 Maximum Force            0.105452     0.000450     NO 
 RMS     Force            0.019388     0.000300     NO 
 Maximum Displacement     0.250189     0.001800     NO 
 RMS     Displacement     0.073403     0.001200     NO 
 Predicted change in Energy=-2.808978D-02
 Lowest energy point so far.  Saving SCF results.
 GradGradGradGradGradGradGradGradGradGradGradGradGradGradGradGradGradGrad

 Leave Link  103 at Mon Oct 14 00:12:23 2019, MaxMem= 10737418240 cpu:               0.9 elap:               0.1
 (Enter /apps/cent7/gaussian/g16-A.03/g16-haswell/g16/l202.exe)
                          Input orientation:                          
 ---------------------------------------------------------------------
 Center     Atomic      Atomic             Coordinates (Angstroms)
 Number     Number       Type             X           Y           Z
 ---------------------------------------------------------------------
      1          8           0        1.458831    0.189233   -0.206978
      2          7           0        0.194748    0.072006    0.318024
      3          6           0       -0.405802   -1.238776    0.241301
      4          6           0        0.217507   -2.294390   -0.425948
      5          6           0       -0.403747   -3.542888   -0.453678
      6          6           0       -1.633546   -3.730545    0.181595
      7          6           0       -2.260880   -2.661195    0.828454
      8          6           0       -1.649238   -1.411329    0.860984
      9          1           0        2.123211    0.269706    0.496878
     10          1           0        0.171305    0.380347    1.297346
     11          1           0        1.174063   -2.145667   -0.919125
     12          1           0        0.075487   -4.365963   -0.973935
     13          1           0       -2.103552   -4.709474    0.175405
     14          1           0       -3.224932   -2.797578    1.307983
     15          1           0       -2.144008   -0.580064    1.364412
     16          1           0       -0.392894    0.751565   -0.184049
 ---------------------------------------------------------------------
                    Distance matrix (angstroms):
                    1          2          3          4          5
     1  O    0.000000
     2  N    1.373781   0.000000
     3  C    2.391028   1.443848   0.000000
     4  C    2.785177   2.480694   1.395728   0.000000
     5  C    4.178370   3.744486   2.406643   1.394802   0.000000
     6  C    5.007838   4.221454   2.778459   2.420341   1.396852
     7  C    4.799302   3.709587   2.410257   2.801870   2.422848
     8  C    3.655466   2.428040   1.399970   2.433255   2.796986
     9  H    0.971232   1.946803   2.955799   3.325342   4.671717
    10  H    1.989280   1.026983   2.017385   3.182152   4.334575
    11  H    2.457642   2.721703   2.159864   1.086435   2.158321
    12  H    4.821998   4.623738   3.389356   2.147527   1.085258
    13  H    6.069111   5.307078   3.864251   3.403171   2.155460
    14  H    5.757931   4.572608   3.393400   3.887171   3.408522
    15  H    4.005188   2.643843   2.171782   3.423602   3.887452
    16  H    1.935362   1.029174   2.035325   3.115918   4.302922
                    6          7          8          9         10
     6  C    0.000000
     7  C    1.398387   0.000000
     8  C    2.416729   1.391879   0.000000
     9  H    5.496784   5.283974   4.146062   0.000000
    10  H    4.626210   3.922545   2.591311   2.112564   0.000000
    11  H    3.406771   3.888269   3.417465   2.956344   3.506994
    12  H    2.158657   3.407852   3.882199   5.276921   5.262638
    13  H    1.085931   2.155615   3.399144   6.539197   5.686827
    14  H    2.161408   1.085331   2.145764   6.218421   4.651209
    15  H    3.403697   2.152211   1.090521   4.436652   2.507501
    16  H    4.665000   4.020132   2.710831   2.650780   1.628082
                   11         12         13         14         15
    11  H    0.000000
    12  H    2.477819   0.000000
    13  H    4.302773   2.487406   0.000000
    14  H    4.973545   4.308102   2.489091   0.000000
    15  H    4.321486   4.972630   4.297371   2.467579   0.000000
    16  H    3.374854   5.199268   5.733978   4.779436   2.690236
                   16
    16  H    0.000000
 Stoichiometry    C6H8NO(1+)
 Framework group  C1[X(C6H8NO)]
 Deg. of freedom    42
 Full point group                 C1      NOp   1
 RotChk:  IX=0 Diff= 2.90D-02
 Largest Abelian subgroup         C1      NOp   1
 Largest concise Abelian subgroup C1      NOp   1
                         Standard orientation:                         
 ---------------------------------------------------------------------
 Center     Atomic      Atomic             Coordinates (Angstroms)
 Number     Number       Type             X           Y           Z
 ---------------------------------------------------------------------
      1          8           0       -2.688786    0.492747    0.004377
      2          7           0       -1.815286   -0.565317   -0.064704
      3          6           0       -0.410664   -0.231961   -0.040057
      4          6           0        0.030436    1.092120   -0.057238
      5          6           0        1.399956    1.353290   -0.016303
      6          6           0        2.315180    0.299715    0.043203
      7          6           0        1.864415   -1.024016    0.037425
      8          6           0        0.499767   -1.294848   -0.003950
      9          1           0       -3.112723    0.539201    0.876965
     10          1           0       -1.998307   -1.245014    0.683099
     11          1           0       -0.683602    1.909650   -0.103452
     12          1           0        1.747917    2.381123   -0.032647
     13          1           0        3.379612    0.508109    0.096119
     14          1           0        2.572322   -1.846229    0.065330
     15          1           0        0.153625   -2.328953   -0.011037
     16          1           0       -2.036097   -1.068442   -0.934939
 ---------------------------------------------------------------------
 Rotational constants (GHZ):           4.9116045           1.4933593           1.1572307
 Leave Link  202 at Mon Oct 14 00:12:23 2019, MaxMem= 10737418240 cpu:               0.2 elap:               0.0
 (Enter /apps/cent7/gaussian/g16-A.03/g16-haswell/g16/l301.exe)
 Standard basis: 6-31G(d) (6D, 7F)
 Ernie: Thresh=  0.10000D-02 Tol=  0.10000D-05 Strict=F.
 There are   136 symmetry adapted cartesian basis functions of A   symmetry.
 There are   136 symmetry adapted basis functions of A   symmetry.
   136 basis functions,   256 primitive gaussians,   136 cartesian basis functions
    29 alpha electrons       29 beta electrons
       nuclear repulsion energy       356.5503727999 Hartrees.
 IExCor=  402 DFT=T Ex+Corr=B3LYP ExCW=0 ScaHFX=  0.200000
 ScaDFX=  0.800000  0.720000  1.000000  0.810000 ScalE2=  1.000000  1.000000
 IRadAn=      5 IRanWt=     -1 IRanGd=            0 ICorTp=0 IEmpDi=  4
 NAtoms=   16 NActive=   16 NUniq=   16 SFac= 1.00D+00 NAtFMM=   60 NAOKFM=F Big=F
 Integral buffers will be    131072 words long.
 Raffenetti 2 integral format.
 Two-electron integral symmetry is turned on.
 Leave Link  301 at Mon Oct 14 00:12:23 2019, MaxMem= 10737418240 cpu:               1.2 elap:               0.1
 (Enter /apps/cent7/gaussian/g16-A.03/g16-haswell/g16/l302.exe)
 NPDir=0 NMtPBC=     1 NCelOv=     1 NCel=       1 NClECP=     1 NCelD=      1
         NCelK=      1 NCelE2=     1 NClLst=     1 CellRange=     0.0.
 One-electron integrals computed using PRISM.
 One-electron integral symmetry used in STVInt
 NBasis=   136 RedAO= T EigKep=  4.67D-04  NBF=   136
 NBsUse=   136 1.00D-06 EigRej= -1.00D+00 NBFU=   136
 Precomputing XC quadrature grid using
 IXCGrd= 4 IRadAn=           5 IRanWt=          -1 IRanGd=           0 AccXCQ= 0.00D+00.
 Generated NRdTot=       0 NPtTot=           0 NUsed=           0 NTot=          32
 NSgBfM=   136   136   136   136   136 MxSgAt=    16 MxSgA2=    16.
 Leave Link  302 at Mon Oct 14 00:12:24 2019, MaxMem= 10737418240 cpu:               2.8 elap:               0.1
 (Enter /apps/cent7/gaussian/g16-A.03/g16-haswell/g16/l303.exe)
 DipDrv:  MaxL=1.
 Leave Link  303 at Mon Oct 14 00:12:24 2019, MaxMem= 10737418240 cpu:               0.5 elap:               0.0
 (Enter /apps/cent7/gaussian/g16-A.03/g16-haswell/g16/l401.exe)
 Initial guess from the checkpoint file:  "10_p.chk"
 B after Tr=     0.000000    0.000000   -0.000000
         Rot=    0.999965    0.004305   -0.000453   -0.007209 Ang=   0.96 deg.
 Guess basis will be translated and rotated to current coordinates.
 JPrj=2 DoOrth=T DoCkMO=T.
 Generating alternative initial guess.
 ExpMin= 1.61D-01 ExpMax= 5.48D+03 ExpMxC= 8.25D+02 IAcc=2 IRadAn=         4 AccDes= 0.00D+00
 Harris functional with IExCor=  402 and IRadAn=       4 diagonalized for initial guess.
 HarFok:  IExCor=  402 AccDes= 0.00D+00 IRadAn=         4 IDoV= 1 UseB2=F ITyADJ=14
 ICtDFT=  3500011 ScaDFX=  1.000000  1.000000  1.000000  1.000000
 FoFCou: FMM=F IPFlag=           0 FMFlag=      100000 FMFlg1=           0
         NFxFlg=           0 DoJE=T BraDBF=F KetDBF=T FulRan=T
         wScrn=  0.000000 ICntrl=       500 IOpCl=  0 I1Cent=   200000004 NGrid=           0
         NMat0=    1 NMatS0=      1 NMatT0=    0 NMatD0=    1 NMtDS0=    0 NMtDT0=    0
 Petite list used in FoFCou.
 Harris En= -363.163007192432    
 Leave Link  401 at Mon Oct 14 00:12:24 2019, MaxMem= 10737418240 cpu:               5.6 elap:               0.3
 (Enter /apps/cent7/gaussian/g16-A.03/g16-haswell/g16/l502.exe)
 Integral symmetry usage will be decided dynamically.
 Closed shell SCF:
 Using DIIS extrapolation, IDIIS=  1040.
 NGot= 10737418240 LenX= 10737376316 LenY= 10737357379
 Requested convergence on RMS density matrix=1.00D-08 within 128 cycles.
 Requested convergence on MAX density matrix=1.00D-06.
 Requested convergence on             energy=1.00D-06.
 No special actions if energy rises.
 Fock matrices will be formed incrementally for  20 cycles.
 Integral accuracy reduced to 1.0D-05 until final iterations.

 Cycle   1  Pass 0  IDiag  1:
 FoFJK:  IHMeth= 1 ICntrl=       0 DoSepK=F KAlg= 0 I1Cent=           0 FoldK=F
 IRaf= 960000000 NMat=       1 IRICut=       1 DoRegI=T DoRafI=F ISym2E= 0 IDoP0=0 IntGTp=1.
 FoFCou: FMM=F IPFlag=           0 FMFlag=      100000 FMFlg1=           0
         NFxFlg=           0 DoJE=F BraDBF=F KetDBF=F FulRan=T
         wScrn=  0.000000 ICntrl=         0 IOpCl=  0 I1Cent=           0 NGrid=           0
         NMat0=    1 NMatS0=      1 NMatT0=    0 NMatD0=    1 NMtDS0=    0 NMtDT0=    0
 Symmetry not used in FoFCou.
 E= -363.079625149072    
 DIIS: error= 5.06D-03 at cycle   1 NSaved=   1.
 NSaved= 1 IEnMin= 1 EnMin= -363.079625149072     IErMin= 1 ErrMin= 5.06D-03
 ErrMax= 5.06D-03  0.00D+00 EMaxC= 1.00D-01 BMatC= 9.70D-03 BMatP= 9.70D-03
 IDIUse=3 WtCom= 9.49D-01 WtEn= 5.06D-02
 Coeff-Com:  0.100D+01
 Coeff-En:   0.100D+01
 Coeff:      0.100D+01
 Gap=     1.860 Goal=   None    Shift=    0.000
 GapD=    1.860 DampG=2.000 DampE=1.000 DampFc=2.0000 IDamp=-1.
 RMSDP=1.18D-03 MaxDP=2.62D-02              OVMax= 3.99D-02

 Cycle   2  Pass 0  IDiag  1:
 RMSU=  1.17D-03    CP:  9.98D-01
 E= -363.093362463336     Delta-E=       -0.013737314265 Rises=F Damp=F
 DIIS: error= 3.07D-03 at cycle   2 NSaved=   2.
 NSaved= 2 IEnMin= 2 EnMin= -363.093362463336     IErMin= 2 ErrMin= 3.07D-03
 ErrMax= 3.07D-03  0.00D+00 EMaxC= 1.00D-01 BMatC= 1.70D-03 BMatP= 9.70D-03
 IDIUse=3 WtCom= 9.69D-01 WtEn= 3.07D-02
 Coeff-Com:  0.189D+00 0.811D+00
 Coeff-En:   0.000D+00 0.100D+01
 Coeff:      0.183D+00 0.817D+00
 Gap=     0.228 Goal=   None    Shift=    0.000
 RMSDP=5.32D-04 MaxDP=1.47D-02 DE=-1.37D-02 OVMax= 2.23D-02

 Cycle   3  Pass 0  IDiag  1:
 RMSU=  5.28D-04    CP:  1.00D+00  9.72D-01
 E= -363.093046981201     Delta-E=        0.000315482136 Rises=F Damp=F
 DIIS: error= 3.26D-03 at cycle   3 NSaved=   3.
 NSaved= 3 IEnMin= 2 EnMin= -363.093362463336     IErMin= 2 ErrMin= 3.07D-03
 ErrMax= 3.26D-03  0.00D+00 EMaxC= 1.00D-01 BMatC= 2.11D-03 BMatP= 1.70D-03
 IDIUse=3 WtCom= 1.49D-01 WtEn= 8.51D-01
 Coeff-Com: -0.299D-01 0.535D+00 0.495D+00
 Coeff-En:   0.000D+00 0.539D+00 0.461D+00
 Coeff:     -0.445D-02 0.539D+00 0.466D+00
 Gap=     0.232 Goal=   None    Shift=    0.000
 RMSDP=3.04D-04 MaxDP=7.92D-03 DE= 3.15D-04 OVMax= 1.54D-02

 Cycle   4  Pass 0  IDiag  1:
 RMSU=  1.03D-04    CP:  9.99D-01  1.04D+00  4.82D-01
 E= -363.094883646925     Delta-E=       -0.001836665724 Rises=F Damp=F
 DIIS: error= 4.19D-04 at cycle   4 NSaved=   4.
 NSaved= 4 IEnMin= 4 EnMin= -363.094883646925     IErMin= 4 ErrMin= 4.19D-04
 ErrMax= 4.19D-04  0.00D+00 EMaxC= 1.00D-01 BMatC= 5.24D-05 BMatP= 1.70D-03
 IDIUse=3 WtCom= 9.96D-01 WtEn= 4.19D-03
 Coeff-Com: -0.225D-01 0.259D+00 0.251D+00 0.512D+00
 Coeff-En:   0.000D+00 0.000D+00 0.000D+00 0.100D+01
 Coeff:     -0.224D-01 0.258D+00 0.250D+00 0.514D+00
 Gap=     0.232 Goal=   None    Shift=    0.000
 RMSDP=6.49D-05 MaxDP=1.38D-03 DE=-1.84D-03 OVMax= 3.27D-03

 Cycle   5  Pass 0  IDiag  1:
 RMSU=  4.50D-05    CP:  9.99D-01  1.04D+00  5.13D-01  5.78D-01
 E= -363.094928041519     Delta-E=       -0.000044394595 Rises=F Damp=F
 DIIS: error= 1.66D-04 at cycle   5 NSaved=   5.
 NSaved= 5 IEnMin= 5 EnMin= -363.094928041519     IErMin= 5 ErrMin= 1.66D-04
 ErrMax= 1.66D-04  0.00D+00 EMaxC= 1.00D-01 BMatC= 5.63D-06 BMatP= 5.24D-05
 IDIUse=3 WtCom= 9.98D-01 WtEn= 1.66D-03
 Coeff-Com: -0.623D-02 0.541D-01 0.542D-01 0.269D+00 0.629D+00
 Coeff-En:   0.000D+00 0.000D+00 0.000D+00 0.918D-01 0.908D+00
 Coeff:     -0.622D-02 0.540D-01 0.542D-01 0.269D+00 0.629D+00
 Gap=     0.232 Goal=   None    Shift=    0.000
 RMSDP=2.16D-05 MaxDP=4.19D-04 DE=-4.44D-05 OVMax= 1.24D-03

 Cycle   6  Pass 0  IDiag  1:
 RMSU=  1.25D-05    CP:  9.99D-01  1.05D+00  5.06D-01  6.92D-01  7.34D-01
 E= -363.094933652218     Delta-E=       -0.000005610699 Rises=F Damp=F
 DIIS: error= 4.27D-05 at cycle   6 NSaved=   6.
 NSaved= 6 IEnMin= 6 EnMin= -363.094933652218     IErMin= 6 ErrMin= 4.27D-05
 ErrMax= 4.27D-05  0.00D+00 EMaxC= 1.00D-01 BMatC= 4.52D-07 BMatP= 5.63D-06
 IDIUse=1 WtCom= 1.00D+00 WtEn= 0.00D+00
 Coeff-Com: -0.121D-02 0.487D-02 0.568D-02 0.949D-01 0.321D+00 0.575D+00
 Coeff:     -0.121D-02 0.487D-02 0.568D-02 0.949D-01 0.321D+00 0.575D+00
 Gap=     0.232 Goal=   None    Shift=    0.000
 RMSDP=6.06D-06 MaxDP=1.44D-04 DE=-5.61D-06 OVMax= 3.28D-04

 Initial convergence to 1.0D-05 achieved.  Increase integral accuracy.
 Cycle   7  Pass 1  IDiag  1:
 E= -363.094927308863     Delta-E=        0.000006343356 Rises=F Damp=F
 DIIS: error= 1.48D-05 at cycle   1 NSaved=   1.
 NSaved= 1 IEnMin= 1 EnMin= -363.094927308863     IErMin= 1 ErrMin= 1.48D-05
 ErrMax= 1.48D-05  0.00D+00 EMaxC= 1.00D-01 BMatC= 6.24D-08 BMatP= 6.24D-08
 IDIUse=1 WtCom= 1.00D+00 WtEn= 0.00D+00
 Coeff-Com:  0.100D+01
 Coeff:      0.100D+01
 Gap=     0.232 Goal=   None    Shift=    0.000
 RMSDP=6.06D-06 MaxDP=1.44D-04 DE= 6.34D-06 OVMax= 1.96D-04

 Cycle   8  Pass 1  IDiag  1:
 RMSU=  5.25D-06    CP:  1.00D+00
 E= -363.094927248642     Delta-E=        0.000000060220 Rises=F Damp=F
 DIIS: error= 2.17D-05 at cycle   2 NSaved=   2.
 NSaved= 2 IEnMin= 1 EnMin= -363.094927308863     IErMin= 1 ErrMin= 1.48D-05
 ErrMax= 2.17D-05  0.00D+00 EMaxC= 1.00D-01 BMatC= 1.23D-07 BMatP= 6.24D-08
 IDIUse=1 WtCom= 1.00D+00 WtEn= 0.00D+00
 Coeff-Com:  0.589D+00 0.411D+00
 Coeff:      0.589D+00 0.411D+00
 Gap=     0.232 Goal=   None    Shift=    0.000
 RMSDP=2.70D-06 MaxDP=5.85D-05 DE= 6.02D-08 OVMax= 1.48D-04

 Cycle   9  Pass 1  IDiag  1:
 RMSU=  2.01D-06    CP:  1.00D+00  6.57D-01
 E= -363.094927363641     Delta-E=       -0.000000114999 Rises=F Damp=F
 DIIS: error= 3.99D-06 at cycle   3 NSaved=   3.
 NSaved= 3 IEnMin= 3 EnMin= -363.094927363641     IErMin= 3 ErrMin= 3.99D-06
 ErrMax= 3.99D-06  0.00D+00 EMaxC= 1.00D-01 BMatC= 2.67D-09 BMatP= 6.24D-08
 IDIUse=1 WtCom= 1.00D+00 WtEn= 0.00D+00
 Coeff-Com:  0.179D+00 0.174D+00 0.647D+00
 Coeff:      0.179D+00 0.174D+00 0.647D+00
 Gap=     0.232 Goal=   None    Shift=    0.000
 RMSDP=6.23D-07 MaxDP=1.52D-05 DE=-1.15D-07 OVMax= 3.58D-05

 Cycle  10  Pass 1  IDiag  1:
 RMSU=  5.06D-07    CP:  1.00D+00  6.93D-01  8.47D-01
 E= -363.094927365650     Delta-E=       -0.000000002008 Rises=F Damp=F
 DIIS: error= 2.00D-06 at cycle   4 NSaved=   4.
 NSaved= 4 IEnMin= 4 EnMin= -363.094927365650     IErMin= 4 ErrMin= 2.00D-06
 ErrMax= 2.00D-06  0.00D+00 EMaxC= 1.00D-01 BMatC= 1.09D-09 BMatP= 2.67D-09
 IDIUse=1 WtCom= 1.00D+00 WtEn= 0.00D+00
 Coeff-Com:  0.272D-01 0.507D-01 0.419D+00 0.503D+00
 Coeff:      0.272D-01 0.507D-01 0.419D+00 0.503D+00
 Gap=     0.232 Goal=   None    Shift=    0.000
 RMSDP=2.54D-07 MaxDP=7.20D-06 DE=-2.01D-09 OVMax= 1.36D-05

 Cycle  11  Pass 1  IDiag  1:
 RMSU=  1.22D-07    CP:  1.00D+00  6.87D-01  8.99D-01  6.14D-01
 E= -363.094927366695     Delta-E=       -0.000000001045 Rises=F Damp=F
 DIIS: error= 3.94D-07 at cycle   5 NSaved=   5.
 NSaved= 5 IEnMin= 5 EnMin= -363.094927366695     IErMin= 5 ErrMin= 3.94D-07
 ErrMax= 3.94D-07  0.00D+00 EMaxC= 1.00D-01 BMatC= 4.20D-11 BMatP= 1.09D-09
 IDIUse=1 WtCom= 1.00D+00 WtEn= 0.00D+00
 Coeff-Com: -0.317D-02 0.930D-02 0.156D+00 0.244D+00 0.594D+00
 Coeff:     -0.317D-02 0.930D-02 0.156D+00 0.244D+00 0.594D+00
 Gap=     0.232 Goal=   None    Shift=    0.000
 RMSDP=4.54D-08 MaxDP=1.24D-06 DE=-1.04D-09 OVMax= 1.38D-06

 Cycle  12  Pass 1  IDiag  1:
 RMSU=  3.11D-08    CP:  1.00D+00  6.90D-01  8.97D-01  6.30D-01  7.56D-01
 E= -363.094927366725     Delta-E=       -0.000000000031 Rises=F Damp=F
 DIIS: error= 1.70D-07 at cycle   6 NSaved=   6.
 NSaved= 6 IEnMin= 6 EnMin= -363.094927366725     IErMin= 6 ErrMin= 1.70D-07
 ErrMax= 1.70D-07  0.00D+00 EMaxC= 1.00D-01 BMatC= 4.74D-12 BMatP= 4.20D-11
 IDIUse=1 WtCom= 1.00D+00 WtEn= 0.00D+00
 Coeff-Com: -0.390D-02 0.139D-02 0.560D-01 0.987D-01 0.324D+00 0.524D+00
 Coeff:     -0.390D-02 0.139D-02 0.560D-01 0.987D-01 0.324D+00 0.524D+00
 Gap=     0.232 Goal=   None    Shift=    0.000
 RMSDP=1.42D-08 MaxDP=4.70D-07 DE=-3.09D-11 OVMax= 4.21D-07

 Cycle  13  Pass 1  IDiag  1:
 RMSU=  1.09D-08    CP:  1.00D+00  6.90D-01  8.98D-01  6.28D-01  7.72D-01
                    CP:  7.39D-01
 E= -363.094927366728     Delta-E=       -0.000000000002 Rises=F Damp=F
 DIIS: error= 1.37D-08 at cycle   7 NSaved=   7.
 NSaved= 7 IEnMin= 7 EnMin= -363.094927366728     IErMin= 7 ErrMin= 1.37D-08
 ErrMax= 1.37D-08  0.00D+00 EMaxC= 1.00D-01 BMatC= 5.62D-14 BMatP= 4.74D-12
 IDIUse=1 WtCom= 1.00D+00 WtEn= 0.00D+00
 Coeff-Com: -0.608D-04-0.624D-03-0.795D-02-0.119D-01-0.369D-01 0.441D-01
 Coeff-Com:  0.101D+01
 Coeff:     -0.608D-04-0.624D-03-0.795D-02-0.119D-01-0.369D-01 0.441D-01
 Coeff:      0.101D+01
 Gap=     0.232 Goal=   None    Shift=    0.000
 RMSDP=2.99D-09 MaxDP=7.92D-08 DE=-2.16D-12 OVMax= 1.50D-07

 SCF Done:  E(RB3LYP) =  -363.094927367     A.U. after   13 cycles
            NFock= 13  Conv=0.30D-08     -V/T= 2.0092
 KE= 3.597705126260D+02 PE=-1.546239070715D+03 EE= 4.668232579220D+02
 Leave Link  502 at Mon Oct 14 00:12:26 2019, MaxMem= 10737418240 cpu:              52.9 elap:               2.2
 (Enter /apps/cent7/gaussian/g16-A.03/g16-haswell/g16/l701.exe)
 ... and contract with generalized density number  0.
 Compute integral first derivatives.
 Leave Link  701 at Mon Oct 14 00:12:26 2019, MaxMem= 10737418240 cpu:               2.3 elap:               0.1
 (Enter /apps/cent7/gaussian/g16-A.03/g16-haswell/g16/l702.exe)
 L702 exits ... SP integral derivatives will be done elsewhere.
 Leave Link  702 at Mon Oct 14 00:12:26 2019, MaxMem= 10737418240 cpu:               0.5 elap:               0.0
 (Enter /apps/cent7/gaussian/g16-A.03/g16-haswell/g16/l703.exe)
 Integral derivatives from FoFJK, PRISM(SPDF).
 Compute integral first derivatives, UseDBF=F ICtDFT=           0.
 Calling FoFJK, ICntrl=      2127 FMM=F ISym2X=0 I1Cent= 0 IOpClX= 0 NMat=1 NMatS=1 NMatT=0.
 FoFJK:  IHMeth= 1 ICntrl=    2127 DoSepK=F KAlg= 0 I1Cent=           0 FoldK=F
 IRaf=         0 NMat=       1 IRICut=       1 DoRegI=T DoRafI=F ISym2E= 0 IDoP0=0 IntGTp=1.
 FoFCou: FMM=F IPFlag=           0 FMFlag=      100000 FMFlg1=         800
         NFxFlg=           0 DoJE=F BraDBF=F KetDBF=F FulRan=T
         wScrn=  0.000000 ICntrl=      2127 IOpCl=  0 I1Cent=           0 NGrid=           0
         NMat0=    1 NMatS0=      1 NMatT0=    0 NMatD0=    1 NMtDS0=    0 NMtDT0=    0
 Symmetry not used in FoFCou.
 Leave Link  703 at Mon Oct 14 00:12:27 2019, MaxMem= 10737418240 cpu:              14.6 elap:               0.6
 (Enter /apps/cent7/gaussian/g16-A.03/g16-haswell/g16/l716.exe)
 Dipole        =-2.03808905D+00-1.00629147D+00 5.28303350D-01
 ***** Axes restored to original set *****
 -------------------------------------------------------------------
 Center     Atomic                   Forces (Hartrees/Bohr)
 Number     Number              X              Y              Z
 -------------------------------------------------------------------
      1        8           0.018824908    0.004110010   -0.023083779
      2        7          -0.012115044    0.021493177    0.018257944
      3        6          -0.016106008   -0.044592257   -0.002903537
      4        6           0.007160427    0.008297465   -0.002122586
      5        6          -0.004074215   -0.000056847    0.002402894
      6        6           0.000864861   -0.000080930   -0.000671809
      7        6           0.001177994   -0.001557245   -0.001287574
      8        6           0.002003647    0.008353937    0.001518313
      9        1          -0.000965100   -0.002377729    0.008163185
     10        1           0.001243687    0.003149327    0.003840879
     11        1          -0.001288380   -0.000199200    0.000801478
     12        1           0.000478924    0.000463351    0.000432687
     13        1          -0.000215132    0.000606341   -0.000632923
     14        1           0.000499362    0.000303758    0.000254039
     15        1          -0.000009165   -0.000966979    0.000310154
     16        1           0.002519234    0.003053820   -0.005279366
 -------------------------------------------------------------------
 Cartesian Forces:  Max     0.044592257 RMS     0.009661470
 Leave Link  716 at Mon Oct 14 00:12:27 2019, MaxMem= 10737418240 cpu:               0.9 elap:               0.1
 (Enter /apps/cent7/gaussian/g16-A.03/g16-haswell/g16/l103.exe)

 GradGradGradGradGradGradGradGradGradGradGradGradGradGradGradGradGradGrad
 Berny optimization.
 Using GEDIIS/GDIIS optimizer.
 FormGI is forming the generalized inverse of G from B-inverse, IUseBI=4.
 Internal  Forces:  Max     0.030771413 RMS     0.005106997
 Search for a local minimum.
 Step number   2 out of a maximum of   84
 All quantities printed in internal units (Hartrees-Bohrs-Radians)
 RMS Force = .51070D-02 SwitMx=.10000D-02 MixMth= 1
 Mixed Optimization -- RFO/linear search
 Update second derivatives using D2CorX and points    1    2
 DE= -2.78D-02 DEPred=-2.81D-02 R= 9.90D-01
 TightC=F SS=  1.41D+00  RLast= 3.11D-01 DXNew= 5.0454D-01 9.3204D-01
 Trust test= 9.90D-01 RLast= 3.11D-01 DXMaxT set to 5.05D-01
 ITU=  1  0
 Use linear search instead of GDIIS.
     Eigenvalues ---    0.01920   0.01942   0.01976   0.01987   0.01997
     Eigenvalues ---    0.02003   0.02004   0.02005   0.02058   0.02264
     Eigenvalues ---    0.02569   0.06487   0.08208   0.12467   0.14568
     Eigenvalues ---    0.15885   0.16000   0.16000   0.16000   0.16000
     Eigenvalues ---    0.16115   0.21964   0.21999   0.22903   0.23985
     Eigenvalues ---    0.25014   0.34789   0.34810   0.34816   0.34817
     Eigenvalues ---    0.34843   0.39906   0.40442   0.43622   0.44090
     Eigenvalues ---    0.44554   0.44843   0.47568   0.48527   0.48619
     Eigenvalues ---    0.55445   0.64975
 RFO step:  Lambda=-4.55162188D-03 EMin= 1.91959078D-02
 Quartic linear search produced a step of  0.37574.
 Iteration  1 RMS(Cart)=  0.04115796 RMS(Int)=  0.00128937
 Iteration  2 RMS(Cart)=  0.00166910 RMS(Int)=  0.00052958
 Iteration  3 RMS(Cart)=  0.00000146 RMS(Int)=  0.00052958
 Iteration  4 RMS(Cart)=  0.00000000 RMS(Int)=  0.00052958
 ITry= 1 IFail=0 DXMaxC= 1.51D-01 DCOld= 1.00D+10 DXMaxT= 5.05D-01 DXLimC= 3.00D+00 Rises=F
 Variable       Old X    -DE/DX   Delta X   Delta X   Delta X     New X
                                 (Linear)    (Quad)   (Total)
    R1        2.59607   0.02228   0.04959   0.00485   0.05445   2.65052
    R2        1.83536   0.00506   0.00799   0.00589   0.01388   1.84924
    R3        2.72848   0.03077   0.06184   0.02771   0.08956   2.81803
    R4        1.94072   0.00458   0.01916  -0.00241   0.01675   1.95747
    R5        1.94486   0.00315   0.02072  -0.00774   0.01298   1.95784
    R6        2.63754  -0.00541  -0.01404  -0.00600  -0.01993   2.61761
    R7        2.64556  -0.00376  -0.00752  -0.00577  -0.01316   2.63240
    R8        2.63579   0.00078  -0.00892   0.00947   0.00055   2.63634
    R9        2.05306  -0.00153  -0.00256  -0.00395  -0.00651   2.04655
   R10        2.63967  -0.00113  -0.00688   0.00221  -0.00479   2.63488
   R11        2.05084  -0.00035  -0.00340   0.00129  -0.00210   2.04874
   R12        2.64257  -0.00023  -0.00561   0.00400  -0.00172   2.64085
   R13        2.05211  -0.00045  -0.00285   0.00047  -0.00238   2.04973
   R14        2.63027   0.00008  -0.01024   0.00853  -0.00170   2.62857
   R15        2.05098  -0.00037  -0.00331   0.00114  -0.00217   2.04881
   R16        2.06079  -0.00059   0.00041  -0.00261  -0.00221   2.05858
    A1        1.93859  -0.01186   0.01052  -0.10592  -0.09540   1.84318
    A2        2.02627  -0.00456  -0.04951   0.00396  -0.04516   1.98111
    A3        1.93886   0.00057   0.03129  -0.01722   0.01516   1.95401
    A4        1.85731  -0.00319   0.00065  -0.05377  -0.05314   1.80418
    A5        1.88993   0.00310   0.01291   0.02749   0.04049   1.93043
    A6        1.91349   0.00422   0.02176   0.01385   0.03343   1.94692
    A7        1.82753   0.00031  -0.01487   0.02748   0.01104   1.83857
    A8        2.12500  -0.00490  -0.01111  -0.01843  -0.02964   2.09536
    A9        2.04632  -0.00272  -0.00246  -0.01307  -0.01563   2.03069
   A10        2.11185   0.00761   0.01357   0.03143   0.04506   2.15692
   A11        2.08011  -0.00463  -0.00868  -0.02148  -0.03016   2.04995
   A12        2.10212   0.00227   0.00270   0.01147   0.01416   2.11628
   A13        2.10095   0.00235   0.00597   0.01000   0.01596   2.11691
   A14        2.09827   0.00085   0.00216   0.00491   0.00684   2.10511
   A15        2.08485  -0.00097  -0.00413  -0.00504  -0.00906   2.07578
   A16        2.10007   0.00013   0.00197   0.00011   0.00219   2.10226
   A17        2.09740   0.00020   0.00072   0.00250   0.00290   2.10031
   A18        2.09389  -0.00005  -0.00002  -0.00103  -0.00089   2.09300
   A19        2.09189  -0.00015  -0.00069  -0.00148  -0.00202   2.08987
[...]
     6         -0.72898277         -0.33179304         -2.28712634
     6          0.41407428          1.08067169         -4.19846702
     6         -0.56829759          0.87053071         -6.63089086
     6         -2.62859339         -0.72087264         -7.10033524
     6         -3.72755778         -2.12128059         -5.15075239
     6         -2.77171990         -1.94402085         -2.69998999
     1          2.60775342         -2.94478081         -0.33153850
     1         -0.92467652         -0.88904462          1.59581211
     1          2.02260169          2.29582097         -3.80809652
     1          0.27096592          1.95140427         -8.15759619
     1         -3.38363011         -0.86552100         -9.00195545
     1         -5.32727167         -3.34676919         -5.52744435
     1         -3.62048824         -3.01928585         -1.16722779
     1          0.70341380          1.66709337          0.79037969

 Electric dipole moment (dipole orientation):
 (Debye = 10**-18 statcoulomb cm , SI units = C m)
                  (au)            (Debye)         (10**-30 SI)
   Tot        0.133757D+01      0.339975D+01      0.113404D+02
   x          0.000000D+00      0.000000D+00      0.000000D+00
   y          0.000000D+00      0.000000D+00      0.000000D+00
   z          0.133757D+01      0.339975D+01      0.113404D+02

 Dipole polarizability, Alpha (dipole orientation).
 (esu units = cm**3 , SI units = C**2 m**2 J**-1)
 Alpha(0;0):
               (au)            (10**-24 esu)      (10**-40 SI)
   iso        0.672831D+02      0.997033D+01      0.110935D+02
   aniso      0.519969D+02      0.770515D+01      0.857314D+01
   xx         0.650556D+02      0.964024D+01      0.107262D+02
   yx         0.187459D+02      0.277785D+01      0.309077D+01
   yy         0.510889D+02      0.757059D+01      0.842342D+01
   zx         0.139222D+02      0.206305D+01      0.229546D+01
   zy        -0.725986D+01     -0.107580D+01     -0.119699D+01
   zz         0.857049D+02      0.127001D+02      0.141308D+02

 ----------------------------------------------------------------------
 1\1\GINC-BROWN-A069\Freq\RB3LYP\6-31G(d)\C6H8N1O1(1+)\FINEJ\14-Oct-201
 9\0\\#P Geom=AllCheck Guess=TCheck SCRF=Check GenChk RB3LYP/6-31G(d) F
 req\\Title Card Required\\1,1\O,1.4833987354,0.2300961334,0.6765539903
 \N,0.1774873076,0.1350504696,0.0890045668\C,-0.4339449029,-1.200586158
 5,0.1214002111\C,0.0892903596,-2.1899552099,-0.7122260151\C,-0.4849086
 78,-3.4573428636,-0.6532905795\C,-1.5473951725,-3.7086211682,0.2228112
 633\C,-2.046678935,-2.6997111352,1.0501816864\C,-1.4852693309,-1.42309
 50616,1.0098300085\H,1.4376361021,-0.331452473,1.4787678744\H,-0.42796
 09463,0.8347735278,0.542120157\H,0.9200310338,-1.9820705591,-1.3810672
 514\H,-0.1048174966,-4.2474278803,-1.2923450845\H,-1.9899060219,-4.699
 1044781,0.2582032698\H,-2.872184667,-2.9009196459,1.7246891488\H,-1.87
 03605352,-0.6294100011,1.6463508761\H,0.3521381278,0.4547641437,-0.872
 3147821\\Version=ES64L-G16RevA.03\State=1-A\HF=-363.1083788\RMSD=5.872
 e-09\RMSF=9.343e-06\ZeroPoint=0.1357099\Thermal=0.1357099\Dipole=0.062
 6968,1.3337404,0.0793027\DipoleDeriv=-0.3901976,-0.2649618,-0.0503658,
 -0.0350764,-0.4733343,-0.0531031,-0.2168661,-0.2229412,-0.2914361,0.44
 71836,0.2601584,0.1289619,0.1371904,0.2783932,0.0417382,0.2390882,0.14
 49559,0.1277297,-0.0151232,0.0641561,-0.151013,-0.0511775,0.0163626,0.
 0243159,-0.1117207,0.0802737,0.029433,-0.0200284,-0.0234596,-0.0615428
 ,0.1535761,0.0061788,-0.0707148,0.0461024,0.0764945,-0.0297175,-0.1229
 448,-0.1138443,-0.009264,-0.1440007,0.0169923,0.142316,0.0014912,0.127
 5594,-0.0024838,0.0363395,0.082069,-0.027509,0.0796764,0.1776204,0.000
 1957,-0.033148,-0.0045409,-0.0025742,0.0751427,0.0351535,-0.1114168,0.
 0353723,-0.1847724,-0.102577,-0.105394,-0.0746777,-0.0027227,-0.027657
 9,0.0960661,0.0340118,-0.0624551,0.0660904,0.0972037,-0.0833897,-0.088
 1681,-0.0844085,0.3054887,0.0083539,0.0885328,-0.0262558,0.3240013,0.0
 53655,0.1249289,0.1227391,0.3225127,0.1241689,-0.0074491,-0.0111152,-0
 .0169786,0.2987775,0.0087419,-0.0185981,-0.0109849,0.1998366,0.0675766
 ,-0.0347202,0.0518834,-0.04341,0.0744483,0.0243534,0.0454818,0.0154184
 ,0.0946716,0.0898537,0.0072974,0.0377661,0.0036079,0.0508152,-0.034773
 4,0.0374574,-0.0346466,0.0826076,0.091542,-0.0301793,0.0212784,-0.0324
 428,0.0303,-0.0056899,0.0212228,-0.0050451,0.1054659,0.06623,-0.01436,
 0.052665,-0.0161148,0.0774099,-0.0085291,0.0549844,-0.0007283,0.081187
 6,0.1127693,-0.001051,0.0210657,0.0123659,-0.0120277,-0.0594282,0.0235
 006,-0.0449557,0.0943993,0.1596569,-0.0632293,-0.0139386,0.0061229,0.2
 527444,-0.0577043,-0.0251412,-0.0807524,0.2754988\Polar=64.7554252,16.
 3106705,83.3192974,-18.0203608,9.3510397,53.7746263\Quadrupole=-4.4892
 156,7.3710215,-2.8818059,2.9098603,-2.6141311,1.0719386\PG=C01 [X(C6H8
 N1O1)]\NImag=0\\0.26979352,0.04511691,0.22925457,0.04990025,-0.2502405
 9,0.42012861,-0.14986602,0.01416610,-0.05215992,0.47576529,-0.00015049
 ,-0.07286601,0.02302516,-0.09836025,0.59938566,-0.01263834,0.03452060,
 -0.10767006,-0.13342062,-0.02441734,0.71606035,-0.02961350,-0.03355846
 ,-0.00366131,-0.09113268,-0.02120590,0.02473627,0.46723624,-0.02980033
 ,-0.00365075,-0.01143069,-0.00076257,-0.15542340,0.00448634,0.03484221
 ,0.54289878,-0.00686080,-0.01155975,0.00545143,0.02455926,-0.00347987,
 -0.09735521,-0.27612494,0.11666713,0.43945268,-0.00053479,-0.00121993,
 -0.00018671,0.00670164,-0.01853068,-0.01350999,-0.12964216,0.07697215,
 0.09643192,0.49525103,0.00742951,0.00256613,0.00103826,-0.00012301,-0.
 04557294,-0.02076186,0.02844231,-0.19651445,-0.07645158,0.11071883,0.6
 3887877,0.00332623,-0.00021694,0.00098396,-0.01024310,0.00075176,0.002
 28339,0.08032431,-0.11951484,-0.17096058,-0.29316029,0.08672481,0.4235
 9135,-0.00188396,-0.00015055,-0.00006169,0.00662114,0.00784923,0.00536
 777,0.03541486,-0.01861277,-0.03506054,-0.13721414,-0.06978404,0.04366
 663,0.45159544,-0.00269874,0.00041770,0.00022969,0.00588106,0.00128774
 ,-0.00417201,0.02110211,-0.05460455,-0.04118743,-0.11705202,-0.3075887
 1,0.01505179,0.07005678,0.68593646,0.00298178,0.00146830,0.00066164,0.
 00241537,-0.00903431,0.00037698,-0.02111815,-0.00480893,0.02071817,0.0
 2691117,-0.02704682,-0.09511983,-0.26172777,0.13888705,0.42630266,0.00
 043925,-0.00081721,-0.00071225,-0.00284440,0.00078967,0.00108655,-0.02
 973948,0.01370373,0.02697813,-0.01370620,-0.05658657,-0.00205532,-0.22
 067099,-0.01584936,0.13642658,0.46041181,0.00050112,0.00030092,0.00058
 503,0.00018477,0.00009664,-0.00067395,0.01360150,-0.00892866,-0.013589
 49,-0.02654342,0.01174184,0.02600996,-0.06154879,-0.13502382,0.0299384
 4,0.12042846,0.70507499,-0.00054082,0.00054469,0.00074179,0.00184798,0
 .00039428,-0.00248681,0.02615759,-0.01367061,-0.03608596,0.00840775,0.
 05366487,0.01746107,0.11956506,-0.01190465,-0.17754635,-0.24482547,0.0
 9856732,0.40214669,0.00171456,0.00053440,-0.00008265,-0.00143344,-0.00
 351332,0.00829267,-0.01655127,-0.02270891,0.00959048,-0.00203574,-0.00
 340415,-0.00422857,-0.00797172,0.01991743,0.02158253,-0.13140150,0.064
 86453,0.08517942,0.49659382,-0.00347539,-0.00246730,-0.00242333,0.0026
 4448,0.00792862,0.00089674,-0.06046115,0.00159075,0.05665820,0.0034736
 5,-0.05545138,-0.02086333,0.04738176,0.04980747,-0.02788523,0.01897245
 ,-0.23645565,-0.08119561,0.10489348,0.63458903,0.00039669,0.00053662,-
 0.00047074,0.00849129,0.00232530,0.00235900,-0.00345935,0.01999517,0.0
 1580455,-0.00175907,-0.01553538,-0.00909804,0.03167825,-0.00229071,-0.
 02252366,0.06798858,-0.12264846,-0.17136904,-0.28945514,0.08840666,0.4
 3094683,0.00316225,0.00169003,0.00208055,-0.01640566,-0.01265718,0.004
 17859,-0.21309287,-0.04621288,0.13115720,-0.01103818,0.04552605,0.0344
 9843,-0.03090455,-0.02823439,0.01261586,0.03977909,-0.00938408,-0.0338
 2362,-0.13646036,-0.06764419,0.04276205,0.44885898,0.00297930,0.000663
 48,0.00269408,-0.03629024,-0.02401012,0.02390017,0.00129499,-0.1069847
 8,-0.02422377,0.01235619,0.03893345,-0.00085763,-0.02231373,-0.0247891
 2,0.01368209,0.02172907,-0.04774685,-0.03976132,-0.11446357,-0.3001098
 5,0.01619419,0.07013694,0.67813314,-0.00711864,-0.00444740,-0.00277714
 ,0.00219404,0.00761841,0.00265072,0.14876210,0.01913752,-0.17929257,0.
 02207394,-0.03094348,-0.02325106,0.01482293,0.01900220,-0.01236396,-0.
 02280067,-0.01106461,0.02268246,0.02573408,-0.02672789,-0.09510213,-0.
 26845244,0.13838163,0.42146233,-0.04883198,-0.05468061,0.05331716,-0.0
 1016784,0.02961238,-0.04755037,0.00374454,0.00008907,0.00001570,0.0001
 7915,-0.00097771,-0.00046952,0.00033388,0.00035971,-0.00023842,-0.0002
 3031,0.00021951,0.00023224,-0.00008355,-0.00040450,0.00015915,-0.00014
 631,0.00052438,0.00099195,0.06437463,-0.01748059,-0.16544047,0.2322219
 8,-0.00438933,0.00384601,-0.01198038,0.00054406,0.00242193,-0.00082026
 ,0.00044472,-0.00068448,-0.00030084,0.00009733,-0.00030266,0.00010932,
 -0.00009371,-0.00012833,-0.00011947,0.00025990,-0.00014961,0.00013345,
 -0.00106221,0.00012702,0.00045659,0.02386582,0.16089037,-0.00000762,0.
 21082123,-0.31017224,0.00315997,0.00920346,-0.01699470,-0.00013972,-0.
 00136387,0.00140476,0.00073339,-0.00034853,-0.00028820,-0.00002788,-0.
 00014080,-0.00010522,0.00018452,0.00003795,-0.00013628,-0.00012298,0.0
 0052653,-0.00030301,-0.00040578,0.00002552,0.00076057,-0.00191720,-0.2
 1902138,0.32437674,-0.03393204,0.01348478,-0.00075131,-0.15554242,0.12
 888925,0.09279767,0.01298548,-0.00898175,-0.00735778,-0.00091537,-0.00
 326640,0.00213462,-0.00009356,-0.00060270,-0.00076924,0.00037287,0.000
 04907,-0.00009313,-0.00064336,0.00028501,0.00035901,0.00088323,-0.0020
 1167,-0.00263243,-0.00127982,0.00105550,0.00155829,0.17985357,-0.00298
 295,0.00851004,0.00375762,0.12977891,-0.22091101,-0.10352802,0.0171340
 7,-0.02007190,-0.01747322,-0.00349350,-0.00431825,0.00245503,0.0012703
 2,-0.00012291,-0.00169774,-0.00009665,0.00029447,0.00025550,-0.0002363
 7,-0.00010155,-0.00015443,0.00119110,0.00244506,-0.00011503,0.00080660
 ,-0.00078396,0.00037676,-0.13337345,0.22279889,-0.01911986,0.01325079,
 0.00793869,0.09415330,-0.09949628,-0.13920160,-0.00333080,0.00129875,0
 .00218805,0.00113483,-0.00032193,0.00072061,0.00019424,0.00028354,-0.0
 0000685,-0.00017146,-0.00007342,0.00019498,0.00017669,-0.00023510,-0.0
 0057193,-0.00150368,0.00230645,0.00160580,-0.00226385,0.00173807,0.001
 73495,-0.09051397,0.10894588,0.13813005,-0.00021758,-0.00018636,-0.000
 17349,-0.00133059,-0.00004118,-0.00211915,-0.00487112,-0.00312736,0.00
 553476,-0.21502572,-0.04440473,0.14637283,-0.00478856,-0.00102540,0.00
 740254,0.00322637,-0.00312590,0.00250341,-0.00006104,-0.00000923,-0.00
 075478,0.00276558,0.00092793,0.00227509,0.00001694,-0.00016589,0.00001
 396,-0.00005789,0.00014577,-0.00016096,0.22158654,-0.00004941,-0.00003
 153,0.00012978,0.00132602,0.00194526,0.00064626,0.01816671,0.00725605,
 -0.01516839,-0.04373953,-0.06866825,0.02778573,-0.02301069,0.00042089,
 0.01920353,-0.00280447,-0.00487697,-0.00206125,0.00008779,-0.00094339,
 -0.00006916,0.00012765,-0.00346387,-0.00311182,-0.00001120,0.00014731,
 -0.00012442,0.00014744,0.00018290,0.00018460,0.04881636,0.06753684,-0.
 00144546,0.00008292,0.00007258,-0.00102729,0.00145380,-0.00100925,0.01
 335500,0.00509421,-0.00787855,0.14576394,0.02773354,-0.15509254,-0.000
 18353,-0.00047350,0.00412068,0.00291852,-0.00150498,0.00431409,-0.0006
 9935,0.00023633,-0.00017292,0.00174480,-0.00416162,0.00181043,0.000198
 71,-0.00028887,-0.00033247,0.00018755,0.00012064,0.00003597,-0.1594335
 7,-0.02878960,0.15632917,0.00008995,0.00015283,-0.00000623,0.00074862,
 -0.00143602,-0.00022968,0.00200575,-0.00315264,0.00333239,0.00822598,-
 0.01141526,-0.00865972,-0.08690058,0.07074032,0.06951994,-0.00364082,0
 .01829319,0.01399743,-0.00047210,-0.00279496,0.00545255,-0.00076119,-0
 .00070671,0.00002012,0.00002499,0.00000771,0.00001526,-0.00028355,-0.0
 0030112,-0.00007494,-0.00118331,0.00115484,-0.00234564,0.08366930,-0.0
 0001791,0.00005791,-0.00000686,0.00061148,-0.00129602,-0.00105136,-0.0
 0404105,-0.00197809,0.00019729,0.01032172,-0.01691917,-0.01697444,0.07
 032663,-0.21236824,-0.12815426,-0.00337955,0.00961558,0.00507999,-0.00
 257573,0.00082633,0.00018184,-0.00049139,-0.00010967,0.00061409,0.0000
 1828,-0.00001956,0.00007153,-0.00018997,-0.00034048,0.00006920,0.00099
 300,0.00072068,0.00091298,-0.07255333,0.22095670,0.00001060,0.00005241
 ,-0.00005518,0.00034703,0.00026462,0.00072746,0.00305594,-0.00042962,0
 .00411207,-0.00068706,0.00307879,0.00519130,0.06940877,-0.12850911,-0.
 15024307,0.00593866,-0.01472808,-0.00660527,0.00551950,0.00037277,0.00
 175250,0.00005857,0.00080304,-0.00022577,0.00002023,-0.00000921,-0.000
 02896,-0.00011545,0.00008602,-0.00010401,-0.00227280,0.00085894,-0.001
 79915,-0.07868821,0.13796017,0.14968897,-0.00024366,-0.00009362,-0.000
 09539,-0.00049721,0.00001289,-0.00077419,-0.00032157,0.00078372,0.0010
 0597,-0.00018436,-0.00138185,0.00593533,-0.00488947,-0.02240128,0.0005
 3617,-0.10079004,-0.11057389,0.01257767,0.00932832,0.01189891,0.000362
 56,0.00247693,0.00093676,0.00468821,-0.00002996,-0.00003243,0.00006470
 ,-0.00000867,-0.00002799,0.00006804,-0.00038700,-0.00103515,-0.0001906
 7,-0.00099533,0.00090341,-0.00222763,0.09735202,0.00019069,0.00008850,
 0.00005893,0.00008658,-0.00022963,0.00032002,0.00058468,0.00073743,-0.
 00052628,-0.00119384,0.00162892,-0.00085898,-0.00068758,0.00048885,-0.
 00100345,-0.11050724,-0.29963662,0.00504611,-0.00990171,-0.01510787,0.
 00157990,0.00077956,-0.00109398,-0.00377185,0.00002092,0.00000334,-0.0
 0002239,0.00002283,0.00003894,-0.00006635,0.00013395,-0.00002513,-0.00
 005254,0.00074407,0.00038258,0.00088735,0.11949289,0.31293907,-0.00039
 264,-0.00006149,-0.00004316,-0.00063130,0.00020999,-0.00058679,0.00094
 400,-0.00041552,-0.00060529,0.00607792,-0.00066354,0.00116264,0.008657
 74,0.01879026,0.00390442,0.01259701,0.00503427,-0.05154678,-0.00778495
 ,-0.01808479,0.00526260,0.00456751,-0.00405716,0.00162884,0.00001498,-
 0.00006160,0.00002684,0.00012008,0.00011652,0.00001009,0.00023697,0.00
 107039,-0.00010123,-0.00228834,0.00073133,-0.00144876,-0.01950384,-0.0
 0281433,0.04397818,0.00018509,0.00015232,0.00013986,-0.00002208,-0.000
 49005,0.00070449,0.00334454,-0.00240480,0.00186991,0.00008977,0.000329
 93,-0.00055232,0.00322210,0.00050496,0.00352794,-0.00318945,-0.0029740
 7,0.00566899,-0.21912725,-0.04475308,0.14714861,-0.00510780,-0.0011162
 4,0.00706167,0.00000944,0.00002298,0.00004651,-0.00004964,0.00005854,0
 .00003352,-0.00041864,0.00015630,-0.00041848,-0.00030437,-0.00019297,0
 .00007184,-0.00121674,0.00077861,-0.00221155,0.22393631,-0.00019235,-0
 .00020981,-0.00010926,-0.00150964,-0.00053836,0.00122007,-0.00192556,-
 0.00357206,-0.00230585,0.00016528,-0.00106964,-0.00027644,0.00024839,-
 0.00306577,-0.00391915,0.01878932,0.00915786,-0.01523047,-0.04439828,-
 0.06836715,0.02941097,-0.02304077,-0.00255686,0.01888392,0.00006748,0.
 00001037,0.00007925,-0.00008961,0.00015279,0.00005549,0.00016210,0.000
 09684,0.00022891,0.00098542,0.00038721,-0.00071162,0.00062334,0.000565
 60,0.00110442,0.04925436,0.06842337,0.00026788,0.00017292,0.00015591,-
 0.00012214,-0.00080150,0.00057776,0.00227195,-0.00105458,0.00398288,-0
 .00060008,-0.00054480,-0.00026513,0.00349416,-0.00417296,0.00218674,0.
 01374124,0.00445792,-0.00653746,0.14723591,0.02976973,-0.16128155,-0.0
 0105806,-0.00095496,0.00375895,-0.00001131,0.00004320,0.00000832,-0.00
 001517,0.00002987,0.00001406,-0.00041124,0.00025029,-0.00048843,0.0005
 1281,0.00037066,-0.00047158,-0.00228095,0.00097081,-0.00156433,-0.1607
 9518,-0.02929662,0.16166847,-0.00068816,-0.00052480,-0.00026666,-0.000
 47787,0.00282085,-0.00264630,-0.00500026,0.01782341,0.01292969,-0.0009
 2708,-0.00319320,0.00412113,-0.00061936,-0.00040210,-0.00040519,0.0018
 2015,-0.00385985,0.00333789,0.00945048,-0.00999150,-0.00878211,-0.0849
 4849,0.06848793,0.07186740,-0.00045595,0.00010703,0.00030853,-0.000166
 47,-0.00118377,0.00078793,0.00038440,0.00063308,0.00114871,-0.00031043
 ,0.00023276,-0.00046089,0.00026638,-0.00048116,-0.00055076,-0.00123147
 ,0.00096612,-0.00216185,0.08242636,0.00058387,0.00028935,0.00021618,0.
 00010839,0.00170196,0.00166371,-0.00399153,0.00579258,0.00491496,-0.00
 213898,0.00085013,0.00064055,-0.00048216,-0.00036568,0.00059902,-0.004
 50566,-0.00351498,0.00021296,0.01204357,-0.01589064,-0.01808894,0.0679
 0011,-0.20499590,-0.12361748,0.00015748,-0.00001064,-0.00022693,0.0004
 6293,0.00022339,-0.00050199,-0.00039100,0.00050554,-0.00001992,0.00025
 140,-0.00001544,0.00009654,0.00075329,-0.00076691,-0.00089375,0.000876
 86,0.00085744,0.00095721,-0.07152386,0.21523988,-0.00062016,0.00001614
 ,0.00008641,-0.00278825,-0.00049221,-0.00179672,0.00572790,-0.01460389
 ,-0.00798230,0.00458624,0.00156155,0.00113907,-0.00047551,0.00055220,-
 0.00020653,0.00311586,-0.00045265,0.00409436,-0.00070654,0.00176907,0.
 00513524,0.07105882,-0.12398275,-0.14300908,-0.00003060,-0.00021981,0.
 00017082,0.00122897,0.00135839,-0.00021157,0.00071088,-0.00098739,0.00
 035429,-0.00046129,0.00011707,-0.00046341,-0.00010483,0.00021122,0.000
 01813,-0.00220111,0.00090843,-0.00169741,-0.07923246,0.13404902,0.1443
 6145,-0.00957293,0.01593419,-0.04728021,-0.06011646,-0.01358920,0.0757
 2462,-0.00476651,-0.00845028,0.01199864,0.00077617,0.00209031,-0.00101
 068,-0.00125051,-0.00029638,0.00033888,0.00016365,-0.00013214,-0.00019
 240,-0.00084583,-0.00001575,-0.00058830,0.00093935,-0.00247131,0.00051
 264,-0.00745787,-0.00318090,-0.00346394,-0.00112235,-0.00868951,0.0205
 9096,0.00036162,0.00003427,0.00042676,0.00008710,0.00003462,0.00002091
 ,0.00014036,-0.00006325,0.00014718,-0.00011981,-0.00010561,-0.00006796
 ,0.00047778,-0.00010471,0.00019208,0.08230624,0.00004679,0.00251728,0.
 00025401,-0.01335276,-0.09534439,0.09893100,-0.01052898,-0.00896887,0.
 02834831,-0.00054064,0.00218802,0.00044381,-0.00064013,-0.00012766,-0.
 00033787,0.00022772,0.00002957,0.00017765,-0.00139907,0.00030219,0.000
 02296,0.00137565,-0.00444115,-0.00029480,0.00033238,0.00007336,0.00010
 610,0.00411873,0.01200359,-0.02743769,0.00129795,-0.00080318,-0.000572
 31,0.00003028,0.00009969,-0.00007302,0.00014102,-0.00001309,-0.0000050
 1,-0.00020364,-0.00027184,-0.00019720,0.00008904,0.00009992,0.00019562
 ,0.01900564,0.09265654,-0.00813910,0.00505955,-0.01503252,0.06322439,0
 .09247474,-0.35793452,0.00249920,0.00061341,0.00704584,-0.00221790,-0.
 00118389,0.00154200,0.00068138,0.00005444,-0.00015584,-0.00041048,0.00
 010474,0.00067851,-0.00023110,-0.00122076,-0.00036768,0.00052119,0.000
 01204,-0.00033839,-0.00246887,-0.00188080,-0.00012192,0.00386228,0.005
 46621,-0.01247729,0.00027555,0.00018250,-0.00016268,-0.00009644,-0.000
 11925,-0.00002712,-0.00006115,0.00004183,-0.00009540,-0.00009470,-0.00
 004205,-0.00004720,0.00000494,-0.00000113,0.00000724,-0.05734919,-0.09
 956156,0.37748697\\0.00000775,-0.00000341,-0.00000046,-0.00000373,-0.0
 0004099,0.00000202,-0.00000042,0.00002191,0.00001478,-0.00000431,-0.00
 002282,-0.00000639,0.00000837,0.00000841,0.00000113,-0.00000215,0.0000
 0267,0.00000598,0.00000250,-0.00000635,-0.00000546,0.00000327,-0.00000
 150,-0.00000401,0.00000221,0.00000109,0.00000201,-0.00001467,0.0000164
 9,-0.00000161,0.00000148,0.00000434,0.00000382,-0.00000108,0.00000119,
 -0.00000131,-0.00000055,0.00000065,-0.00000171,0.00000047,0.00000251,-
 0.00000095,0.00000079,0.00000072,0.00000032,0.00000005,0.00001509,-0.0
 0000817\\\@


 ONLY A FOOL KNOWS EVERYTHING.

               -- THE CHEMIST ANALYST, SEPTEMBER 1946
 Job cpu time:       0 days  0 hours  6 minutes 16.0 seconds.
 Elapsed time:       0 days  0 hours  0 minutes 16.2 seconds.
 File lengths (MBytes):  RWF=     40 Int=      0 D2E=      0 Chk=      3 Scr=      1
 Normal termination of Gaussian 16 at Mon Oct 14 00:13:35 2019.
real 76.57
user 1649.94
sys 18.89
Machine:
brown-a069
brown-a069
brown-a069
brown-a069
brown-a069
brown-a069
brown-a069
brown-a069
brown-a069
brown-a069
brown-a069
brown-a069
brown-a069
brown-a069
brown-a069
brown-a069
brown-a069
brown-a069
brown-a069
brown-a069
brown-a069
brown-a069
brown-a069
brown-a069
