Title Card Required                                                     
Freq      RB3LYP                                                      6-31G(d)            
Number of atoms                            I               21
Info1-9                                    I   N=           9
          52          52        1002           0           0         100
           6          18        -502
Full Title                                 C   N=           2
Title Card Required     
Route                                      C   N=           6
#P opt freq b3lyp/6-31g(d) geom=connectivity temperature=0.0
01          
Charge                                     I                0
Multiplicity                               I                1
Number of electrons                        I               64
Number of alpha electrons                  I               32
Number of beta electrons                   I               32
Number of basis functions                  I              146
Number of independent functions            I              146
Number of point charges in /Mol/           I                0
Number of translation vectors              I                0
Atomic numbers                             I   N=          21
           8           7           6           6           6           6
           6           6           1           1           1           1
           1           1           1           1           1           1
           1           1           1
Nuclear charges                            R   N=          21
  8.00000000E+00  7.00000000E+00  6.00000000E+00  6.00000000E+00  6.00000000E+00
  6.00000000E+00  6.00000000E+00  6.00000000E+00  1.00000000E+00  1.00000000E+00
  1.00000000E+00  1.00000000E+00  1.00000000E+00  1.00000000E+00  1.00000000E+00
  1.00000000E+00  1.00000000E+00  1.00000000E+00  1.00000000E+00  1.00000000E+00
  1.00000000E+00
Current cartesian coordinates              R   N=          63
 -5.42644865E+00  8.27718657E-01  3.15663838E-01 -3.69157015E+00 -1.17294889E+00
 -4.03613647E-01 -1.13955136E+00 -4.62168635E-01  4.42444407E-01 -2.03059120E-01
  2.11008878E+00 -5.37014977E-01  2.50132626E+00  2.67207030E+00  3.61688353E-01
  4.33042677E+00  5.44986578E-01 -3.86032813E-01  3.39477276E+00 -2.03447940E+00
  5.63648384E-01  6.83022340E-01 -2.59114703E+00 -3.19528561E-01 -6.61465531E+00
 -7.49017228E-02  1.37938517E+00 -3.71764002E+00 -1.06804266E+00 -2.33488409E+00
 -1.23735860E+00 -3.88052962E-01  2.51584650E+00 -2.42302865E-01  2.07771755E+00
 -2.61906960E+00 -1.51066231E+00  3.59506017E+00  6.62804545E-02  3.14691948E+00
  4.48480933E+00 -4.11027600E-01  2.50534127E+00  2.88304012E+00  2.43008946E+00
  4.50092304E+00  4.89184040E-01 -2.45752162E+00  6.22990735E+00  9.32183192E-01
  3.51160765E-01  4.66578919E+00 -3.54370779E+00 -7.36280746E-02  3.44962308E+00
 -2.05833280E+00  2.64135028E+00  6.66988853E-01 -2.78563513E+00 -2.39209019E+00
  8.08122132E-03 -4.39053185E+00  4.52864601E-01
Number of symbols in /Mol/                 I                0
Force Field                                I                0
Atom Types                                 C   N=          21
                                                            
                                                            
                                                            
                                                            
            
Int Atom Types                             I   N=          21
           0           0           0           0           0           0
           0           0           0           0           0           0
           0           0           0           0           0           0
           0           0           0
MM charges                                 R   N=          21
  0.00000000E+00  0.00000000E+00  0.00000000E+00  0.00000000E+00  0.00000000E+00
  0.00000000E+00  0.00000000E+00  0.00000000E+00  0.00000000E+00  0.00000000E+00
  0.00000000E+00  0.00000000E+00  0.00000000E+00  0.00000000E+00  0.00000000E+00
  0.00000000E+00  0.00000000E+00  0.00000000E+00  0.00000000E+00  0.00000000E+00
  0.00000000E+00
Integer atomic weights                     I   N=          21
          16          14          12          12          12          12
          12          12           1           1           1           1
           1           1           1           1           1           1
           1           1           1
Real atomic weights                        R   N=          21
  1.59949146E+01  1.40030740E+01  1.20000000E+01  1.20000000E+01  1.20000000E+01
  1.20000000E+01  1.20000000E+01  1.20000000E+01  1.00782504E+00  1.00782504E+00
  1.00782504E+00  1.00782504E+00  1.00782504E+00  1.00782504E+00  1.00782504E+00
  1.00782504E+00  1.00782504E+00  1.00782504E+00  1.00782504E+00  1.00782504E+00
  1.00782504E+00
Atom fragment info                         I   N=          21
           0           0           0           0           0           0
           0           0           0           0           0           0
           0           0           0           0           0           0
           0           0           0
Atom residue num                           I   N=          21
           0           0           0           0           0           0
           0           0           0           0           0           0
           0           0           0           0           0           0
           0           0           0
Nuclear spins                              I   N=          21
           0           2           0           0           0           0
           0           0           1           1           1           1
           1           1           1           1           1           1
           1           1           1
Nuclear ZEff                               R   N=          21
 -5.60000000E+00 -4.55000000E+00 -3.60000000E+00 -3.60000000E+00 -3.60000000E+00
 -3.60000000E+00 -3.60000000E+00 -3.60000000E+00 -1.00000000E+00 -1.00000000E+00
 -1.00000000E+00 -1.00000000E+00 -1.00000000E+00 -1.00000000E+00 -1.00000000E+00
 -1.00000000E+00 -1.00000000E+00 -1.00000000E+00 -1.00000000E+00 -1.00000000E+00
 -1.00000000E+00
Nuclear ZNuc                               R   N=          21
  8.00000000E+00  7.00000000E+00  6.00000000E+00  6.00000000E+00  6.00000000E+00
  6.00000000E+00  6.00000000E+00  6.00000000E+00  1.00000000E+00  1.00000000E+00
  1.00000000E+00  1.00000000E+00  1.00000000E+00  1.00000000E+00  1.00000000E+00
  1.00000000E+00  1.00000000E+00  1.00000000E+00  1.00000000E+00  1.00000000E+00
  1.00000000E+00
Nuclear QMom                               R   N=          21
  0.00000000E+00  2.04400000E+00  0.00000000E+00  0.00000000E+00  0.00000000E+00
  0.00000000E+00  0.00000000E+00  0.00000000E+00  0.00000000E+00  0.00000000E+00
  0.00000000E+00  0.00000000E+00  0.00000000E+00  0.00000000E+00  0.00000000E+00
  0.00000000E+00  0.00000000E+00  0.00000000E+00  0.00000000E+00  0.00000000E+00
  0.00000000E+00
Nuclear GFac                               R   N=          21
  0.00000000E+00  4.03761000E-01  0.00000000E+00  0.00000000E+00  0.00000000E+00
  0.00000000E+00  0.00000000E+00  0.00000000E+00  2.79284600E+00  2.79284600E+00
  2.79284600E+00  2.79284600E+00  2.79284600E+00  2.79284600E+00  2.79284600E+00
  2.79284600E+00  2.79284600E+00  2.79284600E+00  2.79284600E+00  2.79284600E+00
  2.79284600E+00
MicOpt                                     I   N=          21
          -1          -1          -1          -1          -1          -1
          -1          -1          -1          -1          -1          -1
          -1          -1          -1          -1          -1          -1
          -1          -1          -1
Number of residues                         I                0
Number of secondary structures             I                0
Redundant internal dimensions              I   N=           4
         123          21          40          62
Redundant internal coordinate indices      I   N=         492
           1           2           0           0           1           9
           0           0           2           3           0           0
           2          10           0           0           3           4
           0           0           3           8           0           0
           3          11           0           0           4           5
           0           0           4          12           0           0
           4          13           0           0           5           6
           0           0           5          14           0           0
           5          15           0           0           6           7
           0           0           6          16           0           0
           6          17           0           0           7           8
           0           0           7          18           0           0
           7          19           0           0           8          20
           0           0           8          21           0           0
           2           1           9           0           1           2
           3           0           1           2          10           0
           3           2          10           0           2           3
           4           0           2           3           8           0
           2           3          11           0           4           3
           8           0           4           3          11           0
           8           3          11           0           3           4
           5           0           3           4          12           0
           3           4          13           0           5           4
          12           0           5           4          13           0
          12           4          13           0           4           5
           6           0           4           5          14           0
           4           5          15           0           6           5
          14           0           6           5          15           0
          14           5          15           0           5           6
           7           0           5           6          16           0
           5           6          17           0           7           6
          16           0           7           6          17           0
          16           6          17           0           6           7
           8           0           6           7          18           0
           6           7          19           0           8           7
          18           0           8           7          19           0
          18           7          19           0           3           8
           7           0           3           8          20           0
           3           8          21           0           7           8
          20           0           7           8          21           0
          20           8          21           0           9           1
           2           3           9           1           2          10
           1           2           3           4           1           2
           3           8           1           2           3          11
          10           2           3           4          10           2
           3           8          10           2           3          11
           2           3           4           5           2           3
           4          12           2           3           4          13
           8           3           4           5           8           3
           4          12           8           3           4          13
          11           3           4           5          11           3
           4          12          11           3           4          13
           2           3           8           7           2           3
           8          20           2           3           8          21
           4           3           8           7           4           3
           8          20           4           3           8          21
          11           3           8           7          11           3
           8          20          11           3           8          21
           3           4           5           6           3           4
           5          14           3           4           5          15
          12           4           5           6          12           4
           5          14          12           4           5          15
          13           4           5           6          13           4
           5          14          13           4           5          15
           4           5           6           7           4           5
           6          16           4           5           6          17
          14           5           6           7          14           5
           6          16          14           5           6          17
          15           5           6           7          15           5
           6          16          15           5           6          17
           5           6           7           8           5           6
           7          18           5           6           7          19
          16           6           7           8          16           6
           7          18          16           6           7          19
          17           6           7           8          17           6
           7          18          17           6           7          19
           6           7           8           3           6           7
           8          20           6           7           8          21
          18           7           8           3          18           7
           8          20          18           7           8          21
          19           7           8           3          19           7
           8          20          19           7           8          21
Redundant internal coordinates             R   N=         123
  2.74405432E+00  1.83250148E+00  2.78097514E+00  1.93429328E+00  2.90738140E+00
  2.90429453E+00  2.07703048E+00  2.90468436E+00  2.08267602E+00  2.06855784E+00
  2.90330514E+00  2.07362083E+00  2.07913625E+00  2.90361629E+00  2.07924236E+00
  2.07398218E+00  2.90576508E+00  2.07349327E+00  2.07856266E+00  2.08172871E+00
  2.07121279E+00  1.77519260E+00  1.89029296E+00  1.78610528E+00  1.87786073E+00
  2.00338689E+00  1.88462673E+00  1.84378063E+00  1.93694921E+00  1.89641639E+00
  1.89400537E+00  1.94640378E+00  1.89332478E+00  1.91055732E+00  1.90694777E+00
  1.93843816E+00  1.86586968E+00  1.94457164E+00  1.92165708E+00  1.90628451E+00
  1.92661128E+00  1.90639676E+00  1.85606119E+00  1.94293341E+00  1.90487996E+00
  1.92695570E+00  1.90543741E+00  1.92273641E+00  1.85879446E+00  1.95142033E+00
  1.92683273E+00  1.90564300E+00  1.91686343E+00  1.90312149E+00  1.85739198E+00
  1.94493415E+00  1.90165763E+00  1.91187508E+00  1.90465056E+00  1.93606085E+00
  1.86251780E+00 -2.11407126E+00  2.18870886E+00 -9.73484751E-01  3.13911348E+00
  1.11535831E+00  9.45275681E-01 -1.22531140E+00  3.03411874E+00 -3.11048402E+00
 -1.00956836E+00  1.02054883E+00 -9.67793702E-01  1.13312195E+00 -3.11994616E+00
  1.11336210E+00 -3.06890756E+00 -1.03879037E+00 -3.11339274E+00  1.06718831E+00
 -9.64340377E-01  9.59873909E-01 -1.14273035E+00  3.10892627E+00 -1.12272776E+00
  3.05785329E+00  1.02632460E+00  9.65984361E-01  3.10961652E+00 -1.14162567E+00
 -1.12691307E+00  1.01671909E+00  3.04866221E+00  3.10219445E+00 -1.03735870E+00
  9.94584419E-01 -9.51406209E-01  1.15303501E+00 -3.09268326E+00 -3.09219656E+00
 -9.87755342E-01  1.04971169E+00  1.15613804E+00 -3.02260605E+00 -9.85139013E-01
  9.48149152E-01  3.08771729E+00 -1.15932129E+00 -1.15596417E+00  9.83603974E-01
  3.01975070E+00  3.09185028E+00 -1.05176688E+00  9.84379839E-01 -9.55310970E-01
  1.14553391E+00 -3.09049379E+00 -3.10055503E+00 -9.99710148E-01  1.04744746E+00
  1.15362580E+00 -3.02871463E+00 -9.81557024E-01
ZRed-IntVec                                I   N=         123
           0           0           0           0           0           0
           0           0           0           0           0           0
           0           0           0           0           0           0
           0           0           0           0           0           0
           0           0           0           0           0           0
           0           0           0           0           0           0
           0           0           0           0           0           0
           0           0           0           0           0           0
           0           0           0           0           0           0
           0           0           0           0           0           0
           0           0           0           0           0           0
           0           0           0           0           0           0
           0           0           0           0           0           0
           0           0           0           0           0           0
           0           0           0           0           0           0
           0           0           0           0           0           0
           0           0           0           0           0           0
           0           0           0           0           0           0
           0           0           0           0           0           0
           0           0           0           0           0           0
           0           0           0
ZRed-FPVec                                 R   N=         123
  0.00000000E+00  0.00000000E+00  0.00000000E+00  0.00000000E+00  0.00000000E+00
  0.00000000E+00  0.00000000E+00  0.00000000E+00  0.00000000E+00  0.00000000E+00
  0.00000000E+00  0.00000000E+00  0.00000000E+00  0.00000000E+00  0.00000000E+00
  0.00000000E+00  0.00000000E+00  0.00000000E+00  0.00000000E+00  0.00000000E+00
  0.00000000E+00  0.00000000E+00  0.00000000E+00  0.00000000E+00  0.00000000E+00
  0.00000000E+00  0.00000000E+00  0.00000000E+00  0.00000000E+00  0.00000000E+00
  0.00000000E+00  0.00000000E+00  0.00000000E+00  0.00000000E+00  0.00000000E+00
  0.00000000E+00  0.00000000E+00  0.00000000E+00  0.00000000E+00  0.00000000E+00
  0.00000000E+00  0.00000000E+00  0.00000000E+00  0.00000000E+00  0.00000000E+00
  0.00000000E+00  0.00000000E+00  0.00000000E+00  0.00000000E+00  0.00000000E+00
  0.00000000E+00  0.00000000E+00  0.00000000E+00  0.00000000E+00  0.00000000E+00
  0.00000000E+00  0.00000000E+00  0.00000000E+00  0.00000000E+00  0.00000000E+00
  0.00000000E+00  0.00000000E+00  0.00000000E+00  0.00000000E+00  0.00000000E+00
  0.00000000E+00  0.00000000E+00  0.00000000E+00  0.00000000E+00  0.00000000E+00
  0.00000000E+00  0.00000000E+00  0.00000000E+00  0.00000000E+00  0.00000000E+00
  0.00000000E+00  0.00000000E+00  0.00000000E+00  0.00000000E+00  0.00000000E+00
  0.00000000E+00  0.00000000E+00  0.00000000E+00  0.00000000E+00  0.00000000E+00
  0.00000000E+00  0.00000000E+00  0.00000000E+00  0.00000000E+00  0.00000000E+00
  0.00000000E+00  0.00000000E+00  0.00000000E+00  0.00000000E+00  0.00000000E+00
  0.00000000E+00  0.00000000E+00  0.00000000E+00  0.00000000E+00  0.00000000E+00
  0.00000000E+00  0.00000000E+00  0.00000000E+00  0.00000000E+00  0.00000000E+00
  0.00000000E+00  0.00000000E+00  0.00000000E+00  0.00000000E+00  0.00000000E+00
  0.00000000E+00  0.00000000E+00  0.00000000E+00  0.00000000E+00  0.00000000E+00
  0.00000000E+00  0.00000000E+00  0.00000000E+00  0.00000000E+00  0.00000000E+00
  0.00000000E+00  0.00000000E+00  0.00000000E+00
ZRed-Constraint1                           R   N=         123
  2.74405432E+00  1.83250148E+00  2.78097514E+00  1.93429328E+00  2.90738140E+00
  2.90429453E+00  2.07703048E+00  2.90468436E+00  2.08267602E+00  2.06855784E+00
  2.90330514E+00  2.07362083E+00  2.07913625E+00  2.90361629E+00  2.07924236E+00
  2.07398218E+00  2.90576508E+00  2.07349327E+00  2.07856266E+00  2.08172871E+00
  2.07121279E+00  1.77519260E+00  1.89029296E+00  1.78610528E+00  1.87786073E+00
  2.00338689E+00  1.88462673E+00  1.84378063E+00  1.93694921E+00  1.89641639E+00
  1.89400537E+00  1.94640378E+00  1.89332478E+00  1.91055732E+00  1.90694777E+00
  1.93843816E+00  1.86586968E+00  1.94457164E+00  1.92165708E+00  1.90628451E+00
  1.92661128E+00  1.90639676E+00  1.85606119E+00  1.94293341E+00  1.90487996E+00
  1.92695570E+00  1.90543741E+00  1.92273641E+00  1.85879446E+00  1.95142033E+00
  1.92683273E+00  1.90564300E+00  1.91686343E+00  1.90312149E+00  1.85739198E+00
  1.94493415E+00  1.90165763E+00  1.91187508E+00  1.90465056E+00  1.93606085E+00
  1.86251780E+00 -2.11407126E+00  2.18870886E+00 -9.73484751E-01  3.13911348E+00
  1.11535831E+00  9.45275681E-01 -1.22531140E+00  3.03411874E+00 -3.11048402E+00
 -1.00956836E+00  1.02054883E+00 -9.67793702E-01  1.13312195E+00 -3.11994616E+00
  1.11336210E+00 -3.06890756E+00 -1.03879037E+00 -3.11339274E+00  1.06718831E+00
 -9.64340377E-01  9.59873909E-01 -1.14273035E+00  3.10892627E+00 -1.12272776E+00
  3.05785329E+00  1.02632460E+00  9.65984361E-01  3.10961652E+00 -1.14162567E+00
 -1.12691307E+00  1.01671909E+00  3.04866221E+00  3.10219445E+00 -1.03735870E+00
  9.94584419E-01 -9.51406209E-01  1.15303501E+00 -3.09268326E+00 -3.09219656E+00
 -9.87755342E-01  1.04971169E+00  1.15613804E+00 -3.02260605E+00 -9.85139013E-01
  9.48149152E-01  3.08771729E+00 -1.15932129E+00 -1.15596417E+00  9.83603974E-01
  3.01975070E+00  3.09185028E+00 -1.05176688E+00  9.84379839E-01 -9.55310970E-01
  1.14553391E+00 -3.09049379E+00 -3.10055503E+00 -9.99710148E-01  1.04744746E+00
  1.15362580E+00 -3.02871463E+00 -9.81557024E-01
ZRed-Constraint2                           R   N=         123
  2.56805672E+00  1.81406091E+00  2.79727419E+00  1.90866154E+00  2.94416753E+00
  2.93999926E+00  2.05980109E+00  2.93009901E+00  2.05981092E+00  2.05990134E+00
  2.92831032E+00  2.05981096E+00  2.05986500E+00  2.92987506E+00  2.05967195E+00
  2.05990808E+00  2.93127237E+00  2.05993042E+00  2.05971371E+00  2.05970439E+00
  2.05981729E+00  1.91072455E+00  1.93813464E+00  2.11040043E+00  2.23465024E+00
  1.94704389E+00  1.90477977E+00  1.84711605E+00  1.93123024E+00  1.89579542E+00
  1.93644994E+00  1.95370947E+00  1.85598219E+00  1.85599162E+00  1.85284357E+00
  1.85286980E+00  2.09429756E+00  1.95479160E+00  1.85444180E+00  1.85435014E+00
  1.85393892E+00  1.85390826E+00  2.09441631E+00  1.95069354E+00  1.85480106E+00
  1.85485188E+00  1.85530831E+00  1.85521039E+00  2.09442033E+00  1.95658991E+00
  1.85358512E+00  1.85370421E+00  1.85389259E+00  1.85394156E+00  2.09437919E+00
  1.95832716E+00  1.85441078E+00  1.85442803E+00  1.85237614E+00  1.85231684E+00
  2.09446648E+00 -1.64503714E+00  1.49648948E+00 -1.13780466E+00  3.00596860E+00
  9.21027121E-01  2.00385992E+00 -1.35552120E-01 -2.22049360E+00 -3.07602631E+00
 -1.05988193E+00  1.19097773E+00 -9.51847953E-01  1.06429642E+00 -2.96802922E+00
  1.17780337E+00 -3.08923756E+00 -8.38377894E-01  3.09461474E+00  1.07756466E+00
 -1.17158133E+00  9.45750155E-01 -1.07129992E+00  2.96273940E+00 -1.15987493E+00
  3.10626030E+00  8.57114306E-01  9.51911990E-01  2.96902145E+00 -1.06510696E+00
 -1.06614423E+00  9.50965226E-01 -3.08316318E+00  2.96999484E+00 -1.29608101E+00
  9.52975891E-01 -9.29197827E-01  1.08764505E+00 -2.94595344E+00 -2.94661322E+00
 -9.29770343E-01  1.31981647E+00  1.08808997E+00  3.10493285E+00 -9.28665641E-01
  9.21564671E-01  2.93904360E+00 -1.09604307E+00 -1.09496816E+00  9.22510769E-01
 -3.11257590E+00  2.93810114E+00 -1.32760524E+00  9.20493403E-01 -9.38587379E-01
  1.07969558E+00 -2.95685590E+00 -2.95587962E+00 -9.37596665E-01  1.30903717E+00
  1.07887626E+00  3.09715921E+00 -9.39392260E-01
SymInf integers                            I   N=          26
           1           1           1           1           1           0
           0           0           0           0           0           0
           0           0           0           0           0           0
           0           0           0           0           0           0
           0           0
RotTr to input orientation                 R   N=          12
 -7.24777757E-01 -6.63704180E-01 -1.84916099E-01  5.71999966E-01 -4.30026070E-01
 -6.98493821E-01  3.84074525E-01 -6.12024788E-01  6.91312099E-01 -1.66148464E+00
 -2.99081352E+00 -4.32047943E-01
Number of contracted shells                I               58
Number of primitive shells                 I              140
Pure/Cartesian d shells                    I                1
Pure/Cartesian f shells                    I                0
Highest angular momentum                   I                2
Largest degree of contraction              I                6
Shell types                                I   N=          58
           0          -1          -1           2           0          -1
          -1           2           0          -1          -1           2
           0          -1          -1           2           0          -1
          -1           2           0          -1          -1           2
           0          -1          -1           2           0          -1
          -1           2           0           0           0           0
           0           0           0           0           0           0
           0           0           0           0           0           0
           0           0           0           0           0           0
           0           0           0           0
Number of primitives per shell             I   N=          58
           6           3           1           1           6           3
           1           1           6           3           1           1
           6           3           1           1           6           3
           1           1           6           3           1           1
           6           3           1           1           6           3
           1           1           3           1           3           1
           3           1           3           1           3           1
           3           1           3           1           3           1
           3           1           3           1           3           1
           3           1           3           1
Shell to atom map                          I   N=          58
           1           1           1           1           2           2
           2           2           3           3           3           3
           4           4           4           4           5           5
           5           5           6           6           6           6
           7           7           7           7           8           8
           8           8           9           9          10          10
          11          11          12          12          13          13
          14          14          15          15          16          16
          17          17          18          18          19          19
          20          20          21          21
Primitive exponents                        R   N=         140
  5.48467166E+03  8.25234946E+02  1.88046958E+02  5.29645000E+01  1.68975704E+01
  5.79963534E+00  1.55396162E+01  3.59993359E+00  1.01376175E+00  2.70005823E-01
  8.00000000E-01  4.17351146E+03  6.27457911E+02  1.42902093E+02  4.02343293E+01
  1.28202129E+01  4.39043701E+00  1.16263619E+01  2.71627981E+00  7.72218397E-01
  2.12031498E-01  8.00000000E-01  3.04752488E+03  4.57369518E+02  1.03948685E+02
  2.92101553E+01  9.28666296E+00  3.16392696E+00  7.86827235E+00  1.88128854E+00
  5.44249258E-01  1.68714478E-01  8.00000000E-01  3.04752488E+03  4.57369518E+02
  1.03948685E+02  2.92101553E+01  9.28666296E+00  3.16392696E+00  7.86827235E+00
  1.88128854E+00  5.44249258E-01  1.68714478E-01  8.00000000E-01  3.04752488E+03
  4.57369518E+02  1.03948685E+02  2.92101553E+01  9.28666296E+00  3.16392696E+00
  7.86827235E+00  1.88128854E+00  5.44249258E-01  1.68714478E-01  8.00000000E-01
  3.04752488E+03  4.57369518E+02  1.03948685E+02  2.92101553E+01  9.28666296E+00
  3.16392696E+00  7.86827235E+00  1.88128854E+00  5.44249258E-01  1.68714478E-01
  8.00000000E-01  3.04752488E+03  4.57369518E+02  1.03948685E+02  2.92101553E+01
  9.28666296E+00  3.16392696E+00  7.86827235E+00  1.88128854E+00  5.44249258E-01
  1.68714478E-01  8.00000000E-01  3.04752488E+03  4.57369518E+02  1.03948685E+02
  2.92101553E+01  9.28666296E+00  3.16392696E+00  7.86827235E+00  1.88128854E+00
  5.44249258E-01  1.68714478E-01  8.00000000E-01  1.87311370E+01  2.82539436E+00
  6.40121692E-01  1.61277759E-01  1.87311370E+01  2.82539436E+00  6.40121692E-01
  1.61277759E-01  1.87311370E+01  2.82539436E+00  6.40121692E-01  1.61277759E-01
  1.87311370E+01  2.82539436E+00  6.40121692E-01  1.61277759E-01  1.87311370E+01
  2.82539436E+00  6.40121692E-01  1.61277759E-01  1.87311370E+01  2.82539436E+00
  6.40121692E-01  1.61277759E-01  1.87311370E+01  2.82539436E+00  6.40121692E-01
  1.61277759E-01  1.87311370E+01  2.82539436E+00  6.40121692E-01  1.61277759E-01
  1.87311370E+01  2.82539436E+00  6.40121692E-01  1.61277759E-01  1.87311370E+01
  2.82539436E+00  6.40121692E-01  1.61277759E-01  1.87311370E+01  2.82539436E+00
  6.40121692E-01  1.61277759E-01  1.87311370E+01  2.82539436E+00  6.40121692E-01
  1.61277759E-01  1.87311370E+01  2.82539436E+00  6.40121692E-01  1.61277759E-01
Contraction coefficients                   R   N=         140
  1.83107443E-03  1.39501722E-02  6.84450781E-02  2.32714336E-01  4.70192898E-01
  3.58520853E-01 -1.10777550E-01 -1.48026263E-01  1.13076702E+00  1.00000000E+00
  1.00000000E+00  1.83477216E-03  1.39946270E-02  6.85865518E-02  2.32240873E-01
  4.69069948E-01  3.60455199E-01 -1.14961182E-01 -1.69117479E-01  1.14585195E+00
  1.00000000E+00  1.00000000E+00  1.83473713E-03  1.40373228E-02  6.88426223E-02