 Entering Gaussian System, Link 0=/apps/cent7/gaussian/g16-A.03/g16-haswell/g16/g16
 Initial command:
 /apps/cent7/gaussian/g16-A.03/g16-haswell/g16/l1.exe "/scratch/brown/finej/gaussian/Gau-392966.inp" -scrdir="/scratch/brown/finej/gaussian/"
 Entering Link 1 = /apps/cent7/gaussian/g16-A.03/g16-haswell/g16/l1.exe PID=    392967.
  
 Copyright (c) 1988,1990,1992,1993,1995,1998,2003,2009,2016,
            Gaussian, Inc.  All Rights Reserved.
  
 This is part of the Gaussian(R) 16 program.  It is based on
 the Gaussian(R) 09 system (copyright 2009, Gaussian, Inc.),
 the Gaussian(R) 03 system (copyright 2003, Gaussian, Inc.),
 the Gaussian(R) 98 system (copyright 1998, Gaussian, Inc.),
 the Gaussian(R) 94 system (copyright 1995, Gaussian, Inc.),
 the Gaussian 92(TM) system (copyright 1992, Gaussian, Inc.),
 the Gaussian 90(TM) system (copyright 1990, Gaussian, Inc.),
 the Gaussian 88(TM) system (copyright 1988, Gaussian, Inc.),
 the Gaussian 86(TM) system (copyright 1986, Carnegie Mellon
 University), and the Gaussian 82(TM) system (copyright 1983,
 Carnegie Mellon University). Gaussian is a federally registered
 trademark of Gaussian, Inc.
  
 This software contains proprietary and confidential information,
 including trade secrets, belonging to Gaussian, Inc.
  
 This software is provided under written license and may be
 used, copied, transmitted, or stored only in accord with that
 written license.
  
 The following legend is applicable only to US Government
 contracts under FAR:
  
                    RESTRICTED RIGHTS LEGEND
  
 Use, reproduction and disclosure by the US Government is
 subject to restrictions as set forth in subparagraphs (a)
 and (c) of the Commercial Computer Software - Restricted
 Rights clause in FAR 52.227-19.
  
 Gaussian, Inc.
 340 Quinnipiac St., Bldg. 40, Wallingford CT 06492
  
  
 ---------------------------------------------------------------
 Warning -- This program may not be used in any manner that
 competes with the business of Gaussian, Inc. or will provide
 assistance to any competitor of Gaussian, Inc.  The licensee
 of this program is prohibited from giving any competitor of
 Gaussian, Inc. access to this program.  By using this program,
 the user acknowledges that Gaussian, Inc. is engaged in the
 business of creating and licensing software in the field of
 computational chemistry and represents and warrants to the
 licensee that it is not a competitor of Gaussian, Inc. and that
 it will not use this program in any manner prohibited above.
 ---------------------------------------------------------------
  

 Cite this work as:
 Gaussian 16, Revision A.03,
 M. J. Frisch, G. W. Trucks, H. B. Schlegel, G. E. Scuseria, 
 M. A. Robb, J. R. Cheeseman, G. Scalmani, V. Barone, 
 G. A. Petersson, H. Nakatsuji, X. Li, M. Caricato, A. V. Marenich, 
 J. Bloino, B. G. Janesko, R. Gomperts, B. Mennucci, H. P. Hratchian, 
 J. V. Ortiz, A. F. Izmaylov, J. L. Sonnenberg, D. Williams-Young, 
 F. Ding, F. Lipparini, F. Egidi, J. Goings, B. Peng, A. Petrone, 
 T. Henderson, D. Ranasinghe, V. G. Zakrzewski, J. Gao, N. Rega, 
 G. Zheng, W. Liang, M. Hada, M. Ehara, K. Toyota, R. Fukuda, 
 J. Hasegawa, M. Ishida, T. Nakajima, Y. Honda, O. Kitao, H. Nakai, 
 T. Vreven, K. Throssell, J. A. Montgomery, Jr., J. E. Peralta, 
 F. Ogliaro, M. J. Bearpark, J. J. Heyd, E. N. Brothers, K. N. Kudin, 
 V. N. Staroverov, T. A. Keith, R. Kobayashi, J. Normand, 
 K. Raghavachari, A. P. Rendell, J. C. Burant, S. S. Iyengar, 
 J. Tomasi, M. Cossi, J. M. Millam, M. Klene, C. Adamo, R. Cammi, 
 J. W. Ochterski, R. L. Martin, K. Morokuma, O. Farkas, 
 J. B. Foresman, and D. J. Fox, Gaussian, Inc., Wallingford CT, 2016.
 
 ******************************************
 Gaussian 16:  ES64L-G16RevA.03 25-Dec-2016
                14-Oct-2019 
 ******************************************
 %chk=11.chk
 %nprocshared=24
 Will use up to   24 processors via shared memory.
 %mem=80GB
 --------------------------------------------------------------
 #P opt freq b3lyp/6-31g(d) geom=connectivity temperature=0.001
 --------------------------------------------------------------
 1/18=20,19=15,26=3,38=1,57=2,112=-1000/1,3;
 2/9=110,12=2,17=6,18=5,40=1/2;
 3/5=1,6=6,7=1,11=2,25=1,30=1,71=1,74=-5/1,2,3;
 4//1;
 5/5=2,38=5/2;
 6/7=2,8=2,9=2,10=2,28=1/1;
 7//1,2,3,16;
 1/18=20,19=15,26=3/3(2);
 2/9=110/2;
 99//99;
 2/9=110/2;
 3/5=1,6=6,7=1,11=2,25=1,30=1,71=1,74=-5/1,2,3;
 4/5=5,16=3,69=1/1;
 5/5=2,38=5/2;
 7//1,2,3,16;
 1/18=20,19=15,26=3/3(-5);
 2/9=110/2;
 6/7=2,8=2,9=2,10=2,19=2,28=1/1;
 99/9=1/99;
 Leave Link    1 at Mon Oct 14 00:14:56 2019, MaxMem= 10737418240 cpu:               1.5 elap:               0.1
 (Enter /apps/cent7/gaussian/g16-A.03/g16-haswell/g16/l101.exe)
 -------------------
 Title Card Required
 -------------------
 Symbolic Z-matrix:
 Charge =  0 Multiplicity = 1
 O                     1.4691    0.1099    0.0818 
 N                     0.1166    0.1616    0.2036 
 C                    -0.4743   -1.1945    0.149 
 C                    -0.2616   -1.8559   -1.2455 
 C                    -0.9574   -3.2381   -1.3433 
 C                    -2.4641   -3.1558   -0.9907 
 C                    -2.6964   -2.4816    0.386 
 C                    -1.99     -1.1044    0.4881 
 H                     1.8687    0.0945    0.9545 
 H                    -0.3611    1.0446    0.3143 
 H                     0.0583   -1.7813    0.8974 
 H                    -0.7617   -1.2126   -1.9695 
 H                     0.8078   -2.0476   -1.3341 
 H                    -0.9056   -3.5322   -2.3916 
 H                    -0.4994   -3.8649   -0.5781 
 H                    -2.9161   -2.4985   -1.7334 
 H                    -2.8109   -4.1843   -0.89 
 H                    -3.7659   -2.2807    0.4497 
 H                    -2.2178   -3.1248    1.1244 
 H                    -2.438    -0.4764   -0.2819 
 H                    -2.0512   -0.8096    1.5357 
 
 ITRead=  0  0  0  0  0  0  0  0  0  0  0  0  0  0  0  0  0  0  0  0
 ITRead=  0
 MicOpt= -1 -1 -1 -1 -1 -1 -1 -1 -1 -1 -1 -1 -1 -1 -1 -1 -1 -1 -1 -1
 MicOpt= -1
 NAtoms=     21 NQM=       21 NQMF=       0 NMMI=      0 NMMIF=      0
                NMic=       0 NMicF=      0.
                    Isotopes and Nuclear Properties:
 (Nuclear quadrupole moments (NQMom) in fm**2, nuclear magnetic moments (NMagM)
  in nuclear magnetons)

  Atom         1           2           3           4           5           6           7           8           9          10
 IAtWgt=          16          14          12          12          12          12          12          12           1           1
 AtmWgt=  15.9949146  14.0030740  12.0000000  12.0000000  12.0000000  12.0000000  12.0000000  12.0000000   1.0078250   1.0078250
 NucSpn=           0           2           0           0           0           0           0           0           1           1
 AtZEff=  -0.0000000  -0.0000000  -0.0000000  -0.0000000  -0.0000000  -0.0000000  -0.0000000  -0.0000000  -0.0000000  -0.0000000
 NQMom=    0.0000000   2.0440000   0.0000000   0.0000000   0.0000000   0.0000000   0.0000000   0.0000000   0.0000000   0.0000000
 NMagM=    0.0000000   0.4037610   0.0000000   0.0000000   0.0000000   0.0000000   0.0000000   0.0000000   2.7928460   2.7928460
 AtZNuc=   8.0000000   7.0000000   6.0000000   6.0000000   6.0000000   6.0000000   6.0000000   6.0000000   1.0000000   1.0000000

  Atom        11          12          13          14          15          16          17          18          19          20
 IAtWgt=           1           1           1           1           1           1           1           1           1           1
 AtmWgt=   1.0078250   1.0078250   1.0078250   1.0078250   1.0078250   1.0078250   1.0078250   1.0078250   1.0078250   1.0078250
 NucSpn=           1           1           1           1           1           1           1           1           1           1
 AtZEff=  -0.0000000  -0.0000000  -0.0000000  -0.0000000  -0.0000000  -0.0000000  -0.0000000  -0.0000000  -0.0000000  -0.0000000
 NQMom=    0.0000000   0.0000000   0.0000000   0.0000000   0.0000000   0.0000000   0.0000000   0.0000000   0.0000000   0.0000000
 NMagM=    2.7928460   2.7928460   2.7928460   2.7928460   2.7928460   2.7928460   2.7928460   2.7928460   2.7928460   2.7928460
 AtZNuc=   1.0000000   1.0000000   1.0000000   1.0000000   1.0000000   1.0000000   1.0000000   1.0000000   1.0000000   1.0000000

  Atom        21
 IAtWgt=           1
 AtmWgt=   1.0078250
 NucSpn=           1
 AtZEff=  -0.0000000
 NQMom=    0.0000000
 NMagM=    2.7928460
 AtZNuc=   1.0000000
 Leave Link  101 at Mon Oct 14 00:14:56 2019, MaxMem= 10737418240 cpu:               8.4 elap:               0.4
 (Enter /apps/cent7/gaussian/g16-A.03/g16-haswell/g16/l103.exe)

 GradGradGradGradGradGradGradGradGradGradGradGradGradGradGradGradGradGrad
 Berny optimization.
 Initialization pass.
                           ----------------------------
                           !    Initial Parameters    !
                           ! (Angstroms and Degrees)  !
 --------------------------                            --------------------------
 ! Name  Definition              Value          Derivative Info.                !
 --------------------------------------------------------------------------------
 ! R1    R(1,2)                  1.359          estimate D2E/DX2                !
 ! R2    R(1,9)                  0.96           estimate D2E/DX2                !
 ! R3    R(2,3)                  1.4803         estimate D2E/DX2                !
 ! R4    R(2,10)                 1.01           estimate D2E/DX2                !
 ! R5    R(3,4)                  1.558          estimate D2E/DX2                !
 ! R6    R(3,8)                  1.5558         estimate D2E/DX2                !
 ! R7    R(3,11)                 1.09           estimate D2E/DX2                !
 ! R8    R(4,5)                  1.5505         estimate D2E/DX2                !
 ! R9    R(4,12)                 1.09           estimate D2E/DX2                !
 ! R10   R(4,13)                 1.0901         estimate D2E/DX2                !
 ! R11   R(5,6)                  1.5496         estimate D2E/DX2                !
 ! R12   R(5,14)                 1.09           estimate D2E/DX2                !
 ! R13   R(5,15)                 1.09           estimate D2E/DX2                !
 ! R14   R(6,7)                  1.5504         estimate D2E/DX2                !
 ! R15   R(6,16)                 1.0899         estimate D2E/DX2                !
 ! R16   R(6,17)                 1.0901         estimate D2E/DX2                !
 ! R17   R(7,8)                  1.5512         estimate D2E/DX2                !
 ! R18   R(7,18)                 1.0901         estimate D2E/DX2                !
 ! R19   R(7,19)                 1.09           estimate D2E/DX2                !
 ! R20   R(8,20)                 1.0899         estimate D2E/DX2                !
 ! R21   R(8,21)                 1.09           estimate D2E/DX2                !
 ! A1    A(2,1,9)              109.4765         estimate D2E/DX2                !
 ! A2    A(1,2,3)              111.0469         estimate D2E/DX2                !
 ! A3    A(1,2,10)             120.917          estimate D2E/DX2                !
 ! A4    A(3,2,10)             128.036          estimate D2E/DX2                !
 ! A5    A(2,3,4)              111.5574         estimate D2E/DX2                !
 ! A6    A(2,3,8)              109.1358         estimate D2E/DX2                !
 ! A7    A(2,3,11)             105.832          estimate D2E/DX2                !
 ! A8    A(4,3,8)              110.6513         estimate D2E/DX2                !
 ! A9    A(4,3,11)             108.6211         estimate D2E/DX2                !
 ! A10   A(8,3,11)             110.9504         estimate D2E/DX2                !
 ! A11   A(3,4,5)              111.9393         estimate D2E/DX2                !
 ! A12   A(3,4,12)             106.3399         estimate D2E/DX2                !
 ! A13   A(3,4,13)             106.3405         estimate D2E/DX2                !
 ! A14   A(5,4,12)             106.1601         estimate D2E/DX2                !
 ! A15   A(5,4,13)             106.1616         estimate D2E/DX2                !
 ! A16   A(12,4,13)            119.9944         estimate D2E/DX2                !
 ! A17   A(4,5,6)              112.0013         estimate D2E/DX2                !
 ! A18   A(4,5,14)             106.2517         estimate D2E/DX2                !
 ! A19   A(4,5,15)             106.2464         estimate D2E/DX2                !
 ! A20   A(6,5,14)             106.2229         estimate D2E/DX2                !
 ! A21   A(6,5,15)             106.2211         estimate D2E/DX2                !
 ! A22   A(14,5,15)            120.0012         estimate D2E/DX2                !
 ! A23   A(5,6,7)              111.7665         estimate D2E/DX2                !
 ! A24   A(5,6,16)             106.2723         estimate D2E/DX2                !
 ! A25   A(5,6,17)             106.2752         estimate D2E/DX2                !
 ! A26   A(7,6,16)             106.3013         estimate D2E/DX2                !
 ! A27   A(7,6,17)             106.2957         estimate D2E/DX2                !
 ! A28   A(16,6,17)            120.0014         estimate D2E/DX2                !
 ! A29   A(6,7,8)              112.1043         estimate D2E/DX2                !
 ! A30   A(6,7,18)             106.2026         estimate D2E/DX2                !
 ! A31   A(6,7,19)             106.2094         estimate D2E/DX2                !
 ! A32   A(8,7,18)             106.2202         estimate D2E/DX2                !
 ! A33   A(8,7,19)             106.223          estimate D2E/DX2                !
 ! A34   A(18,7,19)            119.9991         estimate D2E/DX2                !
 ! A35   A(3,8,7)              112.2039         estimate D2E/DX2                !
 ! A36   A(3,8,20)             106.2499         estimate D2E/DX2                !
 ! A37   A(3,8,21)             106.2509         estimate D2E/DX2                !
 ! A38   A(7,8,20)             106.1333         estimate D2E/DX2                !
 ! A39   A(7,8,21)             106.1299         estimate D2E/DX2                !
 ! A40   A(20,8,21)            120.0041         estimate D2E/DX2                !
 ! D1    D(9,1,2,3)            -94.2537         estimate D2E/DX2                !
 ! D2    D(9,1,2,10)            85.7425         estimate D2E/DX2                !
 ! D3    D(1,2,3,4)            -65.1914         estimate D2E/DX2                !
 ! D4    D(1,2,3,8)            172.2293         estimate D2E/DX2                !
 ! D5    D(1,2,3,11)            52.771          estimate D2E/DX2                !
 ! D6    D(10,2,3,4)           114.8127         estimate D2E/DX2                !
 ! D7    D(10,2,3,8)            -7.7666         estimate D2E/DX2                !
 ! D8    D(10,2,3,11)         -127.2249         estimate D2E/DX2                !
 ! D9    D(2,3,4,5)           -176.2433         estimate D2E/DX2                !
 ! D10   D(2,3,4,12)           -60.7268         estimate D2E/DX2                !
 ! D11   D(2,3,4,13)            68.238          estimate D2E/DX2                !
 ! D12   D(8,3,4,5)            -54.5369         estimate D2E/DX2                !
 ! D13   D(8,3,4,12)            60.9797         estimate D2E/DX2                !
 ! D14   D(8,3,4,13)          -170.0555         estimate D2E/DX2                !
 ! D15   D(11,3,4,5)            67.4832         estimate D2E/DX2                !
 ! D16   D(11,3,4,12)         -177.0003         estimate D2E/DX2                !
 ! D17   D(11,3,4,13)          -48.0355         estimate D2E/DX2                !
 ! D18   D(2,3,8,7)            177.3084         estimate D2E/DX2                !
 ! D19   D(2,3,8,20)            61.7399         estimate D2E/DX2                !
 ! D20   D(2,3,8,21)           -67.1267         estimate D2E/DX2                !
 ! D21   D(4,3,8,7)             54.1875         estimate D2E/DX2                !
 ! D22   D(4,3,8,20)           -61.381          estimate D2E/DX2                !
 ! D23   D(4,3,8,21)           169.7525         estimate D2E/DX2                !
 ! D24   D(11,3,8,7)           -66.4559         estimate D2E/DX2                !
 ! D25   D(11,3,8,20)          177.9756         estimate D2E/DX2                !
 ! D26   D(11,3,8,21)           49.109          estimate D2E/DX2                !
 ! D27   D(3,4,5,6)             54.5405         estimate D2E/DX2                !
 ! D28   D(3,4,5,14)           170.1124         estimate D2E/DX2                !
 ! D29   D(3,4,5,15)           -61.0261         estimate D2E/DX2                !
 ! D30   D(12,4,5,6)           -61.0856         estimate D2E/DX2                !
 ! D31   D(12,4,5,14)           54.4863         estimate D2E/DX2                !
 ! D32   D(12,4,5,15)         -176.6522         estimate D2E/DX2                !
 ! D33   D(13,4,5,6)           170.1682         estimate D2E/DX2                !
 ! D34   D(13,4,5,14)          -74.26           estimate D2E/DX2                !
 ! D35   D(13,4,5,15)           54.6015         estimate D2E/DX2                !
 ! D36   D(4,5,6,7)            -53.2391         estimate D2E/DX2                !
 ! D37   D(4,5,6,16)            62.3175         estimate D2E/DX2                !
 ! D38   D(4,5,6,17)          -168.7907         estimate D2E/DX2                !
 ! D39   D(14,5,6,7)          -168.8285         estimate D2E/DX2                !
 ! D40   D(14,5,6,16)          -53.2719         estimate D2E/DX2                !
 ! D41   D(14,5,6,17)           75.6199         estimate D2E/DX2                !
 ! D42   D(15,5,6,7)            62.343          estimate D2E/DX2                !
 ! D43   D(15,5,6,16)          177.8995         estimate D2E/DX2                !
 ! D44   D(15,5,6,17)          -53.2086         estimate D2E/DX2                !
 ! D45   D(5,6,7,8)             52.8018         estimate D2E/DX2                !
 ! D46   D(5,6,7,18)           168.3948         estimate D2E/DX2                !
 ! D47   D(5,6,7,19)           -62.7986         estimate D2E/DX2                !
 ! D48   D(16,6,7,8)           -62.7371         estimate D2E/DX2                !
 ! D49   D(16,6,7,18)           52.856          estimate D2E/DX2                !
 ! D50   D(16,6,7,19)         -178.3375         estimate D2E/DX2                !
 ! D51   D(17,6,7,8)           168.3408         estimate D2E/DX2                !
 ! D52   D(17,6,7,18)          -76.0662         estimate D2E/DX2                !
 ! D53   D(17,6,7,19)           52.7404         estimate D2E/DX2                !
 ! D54   D(6,7,8,3)            -53.7771         estimate D2E/DX2                !
 ! D55   D(6,7,8,20)            61.862          estimate D2E/DX2                !
 ! D56   D(6,7,8,21)          -169.4154         estimate D2E/DX2                !
 ! D57   D(18,7,8,3)          -169.3594         estimate D2E/DX2                !
 ! D58   D(18,7,8,20)          -53.7203         estimate D2E/DX2                !
 ! D59   D(18,7,8,21)           75.0023         estimate D2E/DX2                !
 ! D60   D(19,7,8,3)            61.8151         estimate D2E/DX2                !
 ! D61   D(19,7,8,20)          177.4542         estimate D2E/DX2                !
 ! D62   D(19,7,8,21)          -53.8232         estimate D2E/DX2                !
 --------------------------------------------------------------------------------
 Trust Radius=3.00D-01 FncErr=1.00D-07 GrdErr=1.00D-06 EigMax=2.50D+02 EigMin=1.00D-04
 Number of steps in this run=    126 maximum allowed number of steps=    126.
 GradGradGradGradGradGradGradGradGradGradGradGradGradGradGradGradGradGrad

 Leave Link  103 at Mon Oct 14 00:14:56 2019, MaxMem= 10737418240 cpu:               0.3 elap:               0.0
 (Enter /apps/cent7/gaussian/g16-A.03/g16-haswell/g16/l202.exe)
                          Input orientation:                          
 ---------------------------------------------------------------------
 Center     Atomic      Atomic             Coordinates (Angstroms)
 Number     Number       Type             X           Y           Z
 ---------------------------------------------------------------------
      1          8           0        1.469100    0.109900    0.081800
      2          7           0        0.116600    0.161600    0.203600
      3          6           0       -0.474300   -1.194500    0.149000
      4          6           0       -0.261600   -1.855900   -1.245500
      5          6           0       -0.957400   -3.238100   -1.343300
      6          6           0       -2.464100   -3.155800   -0.990700
      7          6           0       -2.696400   -2.481600    0.386000
      8          6           0       -1.990000   -1.104400    0.488100
      9          1           0        1.868700    0.094500    0.954500
     10          1           0       -0.361100    1.044600    0.314300
     11          1           0        0.058300   -1.781300    0.897400
     12          1           0       -0.761700   -1.212600   -1.969500
     13          1           0        0.807800   -2.047600   -1.334100
     14          1           0       -0.905600   -3.532200   -2.391600
     15          1           0       -0.499400   -3.864900   -0.578100
     16          1           0       -2.916100   -2.498500   -1.733400
     17          1           0       -2.810900   -4.184300   -0.890000
     18          1           0       -3.765900   -2.280700    0.449700
     19          1           0       -2.217800   -3.124800    1.124400
     20          1           0       -2.438000   -0.476400   -0.281900
     21          1           0       -2.051200   -0.809600    1.535700
 ---------------------------------------------------------------------
                    Distance matrix (angstroms):
                    1          2          3          4          5
     1  O    0.000000
     2  N    1.358957   0.000000
     3  C    2.341533   1.480254   0.000000
     4  C    2.936225   2.512615   1.557986   0.000000
     5  C    4.373547   3.886430   2.576169   1.550542   0.000000
     6  C    5.223516   4.369383   3.017436   2.570150   1.549595
     7  C    4.915262   3.864291   2.578861   2.996922   2.566494
     8  C    3.688493   2.474158   1.555781   2.560759   2.995491
     9  H    0.959960   1.907409   2.792848   3.630735   4.936897
    10  H    2.068176   1.010020   2.248045   3.294811   4.630846
    11  H    2.496437   2.063884   1.090000   2.167930   2.859134
    12  H    3.306555   2.717020   2.137982   1.090005   2.129102
    13  H    2.664000   2.779000   2.138024   1.090053   2.129156
    14  H    5.002180   4.628619   3.479297   2.130320   1.090005
    15  H    4.484361   4.147676   2.767732   2.130271   1.090034
    16  H    5.415596   4.474972   3.347571   2.774410   2.129716
    17  H    6.140273   5.352856   3.934225   3.470844   2.129844
    18  H    5.766762   4.593387   3.479207   3.915900   3.466863
    19  H    5.014333   4.134939   2.777995   3.324643   2.773263
    20  H    3.967550   2.677449   2.134821   2.751047   3.308434
    21  H    3.918140   2.723431   2.134877   3.468787   3.922072
                    6          7          8          9         10
     6  C    0.000000
     7  C    1.550423   0.000000
     8  C    2.572909   1.551163   0.000000
     9  H    5.755120   5.272535   4.067488   0.000000
    10  H    4.875346   4.229994   2.702170   2.506901   0.000000
    11  H    3.437539   2.887962   2.195735   2.607572   2.915753
    12  H    2.762651   3.301788   2.749586   4.144550   3.235919
    13  H    3.471507   3.927661   3.469542   3.309349   3.693948
    14  H    2.129112   3.467822   3.919542   5.660926   5.344668
    15  H    2.129110   2.769443   3.313462   4.861441   4.991863
    16  H    1.089931   2.130824   2.781409   6.069824   4.824382
    17  H    1.090056   2.130839   3.472581   6.603708   5.898581
    18  H    2.129609   1.090068   2.130488   6.135562   4.761157
    19  H    2.129618   1.089954   2.130443   5.205021   4.635460
    20  H    2.771690   2.129246   1.089949   4.516888   2.642425
    21  H    3.472440   2.129243   1.090008   4.064579   2.790397
                   11         12         13         14         15
    11  H    0.000000
    12  H    3.035611   0.000000
    13  H    2.369021   1.887932   0.000000
    14  H    3.848672   2.362080   2.501616   0.000000
    15  H    2.613335   3.006575   2.362813   1.887980   0.000000
    16  H    4.035163   2.520064   3.772291   2.354543   3.007026
    17  H    4.147471   3.767697   4.225837   2.512012   2.354215
    18  H    3.882569   4.002322   4.914775   4.221440   3.773074
    19  H    2.652763   3.917774   4.044606   3.774930   2.529655
    20  H    3.053691   2.489973   3.756463   4.017088   3.915078
    21  H    2.408655   3.756547   4.235833   4.914126   4.026300
                   16         17         18         19         20
    16  H    0.000000
    17  H    1.887939   0.000000
    18  H    2.352769   2.516051   0.000000
    19  H    3.007806   2.352045   1.887946   0.000000
    20  H    2.534624   3.775892   2.356704   3.006691   0.000000
    21  H    3.779874   4.224898   2.506736   2.357345   1.887937
                   21
    21  H    0.000000
 Stoichiometry    C6H13NO
 Framework group  C1[X(C6H13NO)]
 Deg. of freedom    57
 Full point group                 C1      NOp   1
 Largest Abelian subgroup         C1      NOp   1
 Largest concise Abelian subgroup C1      NOp   1
                         Standard orientation:                         
 ---------------------------------------------------------------------
 Center     Atomic      Atomic             Coordinates (Angstroms)
 Number     Number       Type             X           Y           Z
 ---------------------------------------------------------------------
      1          8           0       -2.879954    0.417434    0.160814
      2          7           0       -1.977647   -0.489654   -0.297223
      3          6           0       -0.624266   -0.206793    0.231456
      4          6           0       -0.074309    1.150630   -0.299837
      5          6           0        1.379017    1.411883    0.173205
      6          6           0        2.328475    0.244242   -0.196107
      7          6           0        1.786886   -1.118434    0.307486
      8          6           0        0.328678   -1.374099   -0.155516
      9          1           0       -3.309338    0.072756    0.947165
     10          1           0       -2.260573   -1.236058   -0.916072
     11          1           0       -0.736192   -0.137418    1.313472
     12          1           0       -0.028326    1.059226   -1.385029
     13          1           0       -0.686316    1.928999    0.156020
     14          1           0        1.730665    2.278855   -0.386092
     15          1           0        1.344264    1.443277    1.262232
     16          1           0        2.334147    0.187819   -1.284563
     17          1           0        3.257546    0.423061    0.345256
     18          1           0        2.397156   -1.884118   -0.171625
     19          1           0        1.753505   -1.049536    1.394748
     20          1           0        0.356380   -1.396853   -1.244874
     21          1           0       -0.016653   -2.246483    0.399291
 ---------------------------------------------------------------------
 Rotational constants (GHZ):           3.9214674           1.3129078           1.0590757
 Leave Link  202 at Mon Oct 14 00:14:57 2019, MaxMem= 10737418240 cpu:               1.0 elap:               0.1
 (Enter /apps/cent7/gaussian/g16-A.03/g16-haswell/g16/l301.exe)
 Standard basis: 6-31G(d) (6D, 7F)
 Ernie: Thresh=  0.10000D-02 Tol=  0.10000D-05 Strict=F.
 There are   146 symmetry adapted cartesian basis functions of A   symmetry.
 There are   146 symmetry adapted basis functions of A   symmetry.
   146 basis functions,   276 primitive gaussians,   146 cartesian basis functions
    32 alpha electrons       32 beta electrons
       nuclear repulsion energy       406.8265022406 Hartrees.
 IExCor=  402 DFT=T Ex+Corr=B3LYP ExCW=0 ScaHFX=  0.200000
 ScaDFX=  0.800000  0.720000  1.000000  0.810000 ScalE2=  1.000000  1.000000
 IRadAn=      5 IRanWt=     -1 IRanGd=            0 ICorTp=0 IEmpDi=  4
 NAtoms=   21 NActive=   21 NUniq=   21 SFac= 1.00D+00 NAtFMM=   60 NAOKFM=F Big=F
 Integral buffers will be    131072 words long.
 Raffenetti 2 integral format.
 Two-electron integral symmetry is turned on.
 Leave Link  301 at Mon Oct 14 00:14:57 2019, MaxMem= 10737418240 cpu:               1.7 elap:               0.1
 (Enter /apps/cent7/gaussian/g16-A.03/g16-haswell/g16/l302.exe)
 NPDir=0 NMtPBC=     1 NCelOv=     1 NCel=       1 NClECP=     1 NCelD=      1
         NCelK=      1 NCelE2=     1 NClLst=     1 CellRange=     0.0.
 One-electron integrals computed using PRISM.
 One-electron integral symmetry used in STVInt
 NBasis=   146 RedAO= T EigKep=  3.09D-03  NBF=   146
 NBsUse=   146 1.00D-06 EigRej= -1.00D+00 NBFU=   146
 Precomputing XC quadrature grid using
 IXCGrd= 4 IRadAn=           5 IRanWt=          -1 IRanGd=           0 AccXCQ= 0.00D+00.
 Generated NRdTot=       0 NPtTot=           0 NUsed=           0 NTot=          32
 NSgBfM=   146   146   146   146   146 MxSgAt=    21 MxSgA2=    21.
 Leave Link  302 at Mon Oct 14 00:14:57 2019, MaxMem= 10737418240 cpu:               5.1 elap:               0.4
 (Enter /apps/cent7/gaussian/g16-A.03/g16-haswell/g16/l303.exe)
 DipDrv:  MaxL=1.
 Leave Link  303 at Mon Oct 14 00:14:57 2019, MaxMem= 10737418240 cpu:               0.8 elap:               0.1
 (Enter /apps/cent7/gaussian/g16-A.03/g16-haswell/g16/l401.exe)
 ExpMin= 1.61D-01 ExpMax= 5.48D+03 ExpMxC= 8.25D+02 IAcc=3 IRadAn=         5 AccDes= 0.00D+00
 Harris functional with IExCor=  402 and IRadAn=       5 diagonalized for initial guess.
 HarFok:  IExCor=  402 AccDes= 0.00D+00 IRadAn=         5 IDoV= 1 UseB2=F ITyADJ=14
 ICtDFT=  3500011 ScaDFX=  1.000000  1.000000  1.000000  1.000000
 FoFCou: FMM=F IPFlag=           0 FMFlag=      100000 FMFlg1=           0
         NFxFlg=           0 DoJE=T BraDBF=F KetDBF=T FulRan=T
         wScrn=  0.000000 ICntrl=       500 IOpCl=  0 I1Cent=   200000004 NGrid=           0
         NMat0=    1 NMatS0=      1 NMatT0=    0 NMatD0=    1 NMtDS0=    0 NMtDT0=    0
 Petite list used in FoFCou.
 Harris En= -366.378682607164    
 JPrj=0 DoOrth=F DoCkMO=F.
 Leave Link  401 at Mon Oct 14 00:14:58 2019, MaxMem= 10737418240 cpu:              12.7 elap:               0.6
 (Enter /apps/cent7/gaussian/g16-A.03/g16-haswell/g16/l502.exe)
 Integral symmetry usage will be decided dynamically.
 Closed shell SCF:
 Using DIIS extrapolation, IDIIS=  1040.
 NGot= 10737418240 LenX= 10737370201 LenY= 10737348444
 Requested convergence on RMS density matrix=1.00D-08 within 128 cycles.
 Requested convergence on MAX density matrix=1.00D-06.
 Requested convergence on             energy=1.00D-06.
 No special actions if energy rises.
 Fock matrices will be formed incrementally for  20 cycles.
 Integral accuracy reduced to 1.0D-05 until final iterations.

 Cycle   1  Pass 0  IDiag  1:
 FoFJK:  IHMeth= 1 ICntrl=       0 DoSepK=F KAlg= 0 I1Cent=           0 FoldK=F
 IRaf= 960000000 NMat=       1 IRICut=       1 DoRegI=T DoRafI=F ISym2E= 0 IDoP0=0 IntGTp=1.
 FoFCou: FMM=F IPFlag=           0 FMFlag=      100000 FMFlg1=           0
         NFxFlg=           0 DoJE=F BraDBF=F KetDBF=F FulRan=T
         wScrn=  0.000000 ICntrl=         0 IOpCl=  0 I1Cent=           0 NGrid=           0
         NMat0=    1 NMatS0=      1 NMatT0=    0 NMatD0=    1 NMtDS0=    0 NMtDT0=    0
 Symmetry not used in FoFCou.
 E= -366.081467744372    
 DIIS: error= 3.66D-02 at cycle   1 NSaved=   1.
 NSaved= 1 IEnMin= 1 EnMin= -366.081467744372     IErMin= 1 ErrMin= 3.66D-02
 ErrMax= 3.66D-02  0.00D+00 EMaxC= 1.00D-01 BMatC= 2.42D-01 BMatP= 2.42D-01
 IDIUse=3 WtCom= 6.34D-01 WtEn= 3.66D-01
 Coeff-Com:  0.100D+01
 Coeff-En:   0.100D+01
 Coeff:      0.100D+01
 Gap=     0.256 Goal=   None    Shift=    0.000
 GapD=    0.256 DampG=1.000 DampE=0.500 DampFc=0.5000 IDamp=-1.
 Damping current iteration by 5.00D-01
 RMSDP=8.24D-03 MaxDP=1.45D-01              OVMax= 1.64D-01

 Cycle   2  Pass 0  IDiag  1:
 RMSU=  4.07D-03    CP:  9.76D-01
 E= -366.193374761717     Delta-E=       -0.111907017345 Rises=F Damp=T
 DIIS: error= 7.05D-03 at cycle   2 NSaved=   2.
 NSaved= 2 IEnMin= 2 EnMin= -366.193374761717     IErMin= 2 ErrMin= 7.05D-03
 ErrMax= 7.05D-03  0.00D+00 EMaxC= 1.00D-01 BMatC= 1.31D-02 BMatP= 2.42D-01
 IDIUse=3 WtCom= 9.30D-01 WtEn= 7.05D-02
 Coeff-Com:  0.796D-01 0.920D+00
 Coeff-En:   0.131D+00 0.869D+00
 Coeff:      0.832D-01 0.917D+00
 Gap=     0.271 Goal=   None    Shift=    0.000
 RMSDP=1.39D-03 MaxDP=2.72D-02 DE=-1.12D-01 OVMax= 9.83D-02

 Cycle   3  Pass 0  IDiag  1:
 RMSU=  1.29D-03    CP:  9.77D-01  8.76D-01
 E= -366.335915066135     Delta-E=       -0.142540304418 Rises=F Damp=F
 DIIS: error= 3.23D-03 at cycle   3 NSaved=   3.
 NSaved= 3 IEnMin= 3 EnMin= -366.335915066135     IErMin= 3 ErrMin= 3.23D-03
 ErrMax= 3.23D-03  0.00D+00 EMaxC= 1.00D-01 BMatC= 2.22D-03 BMatP= 1.31D-02
 IDIUse=3 WtCom= 9.68D-01 WtEn= 3.23D-02
 Coeff-Com: -0.656D-02 0.250D+00 0.756D+00
 Coeff-En:   0.000D+00 0.000D+00 0.100D+01
 Coeff:     -0.635D-02 0.242D+00 0.764D+00
 Gap=     0.270 Goal=   None    Shift=    0.000
 RMSDP=4.92D-04 MaxDP=9.40D-03 DE=-1.43D-01 OVMax= 1.06D-02

 Cycle   4  Pass 0  IDiag  1:
 RMSU=  3.49D-04    CP:  9.76D-01  9.02D-01  7.45D-01
 E= -366.337353923413     Delta-E=       -0.001438857278 Rises=F Damp=F
 DIIS: error= 1.18D-03 at cycle   4 NSaved=   4.
 NSaved= 4 IEnMin= 4 EnMin= -366.337353923413     IErMin= 4 ErrMin= 1.18D-03
 ErrMax= 1.18D-03  0.00D+00 EMaxC= 1.00D-01 BMatC= 6.22D-04 BMatP= 2.22D-03
 IDIUse=3 WtCom= 9.88D-01 WtEn= 1.18D-02
 Coeff-Com: -0.623D-02 0.609D-01 0.373D+00 0.573D+00
 Coeff-En:   0.000D+00 0.000D+00 0.141D+00 0.859D+00
 Coeff:     -0.616D-02 0.601D-01 0.370D+00 0.576D+00
 Gap=     0.263 Goal=   None    Shift=    0.000
 RMSDP=1.85D-04 MaxDP=6.38D-03 DE=-1.44D-03 OVMax= 6.43D-03

 Cycle   5  Pass 0  IDiag  1:
 RMSU=  1.12D-04    CP:  9.76D-01  9.03D-01  8.00D-01  6.29D-01
 E= -366.337787768308     Delta-E=       -0.000433844895 Rises=F Damp=F
 DIIS: error= 5.17D-04 at cycle   5 NSaved=   5.
 NSaved= 5 IEnMin= 5 EnMin= -366.337787768308     IErMin= 5 ErrMin= 5.17D-04
 ErrMax= 5.17D-04  0.00D+00 EMaxC= 1.00D-01 BMatC= 7.66D-05 BMatP= 6.22D-04
 IDIUse=3 WtCom= 9.95D-01 WtEn= 5.17D-03
 Coeff-Com: -0.245D-02 0.573D-02 0.116D+00 0.312D+00 0.569D+00
 Coeff-En:   0.000D+00 0.000D+00 0.000D+00 0.516D-01 0.948D+00
 Coeff:     -0.244D-02 0.570D-02 0.115D+00 0.310D+00 0.571D+00
 Gap=     0.265 Goal=   None    Shift=    0.000
 RMSDP=5.53D-05 MaxDP=1.57D-03 DE=-4.34D-04 OVMax= 1.62D-03

 Cycle   6  Pass 0  IDiag  1:
 RMSU=  1.52D-05    CP:  9.76D-01  9.02D-01  8.10D-01  6.69D-01  5.59D-01
 E= -366.337847298014     Delta-E=       -0.000059529706 Rises=F Damp=F
 DIIS: error= 6.25D-05 at cycle   6 NSaved=   6.
 NSaved= 6 IEnMin= 6 EnMin= -366.337847298014     IErMin= 6 ErrMin= 6.25D-05
 ErrMax= 6.25D-05  0.00D+00 EMaxC= 1.00D-01 BMatC= 9.31D-07 BMatP= 7.66D-05
 IDIUse=1 WtCom= 1.00D+00 WtEn= 0.00D+00
 Coeff-Com: -0.817D-03 0.948D-03 0.399D-01 0.118D+00 0.240D+00 0.603D+00
 Coeff:     -0.817D-03 0.948D-03 0.399D-01 0.118D+00 0.240D+00 0.603D+00
 Gap=     0.265 Goal=   None    Shift=    0.000
 RMSDP=8.28D-06 MaxDP=1.98D-04 DE=-5.95D-05 OVMax= 2.03D-04

 Initial convergence to 1.0D-05 achieved.  Increase integral accuracy.
 Cycle   7  Pass 1  IDiag  1:
 E= -366.337900235300     Delta-E=       -0.000052937286 Rises=F Damp=F
 DIIS: error= 2.50D-05 at cycle   1 NSaved=   1.
 NSaved= 1 IEnMin= 1 EnMin= -366.337900235300     IErMin= 1 ErrMin= 2.50D-05
 ErrMax= 2.50D-05  0.00D+00 EMaxC= 1.00D-01 BMatC= 1.61D-07 BMatP= 1.61D-07
 IDIUse=1 WtCom= 1.00D+00 WtEn= 0.00D+00
 Coeff-Com:  0.100D+01
 Coeff:      0.100D+01
 Gap=     0.265 Goal=   None    Shift=    0.000
 RMSDP=8.28D-06 MaxDP=1.98D-04 DE=-5.29D-05 OVMax= 1.52D-04

 Cycle   8  Pass 1  IDiag  1:
 RMSU=  6.61D-06    CP:  1.00D+00
 E= -366.337900158239     Delta-E=        0.000000077060 Rises=F Damp=F
 DIIS: error= 3.64D-05 at cycle   2 NSaved=   2.
 NSaved= 2 IEnMin= 1 EnMin= -366.337900235300     IErMin= 1 ErrMin= 2.50D-05
 ErrMax= 3.64D-05  0.00D+00 EMaxC= 1.00D-01 BMatC= 2.74D-07 BMatP= 1.61D-07
 IDIUse=1 WtCom= 1.00D+00 WtEn= 0.00D+00
 Coeff-Com:  0.570D+00 0.430D+00
 Coeff:      0.570D+00 0.430D+00
 Gap=     0.265 Goal=   None    Shift=    0.000
 RMSDP=3.52D-06 MaxDP=8.81D-05 DE= 7.71D-08 OVMax= 9.33D-05

 Cycle   9  Pass 1  IDiag  1:
 RMSU=  1.80D-06    CP:  1.00D+00  5.43D-01
 E= -366.337900379776     Delta-E=       -0.000000221537 Rises=F Damp=F
 DIIS: error= 2.68D-06 at cycle   3 NSaved=   3.
 NSaved= 3 IEnMin= 3 EnMin= -366.337900379776     IErMin= 3 ErrMin= 2.68D-06
 ErrMax= 2.68D-06  0.00D+00 EMaxC= 1.00D-01 BMatC= 1.41D-09 BMatP= 1.61D-07
 IDIUse=1 WtCom= 1.00D+00 WtEn= 0.00D+00
 Coeff-Com:  0.398D-01 0.764D-01 0.884D+00
 Coeff:      0.398D-01 0.764D-01 0.884D+00
 Gap=     0.265 Goal=   None    Shift=    0.000
 RMSDP=3.24D-07 MaxDP=1.01D-05 DE=-2.22D-07 OVMax= 9.04D-06

 Cycle  10  Pass 1  IDiag  1:
 RMSU=  2.91D-07    CP:  1.00D+00  5.64D-01  9.78D-01
 E= -366.337900380303     Delta-E=       -0.000000000527 Rises=F Damp=F
 DIIS: error= 1.43D-06 at cycle   4 NSaved=   4.
 NSaved= 4 IEnMin= 4 EnMin= -366.337900380303     IErMin= 4 ErrMin= 1.43D-06
 ErrMax= 1.43D-06  0.00D+00 EMaxC= 1.00D-01 BMatC= 6.99D-10 BMatP= 1.41D-09
 IDIUse=1 WtCom= 1.00D+00 WtEn= 0.00D+00
 Coeff-Com: -0.393D-02 0.232D-01 0.503D+00 0.478D+00
 Coeff:     -0.393D-02 0.232D-01 0.503D+00 0.478D+00
 Gap=     0.265 Goal=   None    Shift=    0.000
 RMSDP=1.58D-07 MaxDP=4.59D-06 DE=-5.27D-10 OVMax= 4.80D-06

 Cycle  11  Pass 1  IDiag  1:
 RMSU=  6.77D-08    CP:  1.00D+00  5.68D-01  9.88D-01  5.22D-01
 E= -366.337900380844     Delta-E=       -0.000000000541 Rises=F Damp=F
 DIIS: error= 1.96D-07 at cycle   5 NSaved=   5.
 NSaved= 5 IEnMin= 5 EnMin= -366.337900380844     IErMin= 5 ErrMin= 1.96D-07
 ErrMax= 1.96D-07  0.00D+00 EMaxC= 1.00D-01 BMatC= 1.63D-11 BMatP= 6.99D-10
 IDIUse=1 WtCom= 1.00D+00 WtEn= 0.00D+00
 Coeff-Com: -0.447D-02 0.490D-02 0.156D+00 0.204D+00 0.639D+00
 Coeff:     -0.447D-02 0.490D-02 0.156D+00 0.204D+00 0.639D+00
 Gap=     0.265 Goal=   None    Shift=    0.000
 RMSDP=3.34D-08 MaxDP=6.79D-07 DE=-5.41D-10 OVMax= 7.71D-07

 Cycle  12  Pass 1  IDiag  1:
 RMSU=  2.17D-08    CP:  1.00D+00  5.68D-01  9.92D-01  5.46D-01  6.57D-01
 E= -366.337900380858     Delta-E=       -0.000000000014 Rises=F Damp=F
 DIIS: error= 3.46D-08 at cycle   6 NSaved=   6.
 NSaved= 6 IEnMin= 6 EnMin= -366.337900380858     IErMin= 6 ErrMin= 3.46D-08
 ErrMax= 3.46D-08  0.00D+00 EMaxC= 1.00D-01 BMatC= 6.91D-13 BMatP= 1.63D-11
 IDIUse=1 WtCom= 1.00D+00 WtEn= 0.00D+00
 Coeff-Com: -0.151D-02 0.985D-03 0.388D-01 0.601D-01 0.260D+00 0.641D+00
 Coeff:     -0.151D-02 0.985D-03 0.388D-01 0.601D-01 0.260D+00 0.641D+00
 Gap=     0.265 Goal=   None    Shift=    0.000
 RMSDP=7.21D-09 MaxDP=1.59D-07 DE=-1.35D-11 OVMax= 1.83D-07

 SCF Done:  E(RB3LYP) =  -366.337900381     A.U. after   12 cycles
            NFock= 12  Conv=0.72D-08     -V/T= 2.0093
 KE= 3.629739179145D+02 PE=-1.665786858688D+03 EE= 5.296485381524D+02
 Leave Link  502 at Mon Oct 14 00:15:01 2019, MaxMem= 10737418240 cpu:              64.7 elap:               2.8
 (Enter /apps/cent7/gaussian/g16-A.03/g16-haswell/g16/l601.exe)
 Copying SCF densities to generalized density rwf, IOpCl= 0 IROHF=0.

 **********************************************************************

            Population analysis using the SCF density.

 **********************************************************************

 Orbital symmetries:
       Occupied  (A) (A) (A) (A) (A) (A) (A) (A) (A) (A) (A) (A)
                 (A) (A) (A) (A) (A) (A) (A) (A) (A) (A) (A) (A)
                 (A) (A) (A) (A) (A) (A) (A) (A)
       Virtual   (A) (A) (A) (A) (A) (A) (A) (A) (A) (A) (A) (A)
                 (A) (A) (A) (A) (A) (A) (A) (A) (A) (A) (A) (A)
                 (A) (A) (A) (A) (A) (A) (A) (A) (A) (A) (A) (A)
                 (A) (A) (A) (A) (A) (A) (A) (A) (A) (A) (A) (A)
                 (A) (A) (A) (A) (A) (A) (A) (A) (A) (A) (A) (A)
                 (A) (A) (A) (A) (A) (A) (A) (A) (A) (A) (A) (A)
                 (A) (A) (A) (A) (A) (A) (A) (A) (A) (A) (A) (A)
                 (A) (A) (A) (A) (A) (A) (A) (A) (A) (A) (A) (A)
                 (A) (A) (A) (A) (A) (A) (A) (A) (A) (A) (A) (A)
                 (A) (A) (A) (A) (A) (A)
 The electronic state is 1-A.
 Alpha  occ. eigenvalues --  -19.16292 -14.34096 -10.20614 -10.17746 -10.17560
 Alpha  occ. eigenvalues --  -10.17099 -10.16894 -10.16142  -1.06477  -0.83440
 Alpha  occ. eigenvalues --   -0.78544  -0.73266  -0.70328  -0.60184  -0.59550
 Alpha  occ. eigenvalues --   -0.54700  -0.53222  -0.47771  -0.45460  -0.45012
 Alpha  occ. eigenvalues --   -0.44385  -0.40994  -0.39154  -0.37434  -0.36358
 Alpha  occ. eigenvalues --   -0.33836  -0.32698  -0.31793  -0.29957  -0.28579
 Alpha  occ. eigenvalues --   -0.27536  -0.18530
 Alpha virt. eigenvalues --    0.07976   0.08741   0.10519   0.11551   0.13328
 Alpha virt. eigenvalues --    0.14147   0.15547   0.17816   0.18081   0.18716
 Alpha virt. eigenvalues --    0.19414   0.20081   0.20505   0.21115   0.21872
 Alpha virt. eigenvalues --    0.24224   0.25614   0.27019   0.28275   0.29245
 Alpha virt. eigenvalues --    0.30782   0.53513   0.54196   0.54873   0.55565
 Alpha virt. eigenvalues --    0.55924   0.56877   0.60054   0.62661   0.64175
 Alpha virt. eigenvalues --    0.67412   0.69852   0.70278   0.72914   0.73958
 Alpha virt. eigenvalues --    0.75420   0.78772   0.81007   0.83294   0.83900
 Alpha virt. eigenvalues --    0.84917   0.87771   0.88356   0.89315   0.90871
 Alpha virt. eigenvalues --    0.91231   0.92788   0.93555   0.94890   0.96060
 Alpha virt. eigenvalues --    0.96903   0.97719   0.98929   1.02385   1.05312
 Alpha virt. eigenvalues --    1.11959   1.18707   1.19413   1.24989   1.30746
 Alpha virt. eigenvalues --    1.32733   1.36550   1.40217   1.41422   1.53755
 Alpha virt. eigenvalues --    1.57332   1.60838   1.70703   1.71801   1.74042
 Alpha virt. eigenvalues --    1.76985   1.80425   1.82575   1.84449   1.87246
 Alpha virt. eigenvalues --    1.92004   1.95551   1.97731   2.03366   2.04165
 Alpha virt. eigenvalues --    2.04986   2.05506   2.06326   2.10689   2.12237
 Alpha virt. eigenvalues --    2.15964   2.20628   2.22096   2.26882   2.29479
 Alpha virt. eigenvalues --    2.31782   2.34793   2.35878   2.37079   2.38581
 Alpha virt. eigenvalues --    2.42748   2.53481   2.57422   2.60705   2.62690
 Alpha virt. eigenvalues --    2.63604   2.70751   2.76021   2.83878   2.88734
 Alpha virt. eigenvalues --    2.93333   3.71133   3.87097   4.14890   4.27885
 Alpha virt. eigenvalues --    4.29902   4.55248   4.57430   4.61485
          Condensed to atoms (all electrons):
               1          2          3          4          5          6
     1  O    8.204552   0.145614  -0.054221  -0.002120   0.000048  -0.000008
     2  N    0.145614   6.847957   0.310623  -0.074404   0.004049   0.000118
     3  C   -0.054221   0.310623   4.838441   0.376813  -0.031171  -0.012678
     4  C   -0.002120  -0.074404   0.376813   5.105787   0.349470  -0.042930
     5  C    0.000048   0.004049  -0.031171   0.349470   5.050012   0.378507
     6  C   -0.000008   0.000118  -0.012678  -0.042930   0.378507   5.024781
     7  C   -0.000056   0.002555  -0.032052  -0.009136  -0.046539   0.380686
     8  C    0.004126  -0.040711   0.354541  -0.036372  -0.012486  -0.042763
     9  H    0.220240  -0.056966  -0.001307  -0.001231   0.000023   0.000002
    10  H   -0.028337   0.327023  -0.045729   0.002896  -0.000067  -0.000006
    11  H    0.001712  -0.062879   0.361158  -0.072427   0.000512  -0.000204
    12  H   -0.000614   0.004111  -0.038251   0.356433  -0.042546  -0.004638
    13  H    0.010074  -0.006275  -0.035321   0.370093  -0.039548   0.004870
    14  H    0.000002  -0.000119   0.004161  -0.035983   0.371043  -0.040899
    15  H   -0.000007  -0.000030  -0.005116  -0.043692   0.367753  -0.045321
    16  H    0.000000  -0.000030  -0.000901  -0.003762  -0.044920   0.369596
    17  H   -0.000000   0.000003   0.000228   0.005072  -0.039514   0.370881
    18  H    0.000001  -0.000074   0.004177  -0.000063   0.005352  -0.039979
    19  H   -0.000001  -0.000037  -0.004309  -0.001268  -0.004352  -0.043730
    20  H   -0.000000  -0.002202  -0.038130  -0.011031   0.000102  -0.004075
    21  H   -0.000032   0.001388  -0.039559   0.006364  -0.000007   0.004933
               7          8          9         10         11         12
     1  O   -0.000056   0.004126   0.220240  -0.028337   0.001712  -0.000614
     2  N    0.002555  -0.040711  -0.056966   0.327023  -0.062879   0.004111
     3  C   -0.032052   0.354541  -0.001307  -0.045729   0.361158  -0.038251
     4  C   -0.009136  -0.036372  -0.001231   0.002896  -0.072427   0.356433
     5  C   -0.046539  -0.012486   0.000023  -0.000067   0.000512  -0.042546
     6  C    0.380686  -0.042763   0.000002  -0.000006  -0.000204  -0.004638
     7  C    5.020331   0.370154  -0.000001  -0.000135  -0.005026  -0.000727
     8  C    0.370154   5.084439  -0.000311   0.003519  -0.035475  -0.007592
     9  H   -0.000001  -0.000311   0.441475   0.000293   0.007775   0.000119
    10  H   -0.000135   0.003519   0.000293   0.418266   0.003907   0.000466
    11  H   -0.005026  -0.035475   0.007775   0.003907   0.688686   0.007330
    12  H   -0.000727  -0.007592   0.000119   0.000466   0.007330   0.608000
    13  H    0.000198   0.005487  -0.000427   0.000108  -0.004878  -0.020535
    14  H    0.005400   0.000195  -0.000001   0.000004  -0.000230  -0.005682
    15  H   -0.004723  -0.001082   0.000002   0.000003   0.005834   0.006788
    16  H   -0.044597  -0.004544  -0.000000   0.000001   0.000144   0.006453
    17  H   -0.040277   0.005222  -0.000000  -0.000000  -0.000024  -0.000071
    18  H    0.370969  -0.038549  -0.000000   0.000003  -0.000001  -0.000035
    19  H    0.370376  -0.044137  -0.000000   0.000010   0.005109   0.000251
    20  H   -0.043800   0.361255   0.000045   0.002435   0.007030   0.007409
    21  H   -0.035035   0.364022  -0.000092   0.001636  -0.007675  -0.000166
              13         14         15         16         17         18
     1  O    0.010074   0.000002  -0.000007   0.000000  -0.000000   0.000001
     2  N   -0.006275  -0.000119  -0.000030  -0.000030   0.000003  -0.000074
     3  C   -0.035321   0.004161  -0.005116  -0.000901   0.000228   0.004177
     4  C    0.370093  -0.035983  -0.043692  -0.003762   0.005072  -0.000063
     5  C   -0.039548   0.371043   0.367753  -0.044920  -0.039514   0.005352
     6  C    0.004870  -0.040899  -0.045321   0.369596   0.370881  -0.039979
     7  C    0.000198   0.005400  -0.004723  -0.044597  -0.040277   0.370969
     8  C    0.005487   0.000195  -0.001082  -0.004544   0.005222  -0.038549
     9  H   -0.000427  -0.000001   0.000002  -0.000000  -0.000000  -0.000000
    10  H    0.000108   0.000004   0.000003   0.000001  -0.000000   0.000003
    11  H   -0.004878  -0.000230   0.005834   0.000144  -0.000024  -0.000001
    12  H   -0.020535  -0.005682   0.006788   0.006453  -0.000071  -0.000035
    13  H    0.576811  -0.002256  -0.004739  -0.000079  -0.000195   0.000012
    14  H   -0.002256   0.598751  -0.022280  -0.005063  -0.002048  -0.000219
    15  H   -0.004739  -0.022280   0.615266   0.006738  -0.004971  -0.000102
    16  H   -0.000079  -0.005063   0.006738   0.610940  -0.021843  -0.005269
    17  H   -0.000195  -0.002048  -0.004971  -0.021843   0.601513  -0.002144
    18  H    0.000012  -0.000219  -0.000102  -0.005269  -0.002144   0.600491
    19  H   -0.000035  -0.000123   0.006655   0.006628  -0.005045  -0.022119
    20  H   -0.000104  -0.000095   0.000268   0.006198  -0.000070  -0.004775
    21  H   -0.000196   0.000015  -0.000041  -0.000079  -0.000193  -0.002854
              19         20         21
     1  O   -0.000001  -0.000000  -0.000032
     2  N   -0.000037  -0.002202   0.001388
     3  C   -0.004309  -0.038130  -0.039559
     4  C   -0.001268  -0.011031   0.006364
     5  C   -0.004352   0.000102  -0.000007
     6  C   -0.043730  -0.004075   0.004933
     7  C    0.370376  -0.043800  -0.035035
     8  C   -0.044137   0.361255   0.364022
     9  H   -0.000000   0.000045  -0.000092
    10  H    0.000010   0.002435   0.001636
    11  H    0.005109   0.007030  -0.007675
    12  H    0.000251   0.007409  -0.000166
    13  H   -0.000035  -0.000104  -0.000196
    14  H   -0.000123  -0.000095   0.000015
    15  H    0.006655   0.000268  -0.000041
    16  H    0.006628   0.006198  -0.000079
    17  H   -0.005045  -0.000070  -0.000193
    18  H   -0.022119  -0.004775  -0.002854
    19  H    0.607156   0.006598  -0.005381
    20  H    0.006598   0.607085  -0.025443
    21  H   -0.005381  -0.025443   0.601884
 Mulliken charges:
               1
     1  O   -0.500973
     2  N   -0.399714
     3  C    0.088605
     4  C   -0.238509
     5  C   -0.265720
     6  C   -0.257143
     7  C   -0.258564
     8  C   -0.288940
     9  H    0.390362
    10  H    0.313706
    11  H    0.099620
    12  H    0.123497
    13  H    0.146935
    14  H    0.135425
    15  H    0.122802
    16  H    0.124390
    17  H    0.133476
    18  H    0.135177
    19  H    0.127752
    20  H    0.131302
    21  H    0.136513
 Sum of Mulliken charges =  -0.00000
 Mulliken charges with hydrogens summed into heavy atoms:
               1
     1  O   -0.110611
     2  N   -0.086008
     3  C    0.188225
     4  C    0.031923
     5  C   -0.007493
     6  C    0.000722
     7  C    0.004366
     8  C   -0.021124
 Electronic spatial extent (au):  <R**2>=           1146.8254
 Charge=             -0.0000 electrons
 Dipole moment (field-independent basis, Debye):
    X=              0.1198    Y=             -1.5414    Z=              0.7552  Tot=              1.7206
 Quadrupole moment (field-independent basis, Debye-Ang):
   XX=            -50.1788   YY=            -51.0013   ZZ=            -47.9097
   XY=              4.2011   XZ=             -3.3606   YZ=              1.4115
 Traceless Quadrupole moment (field-independent basis, Debye-Ang):
   XX=             -0.4822   YY=             -1.3047   ZZ=              1.7869
   XY=              4.2011   XZ=             -3.3606   YZ=              1.4115
 Octapole moment (field-independent basis, Debye-Ang**2):
  XXX=            -31.6972  YYY=             -1.5635  ZZZ=              1.3657  XYY=             -7.7928
  XXY=            -12.3022  XXZ=             12.2310  XZZ=            -11.0628  YZZ=             -1.2734
  YYZ=             -2.2556  XYZ=             -3.1599
 Hexadecapole moment (field-independent basis, Debye-Ang**3):
 XXXX=           -935.0658 YYYY=           -383.4824 ZZZZ=           -114.1028 XXXY=             32.3359
 XXXZ=            -42.0166 YYYX=              2.2469 YYYZ=              1.4500 ZZZX=             -7.0972
 ZZZY=              3.0343 XXYY=           -226.5169 XXZZ=           -161.8428 YYZZ=            -81.7717
 XXYZ=             11.5272 YYXZ=             -1.6913 ZZXY=              3.0280
 N-N= 4.068265022406D+02 E-N=-1.665786861032D+03  KE= 3.629739179145D+02
 No NMR shielding tensors so no spin-rotation constants.
 Leave Link  601 at Mon Oct 14 00:15:01 2019, MaxMem= 10737418240 cpu:               3.1 elap:               0.2
 (Enter /apps/cent7/gaussian/g16-A.03/g16-haswell/g16/l701.exe)
 ... and contract with generalized density number  0.
 Compute integral first derivatives.
 Leave Link  701 at Mon Oct 14 00:15:01 2019, MaxMem= 10737418240 cpu:               3.4 elap:               0.2
 (Enter /apps/cent7/gaussian/g16-A.03/g16-haswell/g16/l702.exe)
 L702 exits ... SP integral derivatives will be done elsewhere.
 Leave Link  702 at Mon Oct 14 00:15:02 2019, MaxMem= 10737418240 cpu:               0.7 elap:               0.0
 (Enter /apps/cent7/gaussian/g16-A.03/g16-haswell/g16/l703.exe)
 Integral derivatives from FoFJK, PRISM(SPDF).
 Compute integral first derivatives, UseDBF=F ICtDFT=           0.
 Calling FoFJK, ICntrl=      2127 FMM=F ISym2X=0 I1Cent= 0 IOpClX= 0 NMat=1 NMatS=1 NMatT=0.
 FoFJK:  IHMeth= 1 ICntrl=    2127 DoSepK=F KAlg= 0 I1Cent=           0 FoldK=F
 IRaf=         0 NMat=       1 IRICut=       1 DoRegI=T DoRafI=F ISym2E= 0 IDoP0=0 IntGTp=1.
 FoFCou: FMM=F IPFlag=           0 FMFlag=      100000 FMFlg1=         800
         NFxFlg=           0 DoJE=F BraDBF=F KetDBF=F FulRan=T
         wScrn=  0.000000 ICntrl=      2127 IOpCl=  0 I1Cent=           0 NGrid=           0
         NMat0=    1 NMatS0=      1 NMatT0=    0 NMatD0=    1 NMtDS0=    0 NMtDT0=    0
 Symmetry not used in FoFCou.
 Leave Link  703 at Mon Oct 14 00:15:03 2019, MaxMem= 10737418240 cpu:              20.3 elap:               0.9
 (Enter /apps/cent7/gaussian/g16-A.03/g16-haswell/g16/l716.exe)
 Dipole        = 4.71474916D-02-6.06437999D-01 2.97103917D-01
 ***** Axes restored to original set *****
 -------------------------------------------------------------------
 Center     Atomic                   Forces (Hartrees/Bohr)
 Number     Number              X              Y              Z
 -------------------------------------------------------------------
      1        8           0.027839364    0.017690525   -0.024129341
      2        7          -0.030445542   -0.037192405    0.004964943
      3        6          -0.014099699    0.024860828   -0.011999975
      4        6          -0.015466494   -0.013456891    0.025620268
      5        6          -0.015713285    0.027463494    0.012976066
      6        6           0.025017590    0.013198000    0.018873013
      7        6           0.021060333    0.011098156   -0.025019383
      8        6           0.021726299   -0.027957829   -0.005265217
      9        1           0.001971054   -0.001219662    0.018250477
     10        1           0.004553939   -0.001356512   -0.001441607
     11        1          -0.000081578   -0.007517252    0.006910541
     12        1           0.014162313    0.007108379   -0.009051593
     13        1           0.002531473    0.012700135   -0.015283466
     14        1           0.010833746   -0.016785236    0.002456230
     15        1           0.007433361   -0.015396999   -0.010141786
     16        1          -0.013344891   -0.010911656   -0.008617010
     17        1          -0.014488218    0.000419805   -0.014135225
     18        1          -0.003679938   -0.010244374    0.016788957
     19        1          -0.014659595   -0.004794475    0.011661027
     20        1          -0.005389253    0.015014279    0.008897826
     21        1          -0.009760978    0.017279688   -0.002314745
 -------------------------------------------------------------------
 Cartesian Forces:  Max     0.037192405 RMS     0.015498538
 Leave Link  716 at Mon Oct 14 00:15:03 2019, MaxMem= 10737418240 cpu:               0.6 elap:               0.1
 (Enter /apps/cent7/gaussian/g16-A.03/g16-haswell/g16/l103.exe)

 GradGradGradGradGradGradGradGradGradGradGradGradGradGradGradGradGradGrad
 Berny optimization.
 FormGI is forming the generalized inverse of G from B-inverse, IUseBI=4.
 Internal  Forces:  Max     0.029561170 RMS     0.006655832
 Search for a local minimum.
 Step number   1 out of a maximum of  126
 All quantities printed in internal units (Hartrees-Bohrs-Radians)
 RMS Force = .66558D-02 SwitMx=.10000D-02 MixMth= 1
 Mixed Optimization -- RFO/linear search
 Second derivative matrix not updated -- first step.
 ITU=  0
     Eigenvalues ---    0.00403   0.00408   0.00507   0.00630   0.00895
     Eigenvalues ---    0.01838   0.01968   0.01985   0.03995   0.04083
     Eigenvalues ---    0.04280   0.04471   0.04862   0.05075   0.05140
     Eigenvalues ---    0.05354   0.05629   0.05672   0.05993   0.06355
     Eigenvalues ---    0.07666   0.07693   0.07702   0.07719   0.07734
     Eigenvalues ---    0.08154   0.08473   0.11740   0.11778   0.14056
     Eigenvalues ---    0.16000   0.16000   0.16080   0.17391   0.21465
     Eigenvalues ---    0.22000   0.26100   0.26284   0.26734   0.27381
     Eigenvalues ---    0.27482   0.27579   0.34541   0.34805   0.34806
     Eigenvalues ---    0.34807   0.34809   0.34812   0.34812   0.34812
     Eigenvalues ---    0.34813   0.34818   0.34819   0.34821   0.45969
     Eigenvalues ---    0.53159   0.55482
 RFO step:  Lambda=-3.35635241D-02 EMin= 4.02982597D-03
 Linear search not attempted -- first point.
 Maximum step size (   0.300) exceeded in Quadratic search.
    -- Step size scaled by   0.847
 Iteration  1 RMS(Cart)=  0.04058876 RMS(Int)=  0.00136025
 Iteration  2 RMS(Cart)=  0.00162273 RMS(Int)=  0.00014776
 Iteration  3 RMS(Cart)=  0.00000279 RMS(Int)=  0.00014775
 Iteration  4 RMS(Cart)=  0.00000000 RMS(Int)=  0.00014775
 ITry= 1 IFail=0 DXMaxC= 1.50D-01 DCOld= 1.00D+10 DXMaxT= 3.00D-01 DXLimC= 3.00D+00 Rises=F
 Variable       Old X    -DE/DX   Delta X   Delta X   Delta X     New X
                                 (Linear)    (Quad)   (Total)
    R1        2.56806   0.02956   0.00000   0.04432   0.04432   2.61238
    R2        1.81406   0.01743   0.00000   0.02511   0.02511   1.83917
    R3        2.79727  -0.01875   0.00000  -0.04192  -0.04192   2.75536
    R4        1.90866  -0.00349   0.00000  -0.00600  -0.00600   1.90266
    R5        2.94417  -0.00608   0.00000  -0.01563  -0.01567   2.92850
    R6        2.94000  -0.00812   0.00000  -0.02116  -0.02118   2.91882
    R7        2.05980   0.00875   0.00000   0.01943   0.01943   2.07923
    R8        2.93010   0.00237   0.00000   0.00627   0.00625   2.93635
    R9        2.05981   0.00371   0.00000   0.00824   0.00824   2.06805
   R10        2.05990   0.00149   0.00000   0.00331   0.00331   2.06322
   R11        2.92831   0.00214   0.00000   0.00448   0.00450   2.93281
   R12        2.05981   0.00268   0.00000   0.00596   0.00596   2.06577
   R13        2.05986   0.00486   0.00000   0.01078   0.01078   2.07065
   R14        2.92988   0.00193   0.00000   0.00395   0.00398   2.93386
   R15        2.05967   0.00483   0.00000   0.01071   0.01071   2.07038
   R16        2.05991   0.00291   0.00000   0.00646   0.00646   2.06636
   R17        2.93127   0.00150   0.00000   0.00434   0.00435   2.93563
   R18        2.05993   0.00270   0.00000   0.00600   0.00600   2.06593
   R19        2.05971   0.00429   0.00000   0.00953   0.00953   2.06924
   R20        2.05970   0.00458   0.00000   0.01017   0.01017   2.06987
   R21        2.05982   0.00300   0.00000   0.00665   0.00665   2.06647
    A1        1.91072  -0.01048   0.00000  -0.04586  -0.04586   1.86486
    A2        1.93813   0.02754   0.00000   0.09205   0.09204   2.03017
    A3        2.11040  -0.01701   0.00000  -0.06021  -0.06021   2.05019
    A4        2.23465  -0.01053   0.00000  -0.03184  -0.03185   2.20280
    A5        1.94704  -0.00224   0.00000  -0.00134  -0.00138   1.94567
    A6        1.90478  -0.00318   0.00000  -0.00724  -0.00731   1.89747
    A7        1.84712   0.00275   0.00000   0.01369   0.01362   1.86074
    A8        1.93123   0.00593   0.00000   0.01523   0.01531   1.94654
    A9        1.89580  -0.00081   0.00000  -0.00076  -0.00069   1.89510
   A10        1.93645  -0.00270   0.00000  -0.02016  -0.02012   1.91633
   A11        1.95371  -0.00299   0.00000  -0.00867  -0.00867   1.94504
   A12        1.85598   0.00116   0.00000   0.01135   0.01107   1.86705
   A13        1.85599   0.00290   0.00000   0.02115   0.02089   1.87688
   A14        1.85284   0.00601   0.00000   0.04093   0.04085   1.89370
   A15        1.85287   0.00351   0.00000   0.03383   0.03365   1.88652
   A16        2.09430  -0.01089   0.00000  -0.09874  -0.09861   1.99569
   A17        1.95479  -0.00099   0.00000  -0.00616  -0.00624   1.94855
   A18        1.85444   0.00172   0.00000   0.02171   0.02148   1.87592
   A19        1.85435   0.00422   0.00000   0.03240   0.03213   1.88648
   A20        1.85394   0.00335   0.00000   0.02771   0.02756   1.88150
   A21        1.85391   0.00276   0.00000   0.02785   0.02749   1.88140
   A22        2.09442  -0.01110   0.00000  -0.10345  -0.10305   1.99137
   A23        1.95069  -0.00206   0.00000  -0.00610  -0.00624   1.94446
   A24        1.85480   0.00392   0.00000   0.02866   0.02843   1.88323
   A25        1.85485   0.00283   0.00000   0.02751   0.02730   1.88215
   A26        1.85531   0.00395   0.00000   0.02849   0.02825   1.88356
   A27        1.85521   0.00232   0.00000   0.02384   0.02360   1.87881
   A28        2.09442  -0.01111   0.00000  -0.10200  -0.10163   1.99279
   A29        1.95659  -0.00037   0.00000  -0.00273  -0.00281   1.95378
   A30        1.85359   0.00336   0.00000   0.02893   0.02871   1.88229
   A31        1.85370   0.00283   0.00000   0.02798   0.02760   1.88131
   A32        1.85389   0.00144   0.00000   0.02044   0.02010   1.87400
   A33        1.85394   0.00364   0.00000   0.02793   0.02759   1.88153
   A34        2.09438  -0.01086   0.00000  -0.10218  -0.10178   1.99260
   A35        1.95833  -0.00260   0.00000  -0.00788  -0.00789   1.95043
   A36        1.85441   0.00157   0.00000   0.01447   0.01425   1.86866
   A37        1.85443   0.00355   0.00000   0.02743   0.02717   1.88160
   A38        1.85238   0.00497   0.00000   0.03419   0.03412   1.88649
   A39        1.85232   0.00300   0.00000   0.02968   0.02942   1.88174
   A40        2.09447  -0.01078   0.00000  -0.09835  -0.09806   1.99641
    D1       -1.64504   0.00081   0.00000   0.01259   0.01262  -1.63242
    D2        1.49649   0.00114   0.00000   0.01916   0.01913   1.51562
    D3       -1.13780   0.00168   0.00000   0.00715   0.00714  -1.13067
    D4        3.00597  -0.00213   0.00000  -0.00622  -0.00624   2.99973
    D5        0.92103   0.00117   0.00000   0.01371   0.01377   0.93480
    D6        2.00386   0.00132   0.00000  -0.00000  -0.00003   2.00383
    D7       -0.13555  -0.00249   0.00000  -0.01336  -0.01341  -0.14896
    D8       -2.22049   0.00081   0.00000   0.00656   0.00661  -2.21389
    D9       -3.07603  -0.00058   0.00000  -0.00809  -0.00810  -3.08413
   D10       -1.05988   0.00574   0.00000   0.04302   0.04302  -1.01686
   D11        1.19098  -0.00494   0.00000  -0.05646  -0.05651   1.13447
   D12       -0.95185  -0.00204   0.00000  -0.00763  -0.00768  -0.95953
   D13        1.06430   0.00428   0.00000   0.04348   0.04344   1.10774
   D14       -2.96803  -0.00640   0.00000  -0.05600  -0.05608  -3.02411
   D15        1.17780  -0.00216   0.00000  -0.02353  -0.02350   1.15431
   D16       -3.08924   0.00416   0.00000   0.02758   0.02763  -3.06161
   D17       -0.83838  -0.00652   0.00000  -0.07190  -0.07190  -0.91028
   D18        3.09461   0.00072   0.00000   0.00802   0.00798   3.10259
   D19        1.07756  -0.00482   0.00000  -0.03742  -0.03752   1.04005
   D20       -1.17158   0.00506   0.00000   0.05573   0.05578  -1.11580
   D21        0.94575   0.00177   0.00000   0.00455   0.00458   0.95033
   D22       -1.07130  -0.00377   0.00000  -0.04089  -0.04092  -1.11222
   D23        2.96274   0.00611   0.00000   0.05226   0.05238   3.01512
   D24       -1.15987   0.00061   0.00000   0.00873   0.00878  -1.15110
   D25        3.10626  -0.00493   0.00000  -0.03671  -0.03671   3.06955
   D26        0.85711   0.00495   0.00000   0.05644   0.05658   0.91370
   D27        0.95191   0.00028   0.00000   0.00607   0.00610   0.95801
   D28        2.96902   0.00479   0.00000   0.04879   0.04887   3.01789
   D29       -1.06511  -0.00499   0.00000  -0.04307  -0.04322  -1.10833
   D30       -1.06614  -0.00308   0.00000  -0.02700  -0.02708  -1.09322
   D31        0.95097   0.00143   0.00000   0.01571   0.01570   0.96666
   D32       -3.08316  -0.00836   0.00000  -0.07615  -0.07640   3.12363
   D33        2.96999   0.00427   0.00000   0.04669   0.04681   3.01681
   D34       -1.29608   0.00878   0.00000   0.08940   0.08959  -1.20649
   D35        0.95298  -0.00101   0.00000  -0.00246  -0.00251   0.95047
   D36       -0.92920  -0.00251   0.00000  -0.01461  -0.01472  -0.94392
   D37        1.08765   0.00343   0.00000   0.03293   0.03301   1.12065
   D38       -2.94595  -0.00586   0.00000  -0.05594  -0.05609  -3.00204
   D39       -2.94661  -0.00602   0.00000  -0.05367  -0.05384  -3.00046
   D40       -0.92977  -0.00009   0.00000  -0.00613  -0.00612  -0.93589
   D41        1.31982  -0.00937   0.00000  -0.09500  -0.09521   1.22460
   D42        1.08809   0.00365   0.00000   0.03731   0.03736   1.12545
   D43        3.10493   0.00958   0.00000   0.08485   0.08509  -3.09316
   D44       -0.92867   0.00030   0.00000  -0.00402  -0.00401  -0.93267
   D45        0.92156   0.00235   0.00000   0.01296   0.01307   0.93464
   D46        2.93904   0.00585   0.00000   0.05307   0.05329   2.99233
   D47       -1.09604  -0.00349   0.00000  -0.03555  -0.03562  -1.13166
   D48       -1.09497  -0.00357   0.00000  -0.03469  -0.03477  -1.12974
   D49        0.92251  -0.00007   0.00000   0.00542   0.00544   0.92796
   D50       -3.11258  -0.00941   0.00000  -0.08320  -0.08346   3.08715
   D51        2.93810   0.00601   0.00000   0.05654   0.05667   2.99477
   D52       -1.32761   0.00952   0.00000   0.09665   0.09688  -1.23072
   D53        0.92049   0.00018   0.00000   0.00803   0.00798   0.92848
   D54       -0.93859  -0.00003   0.00000  -0.00190  -0.00191  -0.94049
   D55        1.07970   0.00346   0.00000   0.03158   0.03167   1.11137
   D56       -2.95686  -0.00470   0.00000  -0.04823  -0.04835  -3.00520
   D57       -2.95588  -0.00470   0.00000  -0.04716  -0.04725  -3.00313
   D58       -0.93760  -0.00122   0.00000  -0.01368  -0.01367  -0.95127
   D59        1.30904  -0.00938   0.00000  -0.09349  -0.09369   1.21534
   D60        1.07888   0.00532   0.00000   0.04664   0.04680   1.12567
   D61        3.09716   0.00880   0.00000   0.08012   0.08038  -3.10565
   D62       -0.93939   0.00064   0.00000   0.00032   0.00035  -0.93904
         Item               Value     Threshold  Converged?
 Maximum Force            0.029561     0.000450     NO 
 RMS     Force            0.006656     0.000300     NO 
 Maximum Displacement     0.150359     0.001800     NO 
 RMS     Displacement     0.040571     0.001200     NO 
 Predicted change in Energy=-2.003121D-02
 Lowest energy point so far.  Saving SCF results.
 GradGradGradGradGradGradGradGradGradGradGradGradGradGradGradGradGradGrad

 Leave Link  103 at Mon Oct 14 00:15:03 2019, MaxMem= 10737418240 cpu:               1.4 elap:               0.1
 (Enter /apps/cent7/gaussian/g16-A.03/g16-haswell/g16/l202.exe)
                          Input orientation:                          
 ---------------------------------------------------------------------
 Center     Atomic      Atomic             Coordinates (Angstroms)
 Number     Number       Type             X           Y           Z
 ---------------------------------------------------------------------
      1          8           0        1.497089    0.182869    0.085887
      2          7           0        0.121005    0.119018    0.201549
      3          6           0       -0.471901   -1.211637    0.139921
      4          6           0       -0.257877   -1.864425   -1.249187
      5          6           0       -0.960290   -3.247393   -1.341208
      6          6           0       -2.469306   -3.147304   -0.992652
      7          6           0       -2.688187   -2.477535    0.390767
      8          6           0       -1.972366   -1.102374    0.489729
      9          1           0        1.856889    0.174066    0.990140
     10          1           0       -0.376376    0.987205    0.313784
     11          1           0        0.043820   -1.821178    0.896961
     12          1           0       -0.708738   -1.196023   -1.989183
     13          1           0        0.815115   -2.019946   -1.377811
     14          1           0       -0.878332   -3.589116   -2.376340
     15          1           0       -0.491521   -3.916304   -0.610823
     16          1           0       -2.949163   -2.518945   -1.751098
     17          1           0       -2.868077   -4.163872   -0.935613
     18          1           0       -3.759829   -2.297014    0.509834
     19          1           0       -2.256943   -3.135063    1.152804
     20          1           0       -2.425751   -0.429264   -0.245871
     21          1           0       -2.050261   -0.758364    1.524811
 ---------------------------------------------------------------------
                    Distance matrix (angstroms):
                    1          2          3          4          5
     1  O    0.000000
     2  N    1.382411   0.000000
     3  C    2.413397   1.458073   0.000000
     4  C    3.008943   2.486410   1.549696   0.000000
     5  C    4.454437   3.857723   2.564483   1.553851   0.000000
     6  C    5.290140   4.336437   3.003191   2.569437   1.551979
     7  C    4.968625   3.830072   2.564634   2.995289   2.564770
     8  C    3.721835   2.440707   1.544571   2.558129   2.996287
     9  H    0.973246   1.907407   2.840125   3.693544   5.007801
    10  H    2.051527   1.006843   2.207772   3.254030   4.583860
    11  H    2.605002   2.062502   1.100281   2.167681   2.837557
    12  H    3.327602   2.686469   2.142293   1.094364   2.165934
    13  H    2.731281   2.747969   2.147855   1.091807   2.158710
    14  H    5.092451   4.625413   3.485565   2.151743   1.093156
    15  H    4.609033   4.161605   2.806996   2.161551   1.095740
    16  H    5.517560   4.494175   3.379621   2.814841   2.157374
    17  H    6.244381   5.345175   3.951472   3.492697   2.155016
    18  H    5.827927   4.581825   3.482148   3.942709   3.488122
    19  H    5.122474   4.141083   2.812806   3.373476   2.813187
    20  H    3.984148   2.643248   2.139736   2.786755   3.359939
    21  H    3.942095   2.689836   2.148162   3.482969   3.949350
                    6          7          8          9         10
     6  C    0.000000
     7  C    1.552529   0.000000
     8  C    2.574129   1.553467   0.000000
     9  H    5.803355   5.296032   4.067298   0.000000
    10  H    4.814695   4.165911   2.635238   2.471058   0.000000
    11  H    3.412484   2.854978   2.178881   2.697574   2.898909
    12  H    2.810724   3.350321   2.783978   4.163647   3.190707
    13  H    3.493809   3.950997   3.478461   3.392076   3.650219
    14  H    2.154295   3.488276   3.949069   5.742488   5.332114
    15  H    2.156105   2.810441   3.364865   4.980887   4.991248
    16  H    1.095599   2.158102   2.825263   6.153441   4.814152
    17  H    1.093473   2.152992   3.493804   6.697130   5.856890
    18  H    2.155437   1.093244   2.150021   6.155035   4.719352
    19  H    2.155975   1.094996   2.156960   5.282084   4.607991
    20  H    2.819099   2.160925   1.095328   4.498081   2.553337
    21  H    3.495748   2.156050   1.093528   4.052299   2.704716
                   11         12         13         14         15
    11  H    0.000000
    12  H    3.047456   0.000000
    13  H    2.410185   1.837050   0.000000
    14  H    3.832815   2.430133   2.515376   0.000000
    15  H    2.636201   3.057284   2.427290   1.836770   0.000000
    16  H    4.056728   2.612721   3.815512   2.413407   3.048416
    17  H    4.162414   3.818492   4.284607   2.522920   2.411390
    18  H    3.852795   4.094682   4.956821   4.278148   3.815732
    19  H    2.661815   4.003611   4.133405   3.815965   2.614849
    20  H    3.056512   2.564213   3.783486   4.113158   4.004233
    21  H    2.430832   3.786738   4.269330   4.960399   4.118639
                   16         17         18         19         20
    16  H    0.000000
    17  H    1.837763   0.000000
    18  H    2.412104   2.523826   0.000000
    19  H    3.048182   2.406952   1.836955   0.000000
    20  H    2.628010   3.823440   2.416474   3.050596   0.000000
    21  H    3.826127   4.280186   2.514009   2.414499   1.839732
                   21
    21  H    0.000000
 Stoichiometry    C6H13NO
 Framework group  C1[X(C6H13NO)]
 Deg. of freedom    57
 Full point group                 C1      NOp   1
 RotChk:  IX=0 Diff= 1.08D-02
 Largest Abelian subgroup         C1      NOp   1
 Largest concise Abelian subgroup C1      NOp   1
                         Standard orientation:                         
 ---------------------------------------------------------------------
 Center     Atomic      Atomic             Coordinates (Angstroms)
 Number     Number       Type             X           Y           Z
 ---------------------------------------------------------------------
      1          8           0       -2.944341    0.398301    0.139409
      2          7           0       -1.946855   -0.465593   -0.272624
      3          6           0       -0.607022   -0.195229    0.235044
      4          6           0       -0.064671    1.159026   -0.287839
      5          6           0        1.393874    1.408091    0.186571
      6          6           0        2.331935    0.236099   -0.207275
      7          6           0        1.782441   -1.124547    0.299721
      8          6           0        0.318494   -1.367011   -0.159987
      9          1           0       -3.354579    0.000321    0.927142
     10          1           0       -2.207697   -1.213386   -0.894315
     11          1           0       -0.691043   -0.139744    1.330708
     12          1           0       -0.069831    1.104680   -1.380840
     13          1           0       -0.695349    1.948064    0.126536
     14          1           0        1.754070    2.308493   -0.317936
     15          1           0        1.388415    1.479771    1.279951
     16          1           0        2.377956    0.194574   -1.301119
     17          1           0        3.298552    0.403916    0.275603
     18          1           0        2.396792   -1.917169   -0.135602
     19          1           0        1.790131   -1.101498    1.394447
     20          1           0        0.311120   -1.427883   -1.253597
     21          1           0       -0.046132   -2.265972    0.344711
 ---------------------------------------------------------------------
 Rotational constants (GHZ):           3.9293111           1.2965143           1.0473070
 Leave Link  202 at Mon Oct 14 00:15:03 2019, MaxMem= 10737418240 cpu:               0.8 elap:               0.1
 (Enter /apps/cent7/gaussian/g16-A.03/g16-haswell/g16/l301.exe)
 Standard basis: 6-31G(d) (6D, 7F)
 Ernie: Thresh=  0.10000D-02 Tol=  0.10000D-05 Strict=F.
 There are   146 symmetry adapted cartesian basis functions of A   symmetry.
 There are   146 symmetry adapted basis functions of A   symmetry.
   146 basis functions,   276 primitive gaussians,   146 cartesian basis functions
    32 alpha electrons       32 beta electrons
       nuclear repulsion energy       405.4585146324 Hartrees.
 IExCor=  402 DFT=T Ex+Corr=B3LYP ExCW=0 ScaHFX=  0.200000
 ScaDFX=  0.800000  0.720000  1.000000  0.810000 ScalE2=  1.000000  1.000000
 IRadAn=      5 IRanWt=     -1 IRanGd=            0 ICorTp=0 IEmpDi=  4
 NAtoms=   21 NActive=   21 NUniq=   21 SFac= 1.00D+00 NAtFMM=   60 NAOKFM=F Big=F
 Integral buffers will be    131072 words long.
 Raffenetti 2 integral format.
 Two-electron integral symmetry is turned on.
 Leave Link  301 at Mon Oct 14 00:15:03 2019, MaxMem= 10737418240 cpu:               1.2 elap:               0.1
 (Enter /apps/cent7/gaussian/g16-A.03/g16-haswell/g16/l302.exe)
 NPDir=0 NMtPBC=     1 NCelOv=     1 NCel=       1 NClECP=     1 NCelD=      1
         NCelK=      1 NCelE2=     1 NClLst=     1 CellRange=     0.0.
 One-electron integrals computed using PRISM.
 One-electron integral symmetry used in STVInt
 NBasis=   146 RedAO= T EigKep=  3.05D-03  NBF=   146
 NBsUse=   146 1.00D-06 EigRej= -1.00D+00 NBFU=   146
 Precomputing XC quadrature grid using
 IXCGrd= 4 IRadAn=           5 IRanWt=          -1 IRanGd=           0 AccXCQ= 0.00D+00.
 Generated NRdTot=       0 NPtTot=           0 NUsed=           0 NTot=          32
 NSgBfM=   146   146   146   146   146 MxSgAt=    21 MxSgA2=    21.
 Leave Link  302 at Mon Oct 14 00:15:03 2019, MaxMem= 10737418240 cpu:               3.2 elap:               0.2
 (Enter /apps/cent7/gaussian/g16-A.03/g16-haswell/g16/l303.exe)
 DipDrv:  MaxL=1.
 Leave Link  303 at Mon Oct 14 00:15:03 2019, MaxMem= 10737418240 cpu:               0.6 elap:               0.0
 (Enter /apps/cent7/gaussian/g16-A.03/g16-haswell/g16/l401.exe)
 Initial guess from the checkpoint file:  "11.chk"
 B after Tr=     0.000000   -0.000000   -0.000000
         Rot=    0.999996   -0.002971   -0.000036    0.000280 Ang=  -0.34 deg.
 Guess basis will be translated and rotated to current coordinates.
 JPrj=2 DoOrth=T DoCkMO=T.
 Generating alternative initial guess.
 ExpMin= 1.61D-01 ExpMax= 5.48D+03 ExpMxC= 8.25D+02 IAcc=2 IRadAn=         4 AccDes= 0.00D+00
 Harris functional with IExCor=  402 and IRadAn=       4 diagonalized for initial guess.
 HarFok:  IExCor=  402 AccDes= 0.00D+00 IRadAn=         4 IDoV= 1 UseB2=F ITyADJ=14
 ICtDFT=  3500011 ScaDFX=  1.000000  1.000000  1.000000  1.000000
 FoFCou: FMM=F IPFlag=           0 FMFlag=      100000 FMFlg1=           0
         NFxFlg=           0 DoJE=T BraDBF=F KetDBF=T FulRan=T
         wScrn=  0.000000 ICntrl=       500 IOpCl=  0 I1Cent=   200000004 NGrid=           0
         NMat0=    1 NMatS0=      1 NMatT0=    0 NMatD0=    1 NMtDS0=    0 NMtDT0=    0
 Petite list used in FoFCou.
 Harris En= -366.394912263518    
 Leave Link  401 at Mon Oct 14 00:15:03 2019, MaxMem= 10737418240 cpu:               6.3 elap:               0.3
 (Enter /apps/cent7/gaussian/g16-A.03/g16-haswell/g16/l502.exe)
 Integral symmetry usage will be decided dynamically.
 Closed shell SCF:
 Using DIIS extrapolation, IDIIS=  1040.
 NGot= 10737418240 LenX= 10737370201 LenY= 10737348444
 Requested convergence on RMS density matrix=1.00D-08 within 128 cycles.
 Requested convergence on MAX density matrix=1.00D-06.
 Requested convergence on             energy=1.00D-06.
 No special actions if energy rises.
 Fock matrices will be formed incrementally for  20 cycles.
 Integral accuracy reduced to 1.0D-05 until final iterations.

 Cycle   1  Pass 0  IDiag  1:
 FoFJK:  IHMeth= 1 ICntrl=       0 DoSepK=F KAlg= 0 I1Cent=           0 FoldK=F
 IRaf= 960000000 NMat=       1 IRICut=       1 DoRegI=T DoRafI=F ISym2E= 0 IDoP0=0 IntGTp=1.
 FoFCou: FMM=F IPFlag=           0 FMFlag=      100000 FMFlg1=           0
         NFxFlg=           0 DoJE=F BraDBF=F KetDBF=F FulRan=T
         wScrn=  0.000000 ICntrl=         0 IOpCl=  0 I1Cent=           0 NGrid=           0
         NMat0=    1 NMatS0=      1 NMatT0=    0 NMatD0=    1 NMtDS0=    0 NMtDT0=    0
 Symmetry not used in FoFCou.
 E= -366.353760623283    
 DIIS: error= 2.37D-03 at cycle   1 NSaved=   1.
 NSaved= 1 IEnMin= 1 EnMin= -366.353760623283     IErMin= 1 ErrMin= 2.37D-03
 ErrMax= 2.37D-03  0.00D+00 EMaxC= 1.00D-01 BMatC= 3.01D-03 BMatP= 3.01D-03
 IDIUse=3 WtCom= 9.76D-01 WtEn= 2.37D-02
 Coeff-Com:  0.100D+01
 Coeff-En:   0.100D+01
 Coeff:      0.100D+01
 Gap=     1.636 Goal=   None    Shift=    0.000
 GapD=    1.636 DampG=2.000 DampE=1.000 DampFc=2.0000 IDamp=-1.
 RMSDP=6.57D-04 MaxDP=1.60D-02              OVMax= 2.68D-02

 Cycle   2  Pass 0  IDiag  1:
 RMSU=  6.57D-04    CP:  1.00D+00
 E= -366.358839229780     Delta-E=       -0.005078606497 Rises=F Damp=F
 DIIS: error= 1.43D-03 at cycle   2 NSaved=   2.
 NSaved= 2 IEnMin= 2 EnMin= -366.358839229780     IErMin= 2 ErrMin= 1.43D-03
 ErrMax= 1.43D-03  0.00D+00 EMaxC= 1.00D-01 BMatC= 2.48D-04 BMatP= 3.01D-03
 IDIUse=3 WtCom= 9.86D-01 WtEn= 1.43D-02
 Coeff-Com:  0.738D-01 0.926D+00
 Coeff-En:   0.000D+00 0.100D+01
 Coeff:      0.728D-01 0.927D+00
 Gap=     0.265 Goal=   None    Shift=    0.000
 RMSDP=2.07D-04 MaxDP=7.06D-03 DE=-5.08D-03 OVMax= 5.54D-03

 Cycle   3  Pass 0  IDiag  1:
 RMSU=  2.07D-04    CP:  1.00D+00  1.01D+00
[...]
 .00022607,-0.00011261,0.00008250,0.00005952,0.00056156,-0.00024537,0.0
 0024489,0.00022267,0.00112344,-0.00020728,0.00012461,0.00155359,0.0004
 4391,0.08737496,-0.16960154,0.23012061,0.00196557,0.00053717,0.0006473
 8,0.00459377,-0.01293407,0.00850288,-0.09843333,0.06860063,-0.07718799
 ,0.00301183,-0.00237715,0.00468855,-0.00003594,0.00014883,-0.00039877,
 -0.00012591,-0.00024237,0.00011272,0.00149646,0.00148898,-0.00082880,-
 0.01695374,0.01985216,-0.02154876,0.00024266,-0.00038453,-0.00025313,-
 0.00099501,-0.00360396,0.00102424,0.10827793,0.00010075,0.00357336,-0.
 00124155,0.01426912,-0.03186508,0.02077459,0.06146015,-0.13007840,0.09
 543564,-0.00460853,0.00687386,-0.00839715,-0.00014175,0.00112970,-0.00
 003381,0.00002334,0.00003608,-0.00003398,-0.00058863,0.00047672,-0.000
 30382,0.00168669,-0.00097426,0.00079962,-0.00012096,-0.00061222,0.0003
 6681,-0.00342120,-0.00571489,0.00014025,-0.06915867,0.15603694,0.00089
 344,-0.00092820,0.00033476,0.00252253,-0.00144276,0.00477581,-0.076735
 99,0.09925572,-0.16728381,-0.01404196,0.01728778,-0.02415679,-0.000023
 14,0.00184838,0.00065039,0.00006339,-0.00028611,-0.00001449,-0.0003169
 3,0.00009103,0.00001935,0.00388952,-0.00468226,0.00472584,0.00003983,0
 .00037050,-0.00028893,-0.00049727,-0.00124929,0.00130959,0.08133622,-0
 .10521229,0.18141396,-0.00017129,-0.00052432,-0.00008873,-0.00000664,0
 .00002937,-0.00035052,0.00100789,-0.00309129,0.00319406,-0.08906471,0.
 06063139,-0.06294583,0.00504909,-0.00978489,0.01020156,0.00123152,-0.0
 0037989,0.00080837,-0.00006937,-0.00002213,0.00006242,0.00064089,-0.00
 067895,0.00061002,-0.00001906,-0.00004085,0.00006157,0.00009058,-0.000
 43770,-0.00046423,0.00080616,0.00009204,0.00091784,0.09141240,0.000117
 51,-0.00003598,0.00000478,-0.00020947,0.00284992,-0.00025532,-0.004984
 98,0.00602841,-0.00965156,0.05983851,-0.14345329,0.10318707,0.01195741
 ,-0.02176110,0.02111599,0.00179819,0.00104611,0.00030649,-0.00026821,-
 0.00010353,-0.00016546,-0.00028190,0.00030989,0.00035604,-0.00004635,0
 .00000593,-0.00000274,0.00039920,-0.00006964,0.00076992,0.00016105,-0.
 00040826,-0.00263060,-0.06502095,0.16055610,-0.00014321,-0.00032368,-0
 .00012489,0.00061365,0.00159926,0.00261775,-0.01313462,0.02099395,-0.0
 2539536,-0.06292063,0.10308081,-0.15940196,0.00163460,-0.00289042,0.00
 281110,-0.00011842,0.00017021,-0.00017776,0.00022374,-0.00011220,-0.00
 005815,-0.00182500,0.00093039,0.00100572,0.00003234,0.00005585,-0.0000
 3463,-0.00002332,-0.00176088,0.00033266,0.00145415,-0.00282372,-0.0055
 1630,0.07088603,-0.11277006,0.17687656,0.00005830,-0.00158659,-0.00164
 694,-0.00109492,0.00016690,0.00057570,-0.00394260,0.00126912,0.0010591
 6,-0.30485035,0.02184197,0.04626213,-0.01220445,0.00135265,0.00185906,
 0.00064707,-0.00333915,-0.00060081,0.00033578,0.00014364,-0.00033949,0
 .00113376,0.00011630,0.00121102,0.00019540,-0.00028505,-0.00032771,-0.
 00010188,0.00005465,0.00013092,0.00058004,-0.00001851,0.00035102,-0.01
 122901,0.00128093,0.00159049,0.33001066,-0.00066819,-0.00091149,-0.000
 10331,0.00075509,0.00060223,0.00070013,0.01323736,-0.00111834,-0.00129
 516,0.02045871,-0.05134277,-0.00168052,-0.03174052,0.00284953,0.005990
 97,-0.00110090,-0.00619762,-0.00091156,-0.00005489,-0.00033019,-0.0003
 1932,-0.00021990,-0.00088459,-0.00303748,-0.00021094,0.00038882,0.0002
 4417,0.00016168,-0.00011807,-0.00001522,-0.00068439,0.00029809,0.00017
 416,0.02098507,-0.00192199,-0.00417985,-0.02078205,0.05538510,-0.00147
 901,-0.00001911,0.00023582,0.00068735,0.00126008,0.00128250,0.03309622
 ,-0.00260644,-0.00607639,0.04423669,-0.00211329,-0.05788684,-0.0036483
 3,0.00111575,-0.00005638,-0.00053205,-0.00094154,0.00041232,-0.0004988
 2,-0.00038018,0.00007547,-0.00113493,-0.00275867,-0.00567784,-0.000117
 95,0.00021591,0.00007802,-0.00011903,-0.00024878,-0.00005456,-0.000225
 12,0.00063900,0.00115375,-0.02248065,0.00152983,0.00418309,-0.05024995
 ,0.00437259,0.06188124,0.00004217,0.00020060,0.00012476,0.00039626,-0.
 00129397,-0.00128249,-0.00141376,-0.00258186,0.00117760,0.00176907,-0.
 00492822,-0.01555906,-0.05275612,0.01186788,0.02905143,-0.00393732,0.0
 1209327,0.03275562,-0.00717959,-0.00035178,-0.00062404,-0.00029684,-0.
 00046344,-0.00019387,0.00006421,0.00000619,0.00003611,-0.00005425,0.00
 003863,0.00002775,-0.00005513,0.00017351,0.00036430,0.00041184,0.00048
 789,0.00049848,0.00033587,0.00068182,-0.00027183,0.05832666,-0.0001677
 5,0.00027091,0.00028105,0.00024034,-0.00193225,-0.00269245,-0.00337564
 ,-0.00403114,0.00343622,0.00358361,-0.01197027,-0.03016422,0.01207261,
 -0.07913883,-0.08143947,0.00081938,-0.00111556,-0.00116318,0.00029312,
 0.00052751,0.00027187,-0.00037497,0.00026560,0.00040037,0.00011750,-0.
 00001239,0.00007891,0.00001416,0.00022310,0.00006666,-0.00012646,0.000
 23812,-0.00029085,0.00083913,0.00102075,0.00033905,0.00002352,0.001239
 97,0.00043914,-0.01093770,0.08576939,-0.00020218,0.00002124,0.00008629
 ,0.00042704,-0.00012334,-0.00027023,-0.00055281,-0.00037052,0.00149930
 ,-0.00029016,0.00006757,-0.00111936,0.02971429,-0.08195625,-0.27293833
 ,-0.00005972,-0.00134194,-0.00535663,0.00214213,0.00029631,0.00118103,
 -0.00016544,0.00039137,0.00026719,0.00005826,0.00000864,0.00002556,-0.
 00001909,-0.00002490,-0.00002467,0.00001396,0.00014400,0.00038289,0.00
 002063,-0.00042237,0.00074750,-0.00050695,-0.00022050,0.00014151,-0.03
 339924,0.09038129,0.29404566,-0.00003411,0.00001932,-0.00002281,0.0000
 1365,0.00000681,0.00006595,0.00019894,0.00045688,0.00033669,0.00672708
 ,-0.01103003,0.01036930,-0.09572498,0.07102293,-0.06672898,-0.01729718
 ,0.02230928,-0.02187319,0.00137158,-0.00006819,-0.00169046,-0.00012122
 ,-0.00005793,0.00021252,0.00000422,0.00000923,-0.00000413,-0.00006680,
 0.00012195,0.00002416,0.00006337,0.00020991,-0.00003447,-0.00053698,-0
 .00361505,-0.00061690,0.00076027,0.00067205,0.00039730,0.00172695,-0.0
 0330223,0.00228141,0.10772612,-0.00008445,0.00005341,-0.00007330,-0.00
 044770,0.00013117,-0.00063663,0.00097422,0.00067223,0.00229949,0.01270
 832,-0.02176504,0.01945396,0.07108000,-0.15410262,0.09910397,0.0005593
 2,-0.00089508,0.00073914,-0.00005684,-0.00023744,0.00055140,-0.0000199
 6,-0.00010903,-0.00027322,0.00003012,-0.00007578,-0.00000716,0.0000090
 7,0.00049818,0.00008915,-0.00028023,0.00001313,-0.00126938,-0.00301628
 ,-0.00519973,-0.00113487,-0.00012914,0.00131088,0.00000569,-0.00557947
 ,0.00811706,-0.00659654,-0.07597678,0.16936452,0.00012943,-0.00003741,
 -0.00002016,0.00001493,0.00006225,0.00029060,0.00030534,-0.00074284,0.
 00049407,0.00188260,-0.00175319,0.00165579,-0.06713361,0.09922905,-0.1
 4846871,0.00312913,-0.00510300,0.00407548,0.00030409,-0.00050928,0.001
 01822,0.00004907,-0.00006275,0.00003688,-0.00004410,0.00002629,-0.0000
 0706,-0.00006557,-0.00006936,-0.00017586,-0.00013418,0.00007978,0.0004
 5818,0.00013462,-0.00077662,0.00102971,0.00030796,0.00041493,0.0001100
 6,-0.01374598,0.02051497,-0.01951653,0.07411520,-0.11091172,0.15765429
 ,0.00007388,-0.00001066,0.00001010,-0.00000375,-0.00012900,-0.00010814
 ,-0.00015869,-0.00009571,0.00017174,0.00154575,0.00151346,-0.00092605,
 -0.01755462,0.02043920,-0.02300785,-0.10006412,0.06247822,-0.07750470,
 0.00239633,-0.00347333,0.00461378,-0.00018530,0.00019851,-0.00046544,-
 0.00000821,0.00001870,-0.00000235,-0.00003403,-0.00003648,0.00000541,0
 .00007915,0.00004848,0.00021415,0.00000369,-0.00116890,0.00047649,0.00
 037093,-0.00008546,0.00048360,0.00144643,-0.00006899,0.00029601,-0.006
 63640,-0.00002974,0.00166706,0.11059704,0.00006165,0.00003216,-0.00001
 109,-0.00001474,0.00006215,0.00010372,-0.00007168,-0.00005658,-0.00018
 561,-0.00065197,0.00065188,-0.00046225,0.00156203,-0.00228122,0.001413
 42,0.06275889,-0.13356365,0.09725131,-0.00647294,0.00734710,-0.0098040
 0,-0.00023282,0.00127602,-0.00030105,-0.00001384,-0.00001015,-0.000002
 25,-0.00000011,-0.00004375,-0.00001014,0.00005629,-0.00011314,0.000052
 33,0.00006862,0.00057112,0.00009505,0.00003661,0.00010017,-0.00010614,
 0.00022566,-0.00003939,-0.00020083,0.00051775,0.00118795,-0.00064771,-
 0.07196444,0.14156640,-0.00007335,-0.00004880,0.00001520,-0.00008328,0
 .00001101,0.00002740,0.00016800,-0.00022284,-0.00008882,-0.00025609,-0
 .00008648,-0.00001530,0.00420514,-0.00475548,0.00549705,-0.07758926,0.
 09692223,-0.16436081,-0.01378274,0.01842636,-0.02407090,-0.00011944,0.
 00171637,0.00102563,-0.00000085,0.00001013,0.00000142,-0.00002159,-0.0
 0003768,0.00001027,0.00019622,0.00003711,0.00004774,-0.00029838,-0.000
 28784,0.00006939,-0.00005523,-0.00024223,0.00005307,-0.00060701,-0.000
 19394,0.00085033,0.00217251,-0.00003806,0.00083118,0.08287163,-0.10612
 434,0.18228360,0.00001389,-0.00006936,-0.00008633,0.00002779,-0.000262
 72,-0.00029519,-0.00004339,0.00069902,0.00093380,-0.00643240,0.0028264
 3,0.00157420,-0.01368527,-0.03142473,-0.00164609,-0.09266004,-0.095602
 30,-0.00569164,0.00214751,0.00564935,-0.00046081,0.00028968,0.00052434
 ,0.00123158,0.00006213,-0.00003161,-0.00002659,-0.00004480,0.00008096,
 0.00008906,0.00000434,-0.00002732,-0.00012030,0.00023160,0.00002765,0.
 00022035,-0.00082788,-0.00194539,-0.00029796,0.00122041,0.00025510,0.0
 0031425,0.00128710,0.00025173,-0.00072504,0.00664390,0.01402763,0.0014
 3419,0.10106551,-0.00025838,-0.00007644,0.00006347,0.00000732,0.000059
 14,0.00000945,0.00055810,0.00021563,0.00003893,0.00025921,0.00096497,0
 .00004479,0.00226767,0.00361612,0.00048795,-0.09627134,-0.26239149,-0.
 00977755,-0.00464766,-0.01123156,0.00044711,0.00121588,0.00062869,-0.0
 0327106,0.00003901,0.00000944,0.00001655,0.00003044,0.00002128,0.00001
 373,-0.00006466,-0.00000971,-0.00002668,0.00014889,0.00031082,-0.00011
 281,0.00009748,0.00008905,-0.00016096,-0.00055314,0.00025869,0.0004264
 8,-0.00054743,0.00070446,-0.00014773,-0.00735010,-0.01736786,-0.000524
 97,0.10522951,0.28342338,-0.00028698,-0.00003115,0.00011892,-0.0000468
 1,0.00023491,0.00017044,0.00078158,-0.00000654,-0.00040245,0.00182991,
 -0.00061818,0.00004646,0.00221476,0.00741085,-0.00021837,-0.00540189,-
 0.00897930,-0.05002062,-0.01370182,-0.02983941,-0.00158111,0.00179588,
 -0.00085998,-0.00610791,0.00001133,0.00001041,0.00002336,0.00005477,-0
 .00005157,-0.00004379,-0.00008517,0.00002296,0.00002718,-0.00016846,-0
 .00049351,0.00008493,0.00041080,0.00044098,0.00040176,-0.00033855,0.00
 034036,0.00003312,-0.00024962,-0.00045351,0.00023920,0.01005987,0.0208
 5627,0.00121178,0.00405679,0.01268542,0.05355644,-0.00067461,-0.000329
 21,0.00009332,-0.00059958,0.00034678,0.00015034,0.00129479,-0.00338170
 ,-0.00090849,0.00044864,0.00009543,-0.00041909,0.00138897,0.00055884,0
 .00138645,-0.00301078,0.00045592,0.00008634,-0.29662323,0.02627799,0.0
 4325080,-0.01406434,0.00149284,0.00207917,0.00001040,0.00000956,0.0000
 8515,0.00000726,-0.00004194,0.00010739,0.00038173,-0.00000640,-0.00007
 897,-0.00002324,-0.00003840,0.00008084,-0.00004047,0.00005102,0.000011
 74,-0.00039531,-0.00009135,0.00006115,0.00026028,-0.00009922,-0.000119
 03,0.00058712,-0.00028262,0.00044414,0.00033868,0.00051007,0.00027199,
 0.32123404,-0.00125198,-0.00064133,0.00013124,-0.00125382,0.00106150,0
 .00012867,-0.00017999,-0.00643399,-0.00131621,0.00001878,-0.00025397,-
 0.00021542,-0.00055626,-0.00082885,-0.00310121,0.01358821,-0.00168879,
 -0.00113709,0.02701143,-0.05174534,-0.00352723,-0.03239909,0.00241349,
 0.00591319,-0.00006804,-0.00002859,0.00011679,0.00009144,0.00001096,0.
 00010381,-0.00003457,0.00014156,-0.00025984,0.00002416,0.00008201,0.00
 006862,0.00001899,0.00012557,0.00009608,0.00100486,0.00029058,-0.00046
 910,-0.00051790,0.00013301,0.00007877,-0.00058360,0.00050507,0.0002317
 9,0.00013573,0.00002658,0.00056394,-0.02703037,0.05648099,-0.00019002,
 -0.00006156,0.00002049,-0.00012426,-0.00001633,0.00041228,-0.00041369,
 -0.00074618,0.00013057,-0.00049468,-0.00037819,0.00011274,-0.00130343,
 -0.00269303,-0.00594389,0.03214657,-0.00301293,-0.00564325,0.04256985,
 -0.00334137,-0.05717429,-0.00321879,0.00107974,0.00007472,-0.00001491,
 0.00000681,0.00001988,-0.00000022,-0.00011092,-0.00000392,0.00044364,-
 0.00015166,0.00006727,0.00000177,0.00010641,0.00001057,-0.00000285,0.0
 0010858,0.00008555,0.00205867,-0.00016544,-0.00043628,0.00008074,-0.00
 024729,0.00017033,-0.00021257,0.00085672,0.00118310,-0.00054642,0.0000
 7503,0.00116626,-0.04782774,0.00649976,0.06117432,0.00003879,0.0001283
 1,-0.00010092,0.00018306,-0.00013052,0.00009743,0.00126050,-0.00054302
 ,0.00087242,-0.00011319,-0.00007190,0.00002056,0.00076010,-0.00074074,
 0.00062958,0.00116808,-0.00310962,0.00314545,-0.08604191,0.05755527,-0
 .06218560,0.00508045,-0.01029905,0.01091305,-0.00002875,-0.00000555,-0
 .00000547,-0.00007998,0.00011297,-0.00013762,-0.00006881,0.00004647,-0
 .00025643,-0.00009040,0.00010041,-0.00012632,-0.00002266,0.00003163,0.
 00001280,0.00008678,-0.00000650,-0.00013428,0.00024702,0.00019394,-0.0
 0002304,0.00088380,-0.00003787,0.00107884,0.00004236,-0.00012296,-0.00
 048839,-0.01170265,0.02062989,-0.02309208,0.08858030,-0.00032852,0.000
 01760,-0.00006405,0.00005665,0.00038083,-0.00031154,0.00207154,0.00023
 747,0.00053903,-0.00021681,-0.00001086,-0.00007765,-0.00051988,0.00029
 114,0.00029815,-0.00531610,0.00872639,-0.01070828,0.05723060,-0.145270
 40,0.10778059,0.01081949,-0.02183497,0.02110041,-0.00002558,-0.0000180
 1,0.00005020,0.00025054,0.00033269,-0.00024415,-0.00110949,0.00051738,
 -0.00031124,0.00006811,-0.00000219,-0.00018113,-0.00002367,0.00005712,
 0.00010706,-0.00026216,0.00002411,0.00006854,-0.00014555,0.00004047,0.
 00028306,0.00073778,-0.00008762,-0.00337250,-0.00027433,0.00095972,0.0
 0065636,0.00166146,-0.00221832,0.00184348,-0.06149747,0.16198857,0.000
 08643,0.00002389,-0.00001717,0.00022500,-0.00024299,0.00018996,-0.0002
 5226,0.00029479,-0.00024419,0.00029907,-0.00016940,-0.00004412,-0.0014
 9635,0.00111192,0.00113952,-0.01218774,0.01910415,-0.02402824,-0.06177
 345,0.10791522,-0.16785235,0.00140261,-0.00259074,0.00260068,0.0000009
 3,0.00003285,-0.00000952,-0.00010239,-0.00005887,-0.00002023,0.0004959
 0,0.00003726,0.00012972,-0.00013486,-0.00017554,0.00010945,0.00007018,
 0.00007521,-0.00000401,-0.00000569,-0.00039808,0.00045914,0.00118480,-
 0.00054869,0.00028077,0.00148574,-0.00304469,-0.00539910,-0.00024897,-
 0.00025142,0.00126413,0.00138359,-0.00405699,0.00436178,0.06966570,-0.
 11629222,0.18520664,0.00050409,-0.00076767,0.00063495,0.00109030,0.001
 78071,-0.00060657,-0.01710569,0.02295468,-0.02291760,0.00146031,-0.000
 22923,-0.00195326,-0.00014718,-0.00007208,0.00018884,0.00023108,0.0006
 6413,0.00036341,0.00666766,-0.01165709,0.01064586,-0.09434774,0.069265
 30,-0.06522142,0.00018904,0.00011670,-0.00008291,-0.00074636,-0.001103
 48,0.00075462,-0.00619914,-0.00016306,0.00202668,0.00023859,-0.0002996
 6,0.00112692,0.00021544,-0.00051684,0.00013145,0.00007977,0.00009701,0
 .00002232,-0.00004767,-0.00017382,-0.00002215,0.00004294,0.00027679,-0
 .00011119,-0.00008532,0.00016113,0.00019473,0.00086837,0.00063365,0.00
 040644,-0.00063519,-0.00367970,-0.00057531,0.10613237,0.00027721,-0.00
 001034,-0.00021770,-0.00080243,0.00064904,-0.00038593,0.00154114,-0.00
 239694,0.00171373,-0.00000346,-0.00007420,0.00071756,-0.00012853,-0.00
 011084,-0.00033596,0.00097734,0.00112728,0.00157780,0.01255999,-0.0219
 0465,0.01991544,0.06869481,-0.15090854,0.09788326,-0.00004595,0.000007
 61,0.00000020,0.00025661,0.00048643,0.00007129,0.00030135,0.00054885,-
 0.00024883,0.00013440,0.00010112,-0.00065126,-0.00007257,0.00014519,-0
 .00023106,0.00008645,-0.00002894,-0.00007003,-0.00017825,0.00019100,0.
 00004654,-0.00025388,0.00009743,-0.00126287,-0.00034815,0.00049329,-0.
 00013699,-0.00013349,0.00138414,-0.00004293,-0.00312150,-0.00515004,-0
 .00105614,-0.07426996,0.16717425,-0.00003608,-0.00020819,-0.00000604,-
 0.00003307,-0.00012615,0.00026130,0.00248393,-0.00466182,0.00365721,0.
 00024954,-0.00071665,0.00091461,0.00012961,-0.00002776,0.00004701,0.00
 035283,-0.00061815,0.00078207,0.00143154,-0.00165899,0.00111643,-0.065
 13968,0.09834710,-0.14896159,-0.00000354,-0.00002207,-0.00004572,-0.00
 070299,-0.00009777,0.00042883,0.00145287,-0.00024305,0.00085110,0.0001
 5703,0.00017844,0.00035131,-0.00009010,0.00004980,0.00013745,-0.000026
 96,0.00000854,-0.00000929,-0.00004497,0.00001078,-0.00014924,-0.000184
 14,0.00012440,0.00043034,0.00004136,0.00008393,0.00017395,0.00039165,0
 .00035160,0.00007079,0.00012665,-0.00073990,0.00112604,0.07278874,-0.1
 1067639,0.15785544,0.00066591,0.00002661,-0.00081745,0.00145701,0.0007
 3995,0.00030103,-0.00440573,0.01198505,0.03343555,-0.00689357,-0.00075
 053,-0.00055885,-0.00026683,-0.00052314,-0.00019938,-0.00138227,-0.003
 14385,0.00059313,0.00179060,-0.00468560,-0.01548667,-0.05225149,0.0112
 3688,0.02531704,-0.00016850,-0.00009354,-0.00001858,-0.00010340,-0.000
 01211,-0.00007057,0.00136398,0.00014457,-0.00051346,0.00008645,-0.0002
 3488,0.00007033,-0.00032932,0.00097504,0.00199847,0.00018190,0.0000961
 0,-0.00002157,0.00007873,0.00008691,-0.00002671,-0.00002585,0.00015111
 ,0.00042774,0.00040421,-0.00070904,-0.00091472,0.00031392,0.00071848,-
 0.00026603,0.00045231,0.00050308,0.00047707,0.00159432,-0.00547113,-0.
 01334421,0.05743762,0.00023991,-0.00022478,-0.00004579,-0.00071176,0.0
 0057212,0.00112841,0.00137102,-0.00191114,-0.00300831,0.00040066,0.000
 29895,0.00057070,-0.00036498,0.00024306,0.00023384,-0.00346157,-0.0049
 4997,0.00184274,0.00393549,-0.01083526,-0.02874920,0.01191024,-0.08096
 205,-0.08366539,-0.00001344,0.00008997,-0.00004671,-0.00004746,0.00003
 666,0.00013519,-0.00014590,-0.00010781,-0.00024160,-0.00002394,0.00007
 358,-0.00039227,-0.00016602,0.00023336,-0.00021495,0.00008496,0.000022
 99,-0.00000913,0.00009325,-0.00003273,0.00002597,-0.00018407,0.0001659
 2,-0.00015697,0.00027846,-0.00070423,-0.00175233,-0.00002520,0.0011837
 1,0.00039131,0.00088783,0.00101891,0.00029048,-0.00301752,0.00817888,0
 .02064230,-0.01103995,0.08760988,-0.00003604,0.00033993,0.00060299,-0.
 00117828,0.00004111,0.00021396,0.00049662,-0.00192096,-0.00678246,0.00
 225388,-0.00009494,0.00108723,-0.00006834,0.00042241,0.00015288,-0.000
 53542,-0.00046804,0.00133385,-0.00022897,0.00042645,-0.00054397,0.0273
 2972,-0.08364003,-0.27599016,0.00017250,0.00000929,-0.00003021,0.00006
 318,-0.00028937,-0.00019315,0.00029318,-0.00003599,0.00091280,-0.00012
 426,0.00007663,0.00047930,-0.00000840,-0.00056638,-0.00047558,-0.00004
 000,-0.00005080,-0.00004821,0.00002495,-0.00006317,-0.00000718,0.00005
 565,0.00014686,0.00039742,0.00024977,-0.00011965,-0.00014368,-0.000530
 73,-0.00020116,0.00014098,-0.00001230,-0.00042422,0.00075110,0.0022054
 4,-0.00660972,-0.01903199,-0.03038216,0.09302173,0.29717406\\0.0004651
 8,-0.00007189,-0.00016522,-0.00068436,-0.00003830,0.00015532,0.0002083
 4,-0.00004541,-0.00004565,0.00002119,0.00004964,0.00011531,-0.00001951
 ,-0.00001283,-0.00002849,0.00001958,-0.00001131,0.00006510,-0.00003447
 ,-0.00000754,-0.00003411,-0.00004246,0.00006369,0.00004043,-0.00006418
 ,0.00000431,-0.00002415,0.00010792,0.00005026,0.00000417,-0.00000227,0
 .00001608,0.00000059,-0.00001050,-0.00000395,-0.00001836,-0.00001195,0
 .00001017,-0.00001270,0.00001081,-0.00001730,0.00001069,0.00001036,0.0
 0000189,0.00000078,-0.00000828,0.00000530,-0.00001173,-0.00001141,0.00
 001306,-0.00001443,0.00002019,0.00000522,0.00001578,0.00000038,-0.0000
 1239,0.00001687,-0.00000072,0.00001667,-0.00001814,0.00002618,-0.00001
 537,-0.00005208\\\@


 TIME IS NATURE'S WAY OF MAKING SURE EVERYTHING
 DOESN'T HAPPEN AT ONCE.
                     - WOODY ALLEN
 Job cpu time:       0 days  0 hours  9 minutes 24.3 seconds.
 Elapsed time:       0 days  0 hours  0 minutes 24.1 seconds.
 File lengths (MBytes):  RWF=     58 Int=      0 D2E=      0 Chk=      3 Scr=      1
 Normal termination of Gaussian 16 at Mon Oct 14 00:16:15 2019.
real 79.09
user 1718.84
sys 14.83
Machine:
brown-a462
brown-a462
brown-a462
brown-a462
brown-a462
brown-a462
brown-a462
brown-a462
brown-a462
brown-a462
brown-a462
brown-a462
brown-a462
brown-a462
brown-a462
brown-a462
brown-a462
brown-a462
brown-a462
brown-a462
brown-a462
brown-a462
brown-a462
brown-a462
