Title Card Required                                                     
Freq      RB3LYP                                                      6-31G(d)            
Number of atoms                            I               22
Info1-9                                    I   N=           9
          54          54        1002           0           0         100
           6          18        -502
Full Title                                 C   N=           2
Title Card Required     
Route                                      C   N=           6
#P opt freq b3lyp/6-31g(d) geom=connectivity temperature=0.0
01          
Charge                                     I                1
Multiplicity                               I                1
Number of electrons                        I               64
Number of alpha electrons                  I               32
Number of beta electrons                   I               32
Number of basis functions                  I              148
Number of independent functions            I              148
Number of point charges in /Mol/           I                0
Number of translation vectors              I                0
Atomic numbers                             I   N=          22
           8           7           6           6           6           6
           6           6           1           1           1           1
           1           1           1           1           1           1
           1           1           1           1
Nuclear charges                            R   N=          22
  8.00000000E+00  7.00000000E+00  6.00000000E+00  6.00000000E+00  6.00000000E+00
  6.00000000E+00  6.00000000E+00  6.00000000E+00  1.00000000E+00  1.00000000E+00
  1.00000000E+00  1.00000000E+00  1.00000000E+00  1.00000000E+00  1.00000000E+00
  1.00000000E+00  1.00000000E+00  1.00000000E+00  1.00000000E+00  1.00000000E+00
  1.00000000E+00  1.00000000E+00
Current cartesian coordinates              R   N=          66
  5.55499723E+00  8.02337049E-01 -2.27779999E-01  3.66545370E+00 -9.65897291E-01
  4.41225935E-01  9.90600830E-01 -3.91910272E-01 -4.99655317E-01  1.13922644E-01
  2.16655412E+00  5.12122918E-01 -2.62526820E+00  2.66564661E+00 -3.48149633E-01
 -4.40240598E+00  5.05638830E-01  4.22892273E-01 -3.45431178E+00 -2.05560651E+00
 -5.56836768E-01 -7.19149828E-01 -2.58909236E+00  3.06040103E-01  5.51800990E+00
  9.10187181E-01 -2.07430573E+00  4.23659928E+00 -2.75108343E+00 -9.45134079E-02
  1.17707690E+00 -3.55880414E-01 -2.56545289E+00  1.87434126E-01  2.13238237E+00
  2.58956648E+00  1.37363953E+00  3.67747598E+00 -1.25728166E-01 -3.25447919E+00
  4.45979749E+00  4.65426934E-01 -2.66170858E+00  2.90948650E+00 -2.40941170E+00
 -4.56317880E+00  4.41754372E-01  2.49201866E+00 -6.30556092E+00  8.67236303E-01
 -3.03439233E-01 -4.66426579E+00 -3.59464710E+00  1.09645481E-01 -3.53124877E+00
 -2.09569247E+00 -2.63027459E+00 -6.80021901E-01 -2.77060339E+00  2.37590476E+00
 -4.95208752E-02 -4.38129437E+00 -4.97471308E-01  3.69874520E+00 -9.13916874E-01
  2.38321172E+00
Number of symbols in /Mol/                 I                0
Force Field                                I                0
Atom Types                                 C   N=          22
                                                            
                                                            
                                                            
                                                            
                        
Int Atom Types                             I   N=          22
           0           0           0           0           0           0
           0           0           0           0           0           0
           0           0           0           0           0           0
           0           0           0           0
MM charges                                 R   N=          22
  0.00000000E+00  0.00000000E+00  0.00000000E+00  0.00000000E+00  0.00000000E+00
  0.00000000E+00  0.00000000E+00  0.00000000E+00  0.00000000E+00  0.00000000E+00
  0.00000000E+00  0.00000000E+00  0.00000000E+00  0.00000000E+00  0.00000000E+00
  0.00000000E+00  0.00000000E+00  0.00000000E+00  0.00000000E+00  0.00000000E+00
  0.00000000E+00  0.00000000E+00
Integer atomic weights                     I   N=          22
          16          14          12          12          12          12
          12          12           1           1           1           1
           1           1           1           1           1           1
           1           1           1           1
Real atomic weights                        R   N=          22
  1.59949146E+01  1.40030740E+01  1.20000000E+01  1.20000000E+01  1.20000000E+01
  1.20000000E+01  1.20000000E+01  1.20000000E+01  1.00782504E+00  1.00782504E+00
  1.00782504E+00  1.00782504E+00  1.00782504E+00  1.00782504E+00  1.00782504E+00
  1.00782504E+00  1.00782504E+00  1.00782504E+00  1.00782504E+00  1.00782504E+00
  1.00782504E+00  1.00782504E+00
Atom fragment info                         I   N=          22
           0           0           0           0           0           0
           0           0           0           0           0           0
           0           0           0           0           0           0
           0           0           0           0
Atom residue num                           I   N=          22
           0           0           0           0           0           0
           0           0           0           0           0           0
           0           0           0           0           0           0
           0           0           0           0
Nuclear spins                              I   N=          22
           0           2           0           0           0           0
           0           0           1           1           1           1
           1           1           1           1           1           1
           1           1           1           1
Nuclear ZEff                               R   N=          22
 -5.60000000E+00 -4.55000000E+00 -3.60000000E+00 -3.60000000E+00 -3.60000000E+00
 -3.60000000E+00 -3.60000000E+00 -3.60000000E+00 -1.00000000E+00 -1.00000000E+00
 -1.00000000E+00 -1.00000000E+00 -1.00000000E+00 -1.00000000E+00 -1.00000000E+00
 -1.00000000E+00 -1.00000000E+00 -1.00000000E+00 -1.00000000E+00 -1.00000000E+00
 -1.00000000E+00 -1.00000000E+00
Nuclear ZNuc                               R   N=          22
  8.00000000E+00  7.00000000E+00  6.00000000E+00  6.00000000E+00  6.00000000E+00
  6.00000000E+00  6.00000000E+00  6.00000000E+00  1.00000000E+00  1.00000000E+00
  1.00000000E+00  1.00000000E+00  1.00000000E+00  1.00000000E+00  1.00000000E+00
  1.00000000E+00  1.00000000E+00  1.00000000E+00  1.00000000E+00  1.00000000E+00
  1.00000000E+00  1.00000000E+00
Nuclear QMom                               R   N=          22
  0.00000000E+00  2.04400000E+00  0.00000000E+00  0.00000000E+00  0.00000000E+00
  0.00000000E+00  0.00000000E+00  0.00000000E+00  0.00000000E+00  0.00000000E+00
  0.00000000E+00  0.00000000E+00  0.00000000E+00  0.00000000E+00  0.00000000E+00
  0.00000000E+00  0.00000000E+00  0.00000000E+00  0.00000000E+00  0.00000000E+00
  0.00000000E+00  0.00000000E+00
Nuclear GFac                               R   N=          22
  0.00000000E+00  4.03761000E-01  0.00000000E+00  0.00000000E+00  0.00000000E+00
  0.00000000E+00  0.00000000E+00  0.00000000E+00  2.79284600E+00  2.79284600E+00
  2.79284600E+00  2.79284600E+00  2.79284600E+00  2.79284600E+00  2.79284600E+00
  2.79284600E+00  2.79284600E+00  2.79284600E+00  2.79284600E+00  2.79284600E+00
  2.79284600E+00  2.79284600E+00
MicOpt                                     I   N=          22
          -1          -1          -1          -1          -1          -1
          -1          -1          -1          -1          -1          -1
          -1          -1          -1          -1          -1          -1
          -1          -1          -1          -1
Number of residues                         I                0
Number of secondary structures             I                0
Redundant internal dimensions              I   N=           4
         131          22          43          66
Redundant internal coordinate indices      I   N=         524
           1           2           0           0           1           9
           0           0           2           3           0           0
           2          10           0           0           2          22
           0           0           3           4           0           0
           3           8           0           0           3          11
           0           0           4           5           0           0
           4          12           0           0           4          13
           0           0           5           6           0           0
           5          14           0           0           5          15
           0           0           6           7           0           0
           6          16           0           0           6          17
           0           0           7           8           0           0
           7          18           0           0           7          19
           0           0           8          20           0           0
           8          21           0           0           2           1
           9           0           1           2           3           0
           1           2          10           0           1           2
          22           0           3           2          10           0
           3           2          22           0          10           2
          22           0           2           3           4           0
           2           3           8           0           2           3
          11           0           4           3           8           0
           4           3          11           0           8           3
          11           0           3           4           5           0
           3           4          12           0           3           4
          13           0           5           4          12           0
           5           4          13           0          12           4
          13           0           4           5           6           0
           4           5          14           0           4           5
          15           0           6           5          14           0
           6           5          15           0          14           5
          15           0           5           6           7           0
           5           6          16           0           5           6
          17           0           7           6          16           0
           7           6          17           0          16           6
          17           0           6           7           8           0
           6           7          18           0           6           7
          19           0           8           7          18           0
           8           7          19           0          18           7
          19           0           3           8           7           0
           3           8          20           0           3           8
          21           0           7           8          20           0
           7           8          21           0          20           8
          21           0           9           1           2           3
           9           1           2          10           9           1
           2          22           1           2           3           4
           1           2           3           8           1           2
           3          11          10           2           3           4
          10           2           3           8          10           2
           3          11          22           2           3           4
          22           2           3           8          22           2
           3          11           2           3           4           5
           2           3           4          12           2           3
           4          13           8           3           4           5
           8           3           4          12           8           3
           4          13          11           3           4           5
          11           3           4          12          11           3
           4          13           2           3           8           7
           2           3           8          20           2           3
           8          21           4           3           8           7
           4           3           8          20           4           3
           8          21          11           3           8           7
          11           3           8          20          11           3
           8          21           3           4           5           6
           3           4           5          14           3           4
           5          15          12           4           5           6
          12           4           5          14          12           4
           5          15          13           4           5           6
          13           4           5          14          13           4
           5          15           4           5           6           7
           4           5           6          16           4           5
           6          17          14           5           6           7
          14           5           6          16          14           5
           6          17          15           5           6           7
          15           5           6          16          15           5
           6          17           5           6           7           8
           5           6           7          18           5           6
           7          19          16           6           7           8
          16           6           7          18          16           6
           7          19          17           6           7           8
          17           6           7          18          17           6
           7          19           6           7           8           3
           6           7           8          20           6           7
           8          21          18           7           8           3
          18           7           8          20          18           7
           8          21          19           7           8           3
          19           7           8          20          19           7
           8          21
Redundant internal coordinates             R   N=         131
  2.67293778E+00  1.85004243E+00  2.89301858E+00  1.94938797E+00  1.94296656E+00
  2.88755951E+00  2.89827562E+00  2.07450985E+00  2.91416003E+00  2.07902463E+00
  2.06800036E+00  2.90144066E+00  2.06804030E+00  2.07595450E+00  2.90150466E+00
  2.07634610E+00  2.06889075E+00  2.91723748E+00  2.06805059E+00  2.07525194E+00
  2.07817635E+00  2.07509556E+00  1.84860022E+00  2.02746013E+00  1.90700122E+00
  1.79297132E+00  1.94250191E+00  1.91303301E+00  1.86937822E+00  1.92042173E+00
  1.88032908E+00  1.81748498E+00  1.97707143E+00  1.93994652E+00  1.92092414E+00
  1.91100602E+00  1.90162562E+00  1.93300047E+00  1.90819170E+00  1.93519958E+00
  1.87409944E+00  1.94956636E+00  1.89487408E+00  1.90681519E+00  1.93367090E+00
  1.91830433E+00  1.85810951E+00  1.94688451E+00  1.91256315E+00  1.91773864E+00
  1.91200880E+00  1.91380425E+00  1.85876167E+00  1.94756488E+00  1.93577469E+00
  1.92016434E+00  1.89350298E+00  1.90366364E+00  1.86077123E+00  1.90947233E+00
  1.90920456E+00  1.93557315E+00  1.90522331E+00  1.92406544E+00  1.87985048E+00
 -9.87220587E-01  1.22753733E+00 -3.07506813E+00 -1.02895917E+00  3.09117732E+00
  1.05147557E+00  3.05727154E+00  8.94222714E-01 -1.14547903E+00  9.92600039E-01
 -1.17044878E+00  3.07303478E+00 -3.09669035E+00 -1.01051626E+00  1.04713819E+00
 -9.90922426E-01  1.09525167E+00 -3.13027919E+00  1.18252488E+00 -3.01448633E+00
 -9.56831886E-01  3.11977734E+00  1.03357081E+00 -1.03736985E+00  9.91450110E-01
 -1.09475642E+00  3.11748823E+00 -1.19227898E+00  3.00469980E+00  9.33759142E-01
  9.57764714E-01  3.09509868E+00 -1.16839400E+00 -1.12436650E+00  1.01296747E+00
  3.03266009E+00  3.09581109E+00 -1.05004025E+00  9.69652369E-01 -9.61652554E-01
  1.15872585E+00 -3.08784589E+00 -3.07662231E+00 -9.56243901E-01  1.08036966E+00
  1.15787062E+00 -3.00493628E+00 -9.68322713E-01  9.61920302E-01  3.07523054E+00
 -1.15355471E+00 -1.15877965E+00  9.54530595E-01  3.00893065E+00  3.09038615E+00
 -1.07948891E+00  9.74911144E-01 -9.57484338E-01  1.13117295E+00 -3.09043095E+00
 -3.09522456E+00 -1.00656727E+00  1.05501413E+00  1.16755646E+00 -3.02697156E+00
 -9.65390148E-01
ZRed-IntVec                                I   N=         131
           0           0           0           0           0           0
           0           0           0           0           0           0
           0           0           0           0           0           0
           0           0           0           0           0           0
           0           0           0           0           0           0
           0           0           0           0           0           0
           0           0           0           0           0           0
           0           0           0           0           0           0
           0           0           0           0           0           0
           0           0           0           0           0           0
           0           0           0           0           0           0
           0           0           0           0           0           0
           0           0           0           0           0           0
           0           0           0           0           0           0
           0           0           0           0           0           0
           0           0           0           0           0           0
           0           0           0           0           0           0
           0           0           0           0           0           0
           0           0           0           0           0           0
           0           0           0           0           0           0
           0           0           0           0           0           0
           0           0           0           0           0
ZRed-FPVec                                 R   N=         131
  0.00000000E+00  0.00000000E+00  0.00000000E+00  0.00000000E+00  0.00000000E+00
  0.00000000E+00  0.00000000E+00  0.00000000E+00  0.00000000E+00  0.00000000E+00
  0.00000000E+00  0.00000000E+00  0.00000000E+00  0.00000000E+00  0.00000000E+00
  0.00000000E+00  0.00000000E+00  0.00000000E+00  0.00000000E+00  0.00000000E+00
  0.00000000E+00  0.00000000E+00  0.00000000E+00  0.00000000E+00  0.00000000E+00
  0.00000000E+00  0.00000000E+00  0.00000000E+00  0.00000000E+00  0.00000000E+00
  0.00000000E+00  0.00000000E+00  0.00000000E+00  0.00000000E+00  0.00000000E+00
  0.00000000E+00  0.00000000E+00  0.00000000E+00  0.00000000E+00  0.00000000E+00
  0.00000000E+00  0.00000000E+00  0.00000000E+00  0.00000000E+00  0.00000000E+00
  0.00000000E+00  0.00000000E+00  0.00000000E+00  0.00000000E+00  0.00000000E+00
  0.00000000E+00  0.00000000E+00  0.00000000E+00  0.00000000E+00  0.00000000E+00
  0.00000000E+00  0.00000000E+00  0.00000000E+00  0.00000000E+00  0.00000000E+00
  0.00000000E+00  0.00000000E+00  0.00000000E+00  0.00000000E+00  0.00000000E+00
  0.00000000E+00  0.00000000E+00  0.00000000E+00  0.00000000E+00  0.00000000E+00
  0.00000000E+00  0.00000000E+00  0.00000000E+00  0.00000000E+00  0.00000000E+00
  0.00000000E+00  0.00000000E+00  0.00000000E+00  0.00000000E+00  0.00000000E+00
  0.00000000E+00  0.00000000E+00  0.00000000E+00  0.00000000E+00  0.00000000E+00
  0.00000000E+00  0.00000000E+00  0.00000000E+00  0.00000000E+00  0.00000000E+00
  0.00000000E+00  0.00000000E+00  0.00000000E+00  0.00000000E+00  0.00000000E+00
  0.00000000E+00  0.00000000E+00  0.00000000E+00  0.00000000E+00  0.00000000E+00
  0.00000000E+00  0.00000000E+00  0.00000000E+00  0.00000000E+00  0.00000000E+00
  0.00000000E+00  0.00000000E+00  0.00000000E+00  0.00000000E+00  0.00000000E+00
  0.00000000E+00  0.00000000E+00  0.00000000E+00  0.00000000E+00  0.00000000E+00
  0.00000000E+00  0.00000000E+00  0.00000000E+00  0.00000000E+00  0.00000000E+00
  0.00000000E+00  0.00000000E+00  0.00000000E+00  0.00000000E+00  0.00000000E+00
  0.00000000E+00  0.00000000E+00  0.00000000E+00  0.00000000E+00  0.00000000E+00
  0.00000000E+00
ZRed-Constraint1                           R   N=         131
  2.67293778E+00  1.85004243E+00  2.89301858E+00  1.94938797E+00  1.94296656E+00
  2.88755951E+00  2.89827562E+00  2.07450985E+00  2.91416003E+00  2.07902463E+00
  2.06800036E+00  2.90144066E+00  2.06804030E+00  2.07595450E+00  2.90150466E+00
  2.07634610E+00  2.06889075E+00  2.91723748E+00  2.06805059E+00  2.07525194E+00
  2.07817635E+00  2.07509556E+00  1.84860022E+00  2.02746013E+00  1.90700122E+00
  1.79297132E+00  1.94250191E+00  1.91303301E+00  1.86937822E+00  1.92042173E+00
  1.88032908E+00  1.81748498E+00  1.97707143E+00  1.93994652E+00  1.92092414E+00
  1.91100602E+00  1.90162562E+00  1.93300047E+00  1.90819170E+00  1.93519958E+00
  1.87409944E+00  1.94956636E+00  1.89487408E+00  1.90681519E+00  1.93367090E+00
  1.91830433E+00  1.85810951E+00  1.94688451E+00  1.91256315E+00  1.91773864E+00
  1.91200880E+00  1.91380425E+00  1.85876167E+00  1.94756488E+00  1.93577469E+00
  1.92016434E+00  1.89350298E+00  1.90366364E+00  1.86077123E+00  1.90947233E+00
  1.90920456E+00  1.93557315E+00  1.90522331E+00  1.92406544E+00  1.87985048E+00
 -9.87220587E-01  1.22753733E+00 -3.07506813E+00 -1.02895917E+00  3.09117732E+00
  1.05147557E+00  3.05727154E+00  8.94222714E-01 -1.14547903E+00  9.92600039E-01
 -1.17044878E+00  3.07303478E+00 -3.09669035E+00 -1.01051626E+00  1.04713819E+00
 -9.90922426E-01  1.09525167E+00 -3.13027919E+00  1.18252488E+00 -3.01448633E+00
 -9.56831886E-01  3.11977734E+00  1.03357081E+00 -1.03736985E+00  9.91450110E-01
 -1.09475642E+00  3.11748823E+00 -1.19227898E+00  3.00469980E+00  9.33759142E-01
  9.57764714E-01  3.09509868E+00 -1.16839400E+00 -1.12436650E+00  1.01296747E+00
  3.03266009E+00  3.09581109E+00 -1.05004025E+00  9.69652369E-01 -9.61652554E-01
  1.15872585E+00 -3.08784589E+00 -3.07662231E+00 -9.56243901E-01  1.08036966E+00
  1.15787062E+00 -3.00493628E+00 -9.68322713E-01  9.61920302E-01  3.07523054E+00
 -1.15355471E+00 -1.15877965E+00  9.54530595E-01  3.00893065E+00  3.09038615E+00
 -1.07948891E+00  9.74911144E-01 -9.57484338E-01  1.13117295E+00 -3.09043095E+00
 -3.09522456E+00 -1.00656727E+00  1.05501413E+00  1.16755646E+00 -3.02697156E+00
 -9.65390148E-01
ZRed-Constraint2                           R   N=         131
  2.56805672E+00  1.81406091E+00  2.79727419E+00  1.88972612E+00  1.88972612E+00
  2.94416753E+00  2.93999926E+00  2.05980109E+00  2.93009901E+00  2.05981092E+00
  2.05990134E+00  2.92831032E+00  2.05981096E+00  2.05986500E+00  2.92987506E+00
  2.05967195E+00  2.05990808E+00  2.93127237E+00  2.05993042E+00  2.05971371E+00
  2.05970439E+00  2.05981729E+00  1.91072455E+00  1.93813464E+00  1.90506246E+00
  1.90506246E+00  1.90506246E+00  1.90506246E+00  1.90519248E+00  1.94704389E+00
  1.90477977E+00  1.84711605E+00  1.93123024E+00  1.89579542E+00  1.93644994E+00
  1.95370947E+00  1.85598219E+00  1.85599162E+00  1.85284357E+00  1.85286980E+00
  2.09429756E+00  1.95479160E+00  1.85444180E+00  1.85435014E+00  1.85393892E+00
  1.85390826E+00  2.09441631E+00  1.95069354E+00  1.85480106E+00  1.85485188E+00
  1.85530831E+00  1.85521039E+00  2.09442033E+00  1.95658991E+00  1.85358512E+00
  1.85370421E+00  1.85389259E+00  1.85394156E+00  2.09437919E+00  1.95832716E+00
  1.85441078E+00  1.85442803E+00  1.85237614E+00  1.85231684E+00  2.09446648E+00
 -1.64503714E+00  4.56029030E-01  2.53708200E+00 -1.13780466E+00  3.00596860E+00
  9.21027121E-01  3.04431448E+00  9.04902435E-01 -1.18003905E+00  9.63261508E-01
 -1.17615054E+00  3.02209329E+00 -3.07602631E+00 -1.05988193E+00  1.19097773E+00
 -9.51847953E-01  1.06429642E+00 -2.96802922E+00  1.17780337E+00 -3.08923756E+00
 -8.38377894E-01  3.09461474E+00  1.07756466E+00 -1.17158133E+00  9.45750155E-01
 -1.07129992E+00  2.96273940E+00 -1.15987493E+00  3.10626030E+00  8.57114306E-01
  9.51911990E-01  2.96902145E+00 -1.06510696E+00 -1.06614423E+00  9.50965226E-01
 -3.08316318E+00  2.96999484E+00 -1.29608101E+00  9.52975891E-01 -9.29197827E-01
  1.08764505E+00 -2.94595344E+00 -2.94661322E+00 -9.29770343E-01  1.31981647E+00
  1.08808997E+00  3.10493285E+00 -9.28665641E-01  9.21564671E-01  2.93904360E+00
 -1.09604307E+00 -1.09496816E+00  9.22510769E-01 -3.11257590E+00  2.93810114E+00
 -1.32760524E+00  9.20493403E-01 -9.38587379E-01  1.07969558E+00 -2.95685590E+00
 -2.95587962E+00 -9.37596665E-01  1.30903717E+00  1.07887626E+00  3.09715921E+00
 -9.39392260E-01
SymInf integers                            I   N=          26
           1           1           1           1           1           0
           0           0           0           0           0           0
           0           0           0           0           0           0
           0           0           0           0           0           0
           0           0
RotTr to input orientation                 R   N=          12
  6.99572375E-01  6.94841829E-01  1.66713300E-01  5.96255879E-01 -4.39060873E-01
 -6.72089634E-01 -3.93798704E-01  5.69579127E-01 -7.21458383E-01 -1.63625588E+00
 -2.88548697E+00 -4.80664580E-01
Number of contracted shells                I               60
Number of primitive shells                 I              144
Pure/Cartesian d shells                    I                1
Pure/Cartesian f shells                    I                0
Highest angular momentum                   I                2
Largest degree of contraction              I                6
Shell types                                I   N=          60
           0          -1          -1           2           0          -1
          -1           2           0          -1          -1           2
           0          -1          -1           2           0          -1
          -1           2           0          -1          -1           2
           0          -1          -1           2           0          -1
          -1           2           0           0           0           0
           0           0           0           0           0           0
           0           0           0           0           0           0
           0           0           0           0           0           0
           0           0           0           0           0           0
Number of primitives per shell             I   N=          60
           6           3           1           1           6           3
           1           1           6           3           1           1
           6           3           1           1           6           3
           1           1           6           3           1           1
           6           3           1           1           6           3
           1           1           3           1           3           1
           3           1           3           1           3           1
           3           1           3           1           3           1
           3           1           3           1           3           1
           3           1           3           1           3           1
Shell to atom map                          I   N=          60
           1           1           1           1           2           2
           2           2           3           3           3           3
           4           4           4           4           5           5
           5           5           6           6           6           6
           7           7           7           7           8           8
           8           8           9           9          10          10
          11          11          12          12          13          13
          14          14          15          15          16          16
          17          17          18          18          19          19
          20          20          21          21          22          22
Primitive exponents                        R   N=         144
  5.48467166E+03  8.25234946E+02  1.88046958E+02  5.29645000E+01  1.68975704E+01
  5.79963534E+00  1.55396162E+01  3.59993359E+00  1.01376175E+00  2.70005823E-01
  8.00000000E-01  4.17351146E+03  6.27457911E+02  1.42902093E+02  4.02343293E+01
  1.28202129E+01  4.39043701E+00  1.16263619E+01  2.71627981E+00  7.72218397E-01
  2.12031498E-01  8.00000000E-01  3.04752488E+03  4.57369518E+02  1.03948685E+02
  2.92101553E+01  9.28666296E+00  3.16392696E+00  7.86827235E+00  1.88128854E+00
  5.44249258E-01  1.68714478E-01  8.00000000E-01  3.04752488E+03  4.57369518E+02
  1.03948685E+02  2.92101553E+01  9.28666296E+00  3.16392696E+00  7.86827235E+00
  1.88128854E+00  5.44249258E-01  1.68714478E-01  8.00000000E-01  3.04752488E+03
  4.57369518E+02  1.03948685E+02  2.92101553E+01  9.28666296E+00  3.16392696E+00
  7.86827235E+00  1.88128854E+00  5.44249258E-01  1.68714478E-01  8.00000000E-01
  3.04752488E+03  4.57369518E+02  1.03948685E+02  2.92101553E+01  9.28666296E+00
  3.16392696E+00  7.86827235E+00  1.88128854E+00  5.44249258E-01  1.68714478E-01
  8.00000000E-01  3.04752488E+03  4.57369518E+02  1.03948685E+02  2.92101553E+01
  9.28666296E+00  3.16392696E+00  7.86827235E+00  1.88128854E+00  5.44249258E-01
  1.68714478E-01  8.00000000E-01  3.04752488E+03  4.57369518E+02  1.03948685E+02
  2.92101553E+01  9.28666296E+00  3.16392696E+00  7.86827235E+00  1.88128854E+00
  5.44249258E-01  1.68714478E-01  8.00000000E-01  1.87311370E+01  2.82539436E+00