 Entering Gaussian System, Link 0=/apps/cent7/gaussian/g16-A.03/g16-haswell/g16/g16
 Initial command:
 /apps/cent7/gaussian/g16-A.03/g16-haswell/g16/l1.exe "/scratch/brown/finej/gaussian/Gau-201313.inp" -scrdir="/scratch/brown/finej/gaussian/"
 Entering Link 1 = /apps/cent7/gaussian/g16-A.03/g16-haswell/g16/l1.exe PID=    201314.
  
 Copyright (c) 1988,1990,1992,1993,1995,1998,2003,2009,2016,
            Gaussian, Inc.  All Rights Reserved.
  
 This is part of the Gaussian(R) 16 program.  It is based on
 the Gaussian(R) 09 system (copyright 2009, Gaussian, Inc.),
 the Gaussian(R) 03 system (copyright 2003, Gaussian, Inc.),
 the Gaussian(R) 98 system (copyright 1998, Gaussian, Inc.),
 the Gaussian(R) 94 system (copyright 1995, Gaussian, Inc.),
 the Gaussian 92(TM) system (copyright 1992, Gaussian, Inc.),
 the Gaussian 90(TM) system (copyright 1990, Gaussian, Inc.),
 the Gaussian 88(TM) system (copyright 1988, Gaussian, Inc.),
 the Gaussian 86(TM) system (copyright 1986, Carnegie Mellon
 University), and the Gaussian 82(TM) system (copyright 1983,
 Carnegie Mellon University). Gaussian is a federally registered
 trademark of Gaussian, Inc.
  
 This software contains proprietary and confidential information,
 including trade secrets, belonging to Gaussian, Inc.
  
 This software is provided under written license and may be
 used, copied, transmitted, or stored only in accord with that
 written license.
  
 The following legend is applicable only to US Government
 contracts under FAR:
  
                    RESTRICTED RIGHTS LEGEND
  
 Use, reproduction and disclosure by the US Government is
 subject to restrictions as set forth in subparagraphs (a)
 and (c) of the Commercial Computer Software - Restricted
 Rights clause in FAR 52.227-19.
  
 Gaussian, Inc.
 340 Quinnipiac St., Bldg. 40, Wallingford CT 06492
  
  
 ---------------------------------------------------------------
 Warning -- This program may not be used in any manner that
 competes with the business of Gaussian, Inc. or will provide
 assistance to any competitor of Gaussian, Inc.  The licensee
 of this program is prohibited from giving any competitor of
 Gaussian, Inc. access to this program.  By using this program,
 the user acknowledges that Gaussian, Inc. is engaged in the
 business of creating and licensing software in the field of
 computational chemistry and represents and warrants to the
 licensee that it is not a competitor of Gaussian, Inc. and that
 it will not use this program in any manner prohibited above.
 ---------------------------------------------------------------
  

 Cite this work as:
 Gaussian 16, Revision A.03,
 M. J. Frisch, G. W. Trucks, H. B. Schlegel, G. E. Scuseria, 
 M. A. Robb, J. R. Cheeseman, G. Scalmani, V. Barone, 
 G. A. Petersson, H. Nakatsuji, X. Li, M. Caricato, A. V. Marenich, 
 J. Bloino, B. G. Janesko, R. Gomperts, B. Mennucci, H. P. Hratchian, 
 J. V. Ortiz, A. F. Izmaylov, J. L. Sonnenberg, D. Williams-Young, 
 F. Ding, F. Lipparini, F. Egidi, J. Goings, B. Peng, A. Petrone, 
 T. Henderson, D. Ranasinghe, V. G. Zakrzewski, J. Gao, N. Rega, 
 G. Zheng, W. Liang, M. Hada, M. Ehara, K. Toyota, R. Fukuda, 
 J. Hasegawa, M. Ishida, T. Nakajima, Y. Honda, O. Kitao, H. Nakai, 
 T. Vreven, K. Throssell, J. A. Montgomery, Jr., J. E. Peralta, 
 F. Ogliaro, M. J. Bearpark, J. J. Heyd, E. N. Brothers, K. N. Kudin, 
 V. N. Staroverov, T. A. Keith, R. Kobayashi, J. Normand, 
 K. Raghavachari, A. P. Rendell, J. C. Burant, S. S. Iyengar, 
 J. Tomasi, M. Cossi, J. M. Millam, M. Klene, C. Adamo, R. Cammi, 
 J. W. Ochterski, R. L. Martin, K. Morokuma, O. Farkas, 
 J. B. Foresman, and D. J. Fox, Gaussian, Inc., Wallingford CT, 2016.
 
 ******************************************
 Gaussian 16:  ES64L-G16RevA.03 25-Dec-2016
                14-Oct-2019 
 ******************************************
 %chk=11_p.chk
 %nprocshared=24
 Will use up to   24 processors via shared memory.
 %mem=80GB
 --------------------------------------------------------------
 #P opt freq b3lyp/6-31g(d) geom=connectivity temperature=0.001
 --------------------------------------------------------------
 1/18=20,19=15,26=3,38=1,57=2,112=-1000/1,3;
 2/9=110,12=2,17=6,18=5,40=1/2;
 3/5=1,6=6,7=1,11=2,25=1,30=1,71=1,74=-5/1,2,3;
 4//1;
 5/5=2,38=5/2;
 6/7=2,8=2,9=2,10=2,28=1/1;
 7//1,2,3,16;
 1/18=20,19=15,26=3/3(2);
 2/9=110/2;
 99//99;
 2/9=110/2;
 3/5=1,6=6,7=1,11=2,25=1,30=1,71=1,74=-5/1,2,3;
 4/5=5,16=3,69=1/1;
 5/5=2,38=5/2;
 7//1,2,3,16;
 1/18=20,19=15,26=3/3(-5);
 2/9=110/2;
 6/7=2,8=2,9=2,10=2,19=2,28=1/1;
 99/9=1/99;
 Leave Link    1 at Mon Oct 14 00:20:26 2019, MaxMem= 10737418240 cpu:               0.8 elap:               0.0
 (Enter /apps/cent7/gaussian/g16-A.03/g16-haswell/g16/l101.exe)
 -------------------
 Title Card Required
 -------------------
 Symbolic Z-matrix:
 Charge =  1 Multiplicity = 1
 O                     1.4691    0.1099    0.0818 
 N                     0.1166    0.1616    0.2036 
 C                    -0.4743   -1.1945    0.149 
 C                    -0.2616   -1.8559   -1.2455 
 C                    -0.9574   -3.2381   -1.3433 
 C                    -2.4641   -3.1558   -0.9907 
 C                    -2.6964   -2.4816    0.386 
 C                    -1.99     -1.1044    0.4881 
 H                     1.8687    0.0945    0.9545 
 H                    -0.11807   0.58677   1.07776 
 H                     0.0583   -1.7813    0.8974 
 H                    -0.7617   -1.2126   -1.9695 
 H                     0.8078   -2.0476   -1.3341 
 H                    -0.9056   -3.5322   -2.3916 
 H                    -0.4994   -3.8649   -0.5781 
 H                    -2.9161   -2.4985   -1.7334 
 H                    -2.8109   -4.1843   -0.89 
 H                    -3.7659   -2.2807    0.4497 
 H                    -2.2178   -3.1248    1.1244 
 H                    -2.438    -0.4764   -0.2819 
 H                    -2.0512   -0.8096    1.5357 
 H                    -0.25901   0.71336  -0.54103 
 
 ITRead=  0  0  0  0  0  0  0  0  0  0  0  0  0  0  0  0  0  0  0  0
 ITRead=  0  0
 MicOpt= -1 -1 -1 -1 -1 -1 -1 -1 -1 -1 -1 -1 -1 -1 -1 -1 -1 -1 -1 -1
 MicOpt= -1 -1
 NAtoms=     22 NQM=       22 NQMF=       0 NMMI=      0 NMMIF=      0
                NMic=       0 NMicF=      0.
                    Isotopes and Nuclear Properties:
 (Nuclear quadrupole moments (NQMom) in fm**2, nuclear magnetic moments (NMagM)
  in nuclear magnetons)

  Atom         1           2           3           4           5           6           7           8           9          10
 IAtWgt=          16          14          12          12          12          12          12          12           1           1
 AtmWgt=  15.9949146  14.0030740  12.0000000  12.0000000  12.0000000  12.0000000  12.0000000  12.0000000   1.0078250   1.0078250
 NucSpn=           0           2           0           0           0           0           0           0           1           1
 AtZEff=  -0.0000000  -0.0000000  -0.0000000  -0.0000000  -0.0000000  -0.0000000  -0.0000000  -0.0000000  -0.0000000  -0.0000000
 NQMom=    0.0000000   2.0440000   0.0000000   0.0000000   0.0000000   0.0000000   0.0000000   0.0000000   0.0000000   0.0000000
 NMagM=    0.0000000   0.4037610   0.0000000   0.0000000   0.0000000   0.0000000   0.0000000   0.0000000   2.7928460   2.7928460
 AtZNuc=   8.0000000   7.0000000   6.0000000   6.0000000   6.0000000   6.0000000   6.0000000   6.0000000   1.0000000   1.0000000

  Atom        11          12          13          14          15          16          17          18          19          20
 IAtWgt=           1           1           1           1           1           1           1           1           1           1
 AtmWgt=   1.0078250   1.0078250   1.0078250   1.0078250   1.0078250   1.0078250   1.0078250   1.0078250   1.0078250   1.0078250
 NucSpn=           1           1           1           1           1           1           1           1           1           1
 AtZEff=  -0.0000000  -0.0000000  -0.0000000  -0.0000000  -0.0000000  -0.0000000  -0.0000000  -0.0000000  -0.0000000  -0.0000000
 NQMom=    0.0000000   0.0000000   0.0000000   0.0000000   0.0000000   0.0000000   0.0000000   0.0000000   0.0000000   0.0000000
 NMagM=    2.7928460   2.7928460   2.7928460   2.7928460   2.7928460   2.7928460   2.7928460   2.7928460   2.7928460   2.7928460
 AtZNuc=   1.0000000   1.0000000   1.0000000   1.0000000   1.0000000   1.0000000   1.0000000   1.0000000   1.0000000   1.0000000

  Atom        21          22
 IAtWgt=           1           1
 AtmWgt=   1.0078250   1.0078250
 NucSpn=           1           1
 AtZEff=  -0.0000000  -0.0000000
 NQMom=    0.0000000   0.0000000
 NMagM=    2.7928460   2.7928460
 AtZNuc=   1.0000000   1.0000000
 Leave Link  101 at Mon Oct 14 00:20:26 2019, MaxMem= 10737418240 cpu:               8.4 elap:               0.4
 (Enter /apps/cent7/gaussian/g16-A.03/g16-haswell/g16/l103.exe)

 GradGradGradGradGradGradGradGradGradGradGradGradGradGradGradGradGradGrad
 Berny optimization.
 Initialization pass.
                           ----------------------------
                           !    Initial Parameters    !
                           ! (Angstroms and Degrees)  !
 --------------------------                            --------------------------
 ! Name  Definition              Value          Derivative Info.                !
 --------------------------------------------------------------------------------
 ! R1    R(1,2)                  1.359          estimate D2E/DX2                !
 ! R2    R(1,9)                  0.96           estimate D2E/DX2                !
 ! R3    R(2,3)                  1.4803         estimate D2E/DX2                !
 ! R4    R(2,10)                 1.0            estimate D2E/DX2                !
 ! R5    R(2,22)                 1.0            estimate D2E/DX2                !
 ! R6    R(3,4)                  1.558          estimate D2E/DX2                !
 ! R7    R(3,8)                  1.5558         estimate D2E/DX2                !
 ! R8    R(3,11)                 1.09           estimate D2E/DX2                !
 ! R9    R(4,5)                  1.5505         estimate D2E/DX2                !
 ! R10   R(4,12)                 1.09           estimate D2E/DX2                !
 ! R11   R(4,13)                 1.0901         estimate D2E/DX2                !
 ! R12   R(5,6)                  1.5496         estimate D2E/DX2                !
 ! R13   R(5,14)                 1.09           estimate D2E/DX2                !
 ! R14   R(5,15)                 1.09           estimate D2E/DX2                !
 ! R15   R(6,7)                  1.5504         estimate D2E/DX2                !
 ! R16   R(6,16)                 1.0899         estimate D2E/DX2                !
 ! R17   R(6,17)                 1.0901         estimate D2E/DX2                !
 ! R18   R(7,8)                  1.5512         estimate D2E/DX2                !
 ! R19   R(7,18)                 1.0901         estimate D2E/DX2                !
 ! R20   R(7,19)                 1.09           estimate D2E/DX2                !
 ! R21   R(8,20)                 1.0899         estimate D2E/DX2                !
 ! R22   R(8,21)                 1.09           estimate D2E/DX2                !
 ! A1    A(2,1,9)              109.4765         estimate D2E/DX2                !
 ! A2    A(1,2,3)              111.0469         estimate D2E/DX2                !
 ! A3    A(1,2,10)             109.152          estimate D2E/DX2                !
 ! A4    A(1,2,22)             109.152          estimate D2E/DX2                !
 ! A5    A(3,2,10)             109.152          estimate D2E/DX2                !
 ! A6    A(3,2,22)             109.152          estimate D2E/DX2                !
 ! A7    A(10,2,22)            109.1595         estimate D2E/DX2                !
 ! A8    A(2,3,4)              111.5574         estimate D2E/DX2                !
 ! A9    A(2,3,8)              109.1358         estimate D2E/DX2                !
 ! A10   A(2,3,11)             105.832          estimate D2E/DX2                !
 ! A11   A(4,3,8)              110.6513         estimate D2E/DX2                !
 ! A12   A(4,3,11)             108.6211         estimate D2E/DX2                !
 ! A13   A(8,3,11)             110.9504         estimate D2E/DX2                !
 ! A14   A(3,4,5)              111.9393         estimate D2E/DX2                !
 ! A15   A(3,4,12)             106.3399         estimate D2E/DX2                !
 ! A16   A(3,4,13)             106.3405         estimate D2E/DX2                !
 ! A17   A(5,4,12)             106.1601         estimate D2E/DX2                !
 ! A18   A(5,4,13)             106.1616         estimate D2E/DX2                !
 ! A19   A(12,4,13)            119.9944         estimate D2E/DX2                !
 ! A20   A(4,5,6)              112.0013         estimate D2E/DX2                !
 ! A21   A(4,5,14)             106.2517         estimate D2E/DX2                !
 ! A22   A(4,5,15)             106.2464         estimate D2E/DX2                !
 ! A23   A(6,5,14)             106.2229         estimate D2E/DX2                !
 ! A24   A(6,5,15)             106.2211         estimate D2E/DX2                !
 ! A25   A(14,5,15)            120.0012         estimate D2E/DX2                !
 ! A26   A(5,6,7)              111.7665         estimate D2E/DX2                !
 ! A27   A(5,6,16)             106.2723         estimate D2E/DX2                !
 ! A28   A(5,6,17)             106.2752         estimate D2E/DX2                !
 ! A29   A(7,6,16)             106.3013         estimate D2E/DX2                !
 ! A30   A(7,6,17)             106.2957         estimate D2E/DX2                !
 ! A31   A(16,6,17)            120.0014         estimate D2E/DX2                !
 ! A32   A(6,7,8)              112.1043         estimate D2E/DX2                !
 ! A33   A(6,7,18)             106.2026         estimate D2E/DX2                !
 ! A34   A(6,7,19)             106.2094         estimate D2E/DX2                !
 ! A35   A(8,7,18)             106.2202         estimate D2E/DX2                !
 ! A36   A(8,7,19)             106.223          estimate D2E/DX2                !
 ! A37   A(18,7,19)            119.9991         estimate D2E/DX2                !
 ! A38   A(3,8,7)              112.2039         estimate D2E/DX2                !
 ! A39   A(3,8,20)             106.2499         estimate D2E/DX2                !
 ! A40   A(3,8,21)             106.2509         estimate D2E/DX2                !
 ! A41   A(7,8,20)             106.1333         estimate D2E/DX2                !
 ! A42   A(7,8,21)             106.1299         estimate D2E/DX2                !
 ! A43   A(20,8,21)            120.0041         estimate D2E/DX2                !
 ! D1    D(9,1,2,3)            -94.2537         estimate D2E/DX2                !
 ! D2    D(9,1,2,10)            26.1285         estimate D2E/DX2                !
 ! D3    D(9,1,2,22)           145.3641         estimate D2E/DX2                !
 ! D4    D(1,2,3,4)            -65.1914         estimate D2E/DX2                !
 ! D5    D(1,2,3,8)            172.2293         estimate D2E/DX2                !
 ! D6    D(1,2,3,11)            52.771          estimate D2E/DX2                !
 ! D7    D(10,2,3,4)           174.4264         estimate D2E/DX2                !
 ! D8    D(10,2,3,8)            51.8471         estimate D2E/DX2                !
 ! D9    D(10,2,3,11)          -67.6113         estimate D2E/DX2                !
 ! D10   D(22,2,3,4)            55.1908         estimate D2E/DX2                !
 ! D11   D(22,2,3,8)           -67.3885         estimate D2E/DX2                !
 ! D12   D(22,2,3,11)          173.1532         estimate D2E/DX2                !
 ! D13   D(2,3,4,5)           -176.2433         estimate D2E/DX2                !
 ! D14   D(2,3,4,12)           -60.7268         estimate D2E/DX2                !
 ! D15   D(2,3,4,13)            68.238          estimate D2E/DX2                !
 ! D16   D(8,3,4,5)            -54.5369         estimate D2E/DX2                !
 ! D17   D(8,3,4,12)            60.9797         estimate D2E/DX2                !
 ! D18   D(8,3,4,13)          -170.0555         estimate D2E/DX2                !
 ! D19   D(11,3,4,5)            67.4832         estimate D2E/DX2                !
 ! D20   D(11,3,4,12)         -177.0003         estimate D2E/DX2                !
 ! D21   D(11,3,4,13)          -48.0355         estimate D2E/DX2                !
 ! D22   D(2,3,8,7)            177.3084         estimate D2E/DX2                !
 ! D23   D(2,3,8,20)            61.7399         estimate D2E/DX2                !
 ! D24   D(2,3,8,21)           -67.1267         estimate D2E/DX2                !
 ! D25   D(4,3,8,7)             54.1875         estimate D2E/DX2                !
 ! D26   D(4,3,8,20)           -61.381          estimate D2E/DX2                !
 ! D27   D(4,3,8,21)           169.7525         estimate D2E/DX2                !
 ! D28   D(11,3,8,7)           -66.4559         estimate D2E/DX2                !
 ! D29   D(11,3,8,20)          177.9756         estimate D2E/DX2                !
 ! D30   D(11,3,8,21)           49.109          estimate D2E/DX2                !
 ! D31   D(3,4,5,6)             54.5405         estimate D2E/DX2                !
 ! D32   D(3,4,5,14)           170.1124         estimate D2E/DX2                !
 ! D33   D(3,4,5,15)           -61.0261         estimate D2E/DX2                !
 ! D34   D(12,4,5,6)           -61.0856         estimate D2E/DX2                !
 ! D35   D(12,4,5,14)           54.4863         estimate D2E/DX2                !
 ! D36   D(12,4,5,15)         -176.6522         estimate D2E/DX2                !
 ! D37   D(13,4,5,6)           170.1682         estimate D2E/DX2                !
 ! D38   D(13,4,5,14)          -74.26           estimate D2E/DX2                !
 ! D39   D(13,4,5,15)           54.6015         estimate D2E/DX2                !
 ! D40   D(4,5,6,7)            -53.2391         estimate D2E/DX2                !
 ! D41   D(4,5,6,16)            62.3175         estimate D2E/DX2                !
 ! D42   D(4,5,6,17)          -168.7907         estimate D2E/DX2                !
 ! D43   D(14,5,6,7)          -168.8285         estimate D2E/DX2                !
 ! D44   D(14,5,6,16)          -53.2719         estimate D2E/DX2                !
 ! D45   D(14,5,6,17)           75.6199         estimate D2E/DX2                !
 ! D46   D(15,5,6,7)            62.343          estimate D2E/DX2                !
 ! D47   D(15,5,6,16)          177.8995         estimate D2E/DX2                !
 ! D48   D(15,5,6,17)          -53.2086         estimate D2E/DX2                !
 ! D49   D(5,6,7,8)             52.8018         estimate D2E/DX2                !
 ! D50   D(5,6,7,18)           168.3948         estimate D2E/DX2                !
 ! D51   D(5,6,7,19)           -62.7986         estimate D2E/DX2                !
 ! D52   D(16,6,7,8)           -62.7371         estimate D2E/DX2                !
 ! D53   D(16,6,7,18)           52.856          estimate D2E/DX2                !
 ! D54   D(16,6,7,19)         -178.3375         estimate D2E/DX2                !
 ! D55   D(17,6,7,8)           168.3408         estimate D2E/DX2                !
 ! D56   D(17,6,7,18)          -76.0662         estimate D2E/DX2                !
 ! D57   D(17,6,7,19)           52.7404         estimate D2E/DX2                !
 ! D58   D(6,7,8,3)            -53.7771         estimate D2E/DX2                !
 ! D59   D(6,7,8,20)            61.862          estimate D2E/DX2                !
 ! D60   D(6,7,8,21)          -169.4154         estimate D2E/DX2                !
 ! D61   D(18,7,8,3)          -169.3594         estimate D2E/DX2                !
 ! D62   D(18,7,8,20)          -53.7203         estimate D2E/DX2                !
 ! D63   D(18,7,8,21)           75.0023         estimate D2E/DX2                !
 ! D64   D(19,7,8,3)            61.8151         estimate D2E/DX2                !
 ! D65   D(19,7,8,20)          177.4542         estimate D2E/DX2                !
 ! D66   D(19,7,8,21)          -53.8232         estimate D2E/DX2                !
 --------------------------------------------------------------------------------
 Trust Radius=3.00D-01 FncErr=1.00D-07 GrdErr=1.00D-06 EigMax=2.50D+02 EigMin=1.00D-04
 Number of steps in this run=    132 maximum allowed number of steps=    132.
 GradGradGradGradGradGradGradGradGradGradGradGradGradGradGradGradGradGrad

 Leave Link  103 at Mon Oct 14 00:20:27 2019, MaxMem= 10737418240 cpu:               0.2 elap:               0.0
 (Enter /apps/cent7/gaussian/g16-A.03/g16-haswell/g16/l202.exe)
                          Input orientation:                          
 ---------------------------------------------------------------------
 Center     Atomic      Atomic             Coordinates (Angstroms)
 Number     Number       Type             X           Y           Z
 ---------------------------------------------------------------------
      1          8           0        1.469100    0.109900    0.081800
      2          7           0        0.116600    0.161600    0.203600
      3          6           0       -0.474300   -1.194500    0.149000
      4          6           0       -0.261600   -1.855900   -1.245500
      5          6           0       -0.957400   -3.238100   -1.343300
      6          6           0       -2.464100   -3.155800   -0.990700
      7          6           0       -2.696400   -2.481600    0.386000
      8          6           0       -1.990000   -1.104400    0.488100
      9          1           0        1.868700    0.094500    0.954500
     10          1           0       -0.118067    0.586768    1.077764
     11          1           0        0.058300   -1.781300    0.897400
     12          1           0       -0.761700   -1.212600   -1.969500
     13          1           0        0.807800   -2.047600   -1.334100
     14          1           0       -0.905600   -3.532200   -2.391600
     15          1           0       -0.499400   -3.864900   -0.578100
     16          1           0       -2.916100   -2.498500   -1.733400
     17          1           0       -2.810900   -4.184300   -0.890000
     18          1           0       -3.765900   -2.280700    0.449700
     19          1           0       -2.217800   -3.124800    1.124400
     20          1           0       -2.438000   -0.476400   -0.281900
     21          1           0       -2.051200   -0.809600    1.535700
     22          1           0       -0.259009    0.713359   -0.541034
 ---------------------------------------------------------------------
                    Distance matrix (angstroms):
                    1          2          3          4          5
     1  O    0.000000
     2  N    1.358957   0.000000
     3  C    2.341533   1.480254   0.000000
     4  C    2.936225   2.512615   1.557986   0.000000
     5  C    4.373547   3.886430   2.576169   1.550542   0.000000
     6  C    5.223516   4.369383   3.017436   2.570150   1.549595
     7  C    4.915262   3.864291   2.578861   2.996922   2.566494
     8  C    3.688493   2.474158   1.555781   2.560759   2.995491
     9  H    0.959960   1.907409   2.792848   3.630735   4.936897
    10  H    1.933506   1.000000   2.040202   3.374135   4.603874
    11  H    2.496437   2.063884   1.090000   2.167930   2.859134
    12  H    3.306555   2.717020   2.137982   1.090005   2.129102
    13  H    2.664000   2.779000   2.138024   1.090053   2.129156
    14  H    5.002180   4.628619   3.479297   2.130320   1.090005
    15  H    4.484361   4.147676   2.767732   2.130271   1.090034
    16  H    5.415596   4.474972   3.347571   2.774410   2.129716
    17  H    6.140273   5.352856   3.934225   3.470844   2.129844
    18  H    5.766762   4.593387   3.479207   3.915900   3.466863
    19  H    5.014333   4.134939   2.777995   3.324643   2.773263
    20  H    3.967550   2.677449   2.134821   2.751047   3.308434
    21  H    3.918140   2.723431   2.134877   3.468787   3.922072
    22  H    1.933506   1.000000   2.040202   2.664089   4.092115
                    6          7          8          9         10
     6  C    0.000000
     7  C    1.550423   0.000000
     8  C    2.572909   1.551163   0.000000
     9  H    5.755120   5.272535   4.067488   0.000000
    10  H    4.877421   4.067091   2.590731   2.050552   0.000000
    11  H    3.437539   2.887962   2.195735   2.607572   2.381467
    12  H    2.762651   3.301788   2.749586   4.144550   3.596917
    13  H    3.471507   3.927661   3.469542   3.309349   3.689745
    14  H    2.129112   3.467822   3.919542   5.660926   5.442665
    15  H    2.129110   2.769443   3.313462   4.861441   4.764940
    16  H    1.089931   2.130824   2.781409   6.069824   5.024989
    17  H    1.090056   2.130839   3.472581   6.603708   5.821215
    18  H    2.129609   1.090068   2.130488   6.135562   4.682257
    19  H    2.129618   1.089954   2.130443   5.205021   4.264598
    20  H    2.771690   2.129246   1.089949   4.516888   2.891557
    21  H    3.472440   2.129243   1.090008   4.064579   2.428282
    22  H    4.476049   4.124079   2.712875   2.673342   1.629846
                   11         12         13         14         15
    11  H    0.000000
    12  H    3.035611   0.000000
    13  H    2.369021   1.887932   0.000000
    14  H    3.848672   2.362080   2.501616   0.000000
    15  H    2.613335   3.006575   2.362813   1.887980   0.000000
    16  H    4.035163   2.520064   3.772291   2.354543   3.007026
    17  H    4.147471   3.767697   4.225837   2.512012   2.354215
    18  H    3.882569   4.002322   4.914775   4.221440   3.773074
    19  H    2.652763   3.917774   4.044606   3.774930   2.529655
    20  H    3.053691   2.489973   3.756463   4.017088   3.915078
    21  H    2.408655   3.756547   4.235833   4.914126   4.026300
    22  H    2.897085   2.450006   3.064299   4.676264   4.584716
                   16         17         18         19         20
    16  H    0.000000
    17  H    1.887939   0.000000
    18  H    2.352769   2.516051   0.000000
    19  H    3.007806   2.352045   1.887946   0.000000
    20  H    2.534624   3.775892   2.356704   3.006691   0.000000
    21  H    3.779874   4.224898   2.506736   2.357345   1.887937
    22  H    4.335655   5.533623   4.716378   4.619740   2.496132
                   21         22
    21  H    0.000000
    22  H    3.137543   0.000000
 Stoichiometry    C6H14NO(1+)
 Framework group  C1[X(C6H14NO)]
 Deg. of freedom    60
 Full point group                 C1      NOp   1
 Largest Abelian subgroup         C1      NOp   1
 Largest concise Abelian subgroup C1      NOp   1
                         Standard orientation:                         
 ---------------------------------------------------------------------
 Center     Atomic      Atomic             Coordinates (Angstroms)
 Number     Number       Type             X           Y           Z
 ---------------------------------------------------------------------
      1          8           0        2.845678    0.450158   -0.178278
      2          7           0        1.952457   -0.460006    0.291319
      3          6           0        0.595385   -0.194457   -0.236876
      4          6           0        0.034826    1.163518    0.281775
      5          6           0       -1.421865    1.407161   -0.190316
      6          6           0       -2.360162    0.235140    0.193363
      7          6           0       -1.807858   -1.127875   -0.297516
      8          6           0       -0.346359   -1.365993    0.164466
      9          1           0        3.276180    0.101149   -0.962104
     10          1           0        2.239849   -1.376121    0.011783
     11          1           0        0.704104   -0.135277   -1.319824
     12          1           0       -0.007752    1.082919    1.367962
     13          1           0        0.638891    1.942460   -0.183595
     14          1           0       -1.779757    2.276753    0.360896
     15          1           0       -1.389999    1.427617   -1.279691
     16          1           0       -2.362730    0.189905    1.282352
     17          1           0       -3.292060    0.400235   -0.347500
     18          1           0       -2.410242   -1.893879    0.190972
     19          1           0       -1.777688   -1.069912   -1.385509
     20          1           0       -0.371249   -1.377744    1.254067
     21          1           0        0.005275   -2.241004   -0.382185
     22          1           0        1.930754   -0.413291    1.289992
 ---------------------------------------------------------------------
 Rotational constants (GHZ):           3.8759258           1.2980061           1.0496833
 Leave Link  202 at Mon Oct 14 00:20:27 2019, MaxMem= 10737418240 cpu:               0.5 elap:               0.0
 (Enter /apps/cent7/gaussian/g16-A.03/g16-haswell/g16/l301.exe)
 Standard basis: 6-31G(d) (6D, 7F)
 Ernie: Thresh=  0.10000D-02 Tol=  0.10000D-05 Strict=F.
 There are   148 symmetry adapted cartesian basis functions of A   symmetry.
 There are   148 symmetry adapted basis functions of A   symmetry.
   148 basis functions,   280 primitive gaussians,   148 cartesian basis functions
    32 alpha electrons       32 beta electrons
       nuclear repulsion energy       421.5206729551 Hartrees.
 IExCor=  402 DFT=T Ex+Corr=B3LYP ExCW=0 ScaHFX=  0.200000
 ScaDFX=  0.800000  0.720000  1.000000  0.810000 ScalE2=  1.000000  1.000000
 IRadAn=      5 IRanWt=     -1 IRanGd=            0 ICorTp=0 IEmpDi=  4
 NAtoms=   22 NActive=   22 NUniq=   22 SFac= 1.00D+00 NAtFMM=   60 NAOKFM=F Big=F
 Integral buffers will be    131072 words long.
 Raffenetti 2 integral format.
 Two-electron integral symmetry is turned on.
 Leave Link  301 at Mon Oct 14 00:20:27 2019, MaxMem= 10737418240 cpu:               1.3 elap:               0.1
 (Enter /apps/cent7/gaussian/g16-A.03/g16-haswell/g16/l302.exe)
 NPDir=0 NMtPBC=     1 NCelOv=     1 NCel=       1 NClECP=     1 NCelD=      1
         NCelK=      1 NCelE2=     1 NClLst=     1 CellRange=     0.0.
 One-electron integrals computed using PRISM.
 One-electron integral symmetry used in STVInt
 NBasis=   148 RedAO= T EigKep=  2.98D-03  NBF=   148
 NBsUse=   148 1.00D-06 EigRej= -1.00D+00 NBFU=   148
 Precomputing XC quadrature grid using
 IXCGrd= 4 IRadAn=           5 IRanWt=          -1 IRanGd=           0 AccXCQ= 0.00D+00.
 Generated NRdTot=       0 NPtTot=           0 NUsed=           0 NTot=          32
 NSgBfM=   148   148   148   148   148 MxSgAt=    22 MxSgA2=    22.
 Leave Link  302 at Mon Oct 14 00:20:27 2019, MaxMem= 10737418240 cpu:               3.5 elap:               0.2
 (Enter /apps/cent7/gaussian/g16-A.03/g16-haswell/g16/l303.exe)
 DipDrv:  MaxL=1.
 Leave Link  303 at Mon Oct 14 00:20:27 2019, MaxMem= 10737418240 cpu:               0.9 elap:               0.1
 (Enter /apps/cent7/gaussian/g16-A.03/g16-haswell/g16/l401.exe)
 ExpMin= 1.61D-01 ExpMax= 5.48D+03 ExpMxC= 8.25D+02 IAcc=3 IRadAn=         5 AccDes= 0.00D+00
 Harris functional with IExCor=  402 and IRadAn=       5 diagonalized for initial guess.
 HarFok:  IExCor=  402 AccDes= 0.00D+00 IRadAn=         5 IDoV= 1 UseB2=F ITyADJ=14
 ICtDFT=  3500011 ScaDFX=  1.000000  1.000000  1.000000  1.000000
 FoFCou: FMM=F IPFlag=           0 FMFlag=      100000 FMFlg1=           0
         NFxFlg=           0 DoJE=T BraDBF=F KetDBF=T FulRan=T
         wScrn=  0.000000 ICntrl=       500 IOpCl=  0 I1Cent=   200000004 NGrid=           0
         NMat0=    1 NMatS0=      1 NMatT0=    0 NMatD0=    1 NMtDS0=    0 NMtDT0=    0
 Petite list used in FoFCou.
 Harris En= -366.795773490309    
 JPrj=0 DoOrth=F DoCkMO=F.
 Leave Link  401 at Mon Oct 14 00:20:27 2019, MaxMem= 10737418240 cpu:               7.8 elap:               0.4
 (Enter /apps/cent7/gaussian/g16-A.03/g16-haswell/g16/l502.exe)
 Integral symmetry usage will be decided dynamically.
 Closed shell SCF:
 Using DIIS extrapolation, IDIIS=  1040.
 NGot= 10737418240 LenX= 10737368930 LenY= 10737346585
 Requested convergence on RMS density matrix=1.00D-08 within 128 cycles.
 Requested convergence on MAX density matrix=1.00D-06.
 Requested convergence on             energy=1.00D-06.
 No special actions if energy rises.
 Fock matrices will be formed incrementally for  20 cycles.
 Integral accuracy reduced to 1.0D-05 until final iterations.

 Cycle   1  Pass 0  IDiag  1:
 FoFJK:  IHMeth= 1 ICntrl=       0 DoSepK=F KAlg= 0 I1Cent=           0 FoldK=F
 IRaf= 970000000 NMat=       1 IRICut=       1 DoRegI=T DoRafI=F ISym2E= 0 IDoP0=0 IntGTp=1.
 FoFCou: FMM=F IPFlag=           0 FMFlag=      100000 FMFlg1=           0
         NFxFlg=           0 DoJE=F BraDBF=F KetDBF=F FulRan=T
         wScrn=  0.000000 ICntrl=         0 IOpCl=  0 I1Cent=           0 NGrid=           0
         NMat0=    1 NMatS0=      1 NMatT0=    0 NMatD0=    1 NMtDS0=    0 NMtDT0=    0
 Symmetry not used in FoFCou.
 E= -366.472676738857    
 DIIS: error= 2.85D-02 at cycle   1 NSaved=   1.
 NSaved= 1 IEnMin= 1 EnMin= -366.472676738857     IErMin= 1 ErrMin= 2.85D-02
 ErrMax= 2.85D-02  0.00D+00 EMaxC= 1.00D-01 BMatC= 2.32D-01 BMatP= 2.32D-01
 IDIUse=3 WtCom= 7.15D-01 WtEn= 2.85D-01
 Coeff-Com:  0.100D+01
 Coeff-En:   0.100D+01
 Coeff:      0.100D+01
 Gap=     0.429 Goal=   None    Shift=    0.000
 GapD=    0.429 DampG=2.000 DampE=0.500 DampFc=1.0000 IDamp=-1.
 RMSDP=8.19D-03 MaxDP=1.55D-01              OVMax= 1.97D-01

 Cycle   2  Pass 0  IDiag  1:
 RMSU=  8.13D-03    CP:  9.64D-01
 E= -366.350921900177     Delta-E=        0.121754838680 Rises=F Damp=F
 DIIS: error= 3.49D-02 at cycle   2 NSaved=   2.
 NSaved= 2 IEnMin= 1 EnMin= -366.472676738857     IErMin= 1 ErrMin= 2.85D-02
 ErrMax= 3.49D-02  0.00D+00 EMaxC= 1.00D-01 BMatC= 3.67D-01 BMatP= 2.32D-01
 IDIUse=2 WtCom= 0.00D+00 WtEn= 1.00D+00
 Coeff-En:   0.597D+00 0.403D+00
 Coeff:      0.597D+00 0.403D+00
 Gap=     0.270 Goal=   None    Shift=    0.000
 RMSDP=4.66D-03 MaxDP=1.07D-01 DE= 1.22D-01 OVMax= 1.24D-01

 Cycle   3  Pass 0  IDiag  1:
 RMSU=  1.48D-03    CP:  9.79D-01  4.58D-01
 E= -366.711536193550     Delta-E=       -0.360614293373 Rises=F Damp=F
 DIIS: error= 3.50D-03 at cycle   3 NSaved=   3.
 NSaved= 3 IEnMin= 3 EnMin= -366.711536193550     IErMin= 3 ErrMin= 3.50D-03
 ErrMax= 3.50D-03  0.00D+00 EMaxC= 1.00D-01 BMatC= 3.44D-03 BMatP= 2.32D-01
 IDIUse=3 WtCom= 9.65D-01 WtEn= 3.50D-02
 Coeff-Com:  0.151D+00 0.934D-01 0.756D+00
 Coeff-En:   0.000D+00 0.000D+00 0.100D+01
 Coeff:      0.146D+00 0.902D-01 0.764D+00
 Gap=     0.277 Goal=   None    Shift=    0.000
 RMSDP=5.48D-04 MaxDP=1.57D-02 DE=-3.61D-01 OVMax= 1.33D-02

 Cycle   4  Pass 0  IDiag  1:
 RMSU=  4.29D-04    CP:  9.82D-01  4.26D-01  8.64D-01
 E= -366.713675825451     Delta-E=       -0.002139631901 Rises=F Damp=F
 DIIS: error= 2.51D-03 at cycle   4 NSaved=   4.
 NSaved= 4 IEnMin= 4 EnMin= -366.713675825451     IErMin= 4 ErrMin= 2.51D-03
 ErrMax= 2.51D-03  0.00D+00 EMaxC= 1.00D-01 BMatC= 1.28D-03 BMatP= 3.44D-03
 IDIUse=3 WtCom= 9.75D-01 WtEn= 2.51D-02
 Coeff-Com:  0.269D-01 0.579D-02 0.393D+00 0.574D+00
 Coeff-En:   0.000D+00 0.000D+00 0.205D+00 0.795D+00
 Coeff:      0.262D-01 0.564D-02 0.388D+00 0.580D+00
 Gap=     0.276 Goal=   None    Shift=    0.000
 RMSDP=2.26D-04 MaxDP=7.93D-03 DE=-2.14D-03 OVMax= 6.89D-03

 Cycle   5  Pass 0  IDiag  1:
 RMSU=  1.44D-04    CP:  9.81D-01  4.29D-01  8.86D-01  6.16D-01
 E= -366.714665447581     Delta-E=       -0.000989622130 Rises=F Damp=F
 DIIS: error= 5.74D-04 at cycle   5 NSaved=   5.
 NSaved= 5 IEnMin= 5 EnMin= -366.714665447581     IErMin= 5 ErrMin= 5.74D-04
 ErrMax= 5.74D-04  0.00D+00 EMaxC= 1.00D-01 BMatC= 7.36D-05 BMatP= 1.28D-03
 IDIUse=3 WtCom= 9.94D-01 WtEn= 5.74D-03
 Coeff-Com:  0.127D-02-0.429D-02 0.121D+00 0.271D+00 0.610D+00
 Coeff-En:   0.000D+00 0.000D+00 0.000D+00 0.000D+00 0.100D+01
 Coeff:      0.126D-02-0.427D-02 0.121D+00 0.270D+00 0.612D+00
 Gap=     0.277 Goal=   None    Shift=    0.000
 RMSDP=6.40D-05 MaxDP=1.40D-03 DE=-9.90D-04 OVMax= 1.35D-03

 Cycle   6  Pass 0  IDiag  1:
 RMSU=  2.50D-05    CP:  9.81D-01  4.28D-01  8.99D-01  6.43D-01  6.33D-01
 E= -366.714725159468     Delta-E=       -0.000059711887 Rises=F Damp=F
 DIIS: error= 1.88D-04 at cycle   6 NSaved=   6.
 NSaved= 6 IEnMin= 6 EnMin= -366.714725159468     IErMin= 6 ErrMin= 1.88D-04
 ErrMax= 1.88D-04  0.00D+00 EMaxC= 1.00D-01 BMatC= 3.70D-06 BMatP= 7.36D-05
 IDIUse=3 WtCom= 9.98D-01 WtEn= 1.88D-03
 Coeff-Com: -0.122D-03-0.257D-02 0.518D-01 0.126D+00 0.320D+00 0.505D+00
 Coeff-En:   0.000D+00 0.000D+00 0.000D+00 0.000D+00 0.000D+00 0.100D+01
 Coeff:     -0.122D-03-0.256D-02 0.517D-01 0.125D+00 0.319D+00 0.506D+00
 Gap=     0.277 Goal=   None    Shift=    0.000
 RMSDP=1.19D-05 MaxDP=4.16D-04 DE=-5.97D-05 OVMax= 3.21D-04

 Cycle   7  Pass 0  IDiag  1:
 RMSU=  7.75D-06    CP:  9.81D-01  4.28D-01  9.00D-01  6.47D-01  6.54D-01
                    CP:  6.81D-01
 E= -366.714727832276     Delta-E=       -0.000002672808 Rises=F Damp=F
 DIIS: error= 2.03D-05 at cycle   7 NSaved=   7.
 NSaved= 7 IEnMin= 7 EnMin= -366.714727832276     IErMin= 7 ErrMin= 2.03D-05
 ErrMax= 2.03D-05  0.00D+00 EMaxC= 1.00D-01 BMatC= 9.76D-08 BMatP= 3.70D-06
 IDIUse=1 WtCom= 1.00D+00 WtEn= 0.00D+00
 Coeff-Com: -0.181D-03-0.547D-03 0.639D-02 0.181D-01 0.521D-01 0.173D+00
 Coeff-Com:  0.751D+00
 Coeff:     -0.181D-03-0.547D-03 0.639D-02 0.181D-01 0.521D-01 0.173D+00
 Coeff:      0.751D+00
 Gap=     0.277 Goal=   None    Shift=    0.000
 RMSDP=2.31D-06 MaxDP=5.39D-05 DE=-2.67D-06 OVMax= 4.94D-05

 Initial convergence to 1.0D-05 achieved.  Increase integral accuracy.
 Cycle   8  Pass 1  IDiag  1:
 E= -366.714804458475     Delta-E=       -0.000076626199 Rises=F Damp=F
 DIIS: error= 1.63D-05 at cycle   1 NSaved=   1.
 NSaved= 1 IEnMin= 1 EnMin= -366.714804458475     IErMin= 1 ErrMin= 1.63D-05
 ErrMax= 1.63D-05  0.00D+00 EMaxC= 1.00D-01 BMatC= 3.36D-08 BMatP= 3.36D-08
 IDIUse=1 WtCom= 1.00D+00 WtEn= 0.00D+00
 Coeff-Com:  0.100D+01
 Coeff:      0.100D+01
 Gap=     0.277 Goal=   None    Shift=    0.000
 RMSDP=2.31D-06 MaxDP=5.39D-05 DE=-7.66D-05 OVMax= 5.73D-05

 Cycle   9  Pass 1  IDiag  1:
 RMSU=  3.59D-06    CP:  1.00D+00
 E= -366.714804497005     Delta-E=       -0.000000038530 Rises=F Damp=F
 DIIS: error= 2.56D-06 at cycle   2 NSaved=   2.
 NSaved= 2 IEnMin= 2 EnMin= -366.714804497005     IErMin= 2 ErrMin= 2.56D-06
 ErrMax= 2.56D-06  0.00D+00 EMaxC= 1.00D-01 BMatC= 4.12D-09 BMatP= 3.36D-08
 IDIUse=1 WtCom= 1.00D+00 WtEn= 0.00D+00
 Coeff-Com:  0.158D+00 0.842D+00
 Coeff:      0.158D+00 0.842D+00
 Gap=     0.277 Goal=   None    Shift=    0.000
 RMSDP=8.03D-07 MaxDP=2.02D-05 DE=-3.85D-08 OVMax= 1.85D-05

 Cycle  10  Pass 1  IDiag  1:
 RMSU=  7.91D-07    CP:  1.00D+00  9.62D-01
 E= -366.714804498115     Delta-E=       -0.000000001110 Rises=F Damp=F
 DIIS: error= 2.43D-06 at cycle   3 NSaved=   3.
 NSaved= 3 IEnMin= 3 EnMin= -366.714804498115     IErMin= 3 ErrMin= 2.43D-06
 ErrMax= 2.43D-06  0.00D+00 EMaxC= 1.00D-01 BMatC= 3.10D-09 BMatP= 4.12D-09
 IDIUse=1 WtCom= 1.00D+00 WtEn= 0.00D+00
 Coeff-Com: -0.647D-02 0.464D+00 0.543D+00
 Coeff:     -0.647D-02 0.464D+00 0.543D+00
 Gap=     0.277 Goal=   None    Shift=    0.000
 RMSDP=3.87D-07 MaxDP=8.79D-06 DE=-1.11D-09 OVMax= 9.28D-06

 Cycle  11  Pass 1  IDiag  1:
 RMSU=  1.88D-07    CP:  1.00D+00  9.96D-01  6.03D-01
 E= -366.714804500956     Delta-E=       -0.000000002841 Rises=F Damp=F
 DIIS: error= 6.72D-07 at cycle   4 NSaved=   4.
 NSaved= 4 IEnMin= 4 EnMin= -366.714804500956     IErMin= 4 ErrMin= 6.72D-07
 ErrMax= 6.72D-07  0.00D+00 EMaxC= 1.00D-01 BMatC= 7.81D-11 BMatP= 3.10D-09
 IDIUse=1 WtCom= 1.00D+00 WtEn= 0.00D+00
 Coeff-Com: -0.817D-02 0.180D+00 0.249D+00 0.579D+00
 Coeff:     -0.817D-02 0.180D+00 0.249D+00 0.579D+00
 Gap=     0.277 Goal=   None    Shift=    0.000
 RMSDP=6.81D-08 MaxDP=1.70D-06 DE=-2.84D-09 OVMax= 1.42D-06

 Cycle  12  Pass 1  IDiag  1:
 RMSU=  3.71D-08    CP:  1.00D+00  9.98D-01  6.05D-01  6.99D-01
 E= -366.714804501016     Delta-E=       -0.000000000060 Rises=F Damp=F
 DIIS: error= 1.80D-07 at cycle   5 NSaved=   5.
 NSaved= 5 IEnMin= 5 EnMin= -366.714804501016     IErMin= 5 ErrMin= 1.80D-07
 ErrMax= 1.80D-07  0.00D+00 EMaxC= 1.00D-01 BMatC= 5.64D-12 BMatP= 7.81D-11
 IDIUse=1 WtCom= 1.00D+00 WtEn= 0.00D+00
 Coeff-Com: -0.376D-02 0.663D-01 0.968D-01 0.285D+00 0.556D+00
 Coeff:     -0.376D-02 0.663D-01 0.968D-01 0.285D+00 0.556D+00
 Gap=     0.277 Goal=   None    Shift=    0.000
 RMSDP=1.53D-08 MaxDP=5.03D-07 DE=-6.01D-11 OVMax= 4.57D-07

 Cycle  13  Pass 1  IDiag  1:
 RMSU=  1.13D-08    CP:  1.00D+00  9.99D-01  6.06D-01  7.00D-01  7.28D-01
 E= -366.714804501019     Delta-E=       -0.000000000003 Rises=F Damp=F
 DIIS: error= 4.10D-08 at cycle   6 NSaved=   6.
 NSaved= 6 IEnMin= 6 EnMin= -366.714804501019     IErMin= 6 ErrMin= 4.10D-08
 ErrMax= 4.10D-08  0.00D+00 EMaxC= 1.00D-01 BMatC= 4.31D-13 BMatP= 5.64D-12
 IDIUse=1 WtCom= 1.00D+00 WtEn= 0.00D+00
 Coeff-Com: -0.438D-03 0.321D-02 0.651D-02 0.348D-01 0.237D+00 0.718D+00
 Coeff:     -0.438D-03 0.321D-02 0.651D-02 0.348D-01 0.237D+00 0.718D+00
 Gap=     0.277 Goal=   None    Shift=    0.000
 RMSDP=4.13D-09 MaxDP=1.19D-07 DE=-2.96D-12 OVMax= 1.16D-07

 SCF Done:  E(RB3LYP) =  -366.714804501     A.U. after   13 cycles
            NFock= 13  Conv=0.41D-08     -V/T= 2.0087
 KE= 3.635403088603D+02 PE=-1.682988847775D+03 EE= 5.312130614586D+02
 Leave Link  502 at Mon Oct 14 00:20:30 2019, MaxMem= 10737418240 cpu:              68.9 elap:               2.9
 (Enter /apps/cent7/gaussian/g16-A.03/g16-haswell/g16/l601.exe)
 Copying SCF densities to generalized density rwf, IOpCl= 0 IROHF=0.

 **********************************************************************

            Population analysis using the SCF density.

 **********************************************************************

 Orbital symmetries:
       Occupied  (A) (A) (A) (A) (A) (A) (A) (A) (A) (A) (A) (A)
                 (A) (A) (A) (A) (A) (A) (A) (A) (A) (A) (A) (A)
                 (A) (A) (A) (A) (A) (A) (A) (A)
       Virtual   (A) (A) (A) (A) (A) (A) (A) (A) (A) (A) (A) (A)
                 (A) (A) (A) (A) (A) (A) (A) (A) (A) (A) (A) (A)
                 (A) (A) (A) (A) (A) (A) (A) (A) (A) (A) (A) (A)
                 (A) (A) (A) (A) (A) (A) (A) (A) (A) (A) (A) (A)
                 (A) (A) (A) (A) (A) (A) (A) (A) (A) (A) (A) (A)
                 (A) (A) (A) (A) (A) (A) (A) (A) (A) (A) (A) (A)
                 (A) (A) (A) (A) (A) (A) (A) (A) (A) (A) (A) (A)
                 (A) (A) (A) (A) (A) (A) (A) (A) (A) (A) (A) (A)
                 (A) (A) (A) (A) (A) (A) (A) (A) (A) (A) (A) (A)
                 (A) (A) (A) (A) (A) (A) (A) (A)
 The electronic state is 1-A.
 Alpha  occ. eigenvalues --  -19.41796 -14.70874 -10.41737 -10.35624 -10.34630
 Alpha  occ. eigenvalues --  -10.32403 -10.31952 -10.30858  -1.36757  -1.12961
 Alpha  occ. eigenvalues --   -0.98690  -0.90610  -0.90229  -0.85372  -0.81719
 Alpha  occ. eigenvalues --   -0.78703  -0.75573  -0.70015  -0.69464  -0.62882
 Alpha  occ. eigenvalues --   -0.61307  -0.60862  -0.60107  -0.56179  -0.53866
 Alpha  occ. eigenvalues --   -0.53561  -0.52463  -0.51349  -0.48984  -0.46907
 Alpha  occ. eigenvalues --   -0.45155  -0.44067
 Alpha virt. eigenvalues --   -0.16402  -0.13412  -0.10077  -0.07367  -0.05480
 Alpha virt. eigenvalues --   -0.03772  -0.01576  -0.00760   0.00087   0.01411
 Alpha virt. eigenvalues --    0.02865   0.03539   0.04330   0.04720   0.05590
 Alpha virt. eigenvalues --    0.05933   0.06679   0.07369   0.09395   0.10858
 Alpha virt. eigenvalues --    0.12358   0.13846   0.32921   0.35393   0.36280
 Alpha virt. eigenvalues --    0.37328   0.39414   0.41766   0.41960   0.45955
 Alpha virt. eigenvalues --    0.46610   0.49264   0.50589   0.51965   0.53715
 Alpha virt. eigenvalues --    0.54737   0.57714   0.58389   0.61116   0.62648
 Alpha virt. eigenvalues --    0.64152   0.65716   0.66947   0.69739   0.71112
 Alpha virt. eigenvalues --    0.72552   0.73354   0.75568   0.76185   0.76893
 Alpha virt. eigenvalues --    0.77598   0.78258   0.80652   0.83065   0.83456
 Alpha virt. eigenvalues --    0.84135   0.85554   0.90112   0.95852   1.04485
 Alpha virt. eigenvalues --    1.06164   1.13314   1.19109   1.19635   1.23527
 Alpha virt. eigenvalues --    1.27054   1.33300   1.39674   1.47441   1.49649
 Alpha virt. eigenvalues --    1.51277   1.55293   1.60450   1.63250   1.65529
 Alpha virt. eigenvalues --    1.68688   1.69848   1.70798   1.74152   1.82458
 Alpha virt. eigenvalues --    1.83665   1.85509   1.86931   1.89387   1.90431
 Alpha virt. eigenvalues --    1.93265   1.97314   1.98371   2.01082   2.08410
 Alpha virt. eigenvalues --    2.09178   2.10658   2.12632   2.14583   2.19660
 Alpha virt. eigenvalues --    2.21727   2.22633   2.25255   2.32092   2.32373
 Alpha virt. eigenvalues --    2.37003   2.44668   2.46856   2.52852   2.56807
 Alpha virt. eigenvalues --    2.59944   2.64500   2.66399   3.46516   3.71598
 Alpha virt. eigenvalues --    3.99404   4.11265   4.12387   4.39745   4.40969
 Alpha virt. eigenvalues --    4.41462
          Condensed to atoms (all electrons):
               1          2          3          4          5          6
     1  O    8.158145   0.124959  -0.055508  -0.000798   0.000106  -0.000004
     2  N    0.124959   6.589282   0.173835  -0.044507   0.002210   0.000060
     3  C   -0.055508   0.173835   5.219957   0.343579  -0.029662  -0.016731
     4  C   -0.000798  -0.044507   0.343579   5.088767   0.361814  -0.039673
     5  C    0.000106   0.002210  -0.029662   0.361814   5.010677   0.371454
     6  C   -0.000004   0.000060  -0.016731  -0.039673   0.371454   5.020472
     7  C   -0.000053   0.002184  -0.026095  -0.013833  -0.043681   0.375393
     8  C    0.004734  -0.046521   0.323833  -0.043375  -0.012828  -0.040509
     9  H    0.239864  -0.018964   0.001498  -0.000241  -0.000012   0.000001
    10  H   -0.016731   0.297788  -0.030292   0.005294  -0.000084   0.000027
    11  H    0.000696  -0.043358   0.373785  -0.037542  -0.001432  -0.000986
    12  H   -0.000425  -0.004902  -0.046106   0.368234  -0.037438  -0.003789
    13  H    0.007068  -0.005064  -0.039841   0.375613  -0.030551   0.004328
    14  H    0.000000  -0.000078   0.004379  -0.036998   0.383786  -0.036360
    15  H   -0.000010  -0.000008  -0.006283  -0.046170   0.378023  -0.043259
    16  H    0.000000  -0.000013  -0.000434  -0.005290  -0.045083   0.376836
    17  H   -0.000000   0.000004   0.000436   0.005002  -0.036862   0.381942
    18  H    0.000001  -0.000064   0.003960   0.000126   0.004918  -0.036055
    19  H    0.000001  -0.000010  -0.005772  -0.001097  -0.003715  -0.042252
    20  H    0.000008  -0.005198  -0.043076  -0.006475  -0.000568  -0.003444
    21  H   -0.000050  -0.003521  -0.045622   0.004838   0.000103   0.004424
    22  H   -0.028122   0.295353  -0.023928  -0.002939  -0.000101  -0.000003
               7          8          9         10         11         12
     1  O   -0.000053   0.004734   0.239864  -0.016731   0.000696  -0.000425
     2  N    0.002184  -0.046521  -0.018964   0.297788  -0.043358  -0.004902
     3  C   -0.026095   0.323833   0.001498  -0.030292   0.373785  -0.046106
     4  C   -0.013833  -0.043375  -0.000241   0.005294  -0.037542   0.368234
     5  C   -0.043681  -0.012828  -0.000012  -0.000084  -0.001432  -0.037438
     6  C    0.375393  -0.040509   0.000001   0.000027  -0.000986  -0.003789
     7  C    5.005438   0.354198   0.000002  -0.000129  -0.001137  -0.000458
     8  C    0.354198   5.145323  -0.000290   0.005181  -0.035624  -0.006721
     9  H    0.000002  -0.000290   0.315777  -0.007511   0.002824   0.000022
    10  H   -0.000129   0.005181  -0.007511   0.345675  -0.003600  -0.000094
    11  H   -0.001137  -0.035624   0.002824  -0.003600   0.534674   0.005526
    12  H   -0.000458  -0.006721   0.000022  -0.000094   0.005526   0.570578
    13  H    0.000110   0.004689  -0.000070  -0.000095  -0.004158  -0.018583
    14  H    0.004917   0.000162   0.000000   0.000004  -0.000070  -0.004762
    15  H   -0.003946  -0.001085  -0.000001   0.000006   0.004959   0.006043
    16  H   -0.045306  -0.005419  -0.000000   0.000000   0.000166   0.006468
    17  H   -0.037427   0.005145  -0.000000  -0.000001  -0.000012  -0.000049
    18  H    0.382859  -0.037046  -0.000000  -0.000009  -0.000044  -0.000049
    19  H    0.378975  -0.046342  -0.000001  -0.000004   0.004380   0.000225
    20  H   -0.034917   0.365322   0.000013  -0.000497   0.005269   0.005823
    21  H   -0.029339   0.370100  -0.000001   0.007570  -0.004541  -0.000110
    22  H   -0.000172   0.001559   0.003887  -0.017706   0.005770   0.006842
              13         14         15         16         17         18
     1  O    0.007068   0.000000  -0.000010   0.000000  -0.000000   0.000001
     2  N   -0.005064  -0.000078  -0.000008  -0.000013   0.000004  -0.000064
     3  C   -0.039841   0.004379  -0.006283  -0.000434   0.000436   0.003960
     4  C    0.375613  -0.036998  -0.046170  -0.005290   0.005002   0.000126
     5  C   -0.030551   0.383786   0.378023  -0.045083  -0.036862   0.004918
     6  C    0.004328  -0.036360  -0.043259   0.376836   0.381942  -0.036055
     7  C    0.000110   0.004917  -0.003946  -0.045306  -0.037427   0.382859
     8  C    0.004689   0.000162  -0.001085  -0.005419   0.005145  -0.037046
     9  H   -0.000070   0.000000  -0.000001  -0.000000  -0.000000  -0.000000
    10  H   -0.000095   0.000004   0.000006   0.000000  -0.000001  -0.000009
    11  H   -0.004158  -0.000070   0.004959   0.000166  -0.000012  -0.000044
    12  H   -0.018583  -0.004762   0.006043   0.006468  -0.000049  -0.000049
    13  H    0.518735  -0.002648  -0.004416  -0.000084  -0.000154   0.000010
    14  H   -0.002648   0.521211  -0.016524  -0.004560  -0.002116  -0.000170
    15  H   -0.004416  -0.016524   0.568398   0.006074  -0.004339  -0.000105
    16  H   -0.000084  -0.004560   0.006074   0.576222  -0.016297  -0.004643
    17  H   -0.000154  -0.002116  -0.004339  -0.016297   0.526873  -0.002127
    18  H    0.000010  -0.000170  -0.000105  -0.004643  -0.002127   0.523394
    19  H   -0.000036  -0.000103   0.006305   0.006017  -0.004429  -0.016701
    20  H   -0.000107  -0.000053   0.000236   0.006254  -0.000046  -0.004800
    21  H   -0.000170   0.000010  -0.000039  -0.000086  -0.000161  -0.002875
    22  H    0.000153  -0.000006   0.000023   0.000008  -0.000001   0.000004
              19         20         21         22
     1  O    0.000001   0.000008  -0.000050  -0.028122
     2  N   -0.000010  -0.005198  -0.003521   0.295353
     3  C   -0.005772  -0.043076  -0.045622  -0.023928
     4  C   -0.001097  -0.006475   0.004838  -0.002939
     5  C   -0.003715  -0.000568   0.000103  -0.000101
     6  C   -0.042252  -0.003444   0.004424  -0.000003
     7  C    0.378975  -0.034917  -0.029339  -0.000172
     8  C   -0.046342   0.365322   0.370100   0.001559
     9  H   -0.000001   0.000013  -0.000001   0.003887
    10  H   -0.000004  -0.000497   0.007570  -0.017706
    11  H    0.004380   0.005269  -0.004541   0.005770
    12  H    0.000225   0.005823  -0.000110   0.006842
    13  H   -0.000036  -0.000107  -0.000170   0.000153
    14  H   -0.000103  -0.000053   0.000010  -0.000006
    15  H    0.006305   0.000236  -0.000039   0.000023
    16  H    0.006017   0.006254  -0.000086   0.000008
    17  H   -0.004429  -0.000046  -0.000161  -0.000001
    18  H   -0.016701  -0.004800  -0.002875   0.000004
    19  H    0.564737   0.005931  -0.004690   0.000017
    20  H    0.005931   0.563620  -0.021122   0.005383
    21  H   -0.004690  -0.021122   0.556028  -0.000325
    22  H    0.000017   0.005383  -0.000325   0.323452
 Mulliken charges:
               1
     1  O   -0.433881
     2  N   -0.313464
     3  C   -0.075911
     4  C   -0.274328
     5  C   -0.271073
     6  C   -0.271872
     7  C   -0.267584
     8  C   -0.304488
     9  H    0.463201
    10  H    0.415207
    11  H    0.194455
    12  H    0.153726
    13  H    0.195271
    14  H    0.189978
    15  H    0.156119
    16  H    0.149171
    17  H    0.184619
    18  H    0.189417
    19  H    0.158562
    20  H    0.162446
    21  H    0.169578
    22  H    0.430852
 Sum of Mulliken charges =   1.00000
 Mulliken charges with hydrogens summed into heavy atoms:
               1
     1  O    0.029321
     2  N    0.532595
     3  C    0.118543
     4  C    0.074669
     5  C    0.075024
     6  C    0.061918
     7  C    0.080394
     8  C    0.027535
 Electronic spatial extent (au):  <R**2>=           1138.4416
 Charge=              1.0000 electrons
 Dipole moment (field-independent basis, Debye):
    X=              5.8465    Y=             -2.8037    Z=             -0.2277  Tot=              6.4880
 Quadrupole moment (field-independent basis, Debye-Ang):
   XX=            -25.7392   YY=            -44.4256   ZZ=            -42.5210
   XY=             -7.1898   XZ=             -2.7359   YZ=             -0.4926
 Traceless Quadrupole moment (field-independent basis, Debye-Ang):
   XX=             11.8227   YY=             -6.8637   ZZ=             -4.9591
   XY=             -7.1898   XZ=             -2.7359   YZ=             -0.4926
 Octapole moment (field-independent basis, Debye-Ang**2):
  XXX=             66.4339  YYY=             -3.4278  ZZZ=              0.9783  XYY=              8.9518
  XXY=            -17.3455  XXZ=            -14.7846  XZZ=             17.3070  YZZ=             -1.0596
  YYZ=              0.5264  XYZ=             -1.1066
 Hexadecapole moment (field-independent basis, Debye-Ang**3):
 XXXX=           -751.3440 YYYY=           -351.4493 ZZZZ=            -99.4798 XXXY=            -40.8132
 XXXZ=            -52.6668 YYYX=            -10.3115 YYYZ=              2.1422 ZZZX=             -2.0708
 ZZZY=             -2.9106 XXYY=           -198.4953 XXZZ=           -141.1927 YYZZ=            -78.9766
 XXYZ=             -6.4198 YYXZ=             -7.1026 ZZXY=             -2.2924
 N-N= 4.215206729551D+02 E-N=-1.682988849236D+03  KE= 3.635403088603D+02
 No NMR shielding tensors so no spin-rotation constants.
 Leave Link  601 at Mon Oct 14 00:20:31 2019, MaxMem= 10737418240 cpu:               2.3 elap:               0.1
 (Enter /apps/cent7/gaussian/g16-A.03/g16-haswell/g16/l701.exe)
 ... and contract with generalized density number  0.
 Compute integral first derivatives.
 Leave Link  701 at Mon Oct 14 00:20:31 2019, MaxMem= 10737418240 cpu:               2.5 elap:               0.1
 (Enter /apps/cent7/gaussian/g16-A.03/g16-haswell/g16/l702.exe)
 L702 exits ... SP integral derivatives will be done elsewhere.
 Leave Link  702 at Mon Oct 14 00:20:31 2019, MaxMem= 10737418240 cpu:               0.7 elap:               0.0
 (Enter /apps/cent7/gaussian/g16-A.03/g16-haswell/g16/l703.exe)
 Integral derivatives from FoFJK, PRISM(SPDF).
 Compute integral first derivatives, UseDBF=F ICtDFT=           0.
 Calling FoFJK, ICntrl=      2127 FMM=F ISym2X=0 I1Cent= 0 IOpClX= 0 NMat=1 NMatS=1 NMatT=0.
 FoFJK:  IHMeth= 1 ICntrl=    2127 DoSepK=F KAlg= 0 I1Cent=           0 FoldK=F
 IRaf=         0 NMat=       1 IRICut=       1 DoRegI=T DoRafI=F ISym2E= 0 IDoP0=0 IntGTp=1.
 FoFCou: FMM=F IPFlag=           0 FMFlag=      100000 FMFlg1=         800
         NFxFlg=           0 DoJE=F BraDBF=F KetDBF=F FulRan=T
         wScrn=  0.000000 ICntrl=      2127 IOpCl=  0 I1Cent=           0 NGrid=           0
         NMat0=    1 NMatS0=      1 NMatT0=    0 NMatD0=    1 NMtDS0=    0 NMtDT0=    0
 Symmetry not used in FoFCou.
 Leave Link  703 at Mon Oct 14 00:20:32 2019, MaxMem= 10737418240 cpu:              19.6 elap:               0.8
 (Enter /apps/cent7/gaussian/g16-A.03/g16-haswell/g16/l716.exe)
 Dipole        = 2.30019222D+00-1.10304969D+00-8.95662466D-02
 ***** Axes restored to original set *****
 -------------------------------------------------------------------
 Center     Atomic                   Forces (Hartrees/Bohr)
 Number     Number              X              Y              Z
 -------------------------------------------------------------------
      1        8           0.038425872    0.009457000   -0.029833723
      2        7          -0.010744719   -0.025841299    0.015340685
      3        6          -0.030907491   -0.040108028   -0.014328964
      4        6          -0.005995520   -0.003936689    0.024506424
      5        6          -0.019153410    0.024596432    0.016870422
      6        6           0.024118410    0.015028005    0.017154943
      7        6           0.022040219    0.005385186   -0.024670633
      8        6           0.020272704   -0.017734603   -0.004235901
      9        1           0.003949194   -0.001044505    0.015056922
     10        1          -0.012878574    0.016609133    0.019235326
     11        1           0.001596384    0.001336632    0.005459716
     12        1           0.012650073    0.006206428   -0.011251683
     13        1           0.002140122    0.011361498   -0.016385999
     14        1           0.012124304   -0.013944084    0.003632035
     15        1           0.007984624   -0.014550064   -0.011269096
     16        1          -0.013668900   -0.011834900   -0.008521813
     17        1          -0.013360842    0.001861088   -0.013614871
     18        1          -0.001403032   -0.008277461    0.016926317
     19        1          -0.015250376   -0.003950288    0.011776675
     20        1          -0.007120707    0.014384680    0.008696737
     21        1          -0.011576959    0.016512828   -0.000860505
     22        1          -0.003241376    0.018483012   -0.019683013
 -------------------------------------------------------------------
 Cartesian Forces:  Max     0.040108028 RMS     0.015900063
 Leave Link  716 at Mon Oct 14 00:20:32 2019, MaxMem= 10737418240 cpu:               1.3 elap:               0.1
 (Enter /apps/cent7/gaussian/g16-A.03/g16-haswell/g16/l103.exe)

 GradGradGradGradGradGradGradGradGradGradGradGradGradGradGradGradGradGrad
 Berny optimization.
 FormGI is forming the generalized inverse of G from B-inverse, IUseBI=4.
 Internal  Forces:  Max     0.043169547 RMS     0.007548485
 Search for a local minimum.
 Step number   1 out of a maximum of  132
 All quantities printed in internal units (Hartrees-Bohrs-Radians)
 RMS Force = .75485D-02 SwitMx=.10000D-02 MixMth= 1
 Mixed Optimization -- RFO/linear search
 Second derivative matrix not updated -- first step.
 ITU=  0
     Eigenvalues ---    0.00403   0.00408   0.00507   0.00630   0.01838
     Eigenvalues ---    0.01949   0.01984   0.03826   0.04051   0.04280
     Eigenvalues ---    0.04461   0.04819   0.04861   0.05084   0.05138
     Eigenvalues ---    0.05266   0.05629   0.05672   0.05991   0.06095
     Eigenvalues ---    0.06118   0.07666   0.07693   0.07702   0.07719
     Eigenvalues ---    0.07734   0.08138   0.08425   0.11564   0.11740
     Eigenvalues ---    0.11777   0.13898   0.14050   0.15847   0.16000
     Eigenvalues ---    0.17388   0.21121   0.22096   0.26086   0.26231
     Eigenvalues ---    0.26734   0.27378   0.27480   0.27579   0.34541
     Eigenvalues ---    0.34805   0.34806   0.34807   0.34809   0.34812
     Eigenvalues ---    0.34812   0.34812   0.34813   0.34818   0.34819
     Eigenvalues ---    0.34821   0.47688   0.47688   0.53159   0.55482
 RFO step:  Lambda=-3.67660016D-02 EMin= 4.02983165D-03
 Linear search not attempted -- first point.
 Maximum step size (   0.300) exceeded in Quadratic search.
    -- Step size scaled by   0.850
 Iteration  1 RMS(Cart)=  0.03643620 RMS(Int)=  0.00092834
 Iteration  2 RMS(Cart)=  0.00099884 RMS(Int)=  0.00030263
 Iteration  3 RMS(Cart)=  0.00000071 RMS(Int)=  0.00030263
 ITry= 1 IFail=0 DXMaxC= 1.06D-01 DCOld= 1.00D+10 DXMaxT= 3.00D-01 DXLimC= 3.00D+00 Rises=F
 Variable       Old X    -DE/DX   Delta X   Delta X   Delta X     New X
                                 (Linear)    (Quad)   (Total)
    R1        2.56806   0.04317   0.00000   0.06459   0.06459   2.63265
    R2        1.81406   0.01535   0.00000   0.02207   0.02207   1.83613
    R3        2.79727   0.02238   0.00000   0.04979   0.04979   2.84707
    R4        1.88973   0.02690   0.00000   0.04454   0.04454   1.93427
    R5        1.88973   0.02607   0.00000   0.04316   0.04316   1.93289
    R6        2.94417  -0.00800   0.00000  -0.02194  -0.02190   2.92227
    R7        2.94000  -0.00474   0.00000  -0.01315  -0.01316   2.92684
    R8        2.05980   0.00381   0.00000   0.00842   0.00842   2.06822
    R9        2.93010   0.00167   0.00000   0.00430   0.00427   2.93437
   R10        2.05981   0.00533   0.00000   0.01178   0.01178   2.07160
   R11        2.05990   0.00143   0.00000   0.00317   0.00317   2.06307
   R12        2.92831   0.00199   0.00000   0.00546   0.00547   2.93378
   R13        2.05981   0.00085   0.00000   0.00187   0.00187   2.06168
   R14        2.05986   0.00381   0.00000   0.00842   0.00842   2.06828
   R15        2.92988   0.00161   0.00000   0.00414   0.00410   2.93397
   R16        2.05967   0.00434   0.00000   0.00959   0.00959   2.06926
   R17        2.05991   0.00124   0.00000   0.00273   0.00273   2.06264
   R18        2.93127   0.00129   0.00000   0.00375   0.00377   2.93505
   R19        2.05993   0.00084   0.00000   0.00185   0.00185   2.06178
   R20        2.05971   0.00361   0.00000   0.00798   0.00798   2.06770
   R21        2.05970   0.00507   0.00000   0.01120   0.01120   2.07090
   R22        2.05982   0.00429   0.00000   0.00948   0.00948   2.06929
    A1        1.91072  -0.00482   0.00000  -0.02081  -0.02081   1.88991
    A2        1.93813   0.01456   0.00000   0.05316   0.05238   1.99052
    A3        1.90506   0.00033   0.00000   0.02627   0.02476   1.92983
    A4        1.90506  -0.01204   0.00000  -0.06394  -0.06370   1.84136
    A5        1.90506  -0.00241   0.00000   0.00558   0.00422   1.90928
    A6        1.90506   0.00172   0.00000   0.00539   0.00603   1.91109
    A7        1.90519  -0.00239   0.00000  -0.02772  -0.02764   1.87756
    A8        1.94704  -0.00735   0.00000  -0.02773  -0.02753   1.91952
    A9        1.90478  -0.00404   0.00000  -0.01459  -0.01428   1.89050
   A10        1.84712   0.00164   0.00000  -0.00939  -0.00936   1.83776
   A11        1.93123   0.01028   0.00000   0.03533   0.03496   1.96619
   A12        1.89580   0.00096   0.00000   0.01762   0.01728   1.91307
   A13        1.93645  -0.00199   0.00000  -0.00347  -0.00413   1.93232
   A14        1.95371  -0.00798   0.00000  -0.03208  -0.03157   1.92214
   A15        1.85598   0.00331   0.00000   0.02298   0.02317   1.87915
   A16        1.85599   0.00546   0.00000   0.03476   0.03496   1.89096
   A17        1.85284   0.00593   0.00000   0.03268   0.03284   1.88568
   A18        1.85287   0.00377   0.00000   0.03216   0.03232   1.88519
   A19        2.09430  -0.01148   0.00000  -0.09396  -0.09385   2.00045
   A20        1.95479   0.00132   0.00000  -0.00058  -0.00088   1.95391
   A21        1.85444  -0.00106   0.00000   0.00474   0.00451   1.85895
   A22        1.85435   0.00377   0.00000   0.02974   0.02923   1.88358
   A23        1.85394   0.00416   0.00000   0.03204   0.03203   1.88597
   A24        1.85391   0.00261   0.00000   0.03291   0.03243   1.88634
   A25        2.09442  -0.01053   0.00000  -0.09806  -0.09777   1.99665
   A26        1.95069  -0.00212   0.00000  -0.00398  -0.00446   1.94623
   A27        1.85480   0.00430   0.00000   0.03121   0.03095   1.88575
   A28        1.85485   0.00249   0.00000   0.02247   0.02239   1.87724
   A29        1.85531   0.00449   0.00000   0.03100   0.03070   1.88601
   A30        1.85521   0.00178   0.00000   0.01877   0.01870   1.87391
   A31        2.09442  -0.01110   0.00000  -0.09882  -0.09849   1.99593
   A32        1.95659  -0.00037   0.00000  -0.00604  -0.00613   1.95046
   A33        1.85359   0.00433   0.00000   0.03282   0.03286   1.88645
   A34        1.85370   0.00329   0.00000   0.03424   0.03382   1.88752
   A35        1.85389  -0.00032   0.00000   0.00708   0.00687   1.86077
   A36        1.85394   0.00378   0.00000   0.02890   0.02854   1.88248
   A37        2.09438  -0.01067   0.00000  -0.09710  -0.09684   1.99754
   A38        1.95833  -0.00691   0.00000  -0.02862  -0.02824   1.93009
   A39        1.85441   0.00359   0.00000   0.02601   0.02608   1.88049
   A40        1.85443   0.00585   0.00000   0.03931   0.03951   1.89394
   A41        1.85238   0.00516   0.00000   0.02932   0.02956   1.88193
   A42        1.85232   0.00276   0.00000   0.02475   0.02483   1.87714
   A43        2.09447  -0.01132   0.00000  -0.09411  -0.09398   2.00048
    D1       -1.64504  -0.00046   0.00000  -0.01180  -0.01294  -1.65798
    D2        0.45603   0.00591   0.00000   0.04559   0.04618   0.50221
    D3        2.53708  -0.00392   0.00000  -0.01035  -0.00980   2.52728
    D4       -1.13780   0.00668   0.00000   0.04433   0.04456  -1.09324
    D5        3.00597   0.00137   0.00000   0.02818   0.02831   3.03428
    D6        0.92103   0.00491   0.00000   0.04513   0.04545   0.96648
    D7        3.04431  -0.00131   0.00000  -0.02532  -0.02560   3.01871
    D8        0.90490  -0.00663   0.00000  -0.04147  -0.04185   0.86305
    D9       -1.18004  -0.00309   0.00000  -0.02452  -0.02471  -1.20475
   D10        0.96326   0.00200   0.00000   0.00181   0.00186   0.96512
   D11       -1.17615  -0.00332   0.00000  -0.01435  -0.01438  -1.19054
   D12        3.02209   0.00022   0.00000   0.00260   0.00275   3.02485
   D13       -3.07603  -0.00104   0.00000  -0.00937  -0.00933  -3.08536
   D14       -1.05988   0.00387   0.00000   0.02659   0.02662  -1.03326
   D15        1.19098  -0.00462   0.00000  -0.05161  -0.05157   1.13941
   D16       -0.95185  -0.00408   0.00000  -0.02241  -0.02273  -0.97458
   D17        1.06430   0.00083   0.00000   0.01355   0.01322   1.07752
   D18       -2.96803  -0.00766   0.00000  -0.06464  -0.06497  -3.03300
   D19        1.17780   0.00059   0.00000   0.00719   0.00748   1.18528
   D20       -3.08924   0.00550   0.00000   0.04315   0.04343  -3.04581
   D21       -0.83838  -0.00300   0.00000  -0.03504  -0.03476  -0.87314
   D22        3.09461  -0.00001   0.00000   0.00461   0.00458   3.09920
   D23        1.07756  -0.00473   0.00000  -0.03108  -0.03116   1.04641
   D24       -1.17158   0.00318   0.00000   0.04269   0.04260  -1.12898
   D25        0.94575   0.00517   0.00000   0.02599   0.02617   0.97192
   D26       -1.07130   0.00045   0.00000  -0.00970  -0.00957  -1.08087
   D27        2.96274   0.00836   0.00000   0.06408   0.06419   3.02693
   D28       -1.15987  -0.00158   0.00000  -0.01752  -0.01737  -1.17725
   D29        3.10626  -0.00630   0.00000  -0.05321  -0.05311   3.05315
   D30        0.85711   0.00161   0.00000   0.02057   0.02065   0.87776
   D31        0.95191  -0.00010   0.00000   0.00498   0.00499   0.95690
   D32        2.96902   0.00494   0.00000   0.04578   0.04575   3.01477
   D33       -1.06511  -0.00612   0.00000  -0.05155  -0.05172  -1.11683
   D34       -1.06614  -0.00342   0.00000  -0.02510  -0.02501  -1.09115
   D35        0.95097   0.00161   0.00000   0.01570   0.01576   0.96672
   D36       -3.08316  -0.00944   0.00000  -0.08162  -0.08171   3.11831
   D37        2.96999   0.00453   0.00000   0.04883   0.04888   3.01887
   D38       -1.29608   0.00957   0.00000   0.08963   0.08964  -1.20644
   D39        0.95298  -0.00149   0.00000  -0.00769  -0.00783   0.94515
   D40       -0.92920  -0.00390   0.00000  -0.02294  -0.02308  -0.95228
   D41        1.08765   0.00287   0.00000   0.03017   0.03025   1.11789
   D42       -2.94595  -0.00639   0.00000  -0.05638  -0.05649  -3.00245
   D43       -2.94661  -0.00576   0.00000  -0.04713  -0.04735  -2.99396
   D44       -0.92977   0.00102   0.00000   0.00598   0.00598  -0.92379
   D45        1.31982  -0.00824   0.00000  -0.08057  -0.08076   1.23906
   D46        1.08809   0.00282   0.00000   0.03165   0.03172   1.11981
   D47        3.10493   0.00960   0.00000   0.08476   0.08504  -3.09321
   D48       -0.92867   0.00034   0.00000  -0.00179  -0.00170  -0.93036
   D49        0.92156   0.00344   0.00000   0.02148   0.02167   0.94323
   D50        2.93904   0.00541   0.00000   0.04618   0.04641   2.98545
   D51       -1.09604  -0.00283   0.00000  -0.03017  -0.03016  -1.12621
   D52       -1.09497  -0.00321   0.00000  -0.03177  -0.03182  -1.12678
   D53        0.92251  -0.00124   0.00000  -0.00707  -0.00708   0.91543
   D54       -3.11258  -0.00948   0.00000  -0.08341  -0.08365   3.08696
   D55        2.93810   0.00636   0.00000   0.05718   0.05731   2.99541
   D56       -1.32761   0.00833   0.00000   0.08188   0.08205  -1.24556
   D57        0.92049   0.00009   0.00000   0.00554   0.00548   0.92597
   D58       -0.93859  -0.00014   0.00000  -0.00618  -0.00608  -0.94466
   D59        1.07970   0.00364   0.00000   0.02751   0.02754   1.10724
   D60       -2.95686  -0.00521   0.00000  -0.05310  -0.05308  -3.00994
   D61       -2.95588  -0.00494   0.00000  -0.04651  -0.04645  -3.00232
   D62       -0.93760  -0.00116   0.00000  -0.01281  -0.01283  -0.95042
   D63        1.30904  -0.01001   0.00000  -0.09343  -0.09345   1.21559
   D64        1.07888   0.00583   0.00000   0.04871   0.04890   1.12778
   D65        3.09716   0.00961   0.00000   0.08241   0.08252  -3.10351
   D66       -0.93939   0.00076   0.00000   0.00179   0.00189  -0.93750
         Item               Value     Threshold  Converged?
 Maximum Force            0.043170     0.000450     NO 
 RMS     Force            0.007548     0.000300     NO 
 Maximum Displacement     0.106148     0.001800     NO 
 RMS     Displacement     0.036286     0.001200     NO 
 Predicted change in Energy=-2.190933D-02
 Lowest energy point so far.  Saving SCF results.
 GradGradGradGradGradGradGradGradGradGradGradGradGradGradGradGradGradGrad

 Leave Link  103 at Mon Oct 14 00:20:32 2019, MaxMem= 10737418240 cpu:               1.1 elap:               0.1
 (Enter /apps/cent7/gaussian/g16-A.03/g16-haswell/g16/l202.exe)
                          Input orientation:                          
 ---------------------------------------------------------------------
 Center     Atomic      Atomic             Coordinates (Angstroms)
 Number     Number       Type             X           Y           Z
 ---------------------------------------------------------------------
      1          8           0        1.507774    0.150204    0.052711
      2          7           0        0.123855    0.141009    0.212440
      3          6           0       -0.492039   -1.232625    0.151973
      4          6           0       -0.251417   -1.858723   -1.241384
      5          6           0       -0.953996   -3.240318   -1.335007
      6          6           0       -2.466013   -3.146680   -0.995506
      7          6           0       -2.698394   -2.488600    0.391387
      8          6           0       -1.996514   -1.107178    0.497883
      9          1           0        1.916411    0.144883    0.934225
     10          1           0       -0.139668    0.593228    1.092071
     11          1           0        0.032714   -1.818088    0.913351
     12          1           0       -0.705529   -1.195686   -1.986977
     13          1           0        0.821584   -2.016455   -1.366534
     14          1           0       -0.859754   -3.566443   -2.371845
     15          1           0       -0.483009   -3.907704   -0.606536
     16          1           0       -2.945676   -2.518971   -1.753753
     17          1           0       -2.855204   -4.165046   -0.942231
     18          1           0       -3.767901   -2.304624    0.504055
     19          1           0       -2.268488   -3.143193    1.155529
     20          1           0       -2.454657   -0.440225   -0.241184
     21          1           0       -2.087747   -0.769529    1.535546
     22          1           0       -0.243307    0.713692   -0.551383
 ---------------------------------------------------------------------
                    Distance matrix (angstroms):
                    1          2          3          4          5
     1  O    0.000000
     2  N    1.393137   0.000000
     3  C    2.433376   1.506603   0.000000
     4  C    2.967359   2.500672   1.546397   0.000000
     5  C    4.413809   3.871657   2.540737   1.552800   0.000000
     6  C    5.268698   4.356082   2.979411   2.573660   1.552490
     7  C    4.976930   3.861600   2.550057   3.008385   2.566795
     8  C    3.749562   2.476976   1.548817   2.575894   2.999436
     9  H    0.971638   1.932420   2.882720   3.667041   4.984800
    10  H    1.997650   1.023570   2.083672   3.386674   4.609763
    11  H    2.605892   2.082701   1.094454   2.173767   2.837507
    12  H    3.297037   2.704084   2.149896   1.096241   2.160398
    13  H    2.679463   2.763085   2.155426   1.091729   2.156739
    14  H    5.029624   4.625064   3.457106   2.136428   1.090996
    15  H    4.567761   4.175055   2.780551   2.157542   1.094487
    16  H    5.497365   4.512586   3.362561   2.820901   2.159277
    17  H    6.216660   5.361918   3.921852   3.491178   2.150345
    18  H    5.836320   4.605640   3.464739   3.951082   3.489374
    19  H    5.130577   4.171175   2.795204   3.385798   2.817816
    20  H    4.016944   2.681852   2.152752   2.804782   3.359904
    21  H    3.996558   2.733289   2.162178   3.502826   3.953513
    22  H    1.936165   1.022840   2.084402   2.663360   4.093085
                    6          7          8          9         10
     6  C    0.000000
     7  C    1.552592   0.000000
     8  C    2.571033   1.553159   0.000000
     9  H    5.810670   5.341004   4.131468   0.000000
    10  H    4.874092   4.066411   2.586951   2.110305   0.000000
    11  H    3.413580   2.860242   2.189925   2.720662   2.424067
    12  H    2.808682   3.361510   2.801607   4.147905   3.605683
    13  H    3.496193   3.962758   3.499216   3.341185   3.712033
    14  H    2.156520   3.489669   3.946586   5.693077   5.460778
    15  H    2.159342   2.813829   3.369478   4.955262   4.823022
    16  H    1.095004   2.159559   2.822044   6.161269   5.065390
    17  H    1.091502   2.147929   3.487382   6.698125   5.844116
    18  H    2.157001   1.091049   2.138160   6.204557   4.680532
    19  H    2.160088   1.094178   2.156809   5.326705   4.300784
    20  H    2.809631   2.157636   1.095875   4.564008   2.864397
    21  H    3.492872   2.153415   1.095023   4.151026   2.418426
    22  H    4.476622   4.143784   2.736834   2.682342   1.651119
                   11         12         13         14         15
    11  H    0.000000
    12  H    3.056843   0.000000
    13  H    2.420649   1.841382   0.000000
    14  H    3.826978   2.406740   2.498002   0.000000
    15  H    2.634867   3.051257   2.419997   1.837039   0.000000
    16  H    4.059001   2.612228   3.820303   2.414602   3.051133
    17  H    4.158301   3.811783   4.279632   2.526646   2.409611
    18  H    3.853429   4.100379   4.964426   4.280223   3.820182
    19  H    2.666474   4.013847   4.144742   3.821785   2.622457
    20  H    3.068953   2.584176   3.805873   4.105687   4.005532
    21  H    2.446009   3.807926   4.294310   4.959677   4.124541
    22  H    2.937950   2.433168   3.041738   4.691870   4.627937
                   16         17         18         19         20
    16  H    0.000000
    17  H    1.837475   0.000000
    18  H    2.412405   2.527040   0.000000
    19  H    3.051583   2.406038   1.837351   0.000000
    20  H    2.617279   3.811325   2.399161   3.048197   0.000000
    21  H    3.823098   4.272927   2.498681   2.410677   1.843863
    22  H    4.381621   5.547689   4.758881   4.678726   2.513527
                   21         22
    21  H    0.000000
    22  H    3.155499   0.000000
 Stoichiometry    C6H14NO(1+)
 Framework group  C1[X(C6H14NO)]
 Deg. of freedom    60
 Full point group                 C1      NOp   1
 RotChk:  IX=0 Diff= 1.50D-02
 Largest Abelian subgroup         C1      NOp   1
 Largest concise Abelian subgroup C1      NOp   1
                         Standard orientation:                         
 ---------------------------------------------------------------------
 Center     Atomic      Atomic             Coordinates (Angstroms)
 Number     Number       Type             X           Y           Z
 ---------------------------------------------------------------------
      1          8           0        2.897293    0.444401   -0.157339
      2          7           0        1.939439   -0.473661    0.267523
      3          6           0        0.552697   -0.199718   -0.253779
      4          6           0        0.050983    1.165572    0.271205
      5          6           0       -1.408352    1.414727   -0.197250
      6          6           0       -2.355069    0.253975    0.210925
      7          6           0       -1.826759   -1.115890   -0.293952
      8          6           0       -0.365787   -1.374187    0.165558
      9          1           0        3.336876    0.083718   -0.945220
     10          1           0        2.216166   -1.425770    0.013345
     11          1           0        0.656353   -0.159032   -1.342553
     12          1           0        0.053182    1.122014    1.366579
     13          1           0        0.680563    1.949597   -0.154009
     14          1           0       -1.746041    2.320397    0.308717
     15          1           0       -1.404577    1.481789   -1.289673
     16          1           0       -2.397347    0.219352    1.304564
     17          1           0       -3.318301    0.429554   -0.271498
     18          1           0       -2.438082   -1.900680    0.154128
     19          1           0       -1.837068   -1.102889   -1.388004
     20          1           0       -0.362621   -1.426270    1.260190
     21          1           0       -0.017937   -2.283640   -0.335411
     22          1           0        1.938142   -0.414591    1.288654
 ---------------------------------------------------------------------
 Rotational constants (GHZ):           3.8348924           1.2833586           1.0363237
 Leave Link  202 at Mon Oct 14 00:20:32 2019, MaxMem= 10737418240 cpu:               0.2 elap:               0.0
 (Enter /apps/cent7/gaussian/g16-A.03/g16-haswell/g16/l301.exe)
 Standard basis: 6-31G(d) (6D, 7F)
 Ernie: Thresh=  0.10000D-02 Tol=  0.10000D-05 Strict=F.
 There are   148 symmetry adapted cartesian basis functions of A   symmetry.
 There are   148 symmetry adapted basis functions of A   symmetry.
   148 basis functions,   280 primitive gaussians,   148 cartesian basis functions
    32 alpha electrons       32 beta electrons
       nuclear repulsion energy       418.7522749904 Hartrees.
 IExCor=  402 DFT=T Ex+Corr=B3LYP ExCW=0 ScaHFX=  0.200000
 ScaDFX=  0.800000  0.720000  1.000000  0.810000 ScalE2=  1.000000  1.000000
 IRadAn=      5 IRanWt=     -1 IRanGd=            0 ICorTp=0 IEmpDi=  4
 NAtoms=   22 NActive=   22 NUniq=   22 SFac= 1.00D+00 NAtFMM=   60 NAOKFM=F Big=F
 Integral buffers will be    131072 words long.
 Raffenetti 2 integral format.
 Two-electron integral symmetry is turned on.
 Leave Link  301 at Mon Oct 14 00:20:32 2019, MaxMem= 10737418240 cpu:               1.4 elap:               0.1
 (Enter /apps/cent7/gaussian/g16-A.03/g16-haswell/g16/l302.exe)
 NPDir=0 NMtPBC=     1 NCelOv=     1 NCel=       1 NClECP=     1 NCelD=      1
         NCelK=      1 NCelE2=     1 NClLst=     1 CellRange=     0.0.
 One-electron integrals computed using PRISM.
 One-electron integral symmetry used in STVInt
 NBasis=   148 RedAO= T EigKep=  3.10D-03  NBF=   148
 NBsUse=   148 1.00D-06 EigRej= -1.00D+00 NBFU=   148
 Precomputing XC quadrature grid using
 IXCGrd= 4 IRadAn=           5 IRanWt=          -1 IRanGd=           0 AccXCQ= 0.00D+00.
 Generated NRdTot=       0 NPtTot=           0 NUsed=           0 NTot=          32
 NSgBfM=   148   148   148   148   148 MxSgAt=    22 MxSgA2=    22.
 Leave Link  302 at Mon Oct 14 00:20:32 2019, MaxMem= 10737418240 cpu:               3.2 elap:               0.2
 (Enter /apps/cent7/gaussian/g16-A.03/g16-haswell/g16/l303.exe)
[...]
 27498,-0.17400832,0.00169734,-0.00147966,0.00304821,-0.00008114,0.0000
 2169,-0.00019304,0.00027521,-0.00013627,-0.00007689,-0.00163311,0.0007
 9396,0.00106802,0.00024539,0.00026776,-0.00005095,0.00036903,0.0000416
 2,0.00035579,0.00137320,-0.00312834,-0.00438404,0.07508479,-0.11267870
 ,0.19256788,0.00019351,-0.00183965,-0.00153358,-0.00103311,0.00020869,
 0.00081588,-0.00279460,0.00073593,0.00030330,-0.30886512,0.02469456,0.
 04208209,-0.01237139,0.00083933,0.00149179,0.00071031,-0.00349350,-0.0
 0048334,0.00024370,-0.00002207,-0.00036346,0.00093661,0.00004522,0.000
 90896,0.00007553,0.00013852,0.00013535,0.00001252,0.00015484,0.0000536
 4,0.00067855,0.00018117,0.00040520,-0.01095234,0.00101180,0.00152199,0
 .33260307,-0.00083900,-0.00023573,0.00003299,0.00174157,0.00066314,0.0
 0035636,0.01403672,-0.00303550,-0.00192347,0.02239870,-0.04946700,-0.0
 0200866,-0.03163499,0.00310938,0.00549722,-0.00078417,-0.00631985,-0.0
 0074526,-0.00001890,-0.00038496,-0.00034990,-0.00032286,-0.00083127,-0
 .00295239,-0.00025157,-0.00006433,-0.00046023,-0.00009775,0.00014272,-
 0.00015294,-0.00077613,0.00024741,0.00020075,0.01930318,-0.00184727,-0
 .00376566,-0.02286249,0.05497965,-0.00111319,0.00027722,0.00020689,0.0
 0112311,0.00063520,0.00096672,0.03299834,-0.00295062,-0.00619301,0.039
 37408,-0.00253612,-0.05913857,-0.00283969,0.00165848,0.00024291,-0.000
 37464,-0.00107376,0.00037357,-0.00054153,-0.00037712,0.00006589,-0.001
 37810,-0.00287003,-0.00519128,-0.00019363,-0.00055587,-0.00061827,0.00
 004080,0.00018655,-0.00010339,-0.00026431,0.00061901,0.00129248,-0.023
 36519,0.00162053,0.00470794,-0.04559057,0.00596210,0.06286133,0.000140
 40,0.00017425,-0.00001235,0.00047246,-0.00151472,-0.00127544,-0.001360
 92,-0.00194645,0.00088423,0.00136134,-0.00579100,-0.01462340,-0.053838
 57,0.01446428,0.03502155,-0.00411057,0.01257726,0.03169927,-0.00727230
 ,-0.00040373,-0.00035798,-0.00032539,-0.00038593,-0.00008828,0.0000708
 8,0.00002584,0.00002900,-0.00026955,-0.00043612,0.00003040,-0.00013351
 ,0.00011130,0.00036131,0.00042996,0.00052421,0.00035659,0.00034893,0.0
 0057452,-0.00042897,0.05987775,0.00003799,0.00013850,0.00001354,0.0004
 6134,-0.00144688,-0.00228288,-0.00316981,-0.00382014,0.00255806,0.0031
 1396,-0.01418070,-0.02879748,0.01436228,-0.08307062,-0.08800369,0.0011
 7420,-0.00067650,-0.00045633,-0.00002254,0.00044048,0.00020467,-0.0002
 7737,0.00023243,0.00044610,0.00010732,-0.00001778,0.00007132,-0.000353
 43,-0.00067828,-0.00001132,-0.00015371,0.00003106,-0.00012734,0.000841
 15,0.00113418,-0.00002298,0.00015795,0.00122624,0.00019653,-0.01305032
 ,0.09137373,-0.00007313,-0.00004300,-0.00001881,0.00021857,0.00017814,
 0.00027167,-0.00010202,0.00049396,0.00109281,-0.00040766,0.00040052,0.
 00006023,0.03488118,-0.08999083,-0.27901394,0.00035123,-0.00094258,-0.
 00405039,0.00167815,0.00033752,0.00112267,-0.00007666,0.00028591,0.000
 14447,0.00004513,0.00001628,0.00000652,0.00002020,0.00013377,0.0000675
 3,0.00001703,0.00010755,0.00026904,-0.00004805,-0.00019010,0.00071431,
 -0.00038565,-0.00023264,0.00012931,-0.03882980,0.09685561,0.29751186,-
 0.00004443,0.00003120,-0.00003871,0.00007483,0.00018294,0.00013985,0.0
 0021161,0.00013749,0.00040553,0.00641782,-0.01104570,0.01088522,-0.099
 59022,0.07177915,-0.07268681,-0.01721086,0.02101477,-0.02259281,0.0014
 6565,-0.00014771,-0.00156665,-0.00009834,-0.00000300,0.00019542,0.0000
 3598,-0.00003775,-0.00001906,-0.00004557,0.00005214,-0.00003101,0.0000
 7137,0.00028527,-0.00005865,-0.00062855,-0.00380074,-0.00057146,0.0008
 0174,0.00059224,0.00042961,0.00201501,-0.00335160,0.00263252,0.1112033
 7,0.00000161,-0.00000716,-0.00007677,-0.00037304,0.00043051,-0.0003159
 7,0.00089972,0.00015512,0.00220750,0.01205567,-0.02171943,0.01914852,0
 .07125651,-0.14949787,0.10098155,0.00063528,-0.00007573,0.00008252,-0.
 00019654,-0.00029652,0.00042564,-0.00000606,-0.00012313,-0.00022284,-0
 .00000124,-0.00012961,0.00000538,-0.00007833,-0.00001296,-0.00011521,-
 0.00014066,-0.00033390,-0.00105057,-0.00280005,-0.00496274,-0.00105695
 ,0.00003079,0.00123810,-0.00009331,-0.00584096,0.00858787,-0.00720592,
 -0.07532406,0.16420996,0.00007099,0.00001411,0.00002022,-0.00003084,0.
 00005590,0.00029810,0.00031090,-0.00083579,0.00060148,0.00187991,-0.00
 238428,0.00130250,-0.07207989,0.10100141,-0.15657176,0.00306356,-0.005
 13145,0.00421426,0.00023341,-0.00049988,0.00113397,-0.00000411,-0.0000
 3166,-0.00000307,-0.00006446,0.00003408,-0.00000713,0.00002738,0.00006
 074,-0.00004897,-0.00006027,0.00021235,0.00040708,0.00004389,-0.000829
 88,0.00100098,0.00031887,0.00043983,0.00010618,-0.01383593,0.01991342,
 -0.01915114,0.07945312,-0.11184679,0.16552597,0.00007808,0.00001200,0.
 00000790,0.00000096,-0.00015339,-0.00009840,-0.00020446,0.00004002,0.0
 0019420,0.00138371,0.00118036,-0.00093401,-0.01787475,0.01920975,-0.02
 357632,-0.10365084,0.06109296,-0.08355398,0.00294417,-0.00412798,0.005
 26232,-0.00012984,0.00013078,-0.00035763,-0.00001603,0.00003501,-0.000
 00217,-0.00003202,-0.00004950,-0.00001287,0.00003928,0.00011288,0.0001
 8213,-0.00010377,-0.00111747,0.00034001,0.00037679,0.00000444,0.000521
 52,0.00139657,-0.00004920,0.00013476,-0.00635638,-0.00032464,0.0016173
 9,0.11419857,0.00003864,0.00003125,0.00003086,-0.00001339,0.00003680,0
 .00004476,-0.00005410,-0.00013371,-0.00018799,-0.00048464,0.00082112,-
 0.00047219,0.00083445,-0.00216997,0.00094780,0.06100575,-0.12420527,0.
 09611561,-0.00742541,0.00728026,-0.01166298,-0.00020019,0.00141752,-0.
 00040385,-0.00002676,-0.00001765,-0.00002800,-0.00000860,0.00000289,0.
 00000436,0.00008627,-0.00008069,0.00005346,0.00009410,0.00048965,0.000
 09706,0.00005606,0.00008955,-0.00004482,0.00030481,-0.00002457,-0.0000
 5867,0.00041863,0.00118948,-0.00053934,-0.06959911,0.13068340,-0.00007
 757,-0.00004638,0.00001778,-0.00010067,-0.00003701,0.00005052,0.000216
 14,-0.00011091,-0.00013920,-0.00016944,-0.00023049,0.00003458,0.004194
 76,-0.00466140,0.00617735,-0.08347771,0.09609695,-0.17708194,-0.013150
 63,0.01660166,-0.02427347,-0.00028419,0.00137655,0.00087393,0.00000933
 ,-0.00000336,-0.00001117,0.00001003,0.00003167,0.00000360,0.00019327,0
 .00007318,-0.00000920,-0.00038417,-0.00021829,0.00006287,-0.00005535,-
 0.00020383,0.00005394,-0.00049961,-0.00022065,0.00078923,0.00234879,-0
 .00003612,0.00078231,0.08896044,-0.10390600,0.19511553,0.00014012,-0.0
 0012764,-0.00015639,0.00001860,-0.00014405,-0.00012248,-0.00025590,0.0
 0067226,0.00085453,-0.00642404,0.00180978,0.00121900,-0.01346197,-0.03
 071341,-0.00022418,-0.09027219,-0.09617454,-0.00164346,0.00228005,0.00
 606912,-0.00098039,0.00029026,0.00096043,0.00149288,0.00004519,0.00006
 604,0.00008450,-0.00011946,-0.00009297,0.00002569,-0.00000401,-0.00006
 871,-0.00007108,0.00018180,0.00012702,0.00014266,-0.00082282,-0.001836
 31,-0.00032944,0.00117061,0.00010185,0.00021699,0.00126602,0.00004612,
 -0.00071405,0.00662851,0.01467055,0.00077615,0.09862989,-0.00008414,-0
 .00003229,0.00000385,0.00005842,0.00014602,0.00007369,0.00046839,0.000
 10562,-0.00008551,0.00095679,0.00126080,0.00004875,0.00166832,0.003898
 99,0.00046327,-0.09724058,-0.27581188,-0.00204344,-0.00440619,-0.01185
 041,0.00017782,0.00112265,0.00044080,-0.00282454,0.00003999,-0.0000038
 7,0.00001605,0.00005590,0.00008532,0.00003185,-0.00004148,-0.00002748,
 0.00000103,0.00009805,0.00018431,-0.00009164,0.00019274,0.00017570,-0.
 00010095,-0.00046076,0.00023427,0.00023630,-0.00036469,0.00064417,-0.0
 0006548,-0.00635302,-0.01565412,0.00009275,0.10460452,0.29551360,-0.00
 025062,-0.00001470,0.00009037,-0.00007465,0.00014802,0.00015547,0.0008
 0808,-0.00003146,-0.00044205,0.00185993,-0.00041134,0.00000442,0.00177
 409,0.00694642,-0.00053033,-0.00118566,-0.00086184,-0.04922053,-0.0124
 0286,-0.02894234,-0.00089509,0.00106657,-0.00205773,-0.00570986,0.0000
 2981,-0.00005238,-0.00001811,0.00021556,0.00013227,-0.00002521,-0.0000
 7578,-0.00002576,0.00001960,-0.00018028,-0.00048234,0.00009232,0.00043
 263,0.00046626,0.00041491,-0.00021022,0.00035779,-0.00000857,-0.000241
 52,-0.00041228,0.00028496,0.00991643,0.02195960,0.00053233,-0.00033083
 ,0.00406359,0.05312115,-0.00021662,-0.00021002,-0.00003100,-0.00063357
 ,0.00006842,0.00030485,0.00123230,-0.00225518,-0.00058395,0.00041443,0
 .00010065,-0.00027706,0.00122489,0.00046150,0.00108242,-0.00234438,0.0
 0070302,0.00046926,-0.30873735,0.02890143,0.04196085,-0.01316832,0.000
 16943,0.00152924,0.00008306,0.00000343,0.00005795,-0.00001626,0.000080
 53,0.00007108,0.00025397,-0.00001477,-0.00005454,-0.00004106,-0.000011
 17,0.00003746,-0.00001131,0.00003788,-0.00002158,-0.00026164,-0.000123
 36,-0.00005835,0.00020272,-0.00008345,-0.00009347,0.00054928,-0.000212
 82,0.00024363,0.00024802,0.00031155,0.00016574,0.33097565,-0.00156665,
 -0.00095649,0.00014221,-0.00177098,0.00058380,0.00038138,-0.00034699,-
 0.00595966,-0.00098358,0.00016712,-0.00029012,-0.00020630,-0.00052566,
 -0.00114942,-0.00335806,0.01448573,-0.00148184,-0.00088113,0.03089272,
 -0.05147226,-0.00397536,-0.03255857,0.00028768,0.00492407,0.00018606,-
 0.00011723,0.00010628,-0.00002041,0.00023349,0.00011346,0.00001827,-0.
 00006753,-0.00019991,-0.00001911,0.00008077,0.00007831,0.00004712,0.00
 011103,0.00008548,0.00106451,0.00032445,-0.00039653,-0.00049517,0.0001
 4411,0.00010527,-0.00056234,0.00054372,0.00028135,0.00019073,0.0000417
 2,0.00047349,-0.02963988,0.05801058,-0.00019551,-0.00010516,0.00003435
 ,-0.00037386,-0.00034580,0.00044387,-0.00017625,-0.00021913,0.00003464
 ,-0.00039197,-0.00036177,-0.00002362,-0.00085210,-0.00287673,-0.005741
 68,0.03080109,-0.00289420,-0.00487200,0.04147128,-0.00384570,-0.055817
 73,-0.00210909,0.00091758,-0.00035564,0.00003761,-0.00000710,-0.000001
 44,0.00000509,0.00008089,0.00004461,0.00042016,-0.00011508,-0.00000213
 ,0.00001139,0.00009097,0.00000115,0.00000220,0.00008179,0.00008801,0.0
 0190558,-0.00007814,-0.00027036,0.00008476,-0.00019212,0.00013990,-0.0
 0009100,0.00086786,0.00106734,-0.00045460,0.00014840,0.00112788,-0.045
 91307,0.00669424,0.05973862,-0.00004053,0.00017178,-0.00006860,0.00035
 042,0.00008511,-0.00002693,0.00112897,-0.00086613,0.00099598,-0.000113
 20,-0.00005817,-0.00002039,0.00081595,-0.00084367,0.00056074,0.0013069
 0,-0.00331527,0.00379597,-0.08632294,0.05529079,-0.06652266,0.00415110
 ,-0.01056656,0.01145641,-0.00007783,-0.00004862,-0.00002329,0.00007071
 ,-0.00002654,0.,-0.00006721,0.00004849,-0.00015545,-0.00006601,0.00010
 665,-0.00011005,-0.00002056,0.00002808,0.00001551,0.00009645,0.0000367
 4,-0.00013778,0.00021219,0.00023564,-0.00005618,0.00078537,0.00012099,
 0.00108312,0.00013597,-0.00011465,-0.00059214,-0.01075502,0.01964158,-
 0.02421659,0.08869447,-0.00028482,0.00004351,-0.00011680,0.00009882,0.
 00050498,-0.00034326,0.00182291,0.00003057,0.00061798,-0.00013919,-0.0
 0002992,-0.00002271,-0.00069484,0.00030985,0.00026437,-0.00597515,0.00
 962774,-0.01197595,0.05475722,-0.13693516,0.10860988,0.00986876,-0.021
 30272,0.02133559,-0.00002749,-0.00008054,0.00006586,0.00016454,-0.0000
 4367,0.00009559,-0.00108659,0.00018657,-0.00012155,0.00000907,-0.00004
 540,-0.00013873,0.00000502,0.00004451,0.00009190,-0.00020167,-0.000008
 79,0.00006263,0.00001271,0.00002757,0.00029825,0.00094599,-0.00046099,
 -0.00357468,-0.00028726,0.00087160,0.00051466,0.00149080,-0.00181263,0
 .00201411,-0.05781207,0.15279125,0.00005469,0.00006196,-0.00003332,0.0
 0027254,-0.00010893,0.00022852,-0.00028797,0.00012521,-0.00014737,0.00
 028642,-0.00011284,-0.00007709,-0.00133305,0.00106101,0.00121846,-0.01
 189163,0.01698052,-0.02378357,-0.06679082,0.10969940,-0.18352626,0.001
 62966,-0.00240521,0.00239008,0.00001096,0.00003936,-0.00000341,-0.0000
 3074,-0.00000647,0.00001902,0.00053047,0.00023278,0.00000109,-0.000158
 75,-0.00016200,0.00005900,0.00006086,0.00008915,0.00002743,-0.00003661
 ,-0.00038825,0.00039744,0.00117535,-0.00044621,0.00021936,0.00175131,-
 0.00317950,-0.00470406,-0.00020393,-0.00005330,0.00119767,0.00126082,-
 0.00353170,0.00418346,0.07390042,-0.11687860,0.20054033,0.00030659,-0.
 00053120,0.00063843,0.00114778,0.00172268,-0.00113145,-0.01892556,0.02
 081753,-0.02319289,0.00145223,-0.00034283,-0.00173718,-0.00019224,-0.0
 0008638,0.00021345,0.00019691,0.00075714,0.00034993,0.00715791,-0.0106
 6113,0.01104595,-0.09661867,0.06857518,-0.07067051,0.00042950,0.000358
 25,-0.00001336,-0.00027525,-0.00000890,-0.00015024,-0.00586983,-0.0002
 3854,0.00192049,0.00017308,-0.00023216,0.00099310,0.00022842,-0.000473
 74,0.00021961,0.00007923,0.00009571,-0.00001162,-0.00008024,-0.0001385
 1,-0.00000815,0.00005378,0.00018807,-0.00024545,-0.00010032,0.00011490
 ,0.00016377,0.00075520,0.00035645,0.00040424,-0.00073105,-0.00352379,-
 0.00065358,0.10967322,0.00029837,0.00020689,-0.00018902,-0.00052461,0.
 00111893,-0.00043642,-0.00047244,-0.00249329,0.00105993,0.00001428,-0.
 00007002,0.00057890,-0.00006838,-0.00015227,-0.00041709,0.00108681,0.0
 0148655,0.00144483,0.01191101,-0.02149082,0.02098671,0.06940691,-0.140
 88410,0.10033515,-0.00009596,-0.00011481,0.00004760,-0.00002503,0.0000
 5680,-0.00014482,0.00000114,0.00070528,-0.00001802,0.00021911,0.000030
 31,-0.00050131,-0.00008861,0.00009506,-0.00025116,0.00007411,-0.000031
 67,-0.00003413,-0.00018950,0.00014249,0.00006320,-0.00024175,0.0000312
 8,-0.00120884,-0.00037717,0.00043387,-0.00001780,0.00011223,0.00149411
 ,-0.00008065,-0.00310625,-0.00496613,-0.00122131,-0.07191851,0.1556565
 5,-0.00022589,-0.00034916,0.00018687,0.00010022,-0.00012733,0.00035262
 ,0.00308372,-0.00529410,0.00484002,0.00013795,-0.00073759,0.00084588,0
 .00021431,0.00016021,-0.00001624,0.00039938,-0.00085669,0.00097957,0.0
 0115668,-0.00031411,0.00070460,-0.07122038,0.10086866,-0.16427775,0.00
 004084,0.00003360,-0.00010454,-0.00013377,0.00033479,-0.00041921,0.001
 85039,-0.00008533,0.00066929,0.00020354,0.00023887,0.00025256,-0.00007
 677,0.00007136,0.00003906,-0.00003044,-0.00003914,-0.00001956,-0.00007
 435,-0.00000767,-0.00012133,-0.00026806,0.00017874,0.00032372,0.000050
 91,0.00003583,0.00009648,0.00022798,0.00028921,0.00008965,0.00015523,-
 0.00053857,0.00109801,0.07868995,-0.11236406,0.17298381,0.00034628,-0.
 00009169,-0.00068908,0.00130848,0.00147372,0.00152060,-0.00622810,0.01
 255859,0.03298234,-0.00655819,-0.00063455,-0.00090974,-0.00033610,-0.0
 0057954,-0.00022056,-0.00152434,-0.00326631,0.00098474,0.00267173,-0.0
 0503531,-0.01522764,-0.05546291,0.01473096,0.02940835,-0.00008651,0.00
 018761,0.00010966,-0.00058867,-0.00112410,-0.00014213,0.00143691,-0.00
 008446,-0.00048342,-0.00000372,-0.00020699,0.00011907,-0.00013066,0.00
 082831,0.00183823,0.00017290,0.00007020,-0.00003946,0.00010858,0.00007
 089,-0.00000995,-0.00000378,0.00021820,0.00045649,0.00049396,-0.000665
 91,-0.00093105,0.00027782,0.00048720,-0.00037877,0.00043036,0.00048576
 ,0.00050965,0.00230579,-0.00645723,-0.01324324,0.06155165,0.00025732,0
 .00004952,-0.00002804,-0.00035484,0.00103274,0.00129095,-0.00010410,-0
 .00312162,-0.00177374,0.00033061,0.00077440,0.00069021,-0.00048676,0.0
 0018615,0.00026636,-0.00355975,-0.00512421,0.00232281,0.00401107,-0.01
 221542,-0.02883034,0.01541636,-0.08250389,-0.08589758,0.00000258,0.000
 00193,-0.00011354,-0.00000778,0.00036253,-0.00025893,-0.00004635,-0.00
 003910,-0.00021695,0.00001213,0.00000622,-0.00037726,-0.00018232,0.000
 18201,-0.00024653,0.00007670,0.00004898,0.00001241,0.00009355,-0.00003
 121,0.00002282,-0.00015262,0.00018719,-0.00007420,0.00043361,-0.000679
 07,-0.00172421,0.00007894,0.00131002,0.00030173,0.00090650,0.00099106,
 0.00024714,-0.00381804,0.00833925,0.01851964,-0.01292411,0.09018731,0.
 00012619,0.00044873,0.00039484,-0.00052921,-0.00009118,0.00023200,0.00
 021691,-0.00135380,-0.00469840,0.00156848,-0.00005280,0.00108866,-0.00
 014777,0.00022100,0.00005866,-0.00062644,-0.00064575,0.00135178,-0.000
 42186,-0.00007634,-0.00072217,0.03072552,-0.08650043,-0.26841586,0.000
 02201,-0.00016439,-0.00008132,0.00164098,0.00086297,-0.00040967,0.0004
 3766,0.00023882,0.00086724,-0.00014658,0.00009549,0.00045441,-0.000094
 99,-0.00043924,-0.00017098,-0.00000512,-0.00001435,-0.00002587,0.00003
 176,-0.00002494,-0.00001432,0.00004800,0.00017863,0.00038656,0.0003171
 0,-0.00011117,-0.00020476,-0.00033225,-0.00005981,0.00013946,0.0000445
 6,-0.00017445,0.00076564,0.00291267,-0.00783967,-0.01870057,-0.0356911
 8,0.09569748,0.28799882,-0.03377831,0.02620902,-0.03166539,-0.08960365
 ,0.06245869,-0.08006167,0.00762212,-0.00705421,0.01110082,-0.00003450,
 0.00001996,0.00076854,0.00001466,0.00008365,0.00002044,0.00015376,-0.0
 0004090,-0.00001172,-0.00069397,-0.00017359,-0.00040147,0.00275783,-0.
 00059244,0.00139575,-0.00822446,-0.00199389,0.00243954,0.00609353,-0.0
 0621959,0.00608414,-0.00142411,-0.00281022,-0.00087810,0.00013281,0.00
 027101,-0.00046336,-0.00020776,0.00035227,-0.00011999,-0.00006003,-0.0
 0000935,-0.00002559,-0.00003230,0.00007530,-0.00006210,-0.00006321,-0.
 00001151,-0.00004736,-0.00006829,0.00003919,0.00004300,-0.00003181,-0.
 00003173,0.00000941,0.00001548,0.00037127,-0.00005607,-0.00116646,0.00
 044147,-0.00103819,-0.00018151,0.00001729,-0.00009643,0.11878017,-0.00
 277094,0.00411428,-0.00302104,0.07591271,-0.17038473,0.14847445,0.0104
 3745,-0.01980486,0.02410687,0.00157010,0.00168115,0.00104396,-0.000709
 12,-0.00017043,-0.00002415,-0.00009677,0.00010600,0.00000731,0.0000843
 7,-0.00030836,-0.00034569,0.00050816,0.00136317,0.00000020,-0.00090415
 ,0.00009388,-0.00018959,-0.00826406,0.01326665,-0.01522129,-0.00320901
 ,-0.00461457,-0.00126675,-0.00046548,0.00003234,-0.00164574,-0.0000111
 1,-0.00011858,-0.00023271,0.00005989,0.00018375,-0.00002621,0.00015983
 ,0.00042087,-0.00005683,-0.00003318,-0.00005716,-0.00002196,0.00007002
 ,0.00002231,-0.00002792,0.00003084,0.00014168,-0.00007599,0.00008556,0
 .00025675,-0.00004222,-0.00101218,0.00040573,-0.00001716,-0.00004124,0
 .00005521,-0.00019480,-0.07140170,0.17331491,0.00635320,-0.00710675,0.
 01041206,-0.09479295,0.14009486,-0.25805416,0.00378607,0.00145165,0.00
 458177,0.00114491,-0.00218118,0.00350292,-0.00017577,-0.00007204,-0.00
 094238,-0.00001976,0.00001948,0.00020277,0.00007032,0.00020487,0.00022
 312,0.00038720,-0.00075458,0.00002222,0.00286579,-0.00033821,0.0004267
 1,-0.01200169,0.02042020,-0.02190824,-0.00004233,-0.00176448,0.0007516
 6,-0.00092166,0.00093715,-0.00071458,0.00005096,0.00003641,-0.00016107
 ,-0.00005378,-0.00017448,-0.00001847,0.00009912,0.00025256,-0.00011955
 ,-0.00004196,0.00000460,-0.00005255,0.00005041,-0.00001714,-0.00008304
 ,-0.00004599,-0.00008238,-0.00004835,-0.00007787,-0.00008552,-0.000070
 44,0.00026285,0.00020797,0.00019706,0.00003710,0.00016977,-0.00029417,
 0.09306581,-0.15122275,0.26214671\\-0.00002627,0.00000243,-0.00000237,
 0.00004174,0.00001771,0.00000465,-0.00001397,-0.00001549,-0.00001026,0
 .00000090,0.00001081,0.00001590,-0.00000640,-0.00000604,-0.00000204,0.
 00000504,0.00000161,0.00000537,-0.00000665,-0.00000637,0.00000018,0.00
 000928,0.00000076,-0.00000641,-0.00000749,0.00000599,-0.00000492,-0.00
 000643,0.00000074,-0.00000340,-0.00000568,-0.00000157,0.00000186,0.000
 00022,-0.00000683,-0.00000177,0.00000311,-0.00000307,0.00000041,0.0000
 0063,-0.00000316,0.00000399,0.00000248,-0.00000026,0.00000810,0.000001
 16,0.00000009,-0.00000419,0.00000160,-0.00000046,0.00000415,0.00000170
 ,0.00000079,-0.00000259,0.00000320,0.00000037,0.00000430,-0.00000054,-
 0.00000162,-0.00000593,-0.00000162,0.00000092,-0.00000083,0.00000401,0
 .00000265,-0.00000420\\\@


 GOORD'S AXIOM:  A MEETING IS AN EVENT AT WHICH
 THE MINUTES ARE KEPT AND THE HOURS ARE LOST.
 Job cpu time:       0 days  0 hours  9 minutes 59.4 seconds.
 Elapsed time:       0 days  0 hours  0 minutes 25.5 seconds.
 File lengths (MBytes):  RWF=     61 Int=      0 D2E=      0 Chk=      3 Scr=      1
 Normal termination of Gaussian 16 at Mon Oct 14 00:21:41 2019.
real 74.47
user 1653.10
sys 13.82
Machine:
brown-a426
brown-a426
brown-a426
brown-a426
brown-a426
brown-a426
brown-a426
brown-a426
brown-a426
brown-a426
brown-a426
brown-a426
brown-a426
brown-a426
brown-a426
brown-a426
brown-a426
brown-a426
brown-a426
brown-a426
brown-a426
brown-a426
brown-a426
brown-a426
