Title Card Required                                                     
Freq      RB3LYP                                                      6-31G(d)            
Number of atoms                            I               21
Info1-9                                    I   N=           9
          52          52        1002           0           0         100
           6          18        -502
Full Title                                 C   N=           2
Title Card Required     
Route                                      C   N=           6
#P opt freq b3lyp/6-31g(d) geom=connectivity temperature=0.0
01          
Charge                                     I                0
Multiplicity                               I                1
Number of electrons                        I               88
Number of alpha electrons                  I               44
Number of beta electrons                   I               44
Number of basis functions                  I              198
Number of independent functions            I              198
Number of point charges in /Mol/           I                0
Number of translation vectors              I                0
Atomic numbers                             I   N=          21
           8           6           7           8           8           6
           6           6           6           6           6           6
           1           1           1           1           1           1
           1           1           1
Nuclear charges                            R   N=          21
  8.00000000E+00  6.00000000E+00  7.00000000E+00  8.00000000E+00  8.00000000E+00
  6.00000000E+00  6.00000000E+00  6.00000000E+00  6.00000000E+00  6.00000000E+00
  6.00000000E+00  6.00000000E+00  1.00000000E+00  1.00000000E+00  1.00000000E+00
  1.00000000E+00  1.00000000E+00  1.00000000E+00  1.00000000E+00  1.00000000E+00
  1.00000000E+00
Current cartesian coordinates              R   N=          63
 -5.22183462E+00 -1.84432729E+00  1.73455133E+00 -4.39191048E+00 -2.79462898E-01
  2.90135639E-01 -5.81456319E+00  1.56685675E+00 -9.40784453E-01 -8.33194694E+00
  8.42885624E-01 -1.42908731E+00 -1.92178807E+00  1.01759694E-01 -2.64057537E-01
 -1.68336378E-01 -1.46471403E+00  1.14942225E+00  2.47555521E+00 -6.31195933E-01
  5.16268021E-01  3.36711323E+00  1.72480381E+00  1.33472845E+00  5.81503989E+00
  2.50355897E+00  7.56516811E-01  7.40964444E+00  9.27293729E-01 -6.39863707E-01
  6.54050245E+00 -1.42253176E+00 -1.45876276E+00  4.08157717E+00 -2.19152438E+00
 -8.86997017E-01 -5.03691034E+00  2.22818912E+00 -2.56434355E+00 -9.26342261E+00
  1.55909743E+00 -1.83337701E-02 -5.90463499E-01 -1.25100720E+00  3.16313081E+00
 -4.88044293E-01 -3.44342430E+00  6.44725417E-01  2.12806755E+00  2.95160399E+00
  2.42182281E+00  6.48513650E+00  4.33461395E+00  1.40118970E+00  9.32195598E+00
  1.53050667E+00 -1.08319941E+00  7.77058956E+00 -2.65665800E+00 -2.54531320E+00
  3.40447738E+00 -4.02082812E+00 -1.53412566E+00
Number of symbols in /Mol/                 I                0
Force Field                                I                0
Atom Types                                 C   N=          21
                                                            
                                                            
                                                            
                                                            
            
Int Atom Types                             I   N=          21
           0           0           0           0           0           0
           0           0           0           0           0           0
           0           0           0           0           0           0
           0           0           0
MM charges                                 R   N=          21
  0.00000000E+00  0.00000000E+00  0.00000000E+00  0.00000000E+00  0.00000000E+00
  0.00000000E+00  0.00000000E+00  0.00000000E+00  0.00000000E+00  0.00000000E+00
  0.00000000E+00  0.00000000E+00  0.00000000E+00  0.00000000E+00  0.00000000E+00
  0.00000000E+00  0.00000000E+00  0.00000000E+00  0.00000000E+00  0.00000000E+00
  0.00000000E+00
Integer atomic weights                     I   N=          21
          16          12          14          16          16          12
          12          12          12          12          12          12
           1           1           1           1           1           1
           1           1           1
Real atomic weights                        R   N=          21
  1.59949146E+01  1.20000000E+01  1.40030740E+01  1.59949146E+01  1.59949146E+01
  1.20000000E+01  1.20000000E+01  1.20000000E+01  1.20000000E+01  1.20000000E+01
  1.20000000E+01  1.20000000E+01  1.00782504E+00  1.00782504E+00  1.00782504E+00
  1.00782504E+00  1.00782504E+00  1.00782504E+00  1.00782504E+00  1.00782504E+00
  1.00782504E+00
Atom fragment info                         I   N=          21
           0           0           0           0           0           0
           0           0           0           0           0           0
           0           0           0           0           0           0
           0           0           0
Atom residue num                           I   N=          21
           0           0           0           0           0           0
           0           0           0           0           0           0
           0           0           0           0           0           0
           0           0           0
Nuclear spins                              I   N=          21
           0           0           2           0           0           0
           0           0           0           0           0           0
           1           1           1           1           1           1
           1           1           1
Nuclear ZEff                               R   N=          21
 -5.60000000E+00 -3.60000000E+00 -4.55000000E+00 -5.60000000E+00 -5.60000000E+00
 -3.60000000E+00 -3.60000000E+00 -3.60000000E+00 -3.60000000E+00 -3.60000000E+00
 -3.60000000E+00 -3.60000000E+00 -1.00000000E+00 -1.00000000E+00 -1.00000000E+00
 -1.00000000E+00 -1.00000000E+00 -1.00000000E+00 -1.00000000E+00 -1.00000000E+00
 -1.00000000E+00
Nuclear ZNuc                               R   N=          21
  8.00000000E+00  6.00000000E+00  7.00000000E+00  8.00000000E+00  8.00000000E+00
  6.00000000E+00  6.00000000E+00  6.00000000E+00  6.00000000E+00  6.00000000E+00
  6.00000000E+00  6.00000000E+00  1.00000000E+00  1.00000000E+00  1.00000000E+00
  1.00000000E+00  1.00000000E+00  1.00000000E+00  1.00000000E+00  1.00000000E+00
  1.00000000E+00
Nuclear QMom                               R   N=          21
  0.00000000E+00  0.00000000E+00  2.04400000E+00  0.00000000E+00  0.00000000E+00
  0.00000000E+00  0.00000000E+00  0.00000000E+00  0.00000000E+00  0.00000000E+00
  0.00000000E+00  0.00000000E+00  0.00000000E+00  0.00000000E+00  0.00000000E+00
  0.00000000E+00  0.00000000E+00  0.00000000E+00  0.00000000E+00  0.00000000E+00
  0.00000000E+00
Nuclear GFac                               R   N=          21
  0.00000000E+00  0.00000000E+00  4.03761000E-01  0.00000000E+00  0.00000000E+00
  0.00000000E+00  0.00000000E+00  0.00000000E+00  0.00000000E+00  0.00000000E+00
  0.00000000E+00  0.00000000E+00  2.79284600E+00  2.79284600E+00  2.79284600E+00
  2.79284600E+00  2.79284600E+00  2.79284600E+00  2.79284600E+00  2.79284600E+00
  2.79284600E+00
MicOpt                                     I   N=          21
          -1          -1          -1          -1          -1          -1
          -1          -1          -1          -1          -1          -1
          -1          -1          -1          -1          -1          -1
          -1          -1          -1
Number of residues                         I                0
Number of secondary structures             I                0
Redundant internal dimensions              I   N=           4
          94          21          32          41
Redundant internal coordinate indices      I   N=         376
           1           2           0           0           2           3
           0           0           2           5           0           0
           3           4           0           0           3          13
           0           0           4          14           0           0
           5           6           0           0           6           7
           0           0           6          15           0           0
           6          16           0           0           7           8
           0           0           7          12           0           0
           8           9           0           0           8          17
           0           0           9          10           0           0
           9          18           0           0          10          11
           0           0          10          19           0           0
          11          12           0           0          11          20
           0           0          12          21           0           0
           1           2           3           0           1           2
           5           0           3           2           5           0
           2           3           4           0           2           3
          13           0           4           3          13           0
           3           4          14           0           2           5
           6           0           5           6           7           0
           5           6          15           0           5           6
          16           0           7           6          15           0
           7           6          16           0          15           6
          16           0           6           7           8           0
           6           7          12           0           8           7
          12           0           7           8           9           0
           7           8          17           0           9           8
          17           0           8           9          10           0
           8           9          18           0          10           9
          18           0           9          10          11           0
           9          10          19           0          11          10
          19           0          10          11          12           0
          10          11          20           0          12          11
          20           0           7          12          11           0
           7          12          21           0          11          12
          21           0           1           2           3           4
           1           2           3          13           5           2
           3           4           5           2           3          13
           1           2           5           6           3           2
           5           6           2           3           4          14
          13           3           4          14           2           5
           6           7           2           5           6          15
           2           5           6          16           5           6
           7           8           5           6           7          12
          15           6           7           8          15           6
           7          12          16           6           7           8
          16           6           7          12           6           7
           8           9           6           7           8          17
          12           7           8           9          12           7
           8          17           6           7          12          11
           6           7          12          21           8           7
          12          11           8           7          12          21
           7           8           9          10           7           8
           9          18          17           8           9          10
          17           8           9          18           8           9
          10          11           8           9          10          19
          18           9          10          11          18           9
          10          19           9          10          11          12
           9          10          11          20          19          10
          11          12          19          10          11          20
          10          11          12           7          10          11
          12          21          20          11          12           7
          20          11          12          21
Redundant internal coordinates             R   N=          94
  2.28558774E+00  2.63590616E+00  2.56007137E+00  2.66454402E+00  1.91782392E+00
  1.83598252E+00  2.74342084E+00  2.84355401E+00  2.06854637E+00  2.06693647E+00
  2.64867664E+00  2.64255259E+00  2.63308436E+00  2.05476204E+00  2.64144928E+00
  2.05362970E+00  2.63584584E+00  2.05361823E+00  2.63904893E+00  2.05347845E+00
  2.05513789E+00  2.18794500E+00  2.20075772E+00  1.89163493E+00  1.98796669E+00
  2.00206016E+00  1.89826285E+00  1.80546195E+00  2.00438536E+00  1.88827841E+00
  1.88824655E+00  1.89858784E+00  1.95650639E+00  1.94987094E+00  1.88077771E+00
  2.10006349E+00  2.10626059E+00  2.07685629E+00  2.10383810E+00  2.08470550E+00
  2.09463110E+00  2.09535403E+00  2.09222759E+00  2.09559151E+00  2.09112745E+00
  2.09553606E+00  2.09652057E+00  2.09404192E+00  2.09745055E+00  2.09169022E+00
  2.10513028E+00  2.08581904E+00  2.09223509E+00 -5.18073015E-01 -2.72142577E+00
  2.70061216E+00  4.97259410E-01 -5.97663414E-02  3.00401856E+00  1.67674617E+00
 -2.34965153E+00 -3.04166747E+00 -9.18391189E-01  1.12014709E+00  1.20781263E+00
 -1.93719344E+00 -8.72832537E-01  2.26534670E+00 -2.98595914E+00  1.52220098E-01
  3.13990959E+00 -6.63036436E-03  1.67326357E-03  3.13831861E+00 -3.13408936E+00
  6.06289785E-03  4.13469006E-03 -3.13889835E+00 -5.49560522E-03  3.14139507E+00
  3.14107248E+00  4.77784150E-03  3.50916908E-03 -3.13640589E+00  3.13979351E+00
 -1.21544588E-04  2.25637354E-03  3.14139217E+00 -3.14101483E+00 -1.87903675E-03
 -6.11675737E-03  3.13692157E+00  3.13792459E+00 -2.22238906E-03
ZRed-IntVec                                I   N=          94
           0           0           0           0           0           0
           0           0           0           0           0           0
           0           0           0           0           0           0
           0           0           0           0           0           0
           0           0           0           0           0           0
           0           0           0           0           0           0
           0           0           0           0           0           0
           0           0           0           0           0           0
           0           0           0           0           0           0
           0           0           0           0           0           0
           0           0           0           0           0           0
           0           0           0           0           0           0
           0           0           0           0           0           0
           0           0           0           0           0           0
           0           0           0           0           0           0
           0           0           0           0
ZRed-FPVec                                 R   N=          94
  0.00000000E+00  0.00000000E+00  0.00000000E+00  0.00000000E+00  0.00000000E+00
  0.00000000E+00  0.00000000E+00  0.00000000E+00  0.00000000E+00  0.00000000E+00
  0.00000000E+00  0.00000000E+00  0.00000000E+00  0.00000000E+00  0.00000000E+00
  0.00000000E+00  0.00000000E+00  0.00000000E+00  0.00000000E+00  0.00000000E+00
  0.00000000E+00  0.00000000E+00  0.00000000E+00  0.00000000E+00  0.00000000E+00
  0.00000000E+00  0.00000000E+00  0.00000000E+00  0.00000000E+00  0.00000000E+00
  0.00000000E+00  0.00000000E+00  0.00000000E+00  0.00000000E+00  0.00000000E+00
  0.00000000E+00  0.00000000E+00  0.00000000E+00  0.00000000E+00  0.00000000E+00
  0.00000000E+00  0.00000000E+00  0.00000000E+00  0.00000000E+00  0.00000000E+00
  0.00000000E+00  0.00000000E+00  0.00000000E+00  0.00000000E+00  0.00000000E+00
  0.00000000E+00  0.00000000E+00  0.00000000E+00  0.00000000E+00  0.00000000E+00
  0.00000000E+00  0.00000000E+00  0.00000000E+00  0.00000000E+00  0.00000000E+00
  0.00000000E+00  0.00000000E+00  0.00000000E+00  0.00000000E+00  0.00000000E+00
  0.00000000E+00  0.00000000E+00  0.00000000E+00  0.00000000E+00  0.00000000E+00
  0.00000000E+00  0.00000000E+00  0.00000000E+00  0.00000000E+00  0.00000000E+00
  0.00000000E+00  0.00000000E+00  0.00000000E+00  0.00000000E+00  0.00000000E+00
  0.00000000E+00  0.00000000E+00  0.00000000E+00  0.00000000E+00  0.00000000E+00
  0.00000000E+00  0.00000000E+00  0.00000000E+00  0.00000000E+00  0.00000000E+00
  0.00000000E+00  0.00000000E+00  0.00000000E+00  0.00000000E+00
ZRed-Constraint1                           R   N=          94
  2.28558774E+00  2.63590616E+00  2.56007137E+00  2.66454402E+00  1.91782392E+00
  1.83598252E+00  2.74342084E+00  2.84355401E+00  2.06854637E+00  2.06693647E+00
  2.64867664E+00  2.64255259E+00  2.63308436E+00  2.05476204E+00  2.64144928E+00
  2.05362970E+00  2.63584584E+00  2.05361823E+00  2.63904893E+00  2.05347845E+00
  2.05513789E+00  2.18794500E+00  2.20075772E+00  1.89163493E+00  1.98796669E+00
  2.00206016E+00  1.89826285E+00  1.80546195E+00  2.00438536E+00  1.88827841E+00
  1.88824655E+00  1.89858784E+00  1.95650639E+00  1.94987094E+00  1.88077771E+00
  2.10006349E+00  2.10626059E+00  2.07685629E+00  2.10383810E+00  2.08470550E+00
  2.09463110E+00  2.09535403E+00  2.09222759E+00  2.09559151E+00  2.09112745E+00
  2.09553606E+00  2.09652057E+00  2.09404192E+00  2.09745055E+00  2.09169022E+00
  2.10513028E+00  2.08581904E+00  2.09223509E+00 -5.18073015E-01 -2.72142577E+00
  2.70061216E+00  4.97259410E-01 -5.97663414E-02  3.00401856E+00  1.67674617E+00
 -2.34965153E+00 -3.04166747E+00 -9.18391189E-01  1.12014709E+00  1.20781263E+00
 -1.93719344E+00 -8.72832537E-01  2.26534670E+00 -2.98595914E+00  1.52220098E-01
  3.13990959E+00 -6.63036436E-03  1.67326357E-03  3.13831861E+00 -3.13408936E+00
  6.06289785E-03  4.13469006E-03 -3.13889835E+00 -5.49560522E-03  3.14139507E+00
  3.14107248E+00  4.77784150E-03  3.50916908E-03 -3.13640589E+00  3.13979351E+00
 -1.21544588E-04  2.25637354E-03  3.14139217E+00 -3.14101483E+00 -1.87903675E-03
 -6.11675737E-03  3.13692157E+00  3.13792459E+00 -2.22238906E-03
ZRed-Constraint2                           R   N=          94
  2.36894976E+00  2.54672271E+00  2.57221528E+00  2.46470225E+00  1.90853452E+00
  1.81419388E+00  2.70612739E+00  2.80150083E+00  2.05982807E+00  2.05966211E+00
  2.67505846E+00  2.67390213E+00  2.65900200E+00  2.05972854E+00  2.65691521E+00
  2.05982245E+00  2.65662306E+00  2.05984552E+00  2.65926570E+00  2.05980571E+00
  2.05996453E+00  2.11396997E+00  2.12244909E+00  2.04676075E+00  2.13289651E+00
  2.10466467E+00  2.04562412E+00  1.91068161E+00  2.21287314E+00  1.89990565E+00
  1.85552097E+00  1.85561786E+00  1.87611320E+00  1.87610703E+00  2.09443377E+00
  2.09426136E+00  2.11860602E+00  2.07027944E+00  2.10648410E+00  2.09355280E+00
  2.08314841E+00  2.09528275E+00  2.09466166E+00  2.09324088E+00  2.09225419E+00
  2.09553700E+00  2.09539412E+00  2.09596250E+00  2.09278899E+00  2.09443381E+00
  2.10600976E+00  2.09334555E+00  2.08382999E+00 -3.86670277E-02  3.10279356E+00
  3.09941990E+00 -4.23048123E-02 -1.77560974E-02  3.12736045E+00  3.08063452E+00
 -6.08303067E-02 -3.14106640E+00 -1.12475130E+00  1.12576076E+00  1.06220683E+00
 -2.06982618E+00 -9.40776047E-01  2.21037625E+00  3.06529994E+00 -6.67330680E-02
  3.13945022E+00 -2.02825164E-03 -1.14389312E-02  3.13026790E+00 -3.13928663E+00
  2.25005775E-03  1.17378303E-02 -3.12991079E+00  8.69623859E-04 -3.14087768E+00
 -3.14083654E+00  6.01469895E-04  9.61731262E-03 -3.13199223E+00 -3.13182082E+00
  9.75494226E-03 -9.32069289E-03  3.13226068E+00  3.13228885E+00 -9.31508284E-03
 -1.47331263E-03  3.14017500E+00  3.14013063E+00 -1.40636339E-03
SymInf integers                            I   N=          26
           1           1           1           1           1           0
           0           0           0           0           0           0
           0           0           0           0           0           0
           0           0           0           0           0           0
           0           0
RotTr to input orientation                 R   N=          12
 -5.34063165E-01 -8.06863971E-01 -2.52481818E-01 -5.42914058E-01  9.83797662E-02
  8.34005843E-01 -6.48090164E-01  5.82487729E-01 -4.90598802E-01 -6.30214660E-01
 -2.38769850E+00  7.07555355E-01
Number of contracted shells                I               66
Number of primitive shells                 I              168
Pure/Cartesian d shells                    I                1
Pure/Cartesian f shells                    I                0
Highest angular momentum                   I                2
Largest degree of contraction              I                6
Shell types                                I   N=          66
           0          -1          -1           2           0          -1
          -1           2           0          -1          -1           2
           0          -1          -1           2           0          -1
          -1           2           0          -1          -1           2
           0          -1          -1           2           0          -1
          -1           2           0          -1          -1           2
           0          -1          -1           2           0          -1
          -1           2           0          -1          -1           2
           0           0           0           0           0           0
           0           0           0           0           0           0
           0           0           0           0           0           0
Number of primitives per shell             I   N=          66
           6           3           1           1           6           3
           1           1           6           3           1           1
           6           3           1           1           6           3
           1           1           6           3           1           1
           6           3           1           1           6           3
           1           1           6           3           1           1
           6           3           1           1           6           3
           1           1           6           3           1           1
           3           1           3           1           3           1
           3           1           3           1           3           1
           3           1           3           1           3           1
Shell to atom map                          I   N=          66
           1           1           1           1           2           2
           2           2           3           3           3           3
           4           4           4           4           5           5
           5           5           6           6           6           6
           7           7           7           7           8           8
           8           8           9           9           9           9
          10          10          10          10          11          11
          11          11          12          12          12          12
          13          13          14          14          15          15
          16          16          17          17          18          18
          19          19          20          20          21          21
Primitive exponents                        R   N=         168
  5.48467166E+03  8.25234946E+02  1.88046958E+02  5.29645000E+01  1.68975704E+01
  5.79963534E+00  1.55396162E+01  3.59993359E+00  1.01376175E+00  2.70005823E-01
  8.00000000E-01  3.04752488E+03  4.57369518E+02  1.03948685E+02  2.92101553E+01
  9.28666296E+00  3.16392696E+00  7.86827235E+00  1.88128854E+00  5.44249258E-01
  1.68714478E-01  8.00000000E-01  4.17351146E+03  6.27457911E+02  1.42902093E+02
  4.02343293E+01  1.28202129E+01  4.39043701E+00  1.16263619E+01  2.71627981E+00
  7.72218397E-01  2.12031498E-01  8.00000000E-01  5.48467166E+03  8.25234946E+02
  1.88046958E+02  5.29645000E+01  1.68975704E+01  5.79963534E+00  1.55396162E+01
  3.59993359E+00  1.01376175E+00  2.70005823E-01  8.00000000E-01  5.48467166E+03
  8.25234946E+02  1.88046958E+02  5.29645000E+01  1.68975704E+01  5.79963534E+00
  1.55396162E+01  3.59993359E+00  1.01376175E+00  2.70005823E-01  8.00000000E-01
  3.04752488E+03  4.57369518E+02  1.03948685E+02  2.92101553E+01  9.28666296E+00
  3.16392696E+00  7.86827235E+00  1.88128854E+00  5.44249258E-01  1.68714478E-01
  8.00000000E-01  3.04752488E+03  4.57369518E+02  1.03948685E+02  2.92101553E+01
  9.28666296E+00  3.16392696E+00  7.86827235E+00  1.88128854E+00  5.44249258E-01
  1.68714478E-01  8.00000000E-01  3.04752488E+03  4.57369518E+02  1.03948685E+02
  2.92101553E+01  9.28666296E+00  3.16392696E+00  7.86827235E+00  1.88128854E+00
  5.44249258E-01  1.68714478E-01  8.00000000E-01  3.04752488E+03  4.57369518E+02
  1.03948685E+02  2.92101553E+01  9.28666296E+00  3.16392696E+00  7.86827235E+00
  1.88128854E+00  5.44249258E-01  1.68714478E-01  8.00000000E-01  3.04752488E+03
  4.57369518E+02  1.03948685E+02  2.92101553E+01  9.28666296E+00  3.16392696E+00
  7.86827235E+00  1.88128854E+00  5.44249258E-01  1.68714478E-01  8.00000000E-01
  3.04752488E+03  4.57369518E+02  1.03948685E+02  2.92101553E+01  9.28666296E+00
  3.16392696E+00  7.86827235E+00  1.88128854E+00  5.44249258E-01  1.68714478E-01
  8.00000000E-01  3.04752488E+03  4.57369518E+02  1.03948685E+02  2.92101553E+01
  9.28666296E+00  3.16392696E+00  7.86827235E+00  1.88128854E+00  5.44249258E-01
  1.68714478E-01  8.00000000E-01  1.87311370E+01  2.82539436E+00  6.40121692E-01
  1.61277759E-01  1.87311370E+01  2.82539436E+00  6.40121692E-01  1.61277759E-01
  1.87311370E+01  2.82539436E+00  6.40121692E-01  1.61277759E-01  1.87311370E+01
  2.82539436E+00  6.40121692E-01  1.61277759E-01  1.87311370E+01  2.82539436E+00
  6.40121692E-01  1.61277759E-01  1.87311370E+01  2.82539436E+00  6.40121692E-01
  1.61277759E-01  1.87311370E+01  2.82539436E+00  6.40121692E-01  1.61277759E-01
  1.87311370E+01  2.82539436E+00  6.40121692E-01  1.61277759E-01  1.87311370E+01
  2.82539436E+00  6.40121692E-01  1.61277759E-01
Contraction coefficients                   R   N=         168
  1.83107443E-03  1.39501722E-02  6.84450781E-02  2.32714336E-01  4.70192898E-01
  3.58520853E-01 -1.10777550E-01 -1.48026263E-01  1.13076702E+00  1.00000000E+00
  1.00000000E+00  1.83473713E-03  1.40373228E-02  6.88426223E-02  2.32184443E-01
  4.67941348E-01  3.62311985E-01 -1.19332420E-01 -1.60854152E-01  1.14345644E+00
  1.00000000E+00  1.00000000E+00  1.83477216E-03  1.39946270E-02  6.85865518E-02
  2.32240873E-01  4.69069948E-01  3.60455199E-01 -1.14961182E-01 -1.69117479E-01
  1.14585195E+00  1.00000000E+00  1.00000000E+00  1.83107443E-03  1.39501722E-02
  6.84450781E-02  2.32714336E-01  4.70192898E-01  3.58520853E-01 -1.10777550E-01
 -1.48026263E-01  1.13076702E+00  1.00000000E+00  1.00000000E+00  1.83107443E-03
  1.39501722E-02  6.84450781E-02  2.32714336E-01  4.70192898E-01  3.58520853E-01
 -1.10777550E-01 -1.48026263E-01  1.13076702E+00  1.00000000E+00  1.00000000E+00
  1.83473713E-03  1.40373228E-02  6.88426223E-02  2.32184443E-01  4.67941348E-01
  3.62311985E-01 -1.19332420E-01 -1.60854152E-01  1.14345644E+00  1.00000000E+00
  1.00000000E+00  1.83473713E-03  1.40373228E-02  6.88426223E-02  2.32184443E-01
  4.67941348E-01  3.62311985E-01 -1.19332420E-01 -1.60854152E-01  1.14345644E+00
  1.00000000E+00  1.00000000E+00  1.83473713E-03  1.40373228E-02  6.88426223E-02
  2.32184443E-01  4.67941348E-01  3.62311985E-01 -1.19332420E-01 -1.60854152E-01
  1.14345644E+00  1.00000000E+00  1.00000000E+00  1.83473713E-03  1.40373228E-02
  6.88426223E-02  2.32184443E-01  4.67941348E-01  3.62311985E-01 -1.19332420E-01
 -1.60854152E-01  1.14345644E+00  1.00000000E+00  1.00000000E+00  1.83473713E-03
  1.40373228E-02  6.88426223E-02  2.32184443E-01  4.67941348E-01  3.62311985E-01
 -1.19332420E-01 -1.60854152E-01  1.14345644E+00  1.00000000E+00  1.00000000E+00
  1.83473713E-03  1.40373228E-02  6.88426223E-02  2.32184443E-01  4.67941348E-01
  3.62311985E-01 -1.19332420E-01 -1.60854152E-01  1.14345644E+00  1.00000000E+00
  1.00000000E+00  1.83473713E-03  1.40373228E-02  6.88426223E-02  2.32184443E-01
  4.67941348E-01  3.62311985E-01 -1.19332420E-01 -1.60854152E-01  1.14345644E+00
  1.00000000E+00  1.00000000E+00  3.34946043E-02  2.34726953E-01  8.13757326E-01
  1.00000000E+00  3.34946043E-02  2.34726953E-01  8.13757326E-01  1.00000000E+00
  3.34946043E-02  2.34726953E-01  8.13757326E-01  1.00000000E+00  3.34946043E-02
  2.34726953E-01  8.13757326E-01  1.00000000E+00  3.34946043E-02  2.34726953E-01
  8.13757326E-01  1.00000000E+00  3.34946043E-02  2.34726953E-01  8.13757326E-01
  1.00000000E+00  3.34946043E-02  2.34726953E-01  8.13757326E-01  1.00000000E+00
  3.34946043E-02  2.34726953E-01  8.13757326E-01  1.00000000E+00  3.34946043E-02
  2.34726953E-01  8.13757326E-01  1.00000000E+00
P(S=P) Contraction coefficients            R   N=         168
  0.00000000E+00  0.00000000E+00  0.00000000E+00  0.00000000E+00  0.00000000E+00
  0.00000000E+00  7.08742682E-02  3.39752839E-01  7.27158577E-01  1.00000000E+00
  0.00000000E+00  0.00000000E+00  0.00000000E+00  0.00000000E+00  0.00000000E+00
  0.00000000E+00  0.00000000E+00  6.89990666E-02  3.16423961E-01  7.44308291E-01
  1.00000000E+00  0.00000000E+00  0.00000000E+00  0.00000000E+00  0.00000000E+00
  0.00000000E+00  0.00000000E+00  0.00000000E+00  6.75797439E-02  3.23907296E-01
  7.40895140E-01  1.00000000E+00  0.00000000E+00  0.00000000E+00  0.00000000E+00