 Entering Gaussian System, Link 0=/apps/cent7/gaussian/g16-A.03/g16-haswell/g16/g16
 Initial command:
 /apps/cent7/gaussian/g16-A.03/g16-haswell/g16/l1.exe "/scratch/brown/finej/gaussian/Gau-47348.inp" -scrdir="/scratch/brown/finej/gaussian/"
 Entering Link 1 = /apps/cent7/gaussian/g16-A.03/g16-haswell/g16/l1.exe PID=     47349.
  
 Copyright (c) 1988,1990,1992,1993,1995,1998,2003,2009,2016,
            Gaussian, Inc.  All Rights Reserved.
  
 This is part of the Gaussian(R) 16 program.  It is based on
 the Gaussian(R) 09 system (copyright 2009, Gaussian, Inc.),
 the Gaussian(R) 03 system (copyright 2003, Gaussian, Inc.),
 the Gaussian(R) 98 system (copyright 1998, Gaussian, Inc.),
 the Gaussian(R) 94 system (copyright 1995, Gaussian, Inc.),
 the Gaussian 92(TM) system (copyright 1992, Gaussian, Inc.),
 the Gaussian 90(TM) system (copyright 1990, Gaussian, Inc.),
 the Gaussian 88(TM) system (copyright 1988, Gaussian, Inc.),
 the Gaussian 86(TM) system (copyright 1986, Carnegie Mellon
 University), and the Gaussian 82(TM) system (copyright 1983,
 Carnegie Mellon University). Gaussian is a federally registered
 trademark of Gaussian, Inc.
  
 This software contains proprietary and confidential information,
 including trade secrets, belonging to Gaussian, Inc.
  
 This software is provided under written license and may be
 used, copied, transmitted, or stored only in accord with that
 written license.
  
 The following legend is applicable only to US Government
 contracts under FAR:
  
                    RESTRICTED RIGHTS LEGEND
  
 Use, reproduction and disclosure by the US Government is
 subject to restrictions as set forth in subparagraphs (a)
 and (c) of the Commercial Computer Software - Restricted
 Rights clause in FAR 52.227-19.
  
 Gaussian, Inc.
 340 Quinnipiac St., Bldg. 40, Wallingford CT 06492
  
  
 ---------------------------------------------------------------
 Warning -- This program may not be used in any manner that
 competes with the business of Gaussian, Inc. or will provide
 assistance to any competitor of Gaussian, Inc.  The licensee
 of this program is prohibited from giving any competitor of
 Gaussian, Inc. access to this program.  By using this program,
 the user acknowledges that Gaussian, Inc. is engaged in the
 business of creating and licensing software in the field of
 computational chemistry and represents and warrants to the
 licensee that it is not a competitor of Gaussian, Inc. and that
 it will not use this program in any manner prohibited above.
 ---------------------------------------------------------------
  

 Cite this work as:
 Gaussian 16, Revision A.03,
 M. J. Frisch, G. W. Trucks, H. B. Schlegel, G. E. Scuseria, 
 M. A. Robb, J. R. Cheeseman, G. Scalmani, V. Barone, 
 G. A. Petersson, H. Nakatsuji, X. Li, M. Caricato, A. V. Marenich, 
 J. Bloino, B. G. Janesko, R. Gomperts, B. Mennucci, H. P. Hratchian, 
 J. V. Ortiz, A. F. Izmaylov, J. L. Sonnenberg, D. Williams-Young, 
 F. Ding, F. Lipparini, F. Egidi, J. Goings, B. Peng, A. Petrone, 
 T. Henderson, D. Ranasinghe, V. G. Zakrzewski, J. Gao, N. Rega, 
 G. Zheng, W. Liang, M. Hada, M. Ehara, K. Toyota, R. Fukuda, 
 J. Hasegawa, M. Ishida, T. Nakajima, Y. Honda, O. Kitao, H. Nakai, 
 T. Vreven, K. Throssell, J. A. Montgomery, Jr., J. E. Peralta, 
 F. Ogliaro, M. J. Bearpark, J. J. Heyd, E. N. Brothers, K. N. Kudin, 
 V. N. Staroverov, T. A. Keith, R. Kobayashi, J. Normand, 
 K. Raghavachari, A. P. Rendell, J. C. Burant, S. S. Iyengar, 
 J. Tomasi, M. Cossi, J. M. Millam, M. Klene, C. Adamo, R. Cammi, 
 J. W. Ochterski, R. L. Martin, K. Morokuma, O. Farkas, 
 J. B. Foresman, and D. J. Fox, Gaussian, Inc., Wallingford CT, 2016.
 
 ******************************************
 Gaussian 16:  ES64L-G16RevA.03 25-Dec-2016
                14-Oct-2019 
 ******************************************
 %chk=12.chk
 %nprocshared=24
 Will use up to   24 processors via shared memory.
 %mem=80GB
 --------------------------------------------------------------
 #P opt freq b3lyp/6-31g(d) geom=connectivity temperature=0.001
 --------------------------------------------------------------
 1/18=20,19=15,26=3,38=1,57=2,112=-1000/1,3;
 2/9=110,12=2,17=6,18=5,40=1/2;
 3/5=1,6=6,7=1,11=2,25=1,30=1,71=1,74=-5/1,2,3;
 4//1;
 5/5=2,38=5/2;
 6/7=2,8=2,9=2,10=2,28=1/1;
 7//1,2,3,16;
 1/18=20,19=15,26=3/3(2);
 2/9=110/2;
 99//99;
 2/9=110/2;
 3/5=1,6=6,7=1,11=2,25=1,30=1,71=1,74=-5/1,2,3;
 4/5=5,16=3,69=1/1;
 5/5=2,38=5/2;
 7//1,2,3,16;
 1/18=20,19=15,26=3/3(-5);
 2/9=110/2;
 6/7=2,8=2,9=2,10=2,19=2,28=1/1;
 99/9=1/99;
 Leave Link    1 at Mon Oct 14 00:20:33 2019, MaxMem= 10737418240 cpu:               0.8 elap:               0.0
 (Enter /apps/cent7/gaussian/g16-A.03/g16-haswell/g16/l101.exe)
 -------------------
 Title Card Required
 -------------------
 Symbolic Z-matrix:
 Charge =  0 Multiplicity = 1
 O                     1.2833    1.4484   -0.3003 
 C                     0.9265    0.7424    0.6722 
 N                     1.2481    1.0835    1.9357 
 O                     1.9756    2.1309    2.2092 
 O                     0.2047   -0.3985    0.4987 
 C                    -0.2583   -0.9398   -0.7436 
 C                    -1.0036   -2.1923   -0.4724 
 C                    -2.1655   -2.1635    0.3357 
 C                    -2.8856   -3.343     0.6005 
 C                    -2.4534   -4.5677    0.0619 
 C                    -1.2941   -4.6134   -0.732 
 C                    -0.5734   -3.4341   -0.9968 
 H                     0.9282    0.5271    2.7155 
 H                     2.0459    2.232     3.1613 
 H                    -0.9677   -0.2172   -1.147 
 H                     0.6324   -1.2053   -1.3129 
 H                    -2.5103   -1.2204    0.7596 
 H                    -3.7792   -3.308     1.2237 
 H                    -3.0161   -5.4801    0.2595 
 H                    -0.9537   -5.564    -1.1426 
 H                     0.3247   -3.4828   -1.6127 
 
 ITRead=  0  0  0  0  0  0  0  0  0  0  0  0  0  0  0  0  0  0  0  0
 ITRead=  0
 MicOpt= -1 -1 -1 -1 -1 -1 -1 -1 -1 -1 -1 -1 -1 -1 -1 -1 -1 -1 -1 -1
 MicOpt= -1
 NAtoms=     21 NQM=       21 NQMF=       0 NMMI=      0 NMMIF=      0
                NMic=       0 NMicF=      0.
                    Isotopes and Nuclear Properties:
 (Nuclear quadrupole moments (NQMom) in fm**2, nuclear magnetic moments (NMagM)
  in nuclear magnetons)

  Atom         1           2           3           4           5           6           7           8           9          10
 IAtWgt=          16          12          14          16          16          12          12          12          12          12
 AtmWgt=  15.9949146  12.0000000  14.0030740  15.9949146  15.9949146  12.0000000  12.0000000  12.0000000  12.0000000  12.0000000
 NucSpn=           0           0           2           0           0           0           0           0           0           0
 AtZEff=  -0.0000000  -0.0000000  -0.0000000  -0.0000000  -0.0000000  -0.0000000  -0.0000000  -0.0000000  -0.0000000  -0.0000000
 NQMom=    0.0000000   0.0000000   2.0440000   0.0000000   0.0000000   0.0000000   0.0000000   0.0000000   0.0000000   0.0000000
 NMagM=    0.0000000   0.0000000   0.4037610   0.0000000   0.0000000   0.0000000   0.0000000   0.0000000   0.0000000   0.0000000
 AtZNuc=   8.0000000   6.0000000   7.0000000   8.0000000   8.0000000   6.0000000   6.0000000   6.0000000   6.0000000   6.0000000

  Atom        11          12          13          14          15          16          17          18          19          20
 IAtWgt=          12          12           1           1           1           1           1           1           1           1
 AtmWgt=  12.0000000  12.0000000   1.0078250   1.0078250   1.0078250   1.0078250   1.0078250   1.0078250   1.0078250   1.0078250
 NucSpn=           0           0           1           1           1           1           1           1           1           1
 AtZEff=  -0.0000000  -0.0000000  -0.0000000  -0.0000000  -0.0000000  -0.0000000  -0.0000000  -0.0000000  -0.0000000  -0.0000000
 NQMom=    0.0000000   0.0000000   0.0000000   0.0000000   0.0000000   0.0000000   0.0000000   0.0000000   0.0000000   0.0000000
 NMagM=    0.0000000   0.0000000   2.7928460   2.7928460   2.7928460   2.7928460   2.7928460   2.7928460   2.7928460   2.7928460
 AtZNuc=   6.0000000   6.0000000   1.0000000   1.0000000   1.0000000   1.0000000   1.0000000   1.0000000   1.0000000   1.0000000

  Atom        21
 IAtWgt=           1
 AtmWgt=   1.0078250
 NucSpn=           1
 AtZEff=  -0.0000000
 NQMom=    0.0000000
 NMagM=    2.7928460
 AtZNuc=   1.0000000
 Leave Link  101 at Mon Oct 14 00:20:34 2019, MaxMem= 10737418240 cpu:               9.1 elap:               0.4
 (Enter /apps/cent7/gaussian/g16-A.03/g16-haswell/g16/l103.exe)

 GradGradGradGradGradGradGradGradGradGradGradGradGradGradGradGradGradGrad
 Berny optimization.
 Initialization pass.
                           ----------------------------
                           !    Initial Parameters    !
                           ! (Angstroms and Degrees)  !
 --------------------------                            --------------------------
 ! Name  Definition              Value          Derivative Info.                !
 --------------------------------------------------------------------------------
 ! R1    R(1,2)                  1.2536         estimate D2E/DX2                !
 ! R2    R(2,3)                  1.3477         estimate D2E/DX2                !
 ! R3    R(2,5)                  1.3612         estimate D2E/DX2                !
 ! R4    R(3,4)                  1.3043         estimate D2E/DX2                !
 ! R5    R(3,13)                 1.01           estimate D2E/DX2                !
 ! R6    R(4,14)                 0.96           estimate D2E/DX2                !
 ! R7    R(5,6)                  1.432          estimate D2E/DX2                !
 ! R8    R(6,7)                  1.4825         estimate D2E/DX2                !
 ! R9    R(6,15)                 1.09           estimate D2E/DX2                !
 ! R10   R(6,16)                 1.0899         estimate D2E/DX2                !
 ! R11   R(7,8)                  1.4156         estimate D2E/DX2                !
 ! R12   R(7,12)                 1.415          estimate D2E/DX2                !
 ! R13   R(8,9)                  1.4071         estimate D2E/DX2                !
 ! R14   R(8,17)                 1.09           estimate D2E/DX2                !
 ! R15   R(9,10)                 1.406          estimate D2E/DX2                !
 ! R16   R(9,18)                 1.09           estimate D2E/DX2                !
 ! R17   R(10,11)                1.4058         estimate D2E/DX2                !
 ! R18   R(10,19)                1.09           estimate D2E/DX2                !
 ! R19   R(11,12)                1.4072         estimate D2E/DX2                !
 ! R20   R(11,20)                1.09           estimate D2E/DX2                !
 ! R21   R(12,21)                1.0901         estimate D2E/DX2                !
 ! A1    A(1,2,3)              121.1216         estimate D2E/DX2                !
 ! A2    A(1,2,5)              121.6074         estimate D2E/DX2                !
 ! A3    A(3,2,5)              117.2708         estimate D2E/DX2                !
 ! A4    A(2,3,4)              122.206          estimate D2E/DX2                !
 ! A5    A(2,3,13)             120.5884         estimate D2E/DX2                !
 ! A6    A(4,3,13)             117.2056         estimate D2E/DX2                !
 ! A7    A(3,4,14)             109.474          estimate D2E/DX2                !
 ! A8    A(2,5,6)              126.7883         estimate D2E/DX2                !
 ! A9    A(5,6,7)              108.8566         estimate D2E/DX2                !
 ! A10   A(5,6,15)             106.3135         estimate D2E/DX2                !
 ! A11   A(5,6,16)             106.3191         estimate D2E/DX2                !
 ! A12   A(7,6,15)             107.4934         estimate D2E/DX2                !
 ! A13   A(7,6,16)             107.493          estimate D2E/DX2                !
 ! A14   A(15,6,16)            120.0022         estimate D2E/DX2                !
 ! A15   A(6,7,8)              119.9923         estimate D2E/DX2                !
 ! A16   A(6,7,12)             121.3872         estimate D2E/DX2                !
 ! A17   A(8,7,12)             118.6183         estimate D2E/DX2                !
 ! A18   A(7,8,9)              120.6926         estimate D2E/DX2                !
 ! A19   A(7,8,17)             119.9517         estimate D2E/DX2                !
 ! A20   A(9,8,17)             119.3556         estimate D2E/DX2                !
 ! A21   A(8,9,10)             120.0509         estimate D2E/DX2                !
 ! A22   A(8,9,18)             120.0153         estimate D2E/DX2                !
 ! A23   A(10,9,18)            119.9339         estimate D2E/DX2                !
 ! A24   A(9,10,11)            119.8773         estimate D2E/DX2                !
 ! A25   A(9,10,19)            120.0654         estimate D2E/DX2                !
 ! A26   A(11,10,19)           120.0572         estimate D2E/DX2                !
 ! A27   A(10,11,12)           120.0898         estimate D2E/DX2                !
 ! A28   A(10,11,20)           119.908          estimate D2E/DX2                !
 ! A29   A(12,11,20)           120.0022         estimate D2E/DX2                !
 ! A30   A(7,12,11)            120.6655         estimate D2E/DX2                !
 ! A31   A(7,12,21)            119.9399         estimate D2E/DX2                !
 ! A32   A(11,12,21)           119.3947         estimate D2E/DX2                !
 ! D1    D(1,2,3,4)             -2.2155         estimate D2E/DX2                !
 ! D2    D(1,2,3,13)           177.777          estimate D2E/DX2                !
 ! D3    D(5,2,3,4)            177.5837         estimate D2E/DX2                !
 ! D4    D(5,2,3,13)            -2.4239         estimate D2E/DX2                !
 ! D5    D(1,2,5,6)             -1.0173         estimate D2E/DX2                !
 ! D6    D(3,2,5,6)            179.1846         estimate D2E/DX2                !
 ! D7    D(2,3,4,14)           176.5074         estimate D2E/DX2                !
 ! D8    D(13,3,4,14)           -3.4853         estimate D2E/DX2                !
 ! D9    D(2,5,6,7)           -179.9698         estimate D2E/DX2                !
 ! D10   D(2,5,6,15)           -64.4435         estimate D2E/DX2                !
 ! D11   D(2,5,6,16)            64.5013         estimate D2E/DX2                !
 ! D12   D(5,6,7,8)             60.86           estimate D2E/DX2                !
 ! D13   D(5,6,7,12)          -118.5923         estimate D2E/DX2                !
 ! D14   D(15,6,7,8)           -53.9025         estimate D2E/DX2                !
 ! D15   D(15,6,7,12)          126.6452         estimate D2E/DX2                !
 ! D16   D(16,6,7,8)           175.6287         estimate D2E/DX2                !
 ! D17   D(16,6,7,12)           -3.8235         estimate D2E/DX2                !
 ! D18   D(6,7,8,9)            179.8772         estimate D2E/DX2                !
 ! D19   D(6,7,8,17)            -0.1162         estimate D2E/DX2                !
 ! D20   D(12,7,8,9)            -0.6554         estimate D2E/DX2                !
 ! D21   D(12,7,8,17)          179.3511         estimate D2E/DX2                !
 ! D22   D(6,7,12,11)         -179.8679         estimate D2E/DX2                !
 ! D23   D(6,7,12,21)            0.1289         estimate D2E/DX2                !
 ! D24   D(8,7,12,11)            0.6725         estimate D2E/DX2                !
 ! D25   D(8,7,12,21)         -179.3307         estimate D2E/DX2                !
 ! D26   D(7,8,9,10)             0.0498         estimate D2E/DX2                !
 ! D27   D(7,8,9,18)          -179.959          estimate D2E/DX2                !
 ! D28   D(17,8,9,10)         -179.9567         estimate D2E/DX2                !
 ! D29   D(17,8,9,18)            0.0345         estimate D2E/DX2                !
 ! D30   D(8,9,10,11)            0.551          estimate D2E/DX2                !
 ! D31   D(8,9,10,19)         -179.4499         estimate D2E/DX2                !
 ! D32   D(18,9,10,11)        -179.4401         estimate D2E/DX2                !
 ! D33   D(18,9,10,19)           0.5589         estimate D2E/DX2                !
 ! D34   D(9,10,11,12)          -0.534          estimate D2E/DX2                !
 ! D35   D(9,10,11,20)         179.4653         estimate D2E/DX2                !
 ! D36   D(19,10,11,12)        179.4669         estimate D2E/DX2                !
 ! D37   D(19,10,11,20)         -0.5337         estimate D2E/DX2                !
 ! D38   D(10,11,12,7)          -0.0844         estimate D2E/DX2                !
 ! D39   D(10,11,12,21)        179.9188         estimate D2E/DX2                !
 ! D40   D(20,11,12,7)         179.9162         estimate D2E/DX2                !
 ! D41   D(20,11,12,21)         -0.0806         estimate D2E/DX2                !
 --------------------------------------------------------------------------------
 Trust Radius=3.00D-01 FncErr=1.00D-07 GrdErr=1.00D-06 EigMax=2.50D+02 EigMin=1.00D-04
 Number of steps in this run=    104 maximum allowed number of steps=    126.
 GradGradGradGradGradGradGradGradGradGradGradGradGradGradGradGradGradGrad

 Leave Link  103 at Mon Oct 14 00:20:34 2019, MaxMem= 10737418240 cpu:               1.0 elap:               0.1
 (Enter /apps/cent7/gaussian/g16-A.03/g16-haswell/g16/l202.exe)
                          Input orientation:                          
 ---------------------------------------------------------------------
 Center     Atomic      Atomic             Coordinates (Angstroms)
 Number     Number       Type             X           Y           Z
 ---------------------------------------------------------------------
      1          8           0        1.283300    1.448400   -0.300300
      2          6           0        0.926500    0.742400    0.672200
      3          7           0        1.248100    1.083500    1.935700
      4          8           0        1.975600    2.130900    2.209200
      5          8           0        0.204700   -0.398500    0.498700
      6          6           0       -0.258300   -0.939800   -0.743600
      7          6           0       -1.003600   -2.192300   -0.472400
      8          6           0       -2.165500   -2.163500    0.335700
      9          6           0       -2.885600   -3.343000    0.600500
     10          6           0       -2.453400   -4.567700    0.061900
     11          6           0       -1.294100   -4.613400   -0.732000
     12          6           0       -0.573400   -3.434100   -0.996800
     13          1           0        0.928200    0.527100    2.715500
     14          1           0        2.045900    2.232000    3.161300
     15          1           0       -0.967700   -0.217200   -1.147000
     16          1           0        0.632400   -1.205300   -1.312900
     17          1           0       -2.510300   -1.220400    0.759600
     18          1           0       -3.779200   -3.308000    1.223700
     19          1           0       -3.016100   -5.480100    0.259500
     20          1           0       -0.953700   -5.564000   -1.142600
     21          1           0        0.324700   -3.482800   -1.612700
 ---------------------------------------------------------------------
                    Distance matrix (angstroms):
                    1          2          3          4          5
     1  O    0.000000
     2  C    1.253594   0.000000
     3  N    2.265852   1.347668   0.000000
     4  O    2.691222   2.321834   1.304264   0.000000
     5  O    2.283160   1.361158   2.313002   3.529839   0.000000
     6  C    2.876898   2.497606   3.679896   4.810253   1.432021
     7  C    4.302816   3.694301   4.647576   5.895479   2.370811
     8  C    5.034336   4.256519   4.975507   6.253046   2.959669
     9  C    6.414724   5.588179   6.201946   7.495516   4.269707
    10  C    7.091373   6.324030   7.010584   8.312532   4.963720
    11  C    6.601119   5.965521   6.784841   8.051533   4.639656
    12  C    5.269844   4.741141   5.685607   6.909780   3.472294
    13  H    3.173317   2.054612   1.009953   1.981303   2.508862
    14  H    3.630188   3.109274   1.859471   0.960030   4.171209
    15  H    2.925427   2.796125   4.013057   5.043874   2.028724
    16  H    2.913958   2.796543   4.021330   5.033846   2.028731
    17  H    4.757865   3.958765   4.562536   5.784103   2.848651
    18  H    7.111598   6.233258   6.713119   7.979384   4.986208
    19  H    8.173269   7.377935   8.004617   9.308368   6.021082
    20  H    7.408603   6.826370   7.649386   8.889705   5.542395
    21  H    5.192113   4.840996   5.856185   6.988993   3.739695
                    6          7          8          9         10
     6  C    0.000000
     7  C    1.482490   0.000000
     8  C    2.509929   1.415580   0.000000
     9  C    3.805874   2.452988   1.407083   0.000000
    10  C    4.316127   2.833712   2.436807   1.405979   0.000000
    11  C    3.816851   2.452245   2.810931   2.433587   1.405824
    12  C    2.526842   1.414968   2.434084   2.811750   2.437272
    13  H    3.940171   4.614076   4.740649   5.830606   6.665868
    14  H    5.533344   6.486729   6.711209   7.871341   8.722723
    15  H    1.090014   2.087437   2.724189   4.062354   4.753482
    16  H    1.089926   2.087368   3.385893   4.539514   4.766337
    17  H    2.722104   2.175444   1.089961   2.161387   3.419713
    18  H    4.677112   3.438822   2.168514   1.090011   2.166649
    19  H    5.406107   3.923705   3.424786   2.168065   1.090023
    20  H    4.693187   3.438025   3.900927   3.421034   2.166226
    21  H    2.749922   2.174869   3.426063   3.901772   3.420400
                   11         12         13         14         15
    11  C    0.000000
    12  C    1.407223   0.000000
    13  H    6.576368   5.632680   0.000000
    14  H    8.554115   7.500348   2.086786   0.000000
    15  H    4.427791   3.244453   4.366615   5.800156   0.000000
    16  H    3.957776   2.553708   4.395078   5.816483   1.887905
    17  H    3.900828   3.425929   4.324648   6.200499   2.649745
    18  H    3.421192   3.901753   6.252445   8.269080   4.803935
    19  H    2.167839   3.425082   7.594464   9.670614   5.819992
    20  H    1.090002   2.168493   7.451710   9.396743   5.346820
    21  H    2.162037   1.090086   5.931005   7.642810   3.542784
                   16         17         18         19         20
    16  H    0.000000
    17  H    3.764578   0.000000
    18  H    5.506169   2.486678   0.000000
    19  H    5.835915   4.318678   2.496001   0.000000
    20  H    4.641442   4.990814   4.321153   2.495279   0.000000
    21  H    2.317664   4.333992   4.991765   4.319176   2.487307
                   21
    21  H    0.000000
 Stoichiometry    C8H9NO3
 Framework group  C1[X(C8H9NO3)]
 Deg. of freedom    57
 Full point group                 C1      NOp   1
 Largest Abelian subgroup         C1      NOp   1
 Largest concise Abelian subgroup C1      NOp   1
                         Standard orientation:                         
 ---------------------------------------------------------------------
 Center     Atomic      Atomic             Coordinates (Angstroms)
 Number     Number       Type             X           Y           Z
 ---------------------------------------------------------------------
      1          8           0       -2.881619   -1.181701    0.657634
      2          6           0       -2.350804   -0.200476    0.085854
      3          7           0       -3.100937    0.759018   -0.491102
      4          8           0       -4.403383    0.697980   -0.522919
      5          8           0       -0.998596   -0.060525    0.017316
      6          6           0       -0.015945   -0.943326    0.570256
      7          6           0        1.333228   -0.411476    0.262613
      8          6           0        1.717891    0.863222    0.743285
      9          6           0        2.995627    1.381208    0.462277
     10          6           0        3.906007    0.632380   -0.304041
     11          6           0        3.533151   -0.629640   -0.798637
     12          6           0        2.255269   -1.147931   -0.518162
     13          1           0       -2.665745    1.562955   -0.920404
     14          1           0       -4.751474    1.496781   -0.925918
     15          1           0       -0.144298   -0.905298    1.652019
     16          1           0       -0.123102   -1.890460    0.041680
     17          1           0        1.020852    1.453698    1.337836
     18          1           0        3.280510    2.363756    0.838527
     19          1           0        4.899073    1.029561   -0.514321
     20          1           0        4.235432   -1.206812   -1.400118
     21          1           0        1.977542   -2.127108   -0.908507
 ---------------------------------------------------------------------
 Rotational constants (GHZ):           2.7566514           0.3725341           0.3512883
 Leave Link  202 at Mon Oct 14 00:20:34 2019, MaxMem= 10737418240 cpu:               0.5 elap:               0.0
 (Enter /apps/cent7/gaussian/g16-A.03/g16-haswell/g16/l301.exe)
 Standard basis: 6-31G(d) (6D, 7F)
 Ernie: Thresh=  0.10000D-02 Tol=  0.10000D-05 Strict=F.
 There are   198 symmetry adapted cartesian basis functions of A   symmetry.
 There are   198 symmetry adapted basis functions of A   symmetry.
   198 basis functions,   372 primitive gaussians,   198 cartesian basis functions
    44 alpha electrons       44 beta electrons
       nuclear repulsion energy       652.5182446031 Hartrees.
 IExCor=  402 DFT=T Ex+Corr=B3LYP ExCW=0 ScaHFX=  0.200000
 ScaDFX=  0.800000  0.720000  1.000000  0.810000 ScalE2=  1.000000  1.000000
 IRadAn=      5 IRanWt=     -1 IRanGd=            0 ICorTp=0 IEmpDi=  4
 NAtoms=   21 NActive=   21 NUniq=   21 SFac= 1.00D+00 NAtFMM=   60 NAOKFM=F Big=F
 Integral buffers will be    131072 words long.
 Raffenetti 2 integral format.
 Two-electron integral symmetry is turned on.
 Leave Link  301 at Mon Oct 14 00:20:34 2019, MaxMem= 10737418240 cpu:               1.3 elap:               0.1
 (Enter /apps/cent7/gaussian/g16-A.03/g16-haswell/g16/l302.exe)
 NPDir=0 NMtPBC=     1 NCelOv=     1 NCel=       1 NClECP=     1 NCelD=      1
         NCelK=      1 NCelE2=     1 NClLst=     1 CellRange=     0.0.
 One-electron integrals computed using PRISM.
 One-electron integral symmetry used in STVInt
 NBasis=   198 RedAO= T EigKep=  5.09D-04  NBF=   198
 NBsUse=   198 1.00D-06 EigRej= -1.00D+00 NBFU=   198
 Precomputing XC quadrature grid using
 IXCGrd= 4 IRadAn=           5 IRanWt=          -1 IRanGd=           0 AccXCQ= 0.00D+00.
 Generated NRdTot=       0 NPtTot=           0 NUsed=           0 NTot=          32
 NSgBfM=   197   197   197   197   197 MxSgAt=    21 MxSgA2=    21.
 Leave Link  302 at Mon Oct 14 00:20:34 2019, MaxMem= 10737418240 cpu:               3.8 elap:               0.2
 (Enter /apps/cent7/gaussian/g16-A.03/g16-haswell/g16/l303.exe)
 DipDrv:  MaxL=1.
 Leave Link  303 at Mon Oct 14 00:20:34 2019, MaxMem= 10737418240 cpu:               0.9 elap:               0.1
 (Enter /apps/cent7/gaussian/g16-A.03/g16-haswell/g16/l401.exe)
 ExpMin= 1.61D-01 ExpMax= 5.48D+03 ExpMxC= 8.25D+02 IAcc=3 IRadAn=         5 AccDes= 0.00D+00
 Harris functional with IExCor=  402 and IRadAn=       5 diagonalized for initial guess.
 HarFok:  IExCor=  402 AccDes= 0.00D+00 IRadAn=         5 IDoV= 1 UseB2=F ITyADJ=14
 ICtDFT=  3500011 ScaDFX=  1.000000  1.000000  1.000000  1.000000
 FoFCou: FMM=F IPFlag=           0 FMFlag=      100000 FMFlg1=           0
         NFxFlg=           0 DoJE=T BraDBF=F KetDBF=T FulRan=T
         wScrn=  0.000000 ICntrl=       500 IOpCl=  0 I1Cent=   200000004 NGrid=           0
         NMat0=    1 NMatS0=      1 NMatT0=    0 NMatD0=    1 NMtDS0=    0 NMtDT0=    0
 Petite list used in FoFCou.
 Harris En= -590.627322381909    
 JPrj=0 DoOrth=F DoCkMO=F.
 Leave Link  401 at Mon Oct 14 00:20:35 2019, MaxMem= 10737418240 cpu:               8.7 elap:               0.4
 (Enter /apps/cent7/gaussian/g16-A.03/g16-haswell/g16/l502.exe)
 Integral symmetry usage will be decided dynamically.
 Closed shell SCF:
 Using DIIS extrapolation, IDIIS=  1040.
 NGot= 10737418240 LenX= 10737332805 LenY= 10737293160
 Requested convergence on RMS density matrix=1.00D-08 within 128 cycles.
 Requested convergence on MAX density matrix=1.00D-06.
 Requested convergence on             energy=1.00D-06.
 No special actions if energy rises.
 Fock matrices will be formed incrementally for  20 cycles.
 Integral accuracy reduced to 1.0D-05 until final iterations.

 Cycle   1  Pass 0  IDiag  1:
 FoFJK:  IHMeth= 1 ICntrl=       0 DoSepK=F KAlg= 0 I1Cent=           0 FoldK=F
 IRaf= 840000000 NMat=       1 IRICut=       1 DoRegI=T DoRafI=F ISym2E= 0 IDoP0=0 IntGTp=1.
 FoFCou: FMM=F IPFlag=           0 FMFlag=      100000 FMFlg1=           0
         NFxFlg=           0 DoJE=F BraDBF=F KetDBF=F FulRan=T
         wScrn=  0.000000 ICntrl=         0 IOpCl=  0 I1Cent=           0 NGrid=           0
         NMat0=    1 NMatS0=      1 NMatT0=    0 NMatD0=    1 NMtDS0=    0 NMtDT0=    0
 Symmetry not used in FoFCou.
 E= -590.298886461393    
 DIIS: error= 2.83D-02 at cycle   1 NSaved=   1.
 NSaved= 1 IEnMin= 1 EnMin= -590.298886461393     IErMin= 1 ErrMin= 2.83D-02
 ErrMax= 2.83D-02  0.00D+00 EMaxC= 1.00D-01 BMatC= 3.26D-01 BMatP= 3.26D-01
 IDIUse=3 WtCom= 7.17D-01 WtEn= 2.83D-01
 Coeff-Com:  0.100D+01
 Coeff-En:   0.100D+01
 Coeff:      0.100D+01
 Gap=     0.279 Goal=   None    Shift=    0.000
 GapD=    0.279 DampG=1.000 DampE=0.500 DampFc=0.5000 IDamp=-1.
 Damping current iteration by 5.00D-01
 RMSDP=8.13D-03 MaxDP=2.51D-01              OVMax= 4.27D-01

 Cycle   2  Pass 0  IDiag  1:
 RMSU=  4.05D-03    CP:  9.85D-01
 E= -590.339569957026     Delta-E=       -0.040683495633 Rises=F Damp=T
 DIIS: error= 1.68D-02 at cycle   2 NSaved=   2.
 NSaved= 2 IEnMin= 2 EnMin= -590.339569957026     IErMin= 2 ErrMin= 1.68D-02
 ErrMax= 1.68D-02  0.00D+00 EMaxC= 1.00D-01 BMatC= 8.15D-02 BMatP= 3.26D-01
 IDIUse=3 WtCom= 8.32D-01 WtEn= 1.68D-01
 Coeff-Com:  0.275D+00 0.725D+00
 Coeff-En:   0.433D+00 0.567D+00
 Coeff:      0.301D+00 0.699D+00
 Gap=     0.267 Goal=   None    Shift=    0.000
 RMSDP=2.98D-03 MaxDP=9.87D-02 DE=-4.07D-02 OVMax= 2.42D-01

 Cycle   3  Pass 0  IDiag  1:
 RMSU=  2.32D-03    CP:  9.76D-01  5.43D-01
 E= -590.537529519684     Delta-E=       -0.197959562658 Rises=F Damp=F
 DIIS: error= 1.44D-02 at cycle   3 NSaved=   3.
 NSaved= 3 IEnMin= 3 EnMin= -590.537529519684     IErMin= 3 ErrMin= 1.44D-02
 ErrMax= 1.44D-02  0.00D+00 EMaxC= 1.00D-01 BMatC= 6.78D-02 BMatP= 8.15D-02
 IDIUse=3 WtCom= 8.56D-01 WtEn= 1.44D-01
 Coeff-Com:  0.903D-01 0.460D+00 0.449D+00
 Coeff-En:   0.000D+00 0.000D+00 0.100D+01
 Coeff:      0.773D-01 0.394D+00 0.529D+00
 Gap=     0.206 Goal=   None    Shift=    0.000
 RMSDP=1.65D-03 MaxDP=5.86D-02 DE=-1.98D-01 OVMax= 9.85D-02

 Cycle   4  Pass 0  IDiag  1:
 RMSU=  1.09D-03    CP:  9.81D-01  6.42D-01  4.97D-01
 E= -590.587111551996     Delta-E=       -0.049582032312 Rises=F Damp=F
 DIIS: error= 4.86D-03 at cycle   4 NSaved=   4.
 NSaved= 4 IEnMin= 4 EnMin= -590.587111551996     IErMin= 4 ErrMin= 4.86D-03
 ErrMax= 4.86D-03  0.00D+00 EMaxC= 1.00D-01 BMatC= 1.03D-02 BMatP= 6.78D-02
 IDIUse=3 WtCom= 9.51D-01 WtEn= 4.86D-02
 Coeff-Com:  0.111D-01 0.942D-01 0.296D+00 0.598D+00
 Coeff-En:   0.000D+00 0.000D+00 0.134D+00 0.866D+00
 Coeff:      0.105D-01 0.896D-01 0.288D+00 0.611D+00
 Gap=     0.200 Goal=   None    Shift=    0.000
 RMSDP=5.05D-04 MaxDP=1.67D-02 DE=-4.96D-02 OVMax= 2.79D-02

 Cycle   5  Pass 0  IDiag  1:
 RMSU=  2.10D-04    CP:  9.80D-01  6.06D-01  6.28D-01  7.14D-01
 E= -590.594589967788     Delta-E=       -0.007478415792 Rises=F Damp=F
 DIIS: error= 1.58D-03 at cycle   5 NSaved=   5.
 NSaved= 5 IEnMin= 5 EnMin= -590.594589967788     IErMin= 5 ErrMin= 1.58D-03
 ErrMax= 1.58D-03  0.00D+00 EMaxC= 1.00D-01 BMatC= 6.35D-04 BMatP= 1.03D-02
 IDIUse=3 WtCom= 9.84D-01 WtEn= 1.58D-02
 Coeff-Com: -0.170D-02 0.135D-01 0.108D+00 0.325D+00 0.555D+00
 Coeff-En:   0.000D+00 0.000D+00 0.000D+00 0.000D+00 0.100D+01
 Coeff:     -0.167D-02 0.133D-01 0.106D+00 0.320D+00 0.562D+00
 Gap=     0.199 Goal=   None    Shift=    0.000
 RMSDP=1.25D-04 MaxDP=5.17D-03 DE=-7.48D-03 OVMax= 5.98D-03

 Cycle   6  Pass 0  IDiag  1:
 RMSU=  8.07D-05    CP:  9.80D-01  6.18D-01  6.26D-01  7.52D-01  6.59D-01
 E= -590.595044795925     Delta-E=       -0.000454828138 Rises=F Damp=F
 DIIS: error= 3.64D-04 at cycle   6 NSaved=   6.
 NSaved= 6 IEnMin= 6 EnMin= -590.595044795925     IErMin= 6 ErrMin= 3.64D-04
 ErrMax= 3.64D-04  0.00D+00 EMaxC= 1.00D-01 BMatC= 5.25D-05 BMatP= 6.35D-04
 IDIUse=3 WtCom= 9.96D-01 WtEn= 3.64D-03
 Coeff-Com: -0.157D-02-0.101D-02 0.280D-01 0.103D+00 0.294D+00 0.577D+00
 Coeff-En:   0.000D+00 0.000D+00 0.000D+00 0.000D+00 0.123D-01 0.988D+00
 Coeff:     -0.156D-02-0.100D-02 0.279D-01 0.103D+00 0.293D+00 0.578D+00
 Gap=     0.199 Goal=   None    Shift=    0.000
 RMSDP=4.12D-05 MaxDP=1.24D-03 DE=-4.55D-04 OVMax= 2.06D-03

 Cycle   7  Pass 0  IDiag  1:
 RMSU=  2.57D-05    CP:  9.80D-01  6.16D-01  6.27D-01  7.55D-01  7.14D-01
                    CP:  6.37D-01
 E= -590.595083323112     Delta-E=       -0.000038527187 Rises=F Damp=F
 DIIS: error= 1.22D-04 at cycle   7 NSaved=   7.
 NSaved= 7 IEnMin= 7 EnMin= -590.595083323112     IErMin= 7 ErrMin= 1.22D-04
 ErrMax= 1.22D-04  0.00D+00 EMaxC= 1.00D-01 BMatC= 5.60D-06 BMatP= 5.25D-05
 IDIUse=3 WtCom= 9.99D-01 WtEn= 1.22D-03
 Coeff-Com: -0.653D-03-0.157D-02 0.942D-02 0.372D-01 0.136D+00 0.343D+00
 Coeff-Com:  0.476D+00
 Coeff-En:   0.000D+00 0.000D+00 0.000D+00 0.000D+00 0.000D+00 0.248D-01
 Coeff-En:   0.975D+00
 Coeff:     -0.653D-03-0.157D-02 0.941D-02 0.371D-01 0.136D+00 0.343D+00
 Coeff:      0.477D+00
 Gap=     0.199 Goal=   None    Shift=    0.000
 RMSDP=1.41D-05 MaxDP=3.67D-04 DE=-3.85D-05 OVMax= 8.55D-04

 Cycle   8  Pass 0  IDiag  1:
 RMSU=  7.39D-06    CP:  9.80D-01  6.16D-01  6.27D-01  7.56D-01  7.09D-01
                    CP:  6.81D-01  5.88D-01
 E= -590.595088678324     Delta-E=       -0.000005355212 Rises=F Damp=F
 DIIS: error= 3.22D-05 at cycle   8 NSaved=   8.
 NSaved= 8 IEnMin= 8 EnMin= -590.595088678324     IErMin= 8 ErrMin= 3.22D-05
 ErrMax= 3.22D-05  0.00D+00 EMaxC= 1.00D-01 BMatC= 2.98D-07 BMatP= 5.60D-06
 IDIUse=1 WtCom= 1.00D+00 WtEn= 0.00D+00
 Coeff-Com:  0.214D-04-0.709D-03 0.789D-03 0.254D-02 0.241D-01 0.797D-01
 Coeff-Com:  0.195D+00 0.699D+00
 Coeff:      0.214D-04-0.709D-03 0.789D-03 0.254D-02 0.241D-01 0.797D-01
 Coeff:      0.195D+00 0.699D+00
 Gap=     0.199 Goal=   None    Shift=    0.000
 RMSDP=4.27D-06 MaxDP=9.27D-05 DE=-5.36D-06 OVMax= 2.86D-04

 Initial convergence to 1.0D-05 achieved.  Increase integral accuracy.
 Cycle   9  Pass 1  IDiag  1:
 E= -590.595094393726     Delta-E=       -0.000005715402 Rises=F Damp=F
 DIIS: error= 2.91D-05 at cycle   1 NSaved=   1.
 NSaved= 1 IEnMin= 1 EnMin= -590.595094393726     IErMin= 1 ErrMin= 2.91D-05
 ErrMax= 2.91D-05  0.00D+00 EMaxC= 1.00D-01 BMatC= 1.55D-07 BMatP= 1.55D-07
 IDIUse=1 WtCom= 1.00D+00 WtEn= 0.00D+00
 Coeff-Com:  0.100D+01
 Coeff:      0.100D+01
 Gap=     0.199 Goal=   None    Shift=    0.000
 RMSDP=4.27D-06 MaxDP=9.27D-05 DE=-5.72D-06 OVMax= 3.16D-04

 Cycle  10  Pass 1  IDiag  1:
 RMSU=  2.07D-05    CP:  1.00D+00
 E= -590.595094239287     Delta-E=        0.000000154439 Rises=F Damp=F
 DIIS: error= 3.76D-05 at cycle   2 NSaved=   2.
 NSaved= 2 IEnMin= 1 EnMin= -590.595094393726     IErMin= 1 ErrMin= 2.91D-05
 ErrMax= 3.76D-05  0.00D+00 EMaxC= 1.00D-01 BMatC= 2.95D-07 BMatP= 1.55D-07
 IDIUse=1 WtCom= 1.00D+00 WtEn= 0.00D+00
 Coeff-Com:  0.592D+00 0.408D+00
 Coeff:      0.592D+00 0.408D+00
 Gap=     0.199 Goal=   None    Shift=    0.000
 RMSDP=3.36D-06 MaxDP=7.99D-05 DE= 1.54D-07 OVMax= 2.57D-04

 Cycle  11  Pass 1  IDiag  1:
 RMSU=  3.31D-06    CP:  1.00D+00  9.74D-01
 E= -590.595094539575     Delta-E=       -0.000000300288 Rises=F Damp=F
 DIIS: error= 8.64D-06 at cycle   3 NSaved=   3.
 NSaved= 3 IEnMin= 3 EnMin= -590.595094539575     IErMin= 3 ErrMin= 8.64D-06
 ErrMax= 8.64D-06  0.00D+00 EMaxC= 1.00D-01 BMatC= 1.39D-08 BMatP= 1.55D-07
 IDIUse=1 WtCom= 1.00D+00 WtEn= 0.00D+00
 Coeff-Com:  0.412D-01 0.181D+00 0.778D+00
 Coeff:      0.412D-01 0.181D+00 0.778D+00
 Gap=     0.199 Goal=   None    Shift=    0.000
 RMSDP=8.15D-07 MaxDP=1.62D-05 DE=-3.00D-07 OVMax= 5.77D-05

 Cycle  12  Pass 1  IDiag  1:
 RMSU=  4.97D-07    CP:  1.00D+00  9.86D-01  8.19D-01
 E= -590.595094552564     Delta-E=       -0.000000012988 Rises=F Damp=F
 DIIS: error= 2.70D-06 at cycle   4 NSaved=   4.
 NSaved= 4 IEnMin= 4 EnMin= -590.595094552564     IErMin= 4 ErrMin= 2.70D-06
 ErrMax= 2.70D-06  0.00D+00 EMaxC= 1.00D-01 BMatC= 2.57D-09 BMatP= 1.39D-08
 IDIUse=1 WtCom= 1.00D+00 WtEn= 0.00D+00
 Coeff-Com: -0.232D-02 0.903D-01 0.473D+00 0.439D+00
 Coeff:     -0.232D-02 0.903D-01 0.473D+00 0.439D+00
 Gap=     0.199 Goal=   None    Shift=    0.000
 RMSDP=2.85D-07 MaxDP=8.06D-06 DE=-1.30D-08 OVMax= 1.93D-05

 Cycle  13  Pass 1  IDiag  1:
 RMSU=  8.12D-08    CP:  1.00D+00  9.87D-01  8.35D-01  4.62D-01
 E= -590.595094554918     Delta-E=       -0.000000002354 Rises=F Damp=F
 DIIS: error= 6.18D-07 at cycle   5 NSaved=   5.
 NSaved= 5 IEnMin= 5 EnMin= -590.595094554918     IErMin= 5 ErrMin= 6.18D-07
 ErrMax= 6.18D-07  0.00D+00 EMaxC= 1.00D-01 BMatC= 9.25D-11 BMatP= 2.57D-09
 IDIUse=1 WtCom= 1.00D+00 WtEn= 0.00D+00
 Coeff-Com: -0.276D-02 0.487D-01 0.262D+00 0.268D+00 0.424D+00
 Coeff:     -0.276D-02 0.487D-01 0.262D+00 0.268D+00 0.424D+00
 Gap=     0.199 Goal=   None    Shift=    0.000
 RMSDP=4.17D-08 MaxDP=1.71D-06 DE=-2.35D-09 OVMax= 2.55D-06

 Cycle  14  Pass 1  IDiag  1:
 RMSU=  2.75D-08    CP:  1.00D+00  9.87D-01  8.35D-01  4.69D-01  6.20D-01
 E= -590.595094554988     Delta-E=       -0.000000000070 Rises=F Damp=F
 DIIS: error= 6.76D-08 at cycle   6 NSaved=   6.
 NSaved= 6 IEnMin= 6 EnMin= -590.595094554988     IErMin= 6 ErrMin= 6.76D-08
 ErrMax= 6.76D-08  0.00D+00 EMaxC= 1.00D-01 BMatC= 2.23D-12 BMatP= 9.25D-11
 IDIUse=1 WtCom= 1.00D+00 WtEn= 0.00D+00
 Coeff-Com: -0.131D-02 0.201D-01 0.109D+00 0.116D+00 0.203D+00 0.553D+00
 Coeff:     -0.131D-02 0.201D-01 0.109D+00 0.116D+00 0.203D+00 0.553D+00
 Gap=     0.199 Goal=   None    Shift=    0.000
 RMSDP=1.04D-08 MaxDP=4.21D-07 DE=-6.96D-11 OVMax= 6.36D-07

 Cycle  15  Pass 1  IDiag  1:
 RMSU=  9.05D-09    CP:  1.00D+00  9.87D-01  8.35D-01  4.71D-01  6.52D-01
                    CP:  8.62D-01
 E= -590.595094554996     Delta-E=       -0.000000000008 Rises=F Damp=F
 DIIS: error= 5.00D-08 at cycle   7 NSaved=   7.
 NSaved= 7 IEnMin= 7 EnMin= -590.595094554996     IErMin= 7 ErrMin= 5.00D-08
 ErrMax= 5.00D-08  0.00D+00 EMaxC= 1.00D-01 BMatC= 8.91D-13 BMatP= 2.23D-12
 IDIUse=1 WtCom= 1.00D+00 WtEn= 0.00D+00
 Coeff-Com: -0.226D-03 0.216D-02 0.124D-01 0.165D-01 0.359D-01 0.388D+00
 Coeff-Com:  0.545D+00
 Coeff:     -0.226D-03 0.216D-02 0.124D-01 0.165D-01 0.359D-01 0.388D+00
 Coeff:      0.545D+00
 Gap=     0.199 Goal=   None    Shift=    0.000
 RMSDP=5.23D-09 MaxDP=1.64D-07 DE=-7.73D-12 OVMax= 2.76D-07

 SCF Done:  E(RB3LYP) =  -590.595094555     A.U. after   15 cycles
            NFock= 15  Conv=0.52D-08     -V/T= 2.0093
 KE= 5.851814387640D+02 PE=-2.683642299275D+03 EE= 8.553475213534D+02
 Leave Link  502 at Mon Oct 14 00:20:38 2019, MaxMem= 10737418240 cpu:              89.7 elap:               3.8
 (Enter /apps/cent7/gaussian/g16-A.03/g16-haswell/g16/l601.exe)
 Copying SCF densities to generalized density rwf, IOpCl= 0 IROHF=0.

 **********************************************************************

            Population analysis using the SCF density.

 **********************************************************************

 Orbital symmetries:
       Occupied  (A) (A) (A) (A) (A) (A) (A) (A) (A) (A) (A) (A)
                 (A) (A) (A) (A) (A) (A) (A) (A) (A) (A) (A) (A)
                 (A) (A) (A) (A) (A) (A) (A) (A) (A) (A) (A) (A)
                 (A) (A) (A) (A) (A) (A) (A) (A)
       Virtual   (A) (A) (A) (A) (A) (A) (A) (A) (A) (A) (A) (A)
                 (A) (A) (A) (A) (A) (A) (A) (A) (A) (A) (A) (A)
                 (A) (A) (A) (A) (A) (A) (A) (A) (A) (A) (A) (A)
                 (A) (A) (A) (A) (A) (A) (A) (A) (A) (A) (A) (A)
                 (A) (A) (A) (A) (A) (A) (A) (A) (A) (A) (A) (A)
                 (A) (A) (A) (A) (A) (A) (A) (A) (A) (A) (A) (A)
                 (A) (A) (A) (A) (A) (A) (A) (A) (A) (A) (A) (A)
                 (A) (A) (A) (A) (A) (A) (A) (A) (A) (A) (A) (A)
                 (A) (A) (A) (A) (A) (A) (A) (A) (A) (A) (A) (A)
                 (A) (A) (A) (A) (A) (A) (A) (A) (A) (A) (A) (A)
                 (A) (A) (A) (A) (A) (A) (A) (A) (A) (A) (A) (A)
                 (A) (A) (A) (A) (A) (A) (A) (A) (A) (A) (A) (A)
                 (A) (A) (A) (A) (A) (A) (A) (A) (A) (A)
 The electronic state is 1-A.
 Alpha  occ. eigenvalues --  -19.20506 -19.17419 -19.08949 -14.41965 -10.32602
 Alpha  occ. eigenvalues --  -10.24775 -10.20251 -10.19941 -10.19822 -10.19790
 Alpha  occ. eigenvalues --  -10.19751 -10.19722  -1.15054  -1.07603  -0.97090
 Alpha  occ. eigenvalues --   -0.86723  -0.85249  -0.77841  -0.74570  -0.69985
 Alpha  occ. eigenvalues --   -0.62703  -0.61945  -0.60899  -0.58062  -0.53465
 Alpha  occ. eigenvalues --   -0.51349  -0.49592  -0.46764  -0.46033  -0.43576
 Alpha  occ. eigenvalues --   -0.42928  -0.42186  -0.41528  -0.39212  -0.37078
 Alpha  occ. eigenvalues --   -0.35940  -0.35892  -0.34522  -0.32757  -0.27671
 Alpha  occ. eigenvalues --   -0.25352  -0.25229  -0.23855  -0.21519
 Alpha virt. eigenvalues --   -0.01623  -0.00687   0.03146   0.06513   0.08417
 Alpha virt. eigenvalues --    0.09109   0.11422   0.12861   0.13652   0.15611
 Alpha virt. eigenvalues --    0.16387   0.17434   0.18500   0.19578   0.22828
 Alpha virt. eigenvalues --    0.24493   0.25966   0.29675   0.31110   0.31626
 Alpha virt. eigenvalues --    0.33848   0.38824   0.40617   0.46839   0.49199
 Alpha virt. eigenvalues --    0.51426   0.52605   0.53450   0.55424   0.56248
 Alpha virt. eigenvalues --    0.56678   0.57580   0.58742   0.59584   0.60285
 Alpha virt. eigenvalues --    0.60800   0.60908   0.62711   0.62885   0.65399
 Alpha virt. eigenvalues --    0.66471   0.67758   0.69120   0.71594   0.75562
 Alpha virt. eigenvalues --    0.78645   0.80326   0.81285   0.82528   0.83308
 Alpha virt. eigenvalues --    0.83472   0.84506   0.86080   0.88056   0.88399
 Alpha virt. eigenvalues --    0.90210   0.90694   0.93056   0.93348   0.93988
 Alpha virt. eigenvalues --    0.96842   0.98382   1.01377   1.03132   1.07649
 Alpha virt. eigenvalues --    1.09546   1.10786   1.11341   1.16331   1.16445
 Alpha virt. eigenvalues --    1.16749   1.19799   1.22902   1.25405   1.25930
 Alpha virt. eigenvalues --    1.31667   1.34169   1.38085   1.41661   1.43063
 Alpha virt. eigenvalues --    1.43913   1.45547   1.46349   1.48080   1.48755
 Alpha virt. eigenvalues --    1.50740   1.54036   1.57733   1.65605   1.67803
 Alpha virt. eigenvalues --    1.72370   1.74853   1.78417   1.79163   1.81853
 Alpha virt. eigenvalues --    1.86104   1.86558   1.87649   1.88651   1.91352
 Alpha virt. eigenvalues --    1.94949   1.96044   1.96665   1.99881   2.01378
 Alpha virt. eigenvalues --    2.03492   2.05380   2.07558   2.10908   2.11958
 Alpha virt. eigenvalues --    2.13677   2.14584   2.18242   2.21367   2.25728
 Alpha virt. eigenvalues --    2.26034   2.26722   2.29415   2.31397   2.35146
 Alpha virt. eigenvalues --    2.37247   2.40614   2.52818   2.54951   2.55942
 Alpha virt. eigenvalues --    2.57942   2.59670   2.63028   2.69822   2.70384
 Alpha virt. eigenvalues --    2.71435   2.72150   2.72926   2.76952   2.77709
 Alpha virt. eigenvalues --    2.86253   2.87184   2.93209   3.04725   3.19513
 Alpha virt. eigenvalues --    3.22858   3.37211   3.63460   3.91389   4.03117
 Alpha virt. eigenvalues --    4.07247   4.10631   4.13002   4.24354   4.31220
 Alpha virt. eigenvalues --    4.33374   4.39004   4.46730   4.68701
          Condensed to atoms (all electrons):
               1          2          3          4          5          6
     1  O    8.122488   0.566410  -0.094075   0.003939  -0.085618   0.006756
     2  C    0.566410   4.163217   0.285788  -0.045533   0.277109  -0.018885
     3  N   -0.094075   0.285788   6.866108   0.104013  -0.085408   0.003127
     4  O    0.003939  -0.045533   0.104013   8.189644   0.000972  -0.000028
     5  O   -0.085618   0.277109  -0.085408   0.000972   8.334231   0.181089
     6  C    0.006756  -0.018885   0.003127  -0.000028   0.181089   4.952038
     7  C    0.000813   0.005201   0.000134   0.000000  -0.047769   0.349960
     8  C    0.000004   0.000249  -0.000058   0.000000   0.005890  -0.063212
     9  C   -0.000000   0.000002  -0.000000   0.000000   0.000168   0.005358
    10  C    0.000000   0.000000   0.000000  -0.000000   0.000009   0.000331
    11  C   -0.000000  -0.000001  -0.000000   0.000000  -0.000087   0.006724
    12  C   -0.000006  -0.000031  -0.000002   0.000000   0.000247  -0.046866
    13  H    0.003624  -0.022363   0.297211  -0.027058   0.009278  -0.000374
    14  H    0.000405   0.007325  -0.021279   0.234987  -0.000053   0.000002
    15  H    0.003742  -0.001596   0.000010   0.000000  -0.043189   0.357729
    16  H    0.004050  -0.001450   0.000017   0.000001  -0.037602   0.359337
    17  H    0.000007   0.000117  -0.000001  -0.000000   0.004075  -0.008605
    18  H    0.000000  -0.000000  -0.000000  -0.000000  -0.000000  -0.000168
    19  H    0.000000   0.000000   0.000000   0.000000   0.000000   0.000006
    20  H    0.000000  -0.000000   0.000000  -0.000000   0.000000  -0.000166
    21  H    0.000002   0.000000   0.000000  -0.000000   0.000061  -0.009933
               7          8          9         10         11         12
     1  O    0.000813   0.000004  -0.000000   0.000000  -0.000000  -0.000006
     2  C    0.005201   0.000249   0.000002   0.000000  -0.000001  -0.000031
     3  N    0.000134  -0.000058  -0.000000   0.000000  -0.000000  -0.000002
     4  O    0.000000   0.000000   0.000000  -0.000000   0.000000   0.000000
     5  O   -0.047769   0.005890   0.000168   0.000009  -0.000087   0.000247
     6  C    0.349960  -0.063212   0.005358   0.000331   0.006724  -0.046866
     7  C    4.735734   0.510443  -0.019856  -0.032618  -0.021769   0.548887
     8  C    0.510443   4.973491   0.525627  -0.035147  -0.042445  -0.043215
     9  C   -0.019856   0.525627   4.871237   0.542287  -0.027698  -0.042271
    10  C   -0.032618  -0.035147   0.542287   4.855667   0.549182  -0.035772
    11  C   -0.021769  -0.042445  -0.027698   0.549182   4.872389   0.517238
    12  C    0.548887  -0.043215  -0.042271  -0.035772   0.517238   4.960960
    13  H   -0.000080   0.000034   0.000000  -0.000000   0.000000   0.000001
    14  H   -0.000000  -0.000000   0.000000   0.000000   0.000000   0.000000
    15  H   -0.033861  -0.010001  -0.000131   0.000025  -0.000286   0.003536
    16  H   -0.041786   0.008037  -0.000145  -0.000007   0.000112  -0.008049
    17  H   -0.047080   0.357930  -0.043063   0.004577   0.000361   0.005252
    18  H    0.003506  -0.039587   0.357429  -0.042117   0.004371   0.000757
    19  H    0.000603   0.004481  -0.042259   0.358539  -0.042100   0.004566
    20  H    0.003571   0.000752   0.004327  -0.042027   0.357159  -0.038505
    21  H   -0.040795   0.005817   0.000333   0.004453  -0.043676   0.351898
              13         14         15         16         17         18
     1  O    0.003624   0.000405   0.003742   0.004050   0.000007   0.000000
     2  C   -0.022363   0.007325  -0.001596  -0.001450   0.000117  -0.000000
     3  N    0.297211  -0.021279   0.000010   0.000017  -0.000001  -0.000000
     4  O   -0.027058   0.234987   0.000000   0.000001  -0.000000  -0.000000
     5  O    0.009278  -0.000053  -0.043189  -0.037602   0.004075  -0.000000
     6  C   -0.000374   0.000002   0.357729   0.359337  -0.008605  -0.000168
     7  C   -0.000080  -0.000000  -0.033861  -0.041786  -0.047080   0.003506
     8  C    0.000034  -0.000000  -0.010001   0.008037   0.357930  -0.039587
     9  C    0.000000   0.000000  -0.000131  -0.000145  -0.043063   0.357429
    10  C   -0.000000   0.000000   0.000025  -0.000007   0.004577  -0.042117
    11  C    0.000000   0.000000  -0.000286   0.000112   0.000361   0.004371
    12  C    0.000001   0.000000   0.003536  -0.008049   0.005252   0.000757
    13  H    0.417291  -0.010372   0.000028   0.000026   0.000016   0.000000
    14  H   -0.010372   0.368522  -0.000000  -0.000000  -0.000000   0.000000
    15  H    0.000028  -0.000000   0.581617  -0.027693   0.002355   0.000001
    16  H    0.000026  -0.000000  -0.027693   0.574801   0.000223   0.000003
    17  H    0.000016  -0.000000   0.002355   0.000223   0.595341  -0.005100
    18  H    0.000000   0.000000   0.000001   0.000003  -0.005100   0.592979
    19  H   -0.000000  -0.000000  -0.000000  -0.000000  -0.000167  -0.005157
    20  H    0.000000   0.000000   0.000003  -0.000005   0.000015  -0.000174
    21  H    0.000000  -0.000000   0.000090   0.008487  -0.000153   0.000015
              19         20         21
     1  O    0.000000   0.000000   0.000002
     2  C    0.000000  -0.000000   0.000000
     3  N    0.000000   0.000000   0.000000
     4  O    0.000000  -0.000000  -0.000000
     5  O    0.000000   0.000000   0.000061
     6  C    0.000006  -0.000166  -0.009933
     7  C    0.000603   0.003571  -0.040795
     8  C    0.004481   0.000752   0.005817
     9  C   -0.042259   0.004327   0.000333
    10  C    0.358539  -0.042027   0.004453
    11  C   -0.042100   0.357159  -0.043676
    12  C    0.004566  -0.038505   0.351898
    13  H   -0.000000   0.000000   0.000000
    14  H   -0.000000   0.000000  -0.000000
    15  H   -0.000000   0.000003   0.000090
    16  H   -0.000000  -0.000005   0.008487
    17  H   -0.000167   0.000015  -0.000153
    18  H   -0.005157  -0.000174   0.000015
    19  H    0.593507  -0.005223  -0.000166
    20  H   -0.005223   0.590623  -0.005062
    21  H   -0.000166  -0.005062   0.594924
 Mulliken charges:
               1
     1  O   -0.532540
     2  C    0.784441
     3  N   -0.355585
     4  O   -0.460936
     5  O   -0.513402
     6  C   -0.074220
     7  C    0.126762
     8  C   -0.159090
     9  C   -0.131345
    10  C   -0.127381
    11  C   -0.129473
    12  C   -0.178627
    13  H    0.332737
    14  H    0.420464
    15  H    0.167621
    16  H    0.161643
    17  H    0.133899
    18  H    0.133244
    19  H    0.133373
    20  H    0.134712
    21  H    0.133704
 Sum of Mulliken charges =  -0.00000
 Mulliken charges with hydrogens summed into heavy atoms:
               1
     1  O   -0.532540
     2  C    0.784441
     3  N   -0.022848
     4  O   -0.040472
     5  O   -0.513402
     6  C    0.255044
     7  C    0.126762
     8  C   -0.025191
     9  C    0.001899
    10  C    0.005992
    11  C    0.005239
    12  C   -0.044923
 Electronic spatial extent (au):  <R**2>=           3019.3533
 Charge=             -0.0000 electrons
 Dipole moment (field-independent basis, Debye):
    X=              1.8005    Y=              4.1240    Z=             -2.1733  Tot=              4.9972
 Quadrupole moment (field-independent basis, Debye-Ang):
   XX=            -65.6423   YY=            -61.4351   ZZ=            -67.4608
   XY=            -16.9826   XZ=              7.7402   YZ=              0.5373
 Traceless Quadrupole moment (field-independent basis, Debye-Ang):
   XX=             -0.7962   YY=              3.4110   ZZ=             -2.6148
   XY=            -16.9826   XZ=              7.7402   YZ=              0.5373
 Octapole moment (field-independent basis, Debye-Ang**2):
  XXX=            -26.4794  YYY=             16.0973  ZZZ=             -1.7207  XYY=            -21.9952
  XXY=             76.2455  XXZ=            -50.3643  XZZ=            -21.6705  YZZ=              4.6188
  YYZ=             -9.8689  XYZ=             16.1100
 Hexadecapole moment (field-independent basis, Debye-Ang**3):
 XXXX=          -2954.2015 YYYY=           -388.9990 ZZZZ=           -201.9473 XXXY=           -264.3534
 XXXZ=            106.1824 YYYX=            -60.9271 YYYZ=             -2.3676 ZZZX=             17.0005
 ZZZY=             -8.5392 XXYY=           -508.8979 XXZZ=           -556.7258 YYZZ=            -94.2759
 XXYZ=            -29.4834 YYXZ=             37.8518 ZZXY=            -28.3184
 N-N= 6.525182446031D+02 E-N=-2.683642296490D+03  KE= 5.851814387640D+02
 No NMR shielding tensors so no spin-rotation constants.
 Leave Link  601 at Mon Oct 14 00:20:39 2019, MaxMem= 10737418240 cpu:               3.0 elap:               0.2
 (Enter /apps/cent7/gaussian/g16-A.03/g16-haswell/g16/l701.exe)
 ... and contract with generalized density number  0.
 Compute integral first derivatives.
 Leave Link  701 at Mon Oct 14 00:20:39 2019, MaxMem= 10737418240 cpu:               2.6 elap:               0.1
 (Enter /apps/cent7/gaussian/g16-A.03/g16-haswell/g16/l702.exe)
 L702 exits ... SP integral derivatives will be done elsewhere.
 Leave Link  702 at Mon Oct 14 00:20:39 2019, MaxMem= 10737418240 cpu:               0.4 elap:               0.0
 (Enter /apps/cent7/gaussian/g16-A.03/g16-haswell/g16/l703.exe)
 Integral derivatives from FoFJK, PRISM(SPDF).
 Compute integral first derivatives, UseDBF=F ICtDFT=           0.
 Calling FoFJK, ICntrl=      2127 FMM=F ISym2X=0 I1Cent= 0 IOpClX= 0 NMat=1 NMatS=1 NMatT=0.
 FoFJK:  IHMeth= 1 ICntrl=    2127 DoSepK=F KAlg= 0 I1Cent=           0 FoldK=F
 IRaf=         0 NMat=       1 IRICut=       1 DoRegI=T DoRafI=F ISym2E= 0 IDoP0=0 IntGTp=1.
 FoFCou: FMM=F IPFlag=           0 FMFlag=      100000 FMFlg1=         800
         NFxFlg=           0 DoJE=F BraDBF=F KetDBF=F FulRan=T
         wScrn=  0.000000 ICntrl=      2127 IOpCl=  0 I1Cent=           0 NGrid=           0
         NMat0=    1 NMatS0=      1 NMatT0=    0 NMatD0=    1 NMtDS0=    0 NMtDT0=    0
 Symmetry not used in FoFCou.
 Leave Link  703 at Mon Oct 14 00:20:40 2019, MaxMem= 10737418240 cpu:              23.0 elap:               1.0
 (Enter /apps/cent7/gaussian/g16-A.03/g16-haswell/g16/l716.exe)
 Dipole        = 7.08361836D-01 1.62250496D+00-8.55055467D-01
 ***** Axes restored to original set *****
 -------------------------------------------------------------------
 Center     Atomic                   Forces (Hartrees/Bohr)
 Number     Number              X              Y              Z
 -------------------------------------------------------------------
      1        8          -0.010601274   -0.022447080    0.031062231
      2        6           0.016884109    0.040515349   -0.086708739
      3        7          -0.064292459   -0.095874425    0.009473756
      4        8           0.052537903    0.075304877   -0.005630139
      5        8           0.002466650   -0.003965300    0.060531909
      6        6           0.010873527    0.010667583    0.005049783
      7        6          -0.013864657   -0.025691035    0.013294770
      8        6           0.000367014   -0.010978236   -0.004077583
      9        6           0.007573790    0.002681914   -0.004656674
     10        6           0.004742951    0.004857667   -0.001858710
     11        6          -0.003669631    0.007075067    0.002454359
     12        6          -0.008056416    0.003005282    0.006358325
     13        1          -0.001111775   -0.004270960   -0.001242725
     14        1          -0.003769358   -0.003460266    0.007235302
     15        1           0.009914205    0.005356019   -0.015424103
     16        1          -0.003491348    0.012598310   -0.014738402
     17        1           0.001897982   -0.001155254   -0.001230506
     18        1           0.001830308    0.000341687   -0.001490106
     19        1           0.001441258    0.001883386   -0.000180865
     20        1          -0.000459485    0.002399209    0.000575469
     21        1          -0.001213295    0.001156208    0.001202647
 -------------------------------------------------------------------
 Cartesian Forces:  Max     0.095874425 RMS     0.024948957
 Leave Link  716 at Mon Oct 14 00:20:40 2019, MaxMem= 10737418240 cpu:               1.4 elap:               0.1
 (Enter /apps/cent7/gaussian/g16-A.03/g16-haswell/g16/l103.exe)

 GradGradGradGradGradGradGradGradGradGradGradGradGradGradGradGradGradGrad
 Berny optimization.
 FormGI is forming the generalized inverse of G from B-inverse, IUseBI=4.
 GSVD:  received Info=                   1 from GESDD.
 Internal  Forces:  Max     0.085234370 RMS     0.013460816
 Search for a local minimum.
 Step number   1 out of a maximum of  104
 All quantities printed in internal units (Hartrees-Bohrs-Radians)
 RMS Force = .13461D-01 SwitMx=.10000D-02 MixMth= 1
 Mixed Optimization -- RFO/linear search
 Second derivative matrix not updated -- first step.
 ITU=  0
     Eigenvalues ---    0.00998   0.01268   0.01530   0.01900   0.01935
     Eigenvalues ---    0.01945   0.01976   0.02001   0.02003   0.02007
     Eigenvalues ---    0.02011   0.02206   0.02324   0.02384   0.02441
     Eigenvalues ---    0.02561   0.07156   0.07773   0.11216   0.13716
     Eigenvalues ---    0.16000   0.16000   0.16000   0.16000   0.16000
     Eigenvalues ---    0.16000   0.16000   0.22000   0.22000   0.22000
     Eigenvalues ---    0.22599   0.23471   0.24999   0.25000   0.25000
     Eigenvalues ---    0.25000   0.34286   0.34803   0.34810   0.34811
     Eigenvalues ---    0.34811   0.34812   0.34817   0.34821   0.40203
     Eigenvalues ---    0.40276   0.40700   0.43469   0.44036   0.44455
     Eigenvalues ---    0.44619   0.45980   0.52714   0.55467   0.55521
     Eigenvalues ---    0.66023   0.81923
 RFO step:  Lambda=-4.10330030D-02 EMin= 9.97565993D-03
 Linear search not attempted -- first point.
 Maximum step size (   0.300) exceeded in Quadratic search.
    -- Step size scaled by   0.876
 Iteration  1 RMS(Cart)=  0.05291707 RMS(Int)=  0.00165597
 Iteration  2 RMS(Cart)=  0.00365762 RMS(Int)=  0.00002066
 Iteration  3 RMS(Cart)=  0.00000123 RMS(Int)=  0.00002065
 Iteration  4 RMS(Cart)=  0.00000000 RMS(Int)=  0.00002065
 ITry= 1 IFail=0 DXMaxC= 1.83D-01 DCOld= 1.00D+10 DXMaxT= 3.00D-01 DXLimC= 3.00D+00 Rises=F
 Variable       Old X    -DE/DX   Delta X   Delta X   Delta X     New X
                                 (Linear)    (Quad)   (Total)
    R1        2.36895  -0.03976   0.00000  -0.04048  -0.04048   2.32847
    R2        2.54672  -0.00191   0.00000  -0.00281  -0.00281   2.54392
    R3        2.57222  -0.01991   0.00000  -0.03069  -0.03069   2.54153
    R4        2.46470   0.08523   0.00000   0.10647   0.10647   2.57117
    R5        1.90853   0.00175   0.00000   0.00305   0.00305   1.91159
    R6        1.81419   0.00654   0.00000   0.00961   0.00961   1.82380
    R7        2.70613   0.00485   0.00000   0.00949   0.00949   2.71562
    R8        2.80150   0.01882   0.00000   0.04294   0.04294   2.84444
    R9        2.05983   0.00281   0.00000   0.00632   0.00632   2.06615
   R10        2.05966   0.00178   0.00000   0.00400   0.00400   2.06366
   R11        2.67506  -0.01178   0.00000  -0.02208  -0.02207   2.65299
   R12        2.67390  -0.01460   0.00000  -0.02728  -0.02727   2.64663
   R13        2.65900  -0.01254   0.00000  -0.02260  -0.02260   2.63640
   R14        2.05973  -0.00208   0.00000  -0.00468  -0.00468   2.05505
   R15        2.65692  -0.00865   0.00000  -0.01529  -0.01530   2.64161
   R16        2.05982  -0.00234   0.00000  -0.00527  -0.00527   2.05455
   R17        2.65662  -0.01063   0.00000  -0.01887  -0.01888   2.63775
   R18        2.05985  -0.00235   0.00000  -0.00530  -0.00530   2.05455
   R19        2.65927  -0.01042   0.00000  -0.01882  -0.01882   2.64045
   R20        2.05981  -0.00245   0.00000  -0.00552  -0.00552   2.05428
   R21        2.05996  -0.00173   0.00000  -0.00390  -0.00390   2.05607
    A1        2.11397   0.02106   0.00000   0.06340   0.06340   2.17737
    A2        2.12245   0.02207   0.00000   0.06642   0.06642   2.18887
    A3        2.04676  -0.04313   0.00000  -0.12983  -0.12983   1.91693
    A4        2.13290  -0.01780   0.00000  -0.05973  -0.05973   2.07317
    A5        2.10466   0.00513   0.00000   0.01344   0.01344   2.11811
    A6        2.04562   0.01267   0.00000   0.04629   0.04628   2.09191
    A7        1.91068  -0.01067   0.00000  -0.04648  -0.04648   1.86421
    A8        2.21287  -0.04735   0.00000  -0.14252  -0.14252   2.07035
    A9        1.89991  -0.01094   0.00000  -0.02336  -0.02330   1.87660
   A10        1.85552   0.00368   0.00000   0.01818   0.01828   1.87380
   A11        1.85562   0.00489   0.00000   0.02618   0.02621   1.88183
   A12        1.87611   0.00952   0.00000   0.04389   0.04397   1.92008
   A13        1.87611   0.00935   0.00000   0.04455   0.04458   1.92069
   A14        2.09443  -0.01736   0.00000  -0.10780  -0.10773   1.98670
   A15        2.09426   0.00263   0.00000   0.00834   0.00832   2.10258
   A16        2.11861  -0.00291   0.00000  -0.00834  -0.00836   2.11025
   A17        2.07028   0.00029   0.00000   0.00008   0.00008   2.07036
   A18        2.10648   0.00053   0.00000   0.00137   0.00138   2.10786
   A19        2.09355  -0.00175   0.00000  -0.00714  -0.00714   2.08641
   A20        2.08315   0.00122   0.00000   0.00577   0.00576   2.08891
   A21        2.09528  -0.00022   0.00000  -0.00024  -0.00025   2.09503
   A22        2.09466  -0.00028   0.00000  -0.00160  -0.00160   2.09306
   A23        2.09324   0.00051   0.00000   0.00184   0.00185   2.09509
   A24        2.09225  -0.00104   0.00000  -0.00258  -0.00260   2.08966
   A25        2.09554   0.00058   0.00000   0.00155   0.00156   2.09710
   A26        2.09539   0.00046   0.00000   0.00103   0.00103   2.09643
   A27        2.09596  -0.00032   0.00000  -0.00065  -0.00066   2.09530
   A28        2.09279   0.00068   0.00000   0.00261   0.00261   2.09540
   A29        2.09443  -0.00036   0.00000  -0.00196  -0.00196   2.09248
   A30        2.10601   0.00076   0.00000   0.00207   0.00208   2.10809
   A31        2.09335  -0.00153   0.00000  -0.00604  -0.00604   2.08730
   A32        2.08383   0.00077   0.00000   0.00397   0.00396   2.08779
    D1       -0.03867   0.00054   0.00000   0.00736   0.00737  -0.03130
    D2        3.10279   0.00080   0.00000   0.01079   0.01078   3.11358
    D3        3.09942   0.00043   0.00000   0.00578   0.00579   3.10521
    D4       -0.04230   0.00068   0.00000   0.00921   0.00920  -0.03311
    D5       -0.01776   0.00002   0.00000   0.00030   0.00029  -0.01746
    D6        3.12736   0.00014   0.00000   0.00190   0.00190   3.12926
    D7        3.08063  -0.00084   0.00000  -0.01096  -0.01094   3.06970
    D8       -0.06083  -0.00108   0.00000  -0.01428  -0.01430  -0.07513
    D9       -3.14107   0.00034   0.00000   0.00488   0.00489  -3.13618
   D10       -1.12475   0.00799   0.00000   0.05399   0.05400  -1.07075
   D11        1.12576  -0.00774   0.00000  -0.04914  -0.04916   1.07660
   D12        1.06221   0.00006   0.00000   0.00486   0.00483   1.06704
   D13       -2.06983  -0.00060   0.00000  -0.00538  -0.00541  -2.07524
   D14       -0.94078  -0.00369   0.00000  -0.02753  -0.02751  -0.96829
   D15        2.21038  -0.00435   0.00000  -0.03777  -0.03776   2.17262
   D16        3.06530   0.00514   0.00000   0.04696   0.04697   3.11227
   D17       -0.06673   0.00449   0.00000   0.03671   0.03672  -0.03001
   D18        3.13945  -0.00039   0.00000  -0.00621  -0.00625   3.13320
   D19       -0.00203  -0.00052   0.00000  -0.00810  -0.00813  -0.01016
   D20       -0.01144   0.00023   0.00000   0.00371   0.00371  -0.00772
   D21        3.13027   0.00010   0.00000   0.00182   0.00184   3.13211
   D22       -3.13929   0.00067   0.00000   0.00998   0.00994  -3.12935
   D23        0.00225   0.00045   0.00000   0.00689   0.00686   0.00911
   D24        0.01174   0.00001   0.00000  -0.00017  -0.00017   0.01157
   D25       -3.12991  -0.00021   0.00000  -0.00326  -0.00325  -3.13316
   D26        0.00087  -0.00017   0.00000  -0.00255  -0.00256  -0.00169
   D27       -3.14088  -0.00006   0.00000  -0.00096  -0.00096   3.14135
   D28       -3.14084  -0.00004   0.00000  -0.00067  -0.00068  -3.14152
   D29        0.00060   0.00007   0.00000   0.00092   0.00092   0.00152
   D30        0.00962  -0.00015   0.00000  -0.00221  -0.00221   0.00741
   D31       -3.13199  -0.00006   0.00000  -0.00077  -0.00077  -3.13276
   D32       -3.13182  -0.00026   0.00000  -0.00381  -0.00381  -3.13563
   D33        0.00975  -0.00016   0.00000  -0.00236  -0.00237   0.00739
   D34       -0.00932   0.00039   0.00000   0.00572   0.00572  -0.00360
   D35        3.13226   0.00019   0.00000   0.00273   0.00272   3.13498
   D36        3.13229   0.00030   0.00000   0.00428   0.00428   3.13657
   D37       -0.00932   0.00009   0.00000   0.00128   0.00127  -0.00804
   D38       -0.00147  -0.00032   0.00000  -0.00452  -0.00454  -0.00601
   D39        3.14018  -0.00010   0.00000  -0.00145  -0.00146   3.13872
   D40        3.14013  -0.00011   0.00000  -0.00152  -0.00154   3.13860
   D41       -0.00141   0.00011   0.00000   0.00155   0.00154   0.00014
         Item               Value     Threshold  Converged?
 Maximum Force            0.085234     0.000450     NO 
 RMS     Force            0.013461     0.000300     NO 
 Maximum Displacement     0.183254     0.001800     NO 
 RMS     Displacement     0.054539     0.001200     NO 
 Predicted change in Energy=-2.229471D-02
 Lowest energy point so far.  Saving SCF results.
 GradGradGradGradGradGradGradGradGradGradGradGradGradGradGradGradGradGrad

 Leave Link  103 at Mon Oct 14 00:20:40 2019, MaxMem= 10737418240 cpu:               1.6 elap:               0.1
 (Enter /apps/cent7/gaussian/g16-A.03/g16-haswell/g16/l202.exe)
                          Input orientation:                          
 ---------------------------------------------------------------------
 Center     Atomic      Atomic             Coordinates (Angstroms)
 Number     Number       Type             X           Y           Z
 ---------------------------------------------------------------------
      1          8           0        1.244809    1.382989   -0.357341
      2          6           0        0.914820    0.719900    0.627376
      3          7           0        1.219531    1.033132    1.900656
      4          8           0        1.975092    2.138970    2.140447
      5          8           0        0.205911   -0.422573    0.595674
      6          6           0       -0.233866   -0.924759   -0.676923
      7          6           0       -1.001329   -2.194363   -0.422421
      8          6           0       -2.166589   -2.177036    0.360395
      9          6           0       -2.888310   -3.348280    0.592075
     10          6           0       -2.455141   -4.557685    0.040916
     11          6           0       -1.294254   -4.589028   -0.733497
     12          6           0       -0.571843   -3.414519   -0.959323
     13          1           0        0.901154    0.463441    2.673546
     14          1           0        2.031850    2.235770    3.099016
     15          1           0       -0.893041   -0.170530   -1.115166
     16          1           0        0.653394   -1.137558   -1.276957
     17          1           0       -2.508700   -1.239333    0.792018
     18          1           0       -3.788761   -3.319063    1.200668
     19          1           0       -3.020627   -5.470107    0.213424
     20          1           0       -0.949146   -5.527698   -1.159577
     21          1           0        0.333544   -3.447471   -1.561805
 ---------------------------------------------------------------------
                    Distance matrix (angstroms):
                    1          2          3          4          5
     1  O    0.000000
     2  C    1.232172   0.000000
     3  N    2.285080   1.346182   0.000000
     4  O    2.709938   2.329661   1.360606   0.000000
     5  O    2.290765   1.344917   2.202154   3.475317   0.000000
     6  C    2.759404   2.392817   3.548184   4.712059   1.437044
     7  C    4.224550   3.642339   4.554737   5.848517   2.373433
     8  C    4.982626   4.237759   4.913593   6.240995   2.960110
     9  C    6.353658   5.569123   6.146829   7.494000   4.258400
    10  C    7.009982   6.289155   6.943996   8.299409   4.948545
    11  C    6.500256   5.909036   6.698251   8.013373   4.623477
    12  C    5.165142   4.671317   5.583019   6.851036   3.460441
    13  H    3.185897   2.062225   1.011569   2.060324   2.363459
    14  H    3.645967   3.107189   1.882091   0.965115   4.082593
    15  H    2.749204   2.664146   3.873880   4.915179   2.048949
    16  H    2.747476   2.673009   3.889683   4.915401   2.053823
    17  H    4.720851   3.947935   4.504762   5.773698   2.841612
    18  H    7.062119   6.226200   6.671925   7.993455   4.971225
    19  H    8.092258   7.346787   7.944672   9.304229   6.002854
    20  H    7.294835   6.760181   7.557293   8.844158   5.520630
    21  H    5.061075   4.743140   5.731441   6.899976   3.717662
                    6          7          8          9         10
     6  C    0.000000
     7  C    1.505213   0.000000
     8  C    2.525796   1.403899   0.000000
     9  C    3.811808   2.433397   1.395123   0.000000
    10  C    4.318276   2.813101   2.419260   1.397882   0.000000
    11  C    3.815035   2.432487   2.788418   2.416115   1.395836
    12  C    2.528415   1.400536   2.411687   2.788771   2.419528
    13  H    3.800132   4.502041   4.661956   5.763833   6.588411
    14  H    5.420343   6.420808   6.678308   7.853301   8.696901
    15  H    1.093357   2.141851   2.797369   4.122361   4.798314
    16  H    1.092042   2.141303   3.422535   4.574302   4.805939
    17  H    2.726099   2.158498   1.087486   2.152147   3.402717
    18  H    4.679244   3.416013   2.154467   1.087222   2.158182
    19  H    5.405455   3.900303   3.405186   2.159406   1.087220
    20  H    4.683122   3.414270   3.875489   3.402720   2.156416
    21  H    2.732956   2.156469   3.399930   3.876775   3.402654
                   11         12         13         14         15
    11  C    0.000000
    12  C    1.397264   0.000000
    13  H    6.477283   5.514166   0.000000
    14  H    8.504645   7.427994   2.144912   0.000000
    15  H    4.453063   3.263575   4.239739   5.666092   0.000000
    16  H    4.000166   2.605120   4.269784   5.694613   1.831060
    17  H    3.875891   3.398535   4.250493   6.165645   2.718464
    18  H    3.402407   3.875982   6.202581   8.266765   4.864313
    19  H    2.157157   3.405484   7.525925   9.655811   5.863215
    20  H    1.087081   2.155919   7.349163   9.343093   5.357646
    21  H    2.153828   1.088024   5.792721   7.543654   3.527370
                   16         17         18         19         20
    16  H    0.000000
    17  H    3.780192   0.000000
    18  H    5.534468   2.476051   0.000000
    19  H    5.872874   4.300731   2.488306   0.000000
    20  H    4.674959   4.962963   4.302585   2.485857   0.000000
    21  H    2.349285   4.300547   4.963985   4.300345   2.476778
                   21
    21  H    0.000000
 Stoichiometry    C8H9NO3
 Framework group  C1[X(C8H9NO3)]
 Deg. of freedom    57
 Full point group                 C1      NOp   1
 RotChk:  IX=0 Diff= 2.59D-02
 Largest Abelian subgroup         C1      NOp   1
 Largest concise Abelian subgroup C1      NOp   1
                         Standard orientation:                         
 ---------------------------------------------------------------------
 Center     Atomic      Atomic             Coordinates (Angstroms)
 Number     Number       Type             X           Y           Z
 ---------------------------------------------------------------------
      1          8           0       -2.812721   -1.187301    0.690446
      2          6           0       -2.326193   -0.219414    0.103308
      3          7           0       -3.039278    0.750396   -0.499340
      4          8           0       -4.396812    0.659096   -0.503388
      5          8           0       -1.011446    0.025697   -0.038697
      6          6           0       -0.073016   -0.889562    0.550155
      7          6           0        1.309821   -0.377114    0.248783
      8          6           0        1.719922    0.881776    0.715630
      9          6           0        3.003495    1.358687    0.448493
     10          6           0        3.899482    0.580381   -0.290100
     11          6           0        3.501207   -0.670067   -0.765612
     12          6           0        2.213226   -1.142035   -0.499719
     13          1           0       -2.586048    1.536206   -0.946952
     14          1           0       -4.729574    1.465474   -0.916270
     15          1           0       -0.246626   -0.885303    1.629632
     16          1           0       -0.220459   -1.865763    0.083413
     17          1           0        1.027484    1.492053    1.290710
     18          1           0        3.306546    2.335791    0.816569
     19          1           0        4.902966    0.946641   -0.492389
     20          1           0        4.191584   -1.277123   -1.345791
     21          1           0        1.909245   -2.116591   -0.876059
 ---------------------------------------------------------------------
 Rotational constants (GHZ):           2.8351058           0.3786243           0.3570697
 Leave Link  202 at Mon Oct 14 00:20:40 2019, MaxMem= 10737418240 cpu:               0.3 elap:               0.0
 (Enter /apps/cent7/gaussian/g16-A.03/g16-haswell/g16/l301.exe)
 Standard basis: 6-31G(d) (6D, 7F)
 Ernie: Thresh=  0.10000D-02 Tol=  0.10000D-05 Strict=F.
 There are   198 symmetry adapted cartesian basis functions of A   symmetry.
 There are   198 symmetry adapted basis functions of A   symmetry.
   198 basis functions,   372 primitive gaussians,   198 cartesian basis functions
    44 alpha electrons       44 beta electrons
       nuclear repulsion energy       656.2753119315 Hartrees.
 IExCor=  402 DFT=T Ex+Corr=B3LYP ExCW=0 ScaHFX=  0.200000
 ScaDFX=  0.800000  0.720000  1.000000  0.810000 ScalE2=  1.000000  1.000000
 IRadAn=      5 IRanWt=     -1 IRanGd=            0 ICorTp=0 IEmpDi=  4
 NAtoms=   21 NActive=   21 NUniq=   21 SFac= 1.00D+00 NAtFMM=   60 NAOKFM=F Big=F
 Integral buffers will be    131072 words long.
 Raffenetti 2 integral format.
 Two-electron integral symmetry is turned on.
 Leave Link  301 at Mon Oct 14 00:20:40 2019, MaxMem= 10737418240 cpu:               1.2 elap:               0.1
 (Enter /apps/cent7/gaussian/g16-A.03/g16-haswell/g16/l302.exe)
 NPDir=0 NMtPBC=     1 NCelOv=     1 NCel=       1 NClECP=     1 NCelD=      1
         NCelK=      1 NCelE2=     1 NClLst=     1 CellRange=     0.0.
 One-electron integrals computed using PRISM.
 One-electron integral symmetry used in STVInt
 NBasis=   198 RedAO= T EigKep=  4.71D-04  NBF=   198
 NBsUse=   198 1.00D-06 EigRej= -1.00D+00 NBFU=   198
 Precomputing XC quadrature grid using
 IXCGrd= 4 IRadAn=           5 IRanWt=          -1 IRanGd=           0 AccXCQ= 0.00D+00.
 Generated NRdTot=       0 NPtTot=           0 NUsed=           0 NTot=          32
 NSgBfM=   197   197   197   197   197 MxSgAt=    21 MxSgA2=    21.
 Leave Link  302 at Mon Oct 14 00:20:40 2019, MaxMem= 10737418240 cpu:               3.3 elap:               0.2
 (Enter /apps/cent7/gaussian/g16-A.03/g16-haswell/g16/l303.exe)
 DipDrv:  MaxL=1.
 Leave Link  303 at Mon Oct 14 00:20:40 2019, MaxMem= 10737418240 cpu:               1.3 elap:               0.1
 (Enter /apps/cent7/gaussian/g16-A.03/g16-haswell/g16/l401.exe)
 Initial guess from the checkpoint file:  "12.chk"
 B after Tr=    -0.000000   -0.000000   -0.000000
         Rot=    0.999963    0.008447   -0.000165    0.001585 Ang=   0.99 deg.
 Guess basis will be translated and rotated to current coordinates.
 JPrj=2 DoOrth=T DoCkMO=T.
 Generating alternative initial guess.
 ExpMin= 1.61D-01 ExpMax= 5.48D+03 ExpMxC= 8.25D+02 IAcc=2 IRadAn=         4 AccDes= 0.00D+00
 Harris functional with IExCor=  402 and IRadAn=       4 diagonalized for initial guess.
 HarFok:  IExCor=  402 AccDes= 0.00D+00 IRadAn=         4 IDoV= 1 UseB2=F ITyADJ=14
 ICtDFT=  3500011 ScaDFX=  1.000000  1.000000  1.000000  1.000000
 FoFCou: FMM=F IPFlag=           0 FMFlag=      100000 FMFlg1=           0
         NFxFlg=           0 DoJE=T BraDBF=F KetDBF=T FulRan=T
         wScrn=  0.000000 ICntrl=       500 IOpCl=  0 I1Cent=   200000004 NGrid=           0
         NMat0=    1 NMatS0=      1 NMatT0=    0 NMatD0=    1 NMtDS0=    0 NMtDT0=    0
 Petite list used in FoFCou.
 Harris En= -590.647615514759    
 Leave Link  401 at Mon Oct 14 00:20:41 2019, MaxMem= 10737418240 cpu:               7.2 elap:               0.3
 (Enter /apps/cent7/gaussian/g16-A.03/g16-haswell/g16/l502.exe)
 Integral symmetry usage will be decided dynamically.
 Closed shell SCF:
 Using DIIS extrapolation, IDIIS=  1040.
 NGot= 10737418240 LenX= 10737332805 LenY= 10737293160
 Requested convergence on RMS density matrix=1.00D-08 within 128 cycles.
 Requested convergence on MAX density matrix=1.00D-06.
 Requested convergence on             energy=1.00D-06.
 No special actions if energy rises.
 Fock matrices will be formed incrementally for  20 cycles.
 Integral accuracy reduced to 1.0D-05 until final iterations.

 Cycle   1  Pass 0  IDiag  1:
 FoFJK:  IHMeth= 1 ICntrl=       0 DoSepK=F KAlg= 0 I1Cent=           0 FoldK=F
 IRaf= 840000000 NMat=       1 IRICut=       1 DoRegI=T DoRafI=F ISym2E= 0 IDoP0=0 IntGTp=1.
 FoFCou: FMM=F IPFlag=           0 FMFlag=      100000 FMFlg1=           0
         NFxFlg=           0 DoJE=F BraDBF=F KetDBF=F FulRan=T
         wScrn=  0.000000 ICntrl=         0 IOpCl=  0 I1Cent=           0 NGrid=           0
         NMat0=    1 NMatS0=      1 NMatT0=    0 NMatD0=    1 NMtDS0=    0 NMtDT0=    0
 Symmetry not used in FoFCou.
 E= -590.609702731945    
 DIIS: error= 3.56D-03 at cycle   1 NSaved=   1.
 NSaved= 1 IEnMin= 1 EnMin= -590.609702731945     IErMin= 1 ErrMin= 3.56D-03
 ErrMax= 3.56D-03  0.00D+00 EMaxC= 1.00D-01 BMatC= 5.91D-03 BMatP= 5.91D-03
 IDIUse=3 WtCom= 9.64D-01 WtEn= 3.56D-02
 Coeff-Com:  0.100D+01
 Coeff-En:   0.100D+01
 Coeff:      0.100D+01
 Gap=     1.961 Goal=   None    Shift=    0.000
 GapD=    1.961 DampG=2.000 DampE=1.000 DampFc=2.0000 IDamp=-1.
 RMSDP=6.93D-04 MaxDP=1.30D-02              OVMax= 1.93D-02

 Cycle   2  Pass 0  IDiag  1:
 RMSU=  6.93D-04    CP:  1.00D+00
 E= -590.617881537975     Delta-E=       -0.008178806029 Rises=F Damp=F
 DIIS: error= 2.09D-03 at cycle   2 NSaved=   2.
 NSaved= 2 IEnMin= 2 EnMin= -590.617881537975     IErMin= 2 ErrMin= 2.09D-03
 ErrMax= 2.09D-03  0.00D+00 EMaxC= 1.00D-01 BMatC= 1.04D-03 BMatP= 5.91D-03
 IDIUse=3 WtCom= 9.79D-01 WtEn= 2.09D-02
 Coeff-Com:  0.183D+00 0.817D+00
 Coeff-En:   0.000D+00 0.100D+01
 Coeff:      0.179D+00 0.821D+00
 Gap=     0.212 Goal=   None    Shift=    0.000
 RMSDP=3.45D-04 MaxDP=1.49D-02 DE=-8.18D-03 OVMax= 2.14D-02

 Cycle   3  Pass 0  IDiag  1:
 RMSU=  3.39D-04    CP:  1.00D+00  9.13D-01
 E= -590.617114379924     Delta-E=        0.000767158051 Rises=F Damp=F
 DIIS: error= 3.15D-03 at cycle   3 NSaved=   3.
 NSaved= 3 IEnMin= 2 EnMin= -590.617881537975     IErMin= 2 ErrMin= 2.09D-03
 ErrMax= 3.15D-03  0.00D+00 EMaxC= 1.00D-01 BMatC= 2.03D-03 BMatP= 1.04D-03
 IDIUse=3 WtCom= 1.51D-01 WtEn= 8.49D-01
 Coeff-Com: -0.198D-01 0.594D+00 0.426D+00
 Coeff-En:   0.000D+00 0.627D+00 0.373D+00
 Coeff:     -0.299D-02 0.622D+00 0.381D+00
 Gap=     0.211 Goal=   None    Shift=    0.000
 RMSDP=1.98D-04 MaxDP=8.70D-03 DE= 7.67D-04 OVMax= 1.15D-02

 Cycle   4  Pass 0  IDiag  1:
 RMSU=  5.90D-05    CP:  1.00D+00  9.99D-01  4.74D-01
 E= -590.618699753398     Delta-E=       -0.001585373474 Rises=F Damp=F
 DIIS: error= 3.82D-04 at cycle   4 NSaved=   4.
 NSaved= 4 IEnMin= 4 EnMin= -590.618699753398     IErMin= 4 ErrMin= 3.82D-04
[...]
 1641092,-0.02349994,-0.03112550,-0.02192928,0.02084023,0.06354660,-0.0
 6393890,-0.11213678,-0.23385293,0.07754310,0.28608451,-0.00007052,-0.0
 0020157,-0.00001967,-0.00006510,0.00031753,0.00047396,0.00011896,-0.00
 003194,-0.00017765,-0.00000482,-0.00000699,0.00001821,-0.00060291,0.00
 061085,-0.00034583,0.00226816,0.00094154,0.00378951,0.04948108,-0.0271
 0871,-0.02989089,-0.04533740,-0.02559889,0.01740033,-0.00862107,0.0691
 5329,0.02440885,-0.27189131,-0.03444873,0.11704285,0.54991575,0.000005
 56,-0.00006419,0.00004457,-0.00017346,0.00007731,-0.00010521,-0.000006
 38,-0.00006449,-0.00000947,-0.00001726,-0.00001519,-0.00001758,-0.0010
 1466,-0.00086797,-0.00010481,0.00277766,-0.00178293,-0.00328021,0.0149
 9257,-0.05440778,-0.02199148,-0.02585115,-0.01749808,0.01327782,0.0271
 0033,0.03357236,-0.01045112,0.02235289,-0.12792313,-0.02791122,0.02811
 637,0.70532747,-0.00004214,0.00020332,-0.00025973,-0.00007815,-0.00054
 423,0.00043695,0.00002858,0.00014615,0.00003809,0.00005381,0.00007342,
 0.00005511,0.00110444,0.00208548,0.00069321,0.00365771,-0.00438825,0.0
 0411300,-0.02198747,0.00331025,0.01925814,0.01649321,0.01244145,-0.014
 62653,0.01561196,-0.03459900,-0.00881956,0.12967662,0.00529884,-0.1356
 2422,-0.24032797,0.11023856,0.29642172,-0.00044830,-0.00058646,0.00010
 427,0.00049304,0.00122515,-0.00034385,-0.00001006,-0.00037616,-0.00029
 406,-0.00028481,-0.00024542,-0.00020841,-0.00243770,-0.00380577,-0.001
 22319,0.01105964,-0.01383986,-0.00525783,-0.13676361,0.08349986,0.0608
 4362,-0.00898498,0.02666691,0.01628640,-0.00360386,-0.00630918,-0.0037
 6020,-0.02735861,-0.02146233,0.01547625,-0.16824629,-0.12631355,0.0350
 7697,0.59210007,-0.00003520,0.00028202,-0.00023772,0.00038459,0.000075
 38,-0.00047127,-0.00013078,-0.00005615,0.00009176,-0.00004480,-0.00001
 791,-0.00007714,0.00153068,-0.00046118,0.00140411,0.00475535,-0.028106
 53,-0.00831307,0.02505849,-0.27104101,-0.06265437,0.06749060,0.0316756
 7,-0.03547125,-0.00606190,-0.06709917,-0.00890457,-0.06359675,0.034564
 73,0.04347587,-0.06945037,-0.27927029,-0.00771925,0.05551548,0.6560474
 7,0.00022300,0.00015143,-0.00001457,-0.00048021,-0.00070441,0.00011975
 ,0.00000554,0.00016319,0.00010379,0.00009435,0.00006690,0.00006573,0.0
 0072292,0.00125159,0.00028886,-0.00169849,0.00241645,0.00423580,0.0479
 4770,-0.09613419,-0.11209844,0.02488298,-0.01076348,-0.00773159,-0.003
 47725,-0.00909126,-0.00773000,0.00634115,0.01820753,0.00744604,0.04690
 567,0.02579116,-0.08257332,-0.25535668,0.08339986,0.30016836,0.0035067
 4,-0.00200640,-0.00437523,-0.00057043,0.01457624,0.01298748,-0.0404334
 8,0.05907541,-0.08486314,-0.00657413,-0.03708705,0.01811933,-0.0017080
 1,-0.00360524,-0.00058850,-0.00049151,0.00013063,0.00061365,0.00001461
 ,0.00007979,-0.00006922,0.00007544,-0.00016932,0.00000301,-0.00002846,
 0.00000200,0.00004640,-0.00001432,-0.00003220,0.00000265,-0.00001876,0
 .00001661,0.00001290,-0.00002841,-0.00002880,-0.00001446,0.04999315,-0
 .00163413,0.00091315,-0.00446350,0.00419950,0.00895140,-0.00913403,0.0
 3039752,-0.27984781,0.20090928,0.00197856,-0.02203571,0.00272896,-0.00
 054889,-0.00114043,-0.00160649,-0.00033600,0.00030381,0.00042113,0.000
 01730,-0.00001958,-0.00002785,-0.00003848,0.00004738,0.00004228,0.0000
 0148,-0.00000864,0.00000779,0.00000179,-0.00001143,0.00000048,0.000006
 40,-0.00002584,-0.00000136,0.00002295,-0.00001075,0.00001305,-0.029351
 26,0.29534556,-0.00254739,-0.00350142,-0.00481441,-0.00368337,0.032567
 73,-0.02407582,-0.05386934,0.17657994,-0.18123397,0.00245967,-0.010439
 99,0.00516893,0.00213313,0.00061461,0.00257941,-0.00006013,-0.00155654
 ,-0.00127723,-0.00003014,-0.00011892,0.00017267,-0.00007567,0.00013228
 ,0.00000088,-0.00002076,0.00000010,0.00000187,0.00001683,0.00005504,-0
 .00000484,0.00002703,-0.00000077,-0.00003248,0.00011825,0.00000406,-0.
 00004263,0.05684236,-0.19167165,0.20200831,-0.00032443,0.00082461,-0.0
 0013920,-0.00023704,-0.00496455,0.00064705,0.00471573,-0.05141887,-0.0
 0280570,-0.15102291,0.22728274,0.01750289,-0.00094904,-0.00000333,-0.0
 0156484,-0.00028104,-0.00008086,0.00008736,-0.00002623,0.00000609,-0.0
 0009287,0.00002417,-0.00004534,-0.00001756,-0.00000309,0.00001038,0.00
 000939,-0.00000200,-0.00000789,-0.00000230,-0.00000017,-0.00000068,0.0
 0001211,-0.00001432,-0.00000189,0.00000478,-0.00365031,-0.00490796,-0.
 00168315,0.15184037,0.00042792,-0.00042663,0.00173929,-0.00065725,-0.0
 0383363,-0.00398956,0.00310632,-0.02436572,0.00420322,0.16530572,-0.38
 401970,-0.03567666,0.00080438,0.00162810,0.00029185,-0.00057827,-0.000
 23708,-0.00053701,-0.00004996,-0.00006559,0.00002771,0.00000431,0.0000
 4655,0.00000779,-0.00001496,-0.00000018,0.00002008,0.00001008,0.000022
 70,-0.00000054,0.00001084,-0.00000126,-0.00000972,0.00006904,0.0000183
 5,-0.00002250,-0.00180769,-0.00255111,-0.00300950,-0.16667203,0.413692
 09,0.00071668,0.00382746,-0.00049234,-0.00008853,-0.00864459,0.0043531
 6,-0.00371731,-0.00489942,-0.00548687,0.01476798,-0.03046217,-0.003587
 17,-0.00034835,0.00105228,-0.00128114,-0.00051131,-0.00033725,-0.00018
 597,-0.00006311,-0.00004526,-0.00011183,-0.00000202,0.00004324,0.00000
 581,-0.00000521,0.00000398,0.00000624,0.00000689,0.00001100,-0.0000058
 6,0.00000936,-0.00000421,-0.00000025,0.00003081,0.00000857,-0.00000879
 ,0.00106974,0.00272495,0.00078891,-0.01184476,0.03678799,0.00598018,0.
 00043020,-0.00152728,0.00302406,0.00237597,0.00653799,-0.00389166,-0.0
 0007762,-0.00067793,-0.00000553,-0.00013503,-0.00026427,0.00000102,-0.
 00893826,0.00045016,-0.01323761,-0.14102445,0.11501876,-0.04240059,0.0
 1184254,-0.01474027,0.00648760,0.00033693,-0.00086504,-0.00023334,0.00
 046537,0.00062521,-0.00016542,0.00036023,-0.00058317,-0.00016264,-0.00
 057667,-0.00053404,-0.00057008,-0.00114943,-0.00060254,0.00092684,-0.0
 0000046,0.00005416,0.00035666,-0.00005244,0.00001449,-0.00006556,0.149
 93619,-0.00031679,-0.00099793,-0.00019517,-0.00111240,0.00288862,-0.00
 142287,0.00063533,-0.00061874,-0.00051980,-0.00003775,-0.00005212,0.00
 008693,-0.00985046,0.00917352,-0.00555951,0.12087838,-0.19961128,0.065
 16971,0.01343244,-0.02119290,0.00600588,0.00145127,0.00140817,-0.00175
 183,-0.00043165,-0.00049076,-0.00066291,-0.00014266,0.00004072,0.00021
 695,-0.00021399,-0.00023942,-0.00118456,-0.00247797,-0.00222385,0.0020
 2300,0.00001590,0.00001243,0.00021438,-0.00002831,0.00003260,-0.000025
 08,-0.12303004,0.21367552,-0.00002487,-0.00198813,0.00172994,0.0019456
 3,0.00816430,-0.00093353,0.00047844,-0.00078004,-0.00115015,-0.0000763
 7,-0.00042069,-0.00001899,-0.02969107,0.01340569,-0.02845238,-0.039479
 31,0.05870082,-0.07315865,-0.00177202,0.00312138,0.00181038,-0.0003219
 6,0.00002013,0.00053814,0.00013756,-0.00021862,-0.00012555,-0.00010230
 ,-0.00020295,-0.00003262,-0.00067022,0.00019575,-0.00007985,0.00060688
 ,0.00001745,-0.00030230,-0.00009334,0.00002822,0.00058139,-0.00011085,
 0.00003502,-0.00001158,0.05697407,-0.06534538,0.09002264,-0.00032334,-
 0.00062412,-0.00045160,0.00204310,0.00059482,-0.00027096,-0.00045075,-
 0.00000687,-0.00043014,-0.00036284,-0.00004995,-0.00008725,0.01448617,
 -0.00510649,-0.01440571,-0.21725246,0.02614651,0.13041113,-0.01180408,
 0.00288022,0.00882750,-0.00036886,-0.00363482,0.00053786,-0.00048055,0
 .00065268,0.00043658,0.00028066,-0.00004637,-0.00012194,0.00005563,-0.
 00043180,-0.00013322,0.00034291,0.00201339,-0.00005991,0.00005109,0.00
 012520,-0.00002539,0.00000541,0.00004764,0.00003603,-0.01383825,0.0015
 7719,0.01199238,0.22679937,-0.00026012,-0.00052926,0.00230716,0.002426
 64,0.00438242,-0.00339842,-0.00021840,-0.00050636,0.00004157,-0.000354
 37,-0.00013893,-0.00002686,0.00213733,-0.00347544,-0.01074853,0.025618
 35,-0.05686672,-0.01619807,-0.02290865,0.00351567,0.01791419,-0.001517
 06,-0.00512760,-0.00016178,-0.00122511,0.00062374,0.00052474,0.0000756
 3,0.00004792,-0.00001305,0.00009638,0.00006792,0.00001182,-0.00141460,
 0.00153557,0.00106738,0.00012589,0.00007383,0.00012457,0.00000250,0.00
 003600,-0.00004610,0.02005119,-0.00179392,-0.01465099,-0.02313016,0.05
 893898,-0.00075854,-0.00171357,0.00253443,0.00476559,0.00756455,-0.002
 25652,-0.00031344,-0.00078350,-0.00033057,-0.00073586,-0.00024400,-0.0
 0014279,0.01113491,-0.01400808,-0.03565037,0.12483286,-0.01510069,-0.1
 4613832,0.00436209,0.00009849,-0.00047302,0.00025267,0.00034296,0.0012
 4609,-0.00010614,-0.00037524,-0.00023024,-0.00013905,0.00006725,0.0001
 4947,0.00003402,0.00013661,0.00007224,-0.00094556,-0.00141800,-0.00008
 065,0.00032236,0.00007111,0.00017807,-0.00000343,0.00015016,0.00002885
 ,-0.00683375,0.00132654,0.00929268,-0.13553355,0.02343964,0.17158881,0
 .00012494,0.00035161,-0.00017383,-0.00052747,-0.00094865,-0.00026477,-
 0.00006343,0.00001092,0.00012961,0.00011360,0.00004667,0.00000236,0.00
 036427,-0.00024201,-0.00050582,0.00005199,0.00170417,-0.00103954,-0.00
 540518,0.02506152,0.01012387,-0.08752032,0.07920691,0.04806968,0.00949
 118,-0.01523784,-0.00741405,0.00026536,-0.00342119,0.00344720,-0.00063
 653,-0.00057977,0.00008379,-0.00288192,-0.00209779,0.00491571,-0.00006
 319,0.00000560,-0.00002843,-0.00001391,-0.00004099,-0.00001821,-0.0001
 1968,-0.00035736,0.00018574,0.00028741,0.00003085,-0.00000122,0.086900
 13,0.00003014,-0.00001909,0.00008769,-0.00001041,0.00001328,-0.0000441
 0,-0.00000843,0.00006827,0.00006045,0.00001218,0.00000881,0.00003624,-
 0.00008068,0.00041470,0.00049768,-0.00044351,0.00009354,0.00031511,-0.
 00087484,0.00283816,0.00033189,0.07950823,-0.26075108,-0.09530860,0.01
 165668,-0.01840199,-0.01175456,-0.00465580,-0.00245605,0.00052710,-0.0
 0063739,0.00021882,0.00048412,-0.00099080,0.00162897,-0.00041326,0.000
 05910,-0.00000136,-0.00002671,0.00000307,-0.00000143,-0.00000820,0.000
 39421,0.00026999,-0.00008768,0.00004340,0.00007043,-0.00005910,-0.0849
 9605,0.27602848,-0.00004175,0.00008138,-0.00007215,0.00019921,0.000031
 10,0.00005236,0.00000183,-0.00006273,-0.00006930,-0.00001824,0.0000017
 6,-0.00003664,-0.00030822,-0.00036127,-0.00011999,-0.00192596,-0.00067
 698,-0.00165126,0.00490969,-0.01440904,-0.00297157,0.04835291,-0.09575
 399,-0.08564586,-0.00177359,0.00439046,0.00459965,0.00318232,0.0000429
 1,0.00549941,0.00026117,0.00055780,-0.00029512,0.00517373,-0.00003135,
 0.00318834,-0.00004959,-0.00000538,0.00002416,0.00000152,-0.00000076,0
 .00001318,-0.00005509,0.00097058,-0.00018103,-0.00021776,0.00023702,-0
 .00009719,-0.05540813,0.10491268,0.08090655,-0.00005659,-0.00012250,-0
 .00005384,0.00016267,0.00035971,0.00018703,0.00004015,-0.00007877,-0.0
 0012808,-0.00005021,-0.00003097,-0.00003944,-0.00020895,-0.00033004,-0
 .00025140,-0.00033408,0.00062689,0.00081218,0.00216248,-0.00376560,0.0
 0239401,-0.01049255,0.00233770,0.00799016,-0.26124262,-0.00038930,0.13
 217024,-0.00573602,-0.00194458,0.00436071,0.00248566,0.00159902,0.0028
 6975,0.00051463,-0.00009837,-0.00045468,-0.00003277,0.00000573,0.00004
 355,-0.00000327,0.00001542,0.00001604,-0.00000440,-0.00001549,-0.00002
 579,-0.00020900,-0.00024833,-0.00005821,-0.00026874,0.00028826,-0.0021
 2298,0.27424492,-0.00002301,-0.00006891,-0.00005447,0.00007913,0.00014
 307,0.00011365,0.00002213,-0.00003880,-0.00006497,-0.00002322,-0.00001
 528,-0.00001942,0.00000301,-0.00009437,-0.00008346,-0.00111493,0.00063
 576,0.00089140,-0.00259694,-0.00427919,-0.00108156,-0.02457141,0.00473
 429,0.01487615,-0.00036334,-0.05973066,-0.00500546,0.02493268,0.004696
 79,-0.01412965,0.00051614,-0.00446129,-0.00278679,-0.00012718,-0.00135
 323,-0.00015199,-0.00001834,0.00000623,0.00001817,-0.00000485,0.000007
 64,0.00000705,0.00004840,-0.00000063,-0.00001201,-0.00023375,-0.000371
 90,0.00005762,0.00082498,0.00087541,0.00055545,0.00118699,0.05818564,0
 .00002595,0.00006686,-0.00001071,-0.00006925,-0.00011824,0.00000466,-0
 .00000716,0.00001670,0.00002202,0.00002301,0.00002067,0.00000932,0.000
 04983,0.00011995,-0.00002628,0.00005280,-0.00031362,0.00015616,0.00274
 484,-0.00037525,0.00590792,0.00221935,-0.00084719,0.00075823,0.1321105
 4,-0.00489507,-0.11443554,0.01035556,0.00153440,-0.00330508,0.00254867
 ,-0.00346684,0.00453490,-0.00045191,-0.00014118,0.00001480,-0.00000363
 ,-0.00000529,-0.00000618,0.00000019,-0.00000957,-0.00000236,0.00000005
 ,0.00005962,0.00002644,-0.00006496,0.00002443,-0.00009330,-0.00199585,
 0.00095436,-0.00261910,-0.14567568,0.00644468,0.11246463,-0.00002008,-
 0.00004578,-0.00000633,0.00008118,0.00014496,0.00002105,0.00000488,-0.
 00003258,-0.00004143,-0.00002629,-0.00001731,-0.00001932,-0.00007800,-
 0.00026749,-0.00014439,-0.00020080,0.00012945,-0.00034073,-0.00060200,
 0.00084061,0.00016524,0.00148624,0.00163079,0.00365870,0.00937380,0.01
 077479,-0.00166785,-0.12895640,-0.12433324,0.02707009,-0.00954404,-0.0
 2492702,0.00161855,-0.00216083,0.00084970,0.00579587,-0.00000722,0.000
 00190,0.00001638,0.00000017,0.00000710,0.00000607,-0.00001048,0.000015
 28,0.00002035,0.00005223,0.00005307,-0.00002815,0.00038180,0.00062894,
 0.00000337,-0.00028321,0.00002720,-0.00204146,0.13123728,-0.00005018,-
 0.00009431,0.00000333,0.00014511,0.00025330,0.00008569,0.00001900,-0.0
 0002916,-0.00006261,-0.00004202,-0.00002562,-0.00001734,-0.00016065,-0
 .00014168,-0.00003834,0.00014485,0.00008606,0.00024657,0.00085314,0.00
 017725,-0.00031699,0.00260373,-0.00263596,-0.00368870,-0.01604487,-0.0
 1816318,0.00485254,-0.12435074,-0.26021221,0.02340680,0.00184480,0.003
 97736,-0.00079465,-0.00012512,0.00171985,-0.00117727,0.00000232,0.0000
 0213,0.00001984,0.00000402,0.00001500,0.00000905,0.00002269,-0.0000098
 3,-0.00004781,-0.00006132,-0.00002331,-0.00000553,-0.00083189,-0.00105
 527,0.00025773,0.00066100,0.00085381,0.00063567,0.13508617,0.27454541,
 0.00000288,0.00001469,0.00001009,0.00002109,-0.00002153,-0.00005502,-0
 .00001482,-0.00000729,0.00000904,-0.00000169,0.00000032,-0.00000637,-0
 .00004846,-0.00014101,-0.00003376,-0.00058253,0.00019242,-0.00068264,0
 .00034882,-0.00029968,-0.00081842,0.00390444,-0.00301261,0.00404791,-0
 .00766447,-0.01090779,0.00454461,0.02701937,0.02338885,-0.04673602,0.0
 0769070,0.01503153,0.00136537,0.00550548,-0.00191632,0.00372955,0.0000
 0090,-0.00000396,0.00000116,-0.00000021,-0.00000250,0.00000054,-0.0000
 4729,0.00016948,0.00006832,-0.00003385,-0.00002737,0.00002530,-0.00028
 825,-0.00059624,0.00027160,-0.00189550,0.00100697,-0.00243395,-0.03222
 619,-0.02419411,0.03908365,-0.00001166,0.00000388,-0.00002613,0.000015
 15,0.00000083,0.00001328,-0.00000285,-0.00001099,-0.00000857,-0.000004
 41,0.00000046,-0.00000696,0.00001012,-0.00006665,0.00000363,0.00049285
 ,-0.00067489,-0.00017711,0.00022901,-0.00331752,0.00318816,-0.00085868
 ,-0.00072765,0.00015277,-0.00263952,-0.00195879,0.00527197,-0.00494095
 ,0.02528472,0.00996603,-0.08833708,0.08047699,0.04879440,0.00955313,-0
 .01504064,-0.00758221,-0.00000239,-0.00000345,0.00000208,-0.00000130,-
 0.00000054,0.00000106,-0.00013197,-0.00017853,0.00005941,-0.00002276,0
 .00003101,-0.00002131,-0.00018743,0.00023276,-0.00060784,-0.00030769,0
 .00131261,0.00066605,-0.00015924,0.00013786,-0.00220756,0.08754069,-0.
 00009195,-0.00014840,-0.00000161,0.00019856,0.00040116,0.00006163,0.00
 001582,-0.00007301,-0.00009353,-0.00006894,-0.00004914,-0.00003875,-0.
 00036127,-0.00055891,-0.00019164,0.00111764,-0.00031378,-0.00039132,-0
 .00465045,-0.00221243,0.00052983,-0.00069930,0.00022165,0.00053572,-0.
 00085665,0.00166848,-0.00066317,-0.00153225,0.00384501,0.00119738,0.08
 053212,-0.26140036,-0.09707875,0.01183784,-0.01854252,-0.01145619,-0.0
 0000208,0.00000047,0.00002997,0.00000183,0.00002086,0.00000984,-0.0001
 3253,-0.00027176,0.00000764,-0.00005033,0.00001588,-0.00001958,0.00022
 374,-0.00006671,0.00013880,-0.00017289,0.00011536,0.00005163,0.0007481
 3,0.00066252,0.00056433,-0.08630139,0.27584949,-0.00002054,-0.00001182
 ,-0.00001937,0.00008695,0.00005138,0.00004551,-0.00000407,-0.00000514,
 -0.00001837,-0.00001139,-0.00000080,-0.00000659,0.00006222,0.00002357,
 -0.00000157,-0.00002258,0.00007105,0.00034780,0.00309844,0.00004881,0.
 00534618,0.00011020,0.00053558,-0.00030706,0.00550885,0.00004297,0.003
 83481,0.00417071,-0.01462831,-0.00314436,0.04868086,-0.09710801,-0.085
 65893,-0.00162578,0.00431029,0.00408827,0.00000574,-0.00000468,0.00000
 367,0.00000209,0.00000294,0.00000393,-0.00008553,-0.00003540,-0.000000
 83,-0.00001147,0.00001119,-0.00002488,-0.00059844,0.00014261,-0.000904
 03,0.00034205,-0.00082150,-0.00005611,-0.00207147,0.00094334,-0.002528
 70,-0.05557148,0.10590267,0.08149613,0.00004831,0.00002967,0.00000994,
 0.00003045,0.00004768,-0.00006408,-0.00001015,-0.00002560,-0.00001469,
 -0.00000319,0.00000169,-0.00001328,0.00011511,-0.00039009,-0.00028256,
 -0.00099966,-0.00076103,-0.00184597,-0.00691721,-0.00163325,0.00560097
 ,0.00236627,0.00169677,0.00255271,0.00047232,-0.00002316,-0.00041950,0
 .00186956,-0.00385370,0.00220072,-0.01037258,0.00241174,0.00804423,-0.
 25969028,-0.00040845,0.13035738,-0.00001716,0.00000210,0.00000785,-0.0
 0000434,-0.00000156,0.00000371,0.00031172,0.00018762,-0.00003236,0.000
 70891,0.00062795,-0.00022630,-0.00029287,-0.00015905,0.00044338,-0.000
 38041,0.00012370,-0.00048693,-0.00056901,0.00014211,0.00051714,-0.0002
 3304,0.00024436,-0.00204534,0.27356724,0.00001078,0.00012419,0.0000635
 6,-0.00013786,-0.00039685,-0.00019449,-0.00002839,0.00006671,0.0001280
 6,0.00005550,0.00003128,0.00003473,0.00001694,0.00049357,0.00053732,0.
 00248685,0.00104846,-0.00085589,0.02328716,0.00328953,-0.01348945,0.00
 065509,-0.00465278,-0.00269195,-0.00013025,-0.00114453,-0.00014129,-0.
 00269434,-0.00439410,-0.00094766,-0.02444768,0.00478097,0.01481314,-0.
 00076282,-0.05936542,-0.00463698,0.00002448,-0.00000372,-0.00003519,0.
 00000130,-0.00001758,-0.00001313,-0.00026014,0.00000156,0.00005790,-0.
 00070507,-0.00047492,0.00047238,0.00128657,0.00022410,-0.00087616,0.00
 011613,0.00016025,0.00024326,-0.00131464,0.00009784,0.00076183,0.00079
 991,0.00083615,0.00052926,0.00174047,0.05929526,-0.00000478,0.00002266
 ,0.00005108,0.00000284,-0.00008337,-0.00026140,-0.00006720,-0.00002835
 ,0.00006089,-0.00000574,-0.00001166,-0.00001864,-0.00040413,-0.0007130
 7,-0.00020803,-0.00161704,0.00219993,-0.00268377,0.01151401,0.00130670
 ,-0.00317733,0.00231511,-0.00321849,0.00403153,-0.00041183,-0.00026772
 ,-0.00004370,0.00238138,-0.00024072,0.00558199,0.00214105,-0.00082288,
 0.00098126,0.13024481,-0.00535647,-0.11286700,0.00003060,-0.00002305,-
 0.00002186,-0.00000251,-0.00000772,-0.00000665,-0.00001621,0.00045944,
 0.00037755,-0.00039379,-0.00043256,0.00040193,0.00077857,-0.00005146,0
 .00010801,-0.00048011,0.00024014,-0.00091049,0.00021165,-0.00011720,0.
 00013774,-0.00190966,0.00090510,-0.00249549,-0.14430703,0.00624076,0.1
 1096238\\0.00000037,0.00000212,-0.00000052,-0.00000101,-0.00000435,-0.
 00000023,-0.00000134,0.00000046,0.00000168,0.00000086,0.00000108,0.000
 00035,-0.00000030,0.00000124,-0.00000574,0.00000037,-0.00000012,0.0000
 0649,0.00000105,-0.00000290,-0.00000176,-0.00000118,0.00000048,0.00000
 095,-0.00000040,0.00000081,-0.00000030,0.00000122,-0.00000057,-0.00000
 068,-0.00000147,-0.00000085,0.00000085,0.00000086,0.00000226,0.0000003
 9,-0.00000019,0.00000057,0.00000043,-0.00000025,-0.00000014,-0.0000000
 4,-0.00000013,0.00000030,-0.00000108,0.00000082,0.00000035,-0.00000050
 ,0.00000021,-0.00000013,-0.00000046,-0.00000016,-0.00000026,-0.0000003
 2,0.00000003,-0.00000005,0.00000011,0.00000039,0.00000003,0.00000012,0
 .00000024,-0.00000033,0.00000024\\\@


 IF OTHER PEOPLE ARE GOING TO TALK, CONVERSATION IS SIMPLY IMPOSSIBLE.

                                               -- WHISTLER'S PRINCIPLE
 Job cpu time:       0 days  0 hours 13 minutes  0.0 seconds.
 Elapsed time:       0 days  0 hours  0 minutes 33.1 seconds.
 File lengths (MBytes):  RWF=    104 Int=      0 D2E=      0 Chk=      5 Scr=      1
 Normal termination of Gaussian 16 at Mon Oct 14 00:23:39 2019.
real 186.34
user 4157.74
sys 34.65
Machine:
brown-a394
brown-a394
brown-a394
brown-a394
brown-a394
brown-a394
brown-a394
brown-a394
brown-a394
brown-a394
brown-a394
brown-a394
brown-a394
brown-a394
brown-a394
brown-a394
brown-a394
brown-a394
brown-a394
brown-a394
brown-a394
brown-a394
brown-a394
brown-a394
