Title Card Required                                                     
Freq      RB3LYP                                                      6-31G(d)            
Number of atoms                            I               22
Info1-9                                    I   N=           9
          54          54        1002           0           0         100
           6          18        -502
Full Title                                 C   N=           2
Title Card Required     
Route                                      C   N=           6
#P opt freq b3lyp/6-31g(d) geom=connectivity temperature=0.0
01          
Charge                                     I                1
Multiplicity                               I                1
Number of electrons                        I               88
Number of alpha electrons                  I               44
Number of beta electrons                   I               44
Number of basis functions                  I              200
Number of independent functions            I              200
Number of point charges in /Mol/           I                0
Number of translation vectors              I                0
Atomic numbers                             I   N=          22
           8           6           7           8           8           6
           6           6           6           6           6           6
           1           1           1           1           1           1
           1           1           1           1
Nuclear charges                            R   N=          22
  8.00000000E+00  6.00000000E+00  7.00000000E+00  8.00000000E+00  8.00000000E+00
  6.00000000E+00  6.00000000E+00  6.00000000E+00  6.00000000E+00  6.00000000E+00
  6.00000000E+00  6.00000000E+00  1.00000000E+00  1.00000000E+00  1.00000000E+00
  1.00000000E+00  1.00000000E+00  1.00000000E+00  1.00000000E+00  1.00000000E+00
  1.00000000E+00  1.00000000E+00
Current cartesian coordinates              R   N=          66
 -5.41783588E+00 -2.51020907E+00 -4.56771016E-01 -4.23558200E+00 -6.54963799E-01
 -1.00300747E-01 -5.74681063E+00  1.96795666E+00  3.91492914E-01 -8.32769589E+00
  1.44303590E+00  1.85810031E-01 -1.90116012E+00  1.72338486E-02  3.88337890E-02
  9.74523391E-02 -2.10633944E+00 -3.48968249E-01  2.63223081E+00 -9.36163591E-01
 -1.58590238E-01  3.85662465E+00 -7.84311050E-01  2.18911823E+00  6.24198842E+00
  3.14270654E-01  2.36566828E+00  7.41598974E+00  1.26529588E+00  1.99455638E-01
  6.21110379E+00  1.11518768E+00 -2.14600426E+00  3.82581990E+00  1.72126279E-02
 -2.32671395E+00 -5.27657508E+00  2.61623085E+00  2.16653798E+00 -9.22298349E+00
  3.02935380E+00  5.10870188E-01 -3.25989960E-01 -3.47189462E+00  1.13454081E+00
 -3.47278157E-01 -2.88406714E+00 -2.20425580E+00  2.95145136E+00 -1.54717826E+00
  3.86902752E+00  7.19258523E+00  4.13685622E-01  4.18092479E+00  9.28185023E+00
  2.10880325E+00  3.36412275E-01  7.13781328E+00  1.83545041E+00 -3.82859333E+00
  2.89686563E+00 -1.23528233E-01 -4.15446822E+00 -5.16029550E+00  3.26582858E+00
 -9.36417275E-01
Number of symbols in /Mol/                 I                0
Force Field                                I                0
Atom Types                                 C   N=          22
                                                            
                                                            
                                                            
                                                            
                        
Int Atom Types                             I   N=          22
           0           0           0           0           0           0
           0           0           0           0           0           0
           0           0           0           0           0           0
           0           0           0           0
MM charges                                 R   N=          22
  0.00000000E+00  0.00000000E+00  0.00000000E+00  0.00000000E+00  0.00000000E+00
  0.00000000E+00  0.00000000E+00  0.00000000E+00  0.00000000E+00  0.00000000E+00
  0.00000000E+00  0.00000000E+00  0.00000000E+00  0.00000000E+00  0.00000000E+00
  0.00000000E+00  0.00000000E+00  0.00000000E+00  0.00000000E+00  0.00000000E+00
  0.00000000E+00  0.00000000E+00
Integer atomic weights                     I   N=          22
          16          12          14          16          16          12
          12          12          12          12          12          12
           1           1           1           1           1           1
           1           1           1           1
Real atomic weights                        R   N=          22
  1.59949146E+01  1.20000000E+01  1.40030740E+01  1.59949146E+01  1.59949146E+01
  1.20000000E+01  1.20000000E+01  1.20000000E+01  1.20000000E+01  1.20000000E+01
  1.20000000E+01  1.20000000E+01  1.00782504E+00  1.00782504E+00  1.00782504E+00
  1.00782504E+00  1.00782504E+00  1.00782504E+00  1.00782504E+00  1.00782504E+00
  1.00782504E+00  1.00782504E+00
Atom fragment info                         I   N=          22
           0           0           0           0           0           0
           0           0           0           0           0           0
           0           0           0           0           0           0
           0           0           0           0
Atom residue num                           I   N=          22
           0           0           0           0           0           0
           0           0           0           0           0           0
           0           0           0           0           0           0
           0           0           0           0
Nuclear spins                              I   N=          22
           0           0           2           0           0           0
           0           0           0           0           0           0
           1           1           1           1           1           1
           1           1           1           1
Nuclear ZEff                               R   N=          22
 -5.60000000E+00 -3.60000000E+00 -4.55000000E+00 -5.60000000E+00 -5.60000000E+00
 -3.60000000E+00 -3.60000000E+00 -3.60000000E+00 -3.60000000E+00 -3.60000000E+00
 -3.60000000E+00 -3.60000000E+00 -1.00000000E+00 -1.00000000E+00 -1.00000000E+00
 -1.00000000E+00 -1.00000000E+00 -1.00000000E+00 -1.00000000E+00 -1.00000000E+00
 -1.00000000E+00 -1.00000000E+00
Nuclear ZNuc                               R   N=          22
  8.00000000E+00  6.00000000E+00  7.00000000E+00  8.00000000E+00  8.00000000E+00
  6.00000000E+00  6.00000000E+00  6.00000000E+00  6.00000000E+00  6.00000000E+00
  6.00000000E+00  6.00000000E+00  1.00000000E+00  1.00000000E+00  1.00000000E+00
  1.00000000E+00  1.00000000E+00  1.00000000E+00  1.00000000E+00  1.00000000E+00
  1.00000000E+00  1.00000000E+00
Nuclear QMom                               R   N=          22
  0.00000000E+00  0.00000000E+00  2.04400000E+00  0.00000000E+00  0.00000000E+00
  0.00000000E+00  0.00000000E+00  0.00000000E+00  0.00000000E+00  0.00000000E+00
  0.00000000E+00  0.00000000E+00  0.00000000E+00  0.00000000E+00  0.00000000E+00
  0.00000000E+00  0.00000000E+00  0.00000000E+00  0.00000000E+00  0.00000000E+00
  0.00000000E+00  0.00000000E+00
Nuclear GFac                               R   N=          22
  0.00000000E+00  0.00000000E+00  4.03761000E-01  0.00000000E+00  0.00000000E+00
  0.00000000E+00  0.00000000E+00  0.00000000E+00  0.00000000E+00  0.00000000E+00
  0.00000000E+00  0.00000000E+00  2.79284600E+00  2.79284600E+00  2.79284600E+00
  2.79284600E+00  2.79284600E+00  2.79284600E+00  2.79284600E+00  2.79284600E+00
  2.79284600E+00  2.79284600E+00
MicOpt                                     I   N=          22
          -1          -1          -1          -1          -1          -1
          -1          -1          -1          -1          -1          -1
          -1          -1          -1          -1          -1          -1
          -1          -1          -1          -1
Number of residues                         I                0
Number of secondary structures             I                0
Redundant internal dimensions              I   N=           4
         101          22          35          44
Redundant internal coordinate indices      I   N=         404
           1           2           0           0           2           3
           0           0           2           5           0           0
           3           4           0           0           3          13
           0           0           3          22           0           0
           4          14           0           0           5           6
           0           0           6           7           0           0
           6          15           0           0           6          16
           0           0           7           8           0           0
           7          12           0           0           8           9
           0           0           8          17           0           0
           9          10           0           0           9          18
           0           0          10          11           0           0
          10          19           0           0          11          12
           0           0          11          20           0           0
          12          21           0           0           1           2
           3           0           1           2           5           0
           3           2           5           0           2           3
           4           0           2           3          13           0
           2           3          22           0           4           3
          13           0           4           3          22           0
          13           3          22           0           3           4
          14           0           2           5           6           0
           5           6           7           0           5           6
          15           0           5           6          16           0
           7           6          15           0           7           6
          16           0          15           6          16           0
           6           7           8           0           6           7
          12           0           8           7          12           0
           7           8           9           0           7           8
          17           0           9           8          17           0
           8           9          10           0           8           9
          18           0          10           9          18           0
           9          10          11           0           9          10
          19           0          11          10          19           0
          10          11          12           0          10          11
          20           0          12          11          20           0
           7          12          11           0           7          12
          21           0          11          12          21           0
           1           2           3           4           1           2
           3          13           1           2           3          22
           5           2           3           4           5           2
           3          13           5           2           3          22
           1           2           5           6           3           2
           5           6           2           3           4          14
          13           3           4          14          22           3
           4          14           2           5           6           7
           2           5           6          15           2           5
           6          16           5           6           7           8
           5           6           7          12          15           6
           7           8          15           6           7          12
          16           6           7           8          16           6
           7          12           6           7           8           9
           6           7           8          17          12           7
           8           9          12           7           8          17
           6           7          12          11           6           7
          12          21           8           7          12          11
           8           7          12          21           7           8
           9          10           7           8           9          18
          17           8           9          10          17           8
           9          18           8           9          10          11
           8           9          10          19          18           9
          10          11          18           9          10          19
           9          10          11          12           9          10
          11          20          19          10          11          12
          19          10          11          20          10          11
          12           7          10          11          12          21
          20          11          12           7          20          11
          12          21
Redundant internal coordinates             R   N=         101
  2.22861623E+00  3.06681996E+00  2.43325577E+00  2.64174488E+00  1.94734843E+00
  1.94725884E+00  1.85029956E+00  2.94183713E+00  2.79833115E+00  2.06030179E+00
  2.06027607E+00  2.65215658E+00  2.65223332E+00  2.63211169E+00  2.05509131E+00
  2.64106140E+00  2.05150526E+00  2.64111052E+00  2.05224199E+00  2.63206847E+00
  2.05150550E+00  2.05510333E+00  2.06714111E+00  2.41592842E+00  1.80011497E+00
  1.87442841E+00  1.88798410E+00  1.88837011E+00  1.95306858E+00  1.95368780E+00
  1.90390747E+00  1.86364645E+00  2.03177861E+00  1.88027881E+00  1.81717413E+00
  1.81784942E+00  1.99801498E+00  1.99835092E+00  1.93247275E+00  2.09710555E+00
  2.09710826E+00  2.08896305E+00  2.09630650E+00  2.09325006E+00  2.09354923E+00
  2.09223207E+00  2.09382270E+00  2.09708415E+00  2.10033216E+00  2.09141376E+00
  2.09139257E+00  2.09221476E+00  2.09708716E+00  2.09383579E+00  2.09631514E+00
  2.09323497E+00  2.09355342E+00 -3.75114898E-02  2.07346342E+00 -2.14944264E+00
  3.10519373E+00 -1.06701667E+00  9.93262577E-01 -9.99529569E-04  3.13911895E+00
  3.12672019E+00  1.05726900E+00 -1.08618532E+00  3.12559307E+00 -1.02941215E+00
  9.96662268E-01  1.57397971E+00 -1.57204182E+00 -4.37897024E-01  2.69926675E+00
 -2.69630211E+00  4.40861672E-01  3.14038165E+00  1.23468900E-02  3.19715820E-03
 -3.12483760E+00 -3.14045332E+00 -1.26096664E-02 -3.26883363E-03  3.12457482E+00
 -3.81047702E-04 -3.13163841E+00  3.12765137E+00 -3.60599099E-03 -2.39120527E-03
 -3.13356714E+00  3.12884663E+00 -2.32930603E-03  2.31962608E-03 -3.12878592E+00
  3.13349569E+00  2.39014401E-03  5.23848030E-04 -3.12731728E+00  3.13164911E+00
  3.80798294E-03
ZRed-IntVec                                I   N=         101
           0           0           0           0           0           0
           0           0           0           0           0           0
           0           0           0           0           0           0
           0           0           0           0           0           0
           0           0           0           0           0           0
           0           0           0           0           0           0
           0           0           0           0           0           0
           0           0           0           0           0           0
           0           0           0           0           0           0
           0           0           0           0           0           0
           0           0           0           0           0           0
           0           0           0           0           0           0
           0           0           0           0           0           0
           0           0           0           0           0           0
           0           0           0           0           0           0
           0           0           0           0           0           0
           0           0           0           0           0
ZRed-FPVec                                 R   N=         101
  0.00000000E+00  0.00000000E+00  0.00000000E+00  0.00000000E+00  0.00000000E+00
  0.00000000E+00  0.00000000E+00  0.00000000E+00  0.00000000E+00  0.00000000E+00
  0.00000000E+00  0.00000000E+00  0.00000000E+00  0.00000000E+00  0.00000000E+00
  0.00000000E+00  0.00000000E+00  0.00000000E+00  0.00000000E+00  0.00000000E+00
  0.00000000E+00  0.00000000E+00  0.00000000E+00  0.00000000E+00  0.00000000E+00
  0.00000000E+00  0.00000000E+00  0.00000000E+00  0.00000000E+00  0.00000000E+00
  0.00000000E+00  0.00000000E+00  0.00000000E+00  0.00000000E+00  0.00000000E+00
  0.00000000E+00  0.00000000E+00  0.00000000E+00  0.00000000E+00  0.00000000E+00
  0.00000000E+00  0.00000000E+00  0.00000000E+00  0.00000000E+00  0.00000000E+00
  0.00000000E+00  0.00000000E+00  0.00000000E+00  0.00000000E+00  0.00000000E+00
  0.00000000E+00  0.00000000E+00  0.00000000E+00  0.00000000E+00  0.00000000E+00
  0.00000000E+00  0.00000000E+00  0.00000000E+00  0.00000000E+00  0.00000000E+00
  0.00000000E+00  0.00000000E+00  0.00000000E+00  0.00000000E+00  0.00000000E+00
  0.00000000E+00  0.00000000E+00  0.00000000E+00  0.00000000E+00  0.00000000E+00
  0.00000000E+00  0.00000000E+00  0.00000000E+00  0.00000000E+00  0.00000000E+00
  0.00000000E+00  0.00000000E+00  0.00000000E+00  0.00000000E+00  0.00000000E+00
  0.00000000E+00  0.00000000E+00  0.00000000E+00  0.00000000E+00  0.00000000E+00
  0.00000000E+00  0.00000000E+00  0.00000000E+00  0.00000000E+00  0.00000000E+00
  0.00000000E+00  0.00000000E+00  0.00000000E+00  0.00000000E+00  0.00000000E+00
  0.00000000E+00  0.00000000E+00  0.00000000E+00  0.00000000E+00  0.00000000E+00
  0.00000000E+00
ZRed-Constraint1                           R   N=         101
  2.22861623E+00  3.06681996E+00  2.43325577E+00  2.64174488E+00  1.94734843E+00
  1.94725884E+00  1.85029956E+00  2.94183713E+00  2.79833115E+00  2.06030179E+00
  2.06027607E+00  2.65215658E+00  2.65223332E+00  2.63211169E+00  2.05509131E+00
  2.64106140E+00  2.05150526E+00  2.64111052E+00  2.05224199E+00  2.63206847E+00
  2.05150550E+00  2.05510333E+00  2.06714111E+00  2.41592842E+00  1.80011497E+00
  1.87442841E+00  1.88798410E+00  1.88837011E+00  1.95306858E+00  1.95368780E+00
  1.90390747E+00  1.86364645E+00  2.03177861E+00  1.88027881E+00  1.81717413E+00
  1.81784942E+00  1.99801498E+00  1.99835092E+00  1.93247275E+00  2.09710555E+00
  2.09710826E+00  2.08896305E+00  2.09630650E+00  2.09325006E+00  2.09354923E+00
  2.09223207E+00  2.09382270E+00  2.09708415E+00  2.10033216E+00  2.09141376E+00
  2.09139257E+00  2.09221476E+00  2.09708716E+00  2.09383579E+00  2.09631514E+00
  2.09323497E+00  2.09355342E+00 -3.75114898E-02  2.07346342E+00 -2.14944264E+00
  3.10519373E+00 -1.06701667E+00  9.93262577E-01 -9.99529569E-04  3.13911895E+00
  3.12672019E+00  1.05726900E+00 -1.08618532E+00  3.12559307E+00 -1.02941215E+00
  9.96662268E-01  1.57397971E+00 -1.57204182E+00 -4.37897024E-01  2.69926675E+00
 -2.69630211E+00  4.40861672E-01  3.14038165E+00  1.23468900E-02  3.19715820E-03
 -3.12483760E+00 -3.14045332E+00 -1.26096664E-02 -3.26883363E-03  3.12457482E+00
 -3.81047702E-04 -3.13163841E+00  3.12765137E+00 -3.60599099E-03 -2.39120527E-03
 -3.13356714E+00  3.12884663E+00 -2.32930603E-03  2.31962608E-03 -3.12878592E+00
  3.13349569E+00  2.39014401E-03  5.23848030E-04 -3.12731728E+00  3.13164911E+00
  3.80798294E-03
ZRed-Constraint2                           R   N=         101
  2.36894976E+00  2.54672271E+00  2.57221528E+00  2.46470225E+00  1.88972612E+00
  1.88972612E+00  1.81419388E+00  2.70612739E+00  2.80150083E+00  2.05982807E+00
  2.05966211E+00  2.67505846E+00  2.67390213E+00  2.65900200E+00  2.05972854E+00
  2.65691521E+00  2.05982245E+00  2.65662306E+00  2.05984552E+00  2.65926570E+00
  2.05980571E+00  2.05996453E+00  2.11396997E+00  2.12244909E+00  2.04676075E+00
  2.13289651E+00  1.86166576E+00  1.86166577E+00  1.86166577E+00  1.86166577E+00
  1.87087255E+00  1.91068161E+00  2.21287314E+00  1.89990565E+00  1.85552097E+00
  1.85561786E+00  1.87611320E+00  1.87610703E+00  2.09443377E+00  2.09426136E+00
  2.11860602E+00  2.07027944E+00  2.10648410E+00  2.09355280E+00  2.08314841E+00
  2.09528275E+00  2.09466166E+00  2.09324088E+00  2.09225419E+00  2.09553700E+00
  2.09539412E+00  2.09596250E+00  2.09278899E+00  2.09443381E+00  2.10600976E+00
  2.09334555E+00  2.08382999E+00 -3.86670277E-02  2.10536847E+00 -2.18270253E+00
  3.09941990E+00 -1.03972991E+00  9.55384403E-01 -1.77560974E-02  3.12736045E+00
  3.08063452E+00  9.36599028E-01 -1.05851529E+00 -3.14106640E+00 -1.12475130E+00
  1.12576076E+00  1.06220683E+00 -2.06982618E+00 -9.40776047E-01  2.21037625E+00
  3.06529994E+00 -6.67330680E-02  3.13945022E+00 -2.02825164E-03 -1.14389312E-02
  3.13026790E+00 -3.13928663E+00  2.25005775E-03  1.17378303E-02 -3.12991079E+00
  8.69623859E-04 -3.14087768E+00 -3.14083654E+00  6.01469895E-04  9.61731262E-03
 -3.13199223E+00 -3.13182082E+00  9.75494226E-03 -9.32069289E-03  3.13226068E+00
  3.13228885E+00 -9.31508284E-03 -1.47331263E-03  3.14017500E+00  3.14013063E+00
 -1.40636339E-03
SymInf integers                            I   N=          26
           1           1           1           1           1           0
           0           0           0           0           0           0
           0           0           0           0           0           0
           0           0           0           0           0           0
           0           0
RotTr to input orientation                 R   N=          12
 -5.46503466E-01 -8.05754914E-01 -2.28238867E-01  2.77706872E-01 -4.31481503E-01
  8.58313815E-01 -7.90071424E-01  4.05687974E-01  4.59569814E-01 -6.35312866E-01
 -2.26064038E+00  6.41835989E-01
Number of contracted shells                I               68
Number of primitive shells                 I              172
Pure/Cartesian d shells                    I                1
Pure/Cartesian f shells                    I                0
Highest angular momentum                   I                2
Largest degree of contraction              I                6
Shell types                                I   N=          68
           0          -1          -1           2           0          -1
          -1           2           0          -1          -1           2
           0          -1          -1           2           0          -1
          -1           2           0          -1          -1           2
           0          -1          -1           2           0          -1
          -1           2           0          -1          -1           2
           0          -1          -1           2           0          -1
          -1           2           0          -1          -1           2
           0           0           0           0           0           0
           0           0           0           0           0           0
           0           0           0           0           0           0
           0           0
Number of primitives per shell             I   N=          68
           6           3           1           1           6           3
           1           1           6           3           1           1
           6           3           1           1           6           3
           1           1           6           3           1           1
           6           3           1           1           6           3
           1           1           6           3           1           1
           6           3           1           1           6           3
           1           1           6           3           1           1
           3           1           3           1           3           1
           3           1           3           1           3           1
           3           1           3           1           3           1
           3           1
Shell to atom map                          I   N=          68
           1           1           1           1           2           2
           2           2           3           3           3           3
           4           4           4           4           5           5
           5           5           6           6           6           6
           7           7           7           7           8           8
           8           8           9           9           9           9
          10          10          10          10          11          11
          11          11          12          12          12          12
          13          13          14          14          15          15
          16          16          17          17          18          18
          19          19          20          20          21          21
          22          22
Primitive exponents                        R   N=         172
  5.48467166E+03  8.25234946E+02  1.88046958E+02  5.29645000E+01  1.68975704E+01
  5.79963534E+00  1.55396162E+01  3.59993359E+00  1.01376175E+00  2.70005823E-01
  8.00000000E-01  3.04752488E+03  4.57369518E+02  1.03948685E+02  2.92101553E+01
  9.28666296E+00  3.16392696E+00  7.86827235E+00  1.88128854E+00  5.44249258E-01
  1.68714478E-01  8.00000000E-01  4.17351146E+03  6.27457911E+02  1.42902093E+02
  4.02343293E+01  1.28202129E+01  4.39043701E+00  1.16263619E+01  2.71627981E+00
  7.72218397E-01  2.12031498E-01  8.00000000E-01  5.48467166E+03  8.25234946E+02
  1.88046958E+02  5.29645000E+01  1.68975704E+01  5.79963534E+00  1.55396162E+01
  3.59993359E+00  1.01376175E+00  2.70005823E-01  8.00000000E-01  5.48467166E+03
  8.25234946E+02  1.88046958E+02  5.29645000E+01  1.68975704E+01  5.79963534E+00
  1.55396162E+01  3.59993359E+00  1.01376175E+00  2.70005823E-01  8.00000000E-01
  3.04752488E+03  4.57369518E+02  1.03948685E+02  2.92101553E+01  9.28666296E+00
  3.16392696E+00  7.86827235E+00  1.88128854E+00  5.44249258E-01  1.68714478E-01
  8.00000000E-01  3.04752488E+03  4.57369518E+02  1.03948685E+02  2.92101553E+01
  9.28666296E+00  3.16392696E+00  7.86827235E+00  1.88128854E+00  5.44249258E-01
  1.68714478E-01  8.00000000E-01  3.04752488E+03  4.57369518E+02  1.03948685E+02
  2.92101553E+01  9.28666296E+00  3.16392696E+00  7.86827235E+00  1.88128854E+00
  5.44249258E-01  1.68714478E-01  8.00000000E-01  3.04752488E+03  4.57369518E+02
  1.03948685E+02  2.92101553E+01  9.28666296E+00  3.16392696E+00  7.86827235E+00
  1.88128854E+00  5.44249258E-01  1.68714478E-01  8.00000000E-01  3.04752488E+03
  4.57369518E+02  1.03948685E+02  2.92101553E+01  9.28666296E+00  3.16392696E+00
  7.86827235E+00  1.88128854E+00  5.44249258E-01  1.68714478E-01  8.00000000E-01
  3.04752488E+03  4.57369518E+02  1.03948685E+02  2.92101553E+01  9.28666296E+00
  3.16392696E+00  7.86827235E+00  1.88128854E+00  5.44249258E-01  1.68714478E-01
  8.00000000E-01  3.04752488E+03  4.57369518E+02  1.03948685E+02  2.92101553E+01
  9.28666296E+00  3.16392696E+00  7.86827235E+00  1.88128854E+00  5.44249258E-01
  1.68714478E-01  8.00000000E-01  1.87311370E+01  2.82539436E+00  6.40121692E-01
  1.61277759E-01  1.87311370E+01  2.82539436E+00  6.40121692E-01  1.61277759E-01
  1.87311370E+01  2.82539436E+00  6.40121692E-01  1.61277759E-01  1.87311370E+01
  2.82539436E+00  6.40121692E-01  1.61277759E-01  1.87311370E+01  2.82539436E+00
  6.40121692E-01  1.61277759E-01  1.87311370E+01  2.82539436E+00  6.40121692E-01
  1.61277759E-01  1.87311370E+01  2.82539436E+00  6.40121692E-01  1.61277759E-01
  1.87311370E+01  2.82539436E+00  6.40121692E-01  1.61277759E-01  1.87311370E+01
  2.82539436E+00  6.40121692E-01  1.61277759E-01  1.87311370E+01  2.82539436E+00
  6.40121692E-01  1.61277759E-01
Contraction coefficients                   R   N=         172
  1.83107443E-03  1.39501722E-02  6.84450781E-02  2.32714336E-01  4.70192898E-01
  3.58520853E-01 -1.10777550E-01 -1.48026263E-01  1.13076702E+00  1.00000000E+00
  1.00000000E+00  1.83473713E-03  1.40373228E-02  6.88426223E-02  2.32184443E-01
  4.67941348E-01  3.62311985E-01 -1.19332420E-01 -1.60854152E-01  1.14345644E+00
  1.00000000E+00  1.00000000E+00  1.83477216E-03  1.39946270E-02  6.85865518E-02
  2.32240873E-01  4.69069948E-01  3.60455199E-01 -1.14961182E-01 -1.69117479E-01
  1.14585195E+00  1.00000000E+00  1.00000000E+00  1.83107443E-03  1.39501722E-02
  6.84450781E-02  2.32714336E-01  4.70192898E-01  3.58520853E-01 -1.10777550E-01
 -1.48026263E-01  1.13076702E+00  1.00000000E+00  1.00000000E+00  1.83107443E-03
  1.39501722E-02  6.84450781E-02  2.32714336E-01  4.70192898E-01  3.58520853E-01
 -1.10777550E-01 -1.48026263E-01  1.13076702E+00  1.00000000E+00  1.00000000E+00
  1.83473713E-03  1.40373228E-02  6.88426223E-02  2.32184443E-01  4.67941348E-01
  3.62311985E-01 -1.19332420E-01 -1.60854152E-01  1.14345644E+00  1.00000000E+00
  1.00000000E+00  1.83473713E-03  1.40373228E-02  6.88426223E-02  2.32184443E-01
  4.67941348E-01  3.62311985E-01 -1.19332420E-01 -1.60854152E-01  1.14345644E+00
  1.00000000E+00  1.00000000E+00  1.83473713E-03  1.40373228E-02  6.88426223E-02
  2.32184443E-01  4.67941348E-01  3.62311985E-01 -1.19332420E-01 -1.60854152E-01
  1.14345644E+00  1.00000000E+00  1.00000000E+00  1.83473713E-03  1.40373228E-02
  6.88426223E-02  2.32184443E-01  4.67941348E-01  3.62311985E-01 -1.19332420E-01
 -1.60854152E-01  1.14345644E+00  1.00000000E+00  1.00000000E+00  1.83473713E-03
  1.40373228E-02  6.88426223E-02  2.32184443E-01  4.67941348E-01  3.62311985E-01
 -1.19332420E-01 -1.60854152E-01  1.14345644E+00  1.00000000E+00  1.00000000E+00
  1.83473713E-03  1.40373228E-02  6.88426223E-02  2.32184443E-01  4.67941348E-01
  3.62311985E-01 -1.19332420E-01 -1.60854152E-01  1.14345644E+00  1.00000000E+00
  1.00000000E+00  1.83473713E-03  1.40373228E-02  6.88426223E-02  2.32184443E-01