 Entering Gaussian System, Link 0=/apps/cent7/gaussian/g16-A.03/g16-haswell/g16/g16
 Initial command:
 /apps/cent7/gaussian/g16-A.03/g16-haswell/g16/l1.exe "/scratch/brown/finej/gaussian/Gau-398110.inp" -scrdir="/scratch/brown/finej/gaussian/"
 Entering Link 1 = /apps/cent7/gaussian/g16-A.03/g16-haswell/g16/l1.exe PID=    398111.
  
 Copyright (c) 1988,1990,1992,1993,1995,1998,2003,2009,2016,
            Gaussian, Inc.  All Rights Reserved.
  
 This is part of the Gaussian(R) 16 program.  It is based on
 the Gaussian(R) 09 system (copyright 2009, Gaussian, Inc.),
 the Gaussian(R) 03 system (copyright 2003, Gaussian, Inc.),
 the Gaussian(R) 98 system (copyright 1998, Gaussian, Inc.),
 the Gaussian(R) 94 system (copyright 1995, Gaussian, Inc.),
 the Gaussian 92(TM) system (copyright 1992, Gaussian, Inc.),
 the Gaussian 90(TM) system (copyright 1990, Gaussian, Inc.),
 the Gaussian 88(TM) system (copyright 1988, Gaussian, Inc.),
 the Gaussian 86(TM) system (copyright 1986, Carnegie Mellon
 University), and the Gaussian 82(TM) system (copyright 1983,
 Carnegie Mellon University). Gaussian is a federally registered
 trademark of Gaussian, Inc.
  
 This software contains proprietary and confidential information,
 including trade secrets, belonging to Gaussian, Inc.
  
 This software is provided under written license and may be
 used, copied, transmitted, or stored only in accord with that
 written license.
  
 The following legend is applicable only to US Government
 contracts under FAR:
  
                    RESTRICTED RIGHTS LEGEND
  
 Use, reproduction and disclosure by the US Government is
 subject to restrictions as set forth in subparagraphs (a)
 and (c) of the Commercial Computer Software - Restricted
 Rights clause in FAR 52.227-19.
  
 Gaussian, Inc.
 340 Quinnipiac St., Bldg. 40, Wallingford CT 06492
  
  
 ---------------------------------------------------------------
 Warning -- This program may not be used in any manner that
 competes with the business of Gaussian, Inc. or will provide
 assistance to any competitor of Gaussian, Inc.  The licensee
 of this program is prohibited from giving any competitor of
 Gaussian, Inc. access to this program.  By using this program,
 the user acknowledges that Gaussian, Inc. is engaged in the
 business of creating and licensing software in the field of
 computational chemistry and represents and warrants to the
 licensee that it is not a competitor of Gaussian, Inc. and that
 it will not use this program in any manner prohibited above.
 ---------------------------------------------------------------
  

 Cite this work as:
 Gaussian 16, Revision A.03,
 M. J. Frisch, G. W. Trucks, H. B. Schlegel, G. E. Scuseria, 
 M. A. Robb, J. R. Cheeseman, G. Scalmani, V. Barone, 
 G. A. Petersson, H. Nakatsuji, X. Li, M. Caricato, A. V. Marenich, 
 J. Bloino, B. G. Janesko, R. Gomperts, B. Mennucci, H. P. Hratchian, 
 J. V. Ortiz, A. F. Izmaylov, J. L. Sonnenberg, D. Williams-Young, 
 F. Ding, F. Lipparini, F. Egidi, J. Goings, B. Peng, A. Petrone, 
 T. Henderson, D. Ranasinghe, V. G. Zakrzewski, J. Gao, N. Rega, 
 G. Zheng, W. Liang, M. Hada, M. Ehara, K. Toyota, R. Fukuda, 
 J. Hasegawa, M. Ishida, T. Nakajima, Y. Honda, O. Kitao, H. Nakai, 
 T. Vreven, K. Throssell, J. A. Montgomery, Jr., J. E. Peralta, 
 F. Ogliaro, M. J. Bearpark, J. J. Heyd, E. N. Brothers, K. N. Kudin, 
 V. N. Staroverov, T. A. Keith, R. Kobayashi, J. Normand, 
 K. Raghavachari, A. P. Rendell, J. C. Burant, S. S. Iyengar, 
 J. Tomasi, M. Cossi, J. M. Millam, M. Klene, C. Adamo, R. Cammi, 
 J. W. Ochterski, R. L. Martin, K. Morokuma, O. Farkas, 
 J. B. Foresman, and D. J. Fox, Gaussian, Inc., Wallingford CT, 2016.
 
 ******************************************
 Gaussian 16:  ES64L-G16RevA.03 25-Dec-2016
                14-Oct-2019 
 ******************************************
 %chk=12_p.chk
 %nprocshared=24
 Will use up to   24 processors via shared memory.
 %mem=80GB
 --------------------------------------------------------------
 #P opt freq b3lyp/6-31g(d) geom=connectivity temperature=0.001
 --------------------------------------------------------------
 1/18=20,19=15,26=3,38=1,57=2,112=-1000/1,3;
 2/9=110,12=2,17=6,18=5,40=1/2;
 3/5=1,6=6,7=1,11=2,25=1,30=1,71=1,74=-5/1,2,3;
 4//1;
 5/5=2,38=5/2;
 6/7=2,8=2,9=2,10=2,28=1/1;
 7//1,2,3,16;
 1/18=20,19=15,26=3/3(2);
 2/9=110/2;
 99//99;
 2/9=110/2;
 3/5=1,6=6,7=1,11=2,25=1,30=1,71=1,74=-5/1,2,3;
 4/5=5,16=3,69=1/1;
 5/5=2,38=5/2;
 7//1,2,3,16;
 1/18=20,19=15,26=3/3(-5);
 2/9=110/2;
 6/7=2,8=2,9=2,10=2,19=2,28=1/1;
 99/9=1/99;
 Leave Link    1 at Mon Oct 14 00:22:02 2019, MaxMem= 10737418240 cpu:               1.7 elap:               0.1
 (Enter /apps/cent7/gaussian/g16-A.03/g16-haswell/g16/l101.exe)
 -------------------
 Title Card Required
 -------------------
 Symbolic Z-matrix:
 Charge =  1 Multiplicity = 1
 O                     1.2833    1.4484   -0.3003 
 C                     0.9265    0.7424    0.6722 
 N                     1.2481    1.0835    1.9357 
 O                     1.9756    2.1309    2.2092 
 O                     0.2047   -0.3985    0.4987 
 C                    -0.2583   -0.9398   -0.7436 
 C                    -1.0036   -2.1923   -0.4724 
 C                    -2.1655   -2.1635    0.3357 
 C                    -2.8856   -3.343     0.6005 
 C                    -2.4534   -4.5677    0.0619 
 C                    -1.2941   -4.6134   -0.732 
 C                    -0.5734   -3.4341   -0.9968 
 H                     0.38644   1.19564   2.43064 
 H                     2.0459    2.232     3.1613 
 H                    -0.9677   -0.2172   -1.147 
 H                     0.6324   -1.2053   -1.3129 
 H                    -2.5103   -1.2204    0.7596 
 H                    -3.7792   -3.308     1.2237 
 H                    -3.0161   -5.4801    0.2595 
 H                    -0.9537   -5.564    -1.1426 
 H                     0.3247   -3.4828   -1.6127 
 H                     1.71781   0.29596   2.33464 
 
 ITRead=  0  0  0  0  0  0  0  0  0  0  0  0  0  0  0  0  0  0  0  0
 ITRead=  0  0
 MicOpt= -1 -1 -1 -1 -1 -1 -1 -1 -1 -1 -1 -1 -1 -1 -1 -1 -1 -1 -1 -1
 MicOpt= -1 -1
 NAtoms=     22 NQM=       22 NQMF=       0 NMMI=      0 NMMIF=      0
                NMic=       0 NMicF=      0.
                    Isotopes and Nuclear Properties:
 (Nuclear quadrupole moments (NQMom) in fm**2, nuclear magnetic moments (NMagM)
  in nuclear magnetons)

  Atom         1           2           3           4           5           6           7           8           9          10
 IAtWgt=          16          12          14          16          16          12          12          12          12          12
 AtmWgt=  15.9949146  12.0000000  14.0030740  15.9949146  15.9949146  12.0000000  12.0000000  12.0000000  12.0000000  12.0000000
 NucSpn=           0           0           2           0           0           0           0           0           0           0
 AtZEff=  -0.0000000  -0.0000000  -0.0000000  -0.0000000  -0.0000000  -0.0000000  -0.0000000  -0.0000000  -0.0000000  -0.0000000
 NQMom=    0.0000000   0.0000000   2.0440000   0.0000000   0.0000000   0.0000000   0.0000000   0.0000000   0.0000000   0.0000000
 NMagM=    0.0000000   0.0000000   0.4037610   0.0000000   0.0000000   0.0000000   0.0000000   0.0000000   0.0000000   0.0000000
 AtZNuc=   8.0000000   6.0000000   7.0000000   8.0000000   8.0000000   6.0000000   6.0000000   6.0000000   6.0000000   6.0000000

  Atom        11          12          13          14          15          16          17          18          19          20
 IAtWgt=          12          12           1           1           1           1           1           1           1           1
 AtmWgt=  12.0000000  12.0000000   1.0078250   1.0078250   1.0078250   1.0078250   1.0078250   1.0078250   1.0078250   1.0078250
 NucSpn=           0           0           1           1           1           1           1           1           1           1
 AtZEff=  -0.0000000  -0.0000000  -0.0000000  -0.0000000  -0.0000000  -0.0000000  -0.0000000  -0.0000000  -0.0000000  -0.0000000
 NQMom=    0.0000000   0.0000000   0.0000000   0.0000000   0.0000000   0.0000000   0.0000000   0.0000000   0.0000000   0.0000000
 NMagM=    0.0000000   0.0000000   2.7928460   2.7928460   2.7928460   2.7928460   2.7928460   2.7928460   2.7928460   2.7928460
 AtZNuc=   6.0000000   6.0000000   1.0000000   1.0000000   1.0000000   1.0000000   1.0000000   1.0000000   1.0000000   1.0000000

  Atom        21          22
 IAtWgt=           1           1
 AtmWgt=   1.0078250   1.0078250
 NucSpn=           1           1
 AtZEff=  -0.0000000  -0.0000000
 NQMom=    0.0000000   0.0000000
 NMagM=    2.7928460   2.7928460
 AtZNuc=   1.0000000   1.0000000
 Leave Link  101 at Mon Oct 14 00:22:02 2019, MaxMem= 10737418240 cpu:               8.3 elap:               0.4
 (Enter /apps/cent7/gaussian/g16-A.03/g16-haswell/g16/l103.exe)

 GradGradGradGradGradGradGradGradGradGradGradGradGradGradGradGradGradGrad
 Berny optimization.
 Initialization pass.
                           ----------------------------
                           !    Initial Parameters    !
                           ! (Angstroms and Degrees)  !
 --------------------------                            --------------------------
 ! Name  Definition              Value          Derivative Info.                !
 --------------------------------------------------------------------------------
 ! R1    R(1,2)                  1.2536         estimate D2E/DX2                !
 ! R2    R(2,3)                  1.3477         estimate D2E/DX2                !
 ! R3    R(2,5)                  1.3612         estimate D2E/DX2                !
 ! R4    R(3,4)                  1.3043         estimate D2E/DX2                !
 ! R5    R(3,13)                 1.0            estimate D2E/DX2                !
 ! R6    R(3,22)                 1.0            estimate D2E/DX2                !
 ! R7    R(4,14)                 0.96           estimate D2E/DX2                !
 ! R8    R(5,6)                  1.432          estimate D2E/DX2                !
 ! R9    R(6,7)                  1.4825         estimate D2E/DX2                !
 ! R10   R(6,15)                 1.09           estimate D2E/DX2                !
 ! R11   R(6,16)                 1.0899         estimate D2E/DX2                !
 ! R12   R(7,8)                  1.4156         estimate D2E/DX2                !
 ! R13   R(7,12)                 1.415          estimate D2E/DX2                !
 ! R14   R(8,9)                  1.4071         estimate D2E/DX2                !
 ! R15   R(8,17)                 1.09           estimate D2E/DX2                !
 ! R16   R(9,10)                 1.406          estimate D2E/DX2                !
 ! R17   R(9,18)                 1.09           estimate D2E/DX2                !
 ! R18   R(10,11)                1.4058         estimate D2E/DX2                !
 ! R19   R(10,19)                1.09           estimate D2E/DX2                !
 ! R20   R(11,12)                1.4072         estimate D2E/DX2                !
 ! R21   R(11,20)                1.09           estimate D2E/DX2                !
 ! R22   R(12,21)                1.0901         estimate D2E/DX2                !
 ! A1    A(1,2,3)              121.1216         estimate D2E/DX2                !
 ! A2    A(1,2,5)              121.6074         estimate D2E/DX2                !
 ! A3    A(3,2,5)              117.2708         estimate D2E/DX2                !
 ! A4    A(2,3,4)              122.206          estimate D2E/DX2                !
 ! A5    A(2,3,13)             106.6656         estimate D2E/DX2                !
 ! A6    A(2,3,22)             106.6656         estimate D2E/DX2                !
 ! A7    A(4,3,13)             106.6656         estimate D2E/DX2                !
 ! A8    A(4,3,22)             106.6656         estimate D2E/DX2                !
 ! A9    A(13,3,22)            107.1931         estimate D2E/DX2                !
 ! A10   A(3,4,14)             109.474          estimate D2E/DX2                !
 ! A11   A(2,5,6)              126.7883         estimate D2E/DX2                !
 ! A12   A(5,6,7)              108.8566         estimate D2E/DX2                !
 ! A13   A(5,6,15)             106.3135         estimate D2E/DX2                !
 ! A14   A(5,6,16)             106.3191         estimate D2E/DX2                !
 ! A15   A(7,6,15)             107.4934         estimate D2E/DX2                !
 ! A16   A(7,6,16)             107.493          estimate D2E/DX2                !
 ! A17   A(15,6,16)            120.0022         estimate D2E/DX2                !
 ! A18   A(6,7,8)              119.9923         estimate D2E/DX2                !
 ! A19   A(6,7,12)             121.3872         estimate D2E/DX2                !
 ! A20   A(8,7,12)             118.6183         estimate D2E/DX2                !
 ! A21   A(7,8,9)              120.6926         estimate D2E/DX2                !
 ! A22   A(7,8,17)             119.9517         estimate D2E/DX2                !
 ! A23   A(9,8,17)             119.3556         estimate D2E/DX2                !
 ! A24   A(8,9,10)             120.0509         estimate D2E/DX2                !
 ! A25   A(8,9,18)             120.0153         estimate D2E/DX2                !
 ! A26   A(10,9,18)            119.9339         estimate D2E/DX2                !
 ! A27   A(9,10,11)            119.8773         estimate D2E/DX2                !
 ! A28   A(9,10,19)            120.0654         estimate D2E/DX2                !
 ! A29   A(11,10,19)           120.0572         estimate D2E/DX2                !
 ! A30   A(10,11,12)           120.0898         estimate D2E/DX2                !
 ! A31   A(10,11,20)           119.908          estimate D2E/DX2                !
 ! A32   A(12,11,20)           120.0022         estimate D2E/DX2                !
 ! A33   A(7,12,11)            120.6655         estimate D2E/DX2                !
 ! A34   A(7,12,21)            119.9399         estimate D2E/DX2                !
 ! A35   A(11,12,21)           119.3947         estimate D2E/DX2                !
 ! D1    D(1,2,3,4)             -2.2155         estimate D2E/DX2                !
 ! D2    D(1,2,3,13)           120.6287         estimate D2E/DX2                !
 ! D3    D(1,2,3,22)          -125.0596         estimate D2E/DX2                !
 ! D4    D(5,2,3,4)            177.5837         estimate D2E/DX2                !
 ! D5    D(5,2,3,13)           -59.5721         estimate D2E/DX2                !
 ! D6    D(5,2,3,22)            54.7395         estimate D2E/DX2                !
 ! D7    D(1,2,5,6)             -1.0173         estimate D2E/DX2                !
 ! D8    D(3,2,5,6)            179.1846         estimate D2E/DX2                !
 ! D9    D(2,3,4,14)           176.5074         estimate D2E/DX2                !
 ! D10   D(13,3,4,14)           53.6632         estimate D2E/DX2                !
 ! D11   D(22,3,4,14)          -60.6485         estimate D2E/DX2                !
 ! D12   D(2,5,6,7)           -179.9698         estimate D2E/DX2                !
 ! D13   D(2,5,6,15)           -64.4435         estimate D2E/DX2                !
 ! D14   D(2,5,6,16)            64.5013         estimate D2E/DX2                !
 ! D15   D(5,6,7,8)             60.86           estimate D2E/DX2                !
 ! D16   D(5,6,7,12)          -118.5923         estimate D2E/DX2                !
 ! D17   D(15,6,7,8)           -53.9025         estimate D2E/DX2                !
 ! D18   D(15,6,7,12)          126.6452         estimate D2E/DX2                !
 ! D19   D(16,6,7,8)           175.6287         estimate D2E/DX2                !
 ! D20   D(16,6,7,12)           -3.8235         estimate D2E/DX2                !
 ! D21   D(6,7,8,9)            179.8772         estimate D2E/DX2                !
 ! D22   D(6,7,8,17)            -0.1162         estimate D2E/DX2                !
 ! D23   D(12,7,8,9)            -0.6554         estimate D2E/DX2                !
 ! D24   D(12,7,8,17)          179.3511         estimate D2E/DX2                !
 ! D25   D(6,7,12,11)         -179.8679         estimate D2E/DX2                !
 ! D26   D(6,7,12,21)            0.1289         estimate D2E/DX2                !
 ! D27   D(8,7,12,11)            0.6725         estimate D2E/DX2                !
 ! D28   D(8,7,12,21)         -179.3307         estimate D2E/DX2                !
 ! D29   D(7,8,9,10)             0.0498         estimate D2E/DX2                !
 ! D30   D(7,8,9,18)          -179.959          estimate D2E/DX2                !
 ! D31   D(17,8,9,10)         -179.9567         estimate D2E/DX2                !
 ! D32   D(17,8,9,18)            0.0345         estimate D2E/DX2                !
 ! D33   D(8,9,10,11)            0.551          estimate D2E/DX2                !
 ! D34   D(8,9,10,19)         -179.4499         estimate D2E/DX2                !
 ! D35   D(18,9,10,11)        -179.4401         estimate D2E/DX2                !
 ! D36   D(18,9,10,19)           0.5589         estimate D2E/DX2                !
 ! D37   D(9,10,11,12)          -0.534          estimate D2E/DX2                !
 ! D38   D(9,10,11,20)         179.4653         estimate D2E/DX2                !
 ! D39   D(19,10,11,12)        179.4669         estimate D2E/DX2                !
 ! D40   D(19,10,11,20)         -0.5337         estimate D2E/DX2                !
 ! D41   D(10,11,12,7)          -0.0844         estimate D2E/DX2                !
 ! D42   D(10,11,12,21)        179.9188         estimate D2E/DX2                !
 ! D43   D(20,11,12,7)         179.9162         estimate D2E/DX2                !
 ! D44   D(20,11,12,21)         -0.0806         estimate D2E/DX2                !
 --------------------------------------------------------------------------------
 Trust Radius=3.00D-01 FncErr=1.00D-07 GrdErr=1.00D-06 EigMax=2.50D+02 EigMin=1.00D-04
 Number of steps in this run=    111 maximum allowed number of steps=    132.
 GradGradGradGradGradGradGradGradGradGradGradGradGradGradGradGradGradGrad

 Leave Link  103 at Mon Oct 14 00:22:02 2019, MaxMem= 10737418240 cpu:               0.3 elap:               0.0
 (Enter /apps/cent7/gaussian/g16-A.03/g16-haswell/g16/l202.exe)
                          Input orientation:                          
 ---------------------------------------------------------------------
 Center     Atomic      Atomic             Coordinates (Angstroms)
 Number     Number       Type             X           Y           Z
 ---------------------------------------------------------------------
      1          8           0        1.283300    1.448400   -0.300300
      2          6           0        0.926500    0.742400    0.672200
      3          7           0        1.248100    1.083500    1.935700
      4          8           0        1.975600    2.130900    2.209200
      5          8           0        0.204700   -0.398500    0.498700
      6          6           0       -0.258300   -0.939800   -0.743600
      7          6           0       -1.003600   -2.192300   -0.472400
      8          6           0       -2.165500   -2.163500    0.335700
      9          6           0       -2.885600   -3.343000    0.600500
     10          6           0       -2.453400   -4.567700    0.061900
     11          6           0       -1.294100   -4.613400   -0.732000
     12          6           0       -0.573400   -3.434100   -0.996800
     13          1           0        0.386437    1.195636    2.430637
     14          1           0        2.045900    2.232000    3.161300
     15          1           0       -0.967700   -0.217200   -1.147000
     16          1           0        0.632400   -1.205300   -1.312900
     17          1           0       -2.510300   -1.220400    0.759600
     18          1           0       -3.779200   -3.308000    1.223700
     19          1           0       -3.016100   -5.480100    0.259500
     20          1           0       -0.953700   -5.564000   -1.142600
     21          1           0        0.324700   -3.482800   -1.612700
     22          1           0        1.717811    0.295961    2.334641
 ---------------------------------------------------------------------
                    Distance matrix (angstroms):
                    1          2          3          4          5
     1  O    0.000000
     2  C    1.253594   0.000000
     3  N    2.265852   1.347668   0.000000
     4  O    2.691222   2.321834   1.304264   0.000000
     5  O    2.283160   1.361158   2.313002   3.529839   0.000000
     6  C    2.876898   2.497606   3.679896   4.810253   1.432021
     7  C    4.302816   3.694301   4.647576   5.895479   2.370811
     8  C    5.034336   4.256519   4.975507   6.253046   2.959669
     9  C    6.414724   5.588179   6.201946   7.495516   4.269707
    10  C    7.091373   6.324030   7.010584   8.312532   4.963720
    11  C    6.601119   5.965521   6.784841   8.051533   4.639656
    12  C    5.269844   4.741141   5.685607   6.909780   3.472294
    13  H    2.885527   1.894516   1.000000   1.857200   2.511310
    14  H    3.630188   3.109274   1.859471   0.960030   4.171209
    15  H    2.925427   2.796125   4.013057   5.043874   2.028724
    16  H    2.913958   2.796543   4.021330   5.033846   2.028731
    17  H    4.757865   3.958765   4.562536   5.784103   2.848651
    18  H    7.111598   6.233258   6.713119   7.979384   4.986208
    19  H    8.173269   7.377935   8.004617   9.308368   6.021082
    20  H    7.408603   6.826370   7.649386   8.889705   5.542395
    21  H    5.192113   4.840996   5.856185   6.988993   3.739695
    22  H    2.908579   1.894516   1.000000   1.857200   2.478398
                    6          7          8          9         10
     6  C    0.000000
     7  C    1.482490   0.000000
     8  C    2.509929   1.415580   0.000000
     9  C    3.805874   2.452988   1.407083   0.000000
    10  C    4.316127   2.833712   2.436807   1.405979   0.000000
    11  C    3.816851   2.452245   2.810931   2.433587   1.405824
    12  C    2.526842   1.414968   2.434084   2.811750   2.437272
    13  H    3.879633   4.673107   4.710089   5.886836   6.847746
    14  H    5.533344   6.486729   6.711209   7.871341   8.722723
    15  H    1.090014   2.087437   2.724189   4.062354   4.753482
    16  H    1.089926   2.087368   3.385893   4.539514   4.766337
    17  H    2.722104   2.175444   1.089961   2.161387   3.419713
    18  H    4.677112   3.438822   2.168514   1.090011   2.166649
    19  H    5.406107   3.923705   3.424786   2.168065   1.090023
    20  H    4.693187   3.438025   3.900927   3.421034   2.166226
    21  H    2.749922   2.174869   3.426063   3.901772   3.420400
    22  H    3.861047   4.634328   5.012466   6.118878   6.798496
                   11         12         13         14         15
    11  C    0.000000
    12  C    1.407223   0.000000
    13  H    6.824322   5.839783   0.000000
    14  H    8.554115   7.500348   2.088477   0.000000
    15  H    4.427791   3.244453   4.077901   5.800156   0.000000
    16  H    3.957776   2.553708   4.454106   5.816483   1.887905
    17  H    3.900828   3.425929   4.125612   6.200499   2.649745
    18  H    3.421192   3.901753   6.252356   8.269080   4.803935
    19  H    2.167839   3.425082   7.801060   9.670614   5.819992
    20  H    1.090002   2.168493   7.762516   9.396743   5.346820
    21  H    2.162037   1.090086   6.183862   7.642810   3.542784
    22  H    6.525160   5.501045   1.609716   2.130553   4.426864
                   16         17         18         19         20
    16  H    0.000000
    17  H    3.764578   0.000000
    18  H    5.506169   2.486678   0.000000
    19  H    5.835915   4.318678   2.496001   0.000000
    20  H    4.641442   4.990814   4.321153   2.495279   0.000000
    21  H    2.317664   4.333992   4.991765   4.319176   2.487307
    22  H    4.091021   4.759939   6.666322   7.751064   7.318969
                   21         22
    21  H    0.000000
    22  H    5.639263   0.000000
 Stoichiometry    C8H10NO3(1+)
 Framework group  C1[X(C8H10NO3)]
 Deg. of freedom    60
 Full point group                 C1      NOp   1
 Largest Abelian subgroup         C1      NOp   1
 Largest concise Abelian subgroup C1      NOp   1
                         Standard orientation:                         
 ---------------------------------------------------------------------
 Center     Atomic      Atomic             Coordinates (Angstroms)
 Number     Number       Type             X           Y           Z
 ---------------------------------------------------------------------
      1          8           0       -2.841058   -1.201481    0.675789
      2          6           0       -2.315986   -0.220263    0.098719
      3          7           0       -3.071763    0.733567   -0.480263
      4          8           0       -4.374002    0.666667   -0.508602
      5          8           0       -0.964582   -0.074640    0.026260
      6          6           0        0.023313   -0.950852    0.580338
      7          6           0        1.369365   -0.414324    0.267195
      8          6           0        1.749583    0.863999    0.741737
      9          6           0        3.024325    1.386457    0.455462
     10          6           0        3.936111    0.638533   -0.310067
     11          6           0        3.567609   -0.627117   -0.798614
     12          6           0        2.292720   -1.149883   -0.512871
     13          1           0       -2.838615    1.596101   -0.031178
     14          1           0       -4.726605    1.462283   -0.913973
     15          1           0       -0.102543   -0.908990    1.662252
     16          1           0       -0.080966   -1.900591    0.055876
     17          1           0        1.051412    1.453815    1.335615
     18          1           0        3.305797    2.371772    0.827016
     19          1           0        4.926894    1.039222   -0.524419
     20          1           0        4.270947   -1.203634   -1.399488
     21          1           0        2.018356   -2.131853   -0.898550
     22          1           0       -2.767437    0.803235   -1.430279
 ---------------------------------------------------------------------
 Rotational constants (GHZ):           2.7246940           0.3698399           0.3489760
 Leave Link  202 at Mon Oct 14 00:22:02 2019, MaxMem= 10737418240 cpu:               0.5 elap:               0.0
 (Enter /apps/cent7/gaussian/g16-A.03/g16-haswell/g16/l301.exe)
 Standard basis: 6-31G(d) (6D, 7F)
 Ernie: Thresh=  0.10000D-02 Tol=  0.10000D-05 Strict=F.
 There are   200 symmetry adapted cartesian basis functions of A   symmetry.
 There are   200 symmetry adapted basis functions of A   symmetry.
   200 basis functions,   376 primitive gaussians,   200 cartesian basis functions
    44 alpha electrons       44 beta electrons
       nuclear repulsion energy       669.1814964869 Hartrees.
 IExCor=  402 DFT=T Ex+Corr=B3LYP ExCW=0 ScaHFX=  0.200000
 ScaDFX=  0.800000  0.720000  1.000000  0.810000 ScalE2=  1.000000  1.000000
 IRadAn=      5 IRanWt=     -1 IRanGd=            0 ICorTp=0 IEmpDi=  4
 NAtoms=   22 NActive=   22 NUniq=   22 SFac= 1.00D+00 NAtFMM=   60 NAOKFM=F Big=F
 Integral buffers will be    131072 words long.
 Raffenetti 2 integral format.
 Two-electron integral symmetry is turned on.
 Leave Link  301 at Mon Oct 14 00:22:02 2019, MaxMem= 10737418240 cpu:               1.7 elap:               0.1
 (Enter /apps/cent7/gaussian/g16-A.03/g16-haswell/g16/l302.exe)
 NPDir=0 NMtPBC=     1 NCelOv=     1 NCel=       1 NClECP=     1 NCelD=      1
         NCelK=      1 NCelE2=     1 NClLst=     1 CellRange=     0.0.
 One-electron integrals computed using PRISM.
 One-electron integral symmetry used in STVInt
 NBasis=   200 RedAO= T EigKep=  5.09D-04  NBF=   200
 NBsUse=   200 1.00D-06 EigRej= -1.00D+00 NBFU=   200
 Precomputing XC quadrature grid using
 IXCGrd= 4 IRadAn=           5 IRanWt=          -1 IRanGd=           0 AccXCQ= 0.00D+00.
 Generated NRdTot=       0 NPtTot=           0 NUsed=           0 NTot=          32
 NSgBfM=   199   199   199   199   199 MxSgAt=    22 MxSgA2=    22.
 Leave Link  302 at Mon Oct 14 00:22:03 2019, MaxMem= 10737418240 cpu:               3.8 elap:               0.2
 (Enter /apps/cent7/gaussian/g16-A.03/g16-haswell/g16/l303.exe)
 DipDrv:  MaxL=1.
 Leave Link  303 at Mon Oct 14 00:22:03 2019, MaxMem= 10737418240 cpu:               0.9 elap:               0.1
 (Enter /apps/cent7/gaussian/g16-A.03/g16-haswell/g16/l401.exe)
 ExpMin= 1.61D-01 ExpMax= 5.48D+03 ExpMxC= 8.25D+02 IAcc=3 IRadAn=         5 AccDes= 0.00D+00
 Harris functional with IExCor=  402 and IRadAn=       5 diagonalized for initial guess.
 HarFok:  IExCor=  402 AccDes= 0.00D+00 IRadAn=         5 IDoV= 1 UseB2=F ITyADJ=14
 ICtDFT=  3500011 ScaDFX=  1.000000  1.000000  1.000000  1.000000
 FoFCou: FMM=F IPFlag=           0 FMFlag=      100000 FMFlg1=           0
         NFxFlg=           0 DoJE=T BraDBF=F KetDBF=T FulRan=T
         wScrn=  0.000000 ICntrl=       500 IOpCl=  0 I1Cent=   200000004 NGrid=           0
         NMat0=    1 NMatS0=      1 NMatT0=    0 NMatD0=    1 NMtDS0=    0 NMtDT0=    0
 Petite list used in FoFCou.
 Harris En= -590.985825166832    
 JPrj=0 DoOrth=F DoCkMO=F.
 Leave Link  401 at Mon Oct 14 00:22:03 2019, MaxMem= 10737418240 cpu:               8.4 elap:               0.4
 (Enter /apps/cent7/gaussian/g16-A.03/g16-haswell/g16/l502.exe)
 Integral symmetry usage will be decided dynamically.
 Closed shell SCF:
 Using DIIS extrapolation, IDIIS=  1040.
 NGot= 10737418240 LenX= 10737331118 LenY= 10737290677
 Requested convergence on RMS density matrix=1.00D-08 within 128 cycles.
 Requested convergence on MAX density matrix=1.00D-06.
 Requested convergence on             energy=1.00D-06.
 No special actions if energy rises.
 Fock matrices will be formed incrementally for  20 cycles.
 Integral accuracy reduced to 1.0D-05 until final iterations.

 Cycle   1  Pass 0  IDiag  1:
 FoFJK:  IHMeth= 1 ICntrl=       0 DoSepK=F KAlg= 0 I1Cent=           0 FoldK=F
 IRaf= 840000000 NMat=       1 IRICut=       1 DoRegI=T DoRafI=F ISym2E= 0 IDoP0=0 IntGTp=1.
 FoFCou: FMM=F IPFlag=           0 FMFlag=      100000 FMFlg1=           0
         NFxFlg=           0 DoJE=F BraDBF=F KetDBF=F FulRan=T
         wScrn=  0.000000 ICntrl=         0 IOpCl=  0 I1Cent=           0 NGrid=           0
         NMat0=    1 NMatS0=      1 NMatT0=    0 NMatD0=    1 NMtDS0=    0 NMtDT0=    0
 Symmetry not used in FoFCou.
 E= -590.566977448453    
 DIIS: error= 3.34D-02 at cycle   1 NSaved=   1.
 NSaved= 1 IEnMin= 1 EnMin= -590.566977448453     IErMin= 1 ErrMin= 3.34D-02
 ErrMax= 3.34D-02  0.00D+00 EMaxC= 1.00D-01 BMatC= 3.43D-01 BMatP= 3.43D-01
 IDIUse=3 WtCom= 6.66D-01 WtEn= 3.34D-01
 Coeff-Com:  0.100D+01
 Coeff-En:   0.100D+01
 Coeff:      0.100D+01
 Gap=     0.244 Goal=   None    Shift=    0.000
 GapD=    0.244 DampG=1.000 DampE=0.500 DampFc=0.5000 IDamp=-1.
 Damping current iteration by 5.00D-01
 RMSDP=2.06D-02 MaxDP=1.06D+00              OVMax= 9.76D-01

 Cycle   2  Pass 0  IDiag  1:
 RMSU=  1.03D-02    CP:  9.91D-01
 E= -590.191934434150     Delta-E=        0.375043014303 Rises=F Damp=T
 DIIS: error= 3.38D-02 at cycle   2 NSaved=   2.
 NSaved= 2 IEnMin= 1 EnMin= -590.566977448453     IErMin= 1 ErrMin= 3.34D-02
 ErrMax= 3.38D-02  0.00D+00 EMaxC= 1.00D-01 BMatC= 2.04D-01 BMatP= 3.43D-01
 IDIUse=3 WtCom= 6.62D-01 WtEn= 3.38D-01
 Coeff-Com:  0.421D+00 0.579D+00
 Coeff-En:   0.735D+00 0.265D+00
 Coeff:      0.527D+00 0.473D+00
 Gap=    -0.016 Goal=   None    Shift=    0.000
 RMSDP=9.79D-03 MaxDP=5.16D-01 DE= 3.75D-01 OVMax= 9.03D-01

 Cycle   3  Pass 0  IDiag  1:
 RMSU=  3.09D-03    CP:  9.77D-01  1.00D-01
 E= -590.848989079342     Delta-E=       -0.657054645192 Rises=F Damp=F
 DIIS: error= 1.47D-02 at cycle   3 NSaved=   3.
 NSaved= 3 IEnMin= 3 EnMin= -590.848989079342     IErMin= 3 ErrMin= 1.47D-02
 ErrMax= 1.47D-02  0.00D+00 EMaxC= 1.00D-01 BMatC= 4.60D-02 BMatP= 2.04D-01
 IDIUse=3 WtCom= 8.53D-01 WtEn= 1.47D-01
 Coeff-Com:  0.224D+00 0.262D+00 0.514D+00
 Coeff-En:   0.000D+00 0.000D+00 0.100D+01
 Coeff:      0.191D+00 0.223D+00 0.586D+00
 Gap=     0.170 Goal=   None    Shift=    0.000
 RMSDP=1.29D-03 MaxDP=3.73D-02 DE=-6.57D-01 OVMax= 4.88D-02

 Cycle   4  Pass 0  IDiag  1:
 RMSU=  1.13D-03    CP:  9.82D-01  9.88D-02  8.02D-01
 E= -590.880218541249     Delta-E=       -0.031229461907 Rises=F Damp=F
 DIIS: error= 5.50D-03 at cycle   4 NSaved=   4.
 NSaved= 4 IEnMin= 4 EnMin= -590.880218541249     IErMin= 4 ErrMin= 5.50D-03
 ErrMax= 5.50D-03  0.00D+00 EMaxC= 1.00D-01 BMatC= 1.08D-02 BMatP= 4.60D-02
 IDIUse=3 WtCom= 9.45D-01 WtEn= 5.50D-02
 Coeff-Com:  0.122D-01 0.101D+00 0.262D+00 0.625D+00
 Coeff-En:   0.000D+00 0.000D+00 0.917D-01 0.908D+00
 Coeff:      0.116D-01 0.954D-01 0.253D+00 0.640D+00
 Gap=     0.148 Goal=   None    Shift=    0.000
 RMSDP=5.32D-04 MaxDP=1.54D-02 DE=-3.12D-02 OVMax= 2.39D-02

 Cycle   5  Pass 0  IDiag  1:
 RMSU=  4.51D-04    CP:  9.83D-01  1.10D-01  8.65D-01  8.51D-01
 E= -590.887844320938     Delta-E=       -0.007625779689 Rises=F Damp=F
 DIIS: error= 2.44D-03 at cycle   5 NSaved=   5.
 NSaved= 5 IEnMin= 5 EnMin= -590.887844320938     IErMin= 5 ErrMin= 2.44D-03
 ErrMax= 2.44D-03  0.00D+00 EMaxC= 1.00D-01 BMatC= 1.71D-03 BMatP= 1.08D-02
 IDIUse=3 WtCom= 9.76D-01 WtEn= 2.44D-02
 Coeff-Com: -0.213D-01 0.425D-01 0.565D-01 0.362D+00 0.561D+00
 Coeff-En:   0.000D+00 0.000D+00 0.000D+00 0.474D-01 0.953D+00
 Coeff:     -0.208D-01 0.415D-01 0.552D-01 0.354D+00 0.570D+00
 Gap=     0.141 Goal=   None    Shift=    0.000
 RMSDP=2.41D-04 MaxDP=6.41D-03 DE=-7.63D-03 OVMax= 1.64D-02

 Cycle   6  Pass 0  IDiag  1:
 RMSU=  1.70D-04    CP:  9.82D-01  1.13D-01  8.71D-01  9.85D-01  8.51D-01
 E= -590.889397467874     Delta-E=       -0.001553146936 Rises=F Damp=F
 DIIS: error= 8.46D-04 at cycle   6 NSaved=   6.
 NSaved= 6 IEnMin= 6 EnMin= -590.889397467874     IErMin= 6 ErrMin= 8.46D-04
 ErrMax= 8.46D-04  0.00D+00 EMaxC= 1.00D-01 BMatC= 2.43D-04 BMatP= 1.71D-03
 IDIUse=3 WtCom= 9.92D-01 WtEn= 8.46D-03
 Coeff-Com: -0.174D-01 0.137D-01-0.272D-01 0.860D-01 0.302D+00 0.643D+00
 Coeff-En:   0.000D+00 0.000D+00 0.000D+00 0.000D+00 0.000D+00 0.100D+01
 Coeff:     -0.173D-01 0.136D-01-0.270D-01 0.852D-01 0.300D+00 0.646D+00
 Gap=     0.137 Goal=   None    Shift=    0.000
 RMSDP=1.01D-04 MaxDP=2.28D-03 DE=-1.55D-03 OVMax= 6.20D-03

 Cycle   7  Pass 0  IDiag  1:
 RMSU=  6.43D-05    CP:  9.82D-01  1.14D-01  8.74D-01  1.01D+00  9.91D-01
                    CP:  8.27D-01
 E= -590.889598839845     Delta-E=       -0.000201371971 Rises=F Damp=F
 DIIS: error= 4.77D-04 at cycle   7 NSaved=   7.
 NSaved= 7 IEnMin= 7 EnMin= -590.889598839845     IErMin= 7 ErrMin= 4.77D-04
 ErrMax= 4.77D-04  0.00D+00 EMaxC= 1.00D-01 BMatC= 5.23D-05 BMatP= 2.43D-04
 IDIUse=3 WtCom= 9.95D-01 WtEn= 4.77D-03
 Coeff-Com: -0.754D-02 0.807D-02-0.222D-01 0.729D-02 0.842D-01 0.358D+00
 Coeff-Com:  0.572D+00
 Coeff-En:   0.000D+00 0.000D+00 0.000D+00 0.000D+00 0.000D+00 0.000D+00
 Coeff-En:   0.100D+01
 Coeff:     -0.751D-02 0.803D-02-0.221D-01 0.725D-02 0.838D-01 0.356D+00
 Coeff:      0.574D+00
 Gap=     0.138 Goal=   None    Shift=    0.000
 RMSDP=3.86D-05 MaxDP=1.06D-03 DE=-2.01D-04 OVMax= 2.47D-03

 Cycle   8  Pass 0  IDiag  1:
 RMSU=  2.13D-05    CP:  9.82D-01  1.15D-01  8.75D-01  1.02D+00  9.85D-01
                    CP:  8.86D-01  5.70D-01
 E= -590.889644799212     Delta-E=       -0.000045959367 Rises=F Damp=F
 DIIS: error= 1.71D-04 at cycle   8 NSaved=   8.
 NSaved= 8 IEnMin= 8 EnMin= -590.889644799212     IErMin= 8 ErrMin= 1.71D-04
 ErrMax= 1.71D-04  0.00D+00 EMaxC= 1.00D-01 BMatC= 7.27D-06 BMatP= 5.23D-05
 IDIUse=3 WtCom= 9.98D-01 WtEn= 1.71D-03
 Coeff-Com: -0.261D-02 0.252D-02-0.117D-01-0.126D-01-0.627D-02 0.971D-01
 Coeff-Com:  0.342D+00 0.592D+00
 Coeff-En:   0.000D+00 0.000D+00 0.000D+00 0.000D+00 0.000D+00 0.000D+00
 Coeff-En:   0.000D+00 0.100D+01
 Coeff:     -0.260D-02 0.252D-02-0.117D-01-0.125D-01-0.625D-02 0.970D-01
 Coeff:      0.341D+00 0.593D+00
 Gap=     0.137 Goal=   None    Shift=    0.000
 RMSDP=1.90D-05 MaxDP=4.08D-04 DE=-4.60D-05 OVMax= 6.98D-04

 Cycle   9  Pass 0  IDiag  1:
 RMSU=  7.12D-06    CP:  9.83D-01  1.15D-01  8.76D-01  1.03D+00  1.00D+00
                    CP:  9.21D-01  6.86D-01  7.59D-01
 E= -590.889652775617     Delta-E=       -0.000007976404 Rises=F Damp=F
 DIIS: error= 6.41D-05 at cycle   9 NSaved=   9.
 NSaved= 9 IEnMin= 9 EnMin= -590.889652775617     IErMin= 9 ErrMin= 6.41D-05
 ErrMax= 6.41D-05  0.00D+00 EMaxC= 1.00D-01 BMatC= 9.07D-07 BMatP= 7.27D-06
 IDIUse=1 WtCom= 1.00D+00 WtEn= 0.00D+00
 Coeff-Com: -0.776D-03 0.973D-03-0.462D-02-0.840D-02-0.159D-01 0.104D-01
 Coeff-Com:  0.137D+00 0.304D+00 0.578D+00
 Coeff:     -0.776D-03 0.973D-03-0.462D-02-0.840D-02-0.159D-01 0.104D-01
 Coeff:      0.137D+00 0.304D+00 0.578D+00
 Gap=     0.137 Goal=   None    Shift=    0.000
 RMSDP=5.63D-06 MaxDP=1.38D-04 DE=-7.98D-06 OVMax= 2.97D-04

 Initial convergence to 1.0D-05 achieved.  Increase integral accuracy.
 Cycle  10  Pass 1  IDiag  1:
 E= -590.889664322475     Delta-E=       -0.000011546859 Rises=F Damp=F
 DIIS: error= 2.67D-05 at cycle   1 NSaved=   1.
 NSaved= 1 IEnMin= 1 EnMin= -590.889664322475     IErMin= 1 ErrMin= 2.67D-05
 ErrMax= 2.67D-05  0.00D+00 EMaxC= 1.00D-01 BMatC= 2.19D-07 BMatP= 2.19D-07
 IDIUse=1 WtCom= 1.00D+00 WtEn= 0.00D+00
 Coeff-Com:  0.100D+01
 Coeff:      0.100D+01
 Gap=     0.136 Goal=   None    Shift=    0.000
 RMSDP=5.63D-06 MaxDP=1.38D-04 DE=-1.15D-05 OVMax= 3.06D-04

 Cycle  11  Pass 1  IDiag  1:
 RMSU=  1.92D-05    CP:  1.00D+00
 E= -590.889664152644     Delta-E=        0.000000169832 Rises=F Damp=F
 DIIS: error= 3.78D-05 at cycle   2 NSaved=   2.
 NSaved= 2 IEnMin= 1 EnMin= -590.889664322475     IErMin= 1 ErrMin= 2.67D-05
 ErrMax= 3.78D-05  0.00D+00 EMaxC= 1.00D-01 BMatC= 4.17D-07 BMatP= 2.19D-07
 IDIUse=1 WtCom= 1.00D+00 WtEn= 0.00D+00
 Coeff-Com:  0.590D+00 0.410D+00
 Coeff:      0.590D+00 0.410D+00
 Gap=     0.136 Goal=   None    Shift=    0.000
 RMSDP=3.57D-06 MaxDP=8.80D-05 DE= 1.70D-07 OVMax= 2.47D-04

 Cycle  12  Pass 1  IDiag  1:
 RMSU=  3.48D-06    CP:  1.00D+00  9.58D-01
 E= -590.889664539565     Delta-E=       -0.000000386922 Rises=F Damp=F
 DIIS: error= 9.56D-06 at cycle   3 NSaved=   3.
 NSaved= 3 IEnMin= 3 EnMin= -590.889664539565     IErMin= 3 ErrMin= 9.56D-06
 ErrMax= 9.56D-06  0.00D+00 EMaxC= 1.00D-01 BMatC= 1.79D-08 BMatP= 2.19D-07
 IDIUse=1 WtCom= 1.00D+00 WtEn= 0.00D+00
 Coeff-Com:  0.117D+00 0.184D+00 0.700D+00
 Coeff:      0.117D+00 0.184D+00 0.700D+00
 Gap=     0.136 Goal=   None    Shift=    0.000
 RMSDP=1.02D-06 MaxDP=2.56D-05 DE=-3.87D-07 OVMax= 7.15D-05

 Cycle  13  Pass 1  IDiag  1:
 RMSU=  8.29D-07    CP:  1.00D+00  9.67D-01  8.36D-01
 E= -590.889664550963     Delta-E=       -0.000000011397 Rises=F Damp=F
 DIIS: error= 4.28D-06 at cycle   4 NSaved=   4.
 NSaved= 4 IEnMin= 4 EnMin= -590.889664550963     IErMin= 4 ErrMin= 4.28D-06
 ErrMax= 4.28D-06  0.00D+00 EMaxC= 1.00D-01 BMatC= 7.34D-09 BMatP= 1.79D-08
 IDIUse=1 WtCom= 1.00D+00 WtEn= 0.00D+00
 Coeff-Com:  0.999D-02 0.724D-01 0.458D+00 0.460D+00
 Coeff:      0.999D-02 0.724D-01 0.458D+00 0.460D+00
 Gap=     0.136 Goal=   None    Shift=    0.000
 RMSDP=4.47D-07 MaxDP=1.39D-05 DE=-1.14D-08 OVMax= 2.67D-05

 Cycle  14  Pass 1  IDiag  1:
 RMSU=  2.04D-07    CP:  1.00D+00  9.69D-01  8.73D-01  5.50D-01
 E= -590.889664557191     Delta-E=       -0.000000006228 Rises=F Damp=F
 DIIS: error= 1.84D-06 at cycle   5 NSaved=   5.
 NSaved= 5 IEnMin= 5 EnMin= -590.889664557191     IErMin= 5 ErrMin= 1.84D-06
 ErrMax= 1.84D-06  0.00D+00 EMaxC= 1.00D-01 BMatC= 7.99D-10 BMatP= 7.34D-09
 IDIUse=1 WtCom= 1.00D+00 WtEn= 0.00D+00
 Coeff-Com:  0.505D-03 0.410D-01 0.282D+00 0.318D+00 0.358D+00
 Coeff:      0.505D-03 0.410D-01 0.282D+00 0.318D+00 0.358D+00
 Gap=     0.136 Goal=   None    Shift=    0.000
 RMSDP=1.28D-07 MaxDP=6.45D-06 DE=-6.23D-09 OVMax= 9.10D-06

 Cycle  15  Pass 1  IDiag  1:
 RMSU=  6.57D-08    CP:  1.00D+00  9.69D-01  8.71D-01  5.59D-01  4.68D-01
 E= -590.889664557812     Delta-E=       -0.000000000621 Rises=F Damp=F
 DIIS: error= 3.31D-07 at cycle   6 NSaved=   6.
 NSaved= 6 IEnMin= 6 EnMin= -590.889664557812     IErMin= 6 ErrMin= 3.31D-07
 ErrMax= 3.31D-07  0.00D+00 EMaxC= 1.00D-01 BMatC= 2.48D-11 BMatP= 7.99D-10
 IDIUse=1 WtCom= 1.00D+00 WtEn= 0.00D+00
 Coeff-Com: -0.684D-03 0.155D-01 0.108D+00 0.122D+00 0.197D+00 0.559D+00
 Coeff:     -0.684D-03 0.155D-01 0.108D+00 0.122D+00 0.197D+00 0.559D+00
 Gap=     0.136 Goal=   None    Shift=    0.000
 RMSDP=2.89D-08 MaxDP=9.06D-07 DE=-6.21D-10 OVMax= 1.44D-06

 Cycle  16  Pass 1  IDiag  1:
 RMSU=  2.03D-08    CP:  1.00D+00  9.69D-01  8.68D-01  5.56D-01  5.06D-01
                    CP:  7.55D-01
 E= -590.889664557828     Delta-E=       -0.000000000016 Rises=F Damp=F
 DIIS: error= 1.09D-07 at cycle   7 NSaved=   7.
 NSaved= 7 IEnMin= 7 EnMin= -590.889664557828     IErMin= 7 ErrMin= 1.09D-07
 ErrMax= 1.09D-07  0.00D+00 EMaxC= 1.00D-01 BMatC= 3.72D-12 BMatP= 2.48D-11
 IDIUse=1 WtCom= 1.00D+00 WtEn= 0.00D+00
 Coeff-Com: -0.350D-03 0.447D-02 0.305D-01 0.336D-01 0.746D-01 0.332D+00
 Coeff-Com:  0.525D+00
 Coeff:     -0.350D-03 0.447D-02 0.305D-01 0.336D-01 0.746D-01 0.332D+00
 Coeff:      0.525D+00
 Gap=     0.136 Goal=   None    Shift=    0.000
 RMSDP=1.10D-08 MaxDP=3.81D-07 DE=-1.59D-11 OVMax= 9.19D-07

 Cycle  17  Pass 1  IDiag  1:
 RMSU=  6.42D-09    CP:  1.00D+00  9.69D-01  8.69D-01  5.53D-01  5.14D-01
                    CP:  7.82D-01  6.17D-01
 E= -590.889664557830     Delta-E=       -0.000000000002 Rises=F Damp=F
 DIIS: error= 3.82D-08 at cycle   8 NSaved=   8.
 NSaved= 8 IEnMin= 8 EnMin= -590.889664557830     IErMin= 8 ErrMin= 3.82D-08
 ErrMax= 3.82D-08  0.00D+00 EMaxC= 1.00D-01 BMatC= 2.14D-13 BMatP= 3.72D-12
 IDIUse=1 WtCom= 1.00D+00 WtEn= 0.00D+00
 Coeff-Com: -0.140D-03 0.834D-03 0.549D-02 0.581D-02 0.173D-01 0.102D+00
 Coeff-Com:  0.256D+00 0.613D+00
 Coeff:     -0.140D-03 0.834D-03 0.549D-02 0.581D-02 0.173D-01 0.102D+00
 Coeff:      0.256D+00 0.613D+00
 Gap=     0.136 Goal=   None    Shift=    0.000
 RMSDP=2.97D-09 MaxDP=7.49D-08 DE=-2.27D-12 OVMax= 2.65D-07

 SCF Done:  E(RB3LYP) =  -590.889664558     A.U. after   17 cycles
            NFock= 17  Conv=0.30D-08     -V/T= 2.0088
 KE= 5.857615950087D+02 PE=-2.702207776855D+03 EE= 8.563750208014D+02
 Leave Link  502 at Mon Oct 14 00:22:08 2019, MaxMem= 10737418240 cpu:             105.6 elap:               4.5
 (Enter /apps/cent7/gaussian/g16-A.03/g16-haswell/g16/l601.exe)
 Copying SCF densities to generalized density rwf, IOpCl= 0 IROHF=0.

 **********************************************************************

            Population analysis using the SCF density.

 **********************************************************************

 Orbital symmetries:
       Occupied  (A) (A) (A) (A) (A) (A) (A) (A) (A) (A) (A) (A)
                 (A) (A) (A) (A) (A) (A) (A) (A) (A) (A) (A) (A)
                 (A) (A) (A) (A) (A) (A) (A) (A) (A) (A) (A) (A)
                 (A) (A) (A) (A) (A) (A) (A) (A)
       Virtual   (A) (A) (A) (A) (A) (A) (A) (A) (A) (A) (A) (A)
                 (A) (A) (A) (A) (A) (A) (A) (A) (A) (A) (A) (A)
                 (A) (A) (A) (A) (A) (A) (A) (A) (A) (A) (A) (A)
                 (A) (A) (A) (A) (A) (A) (A) (A) (A) (A) (A) (A)
                 (A) (A) (A) (A) (A) (A) (A) (A) (A) (A) (A) (A)
                 (A) (A) (A) (A) (A) (A) (A) (A) (A) (A) (A) (A)
                 (A) (A) (A) (A) (A) (A) (A) (A) (A) (A) (A) (A)
                 (A) (A) (A) (A) (A) (A) (A) (A) (A) (A) (A) (A)
                 (A) (A) (A) (A) (A) (A) (A) (A) (A) (A) (A) (A)
                 (A) (A) (A) (A) (A) (A) (A) (A) (A) (A) (A) (A)
                 (A) (A) (A) (A) (A) (A) (A) (A) (A) (A) (A) (A)
                 (A) (A) (A) (A) (A) (A) (A) (A) (A) (A) (A) (A)
                 (A) (A) (A) (A) (A) (A) (A) (A) (A) (A) (A) (A)
 The electronic state is 1-A.
 Alpha  occ. eigenvalues --  -19.44876 -19.38679 -19.34280 -14.76207 -10.56563
 Alpha  occ. eigenvalues --  -10.39751 -10.31796 -10.30837 -10.30803 -10.30072
 Alpha  occ. eigenvalues --  -10.29952 -10.29891  -1.44719  -1.29723  -1.20406
 Alpha  occ. eigenvalues --   -1.17398  -0.97158  -0.92873  -0.90572  -0.89544
 Alpha  occ. eigenvalues --   -0.87494  -0.85121  -0.82136  -0.73368  -0.71495
 Alpha  occ. eigenvalues --   -0.69656  -0.65801  -0.65497  -0.63621  -0.61864
 Alpha  occ. eigenvalues --   -0.58974  -0.58556  -0.56019  -0.55380  -0.53922
 Alpha  occ. eigenvalues --   -0.52682  -0.51358  -0.48400  -0.47388  -0.46506
 Alpha  occ. eigenvalues --   -0.45515  -0.45024  -0.35998  -0.35709
 Alpha virt. eigenvalues --   -0.22074  -0.20128  -0.15591  -0.12191  -0.11581
 Alpha virt. eigenvalues --   -0.11133  -0.07753  -0.03550  -0.00717   0.00843
 Alpha virt. eigenvalues --    0.01724   0.03191   0.04752   0.05993   0.07134
 Alpha virt. eigenvalues --    0.08951   0.09623   0.10911   0.13546   0.18217
 Alpha virt. eigenvalues --    0.19560   0.19850   0.22020   0.22745   0.31691
 Alpha virt. eigenvalues --    0.33439   0.34987   0.36941   0.37166   0.40090
 Alpha virt. eigenvalues --    0.41125   0.42229   0.42806   0.44938   0.45414
 Alpha virt. eigenvalues --    0.48392   0.48619   0.49460   0.49995   0.50870
 Alpha virt. eigenvalues --    0.51044   0.51843   0.51943   0.55611   0.56289
 Alpha virt. eigenvalues --    0.56931   0.57796   0.58585   0.62785   0.63991
 Alpha virt. eigenvalues --    0.65663   0.66800   0.69865   0.71023   0.72497
 Alpha virt. eigenvalues --    0.72658   0.73078   0.74245   0.75451   0.76119
 Alpha virt. eigenvalues --    0.77494   0.81431   0.81791   0.83645   0.84277
 Alpha virt. eigenvalues --    0.85993   0.88473   0.93324   0.94009   0.97420
 Alpha virt. eigenvalues --    1.00022   1.01624   1.01896   1.04285   1.05555
 Alpha virt. eigenvalues --    1.05686   1.09492   1.14299   1.17664   1.19004
 Alpha virt. eigenvalues --    1.27745   1.30359   1.32089   1.32768   1.34697
 Alpha virt. eigenvalues --    1.36430   1.38130   1.38531   1.40226   1.44069
 Alpha virt. eigenvalues --    1.44742   1.47475   1.54835   1.61192   1.62049
 Alpha virt. eigenvalues --    1.65112   1.66921   1.67504   1.69130   1.72516
 Alpha virt. eigenvalues --    1.73516   1.75423   1.78306   1.80950   1.83261
 Alpha virt. eigenvalues --    1.84216   1.85845   1.88521   1.92044   1.92964
 Alpha virt. eigenvalues --    1.95483   1.96425   2.01432   2.01708   2.02879
 Alpha virt. eigenvalues --    2.04114   2.08213   2.09117   2.12866   2.16683
 Alpha virt. eigenvalues --    2.18773   2.20425   2.22387   2.26503   2.27379
 Alpha virt. eigenvalues --    2.32918   2.33476   2.42857   2.45383   2.45665
 Alpha virt. eigenvalues --    2.48657   2.52203   2.52882   2.59627   2.60049
 Alpha virt. eigenvalues --    2.61549   2.62807   2.65537   2.71176   2.75551
 Alpha virt. eigenvalues --    2.90787   2.97124   2.98134   3.26458   3.40056
 Alpha virt. eigenvalues --    3.73683   3.81576   3.96518   3.99831   4.00199
 Alpha virt. eigenvalues --    4.05678   4.09437   4.19615   4.23993   4.30239
 Alpha virt. eigenvalues --    4.57665
          Condensed to atoms (all electrons):
               1          2          3          4          5          6
     1  O    7.960056   0.545692  -0.075814   0.002141  -0.082379   0.004125
     2  C    0.545692   4.428082   0.120690  -0.042686   0.290315  -0.015047
     3  N   -0.075814   0.120690   6.678065   0.102629  -0.082858   0.001070
     4  O    0.002141  -0.042686   0.102629   8.168857   0.001058  -0.000013
     5  O   -0.082379   0.290315  -0.082858   0.001058   8.306175   0.118693
     6  C    0.004125  -0.015047   0.001070  -0.000013   0.118693   5.052311
     7  C    0.000446   0.005077  -0.000011   0.000000  -0.041973   0.352393
     8  C    0.000002   0.000276  -0.000035   0.000000   0.003266  -0.068176
     9  C    0.000000   0.000003   0.000000  -0.000000   0.000117   0.005216
    10  C    0.000000  -0.000000   0.000000  -0.000000   0.000009   0.000303
    11  C   -0.000000  -0.000000  -0.000000   0.000000  -0.000063   0.006528
    12  C   -0.000004  -0.000017  -0.000001   0.000000  -0.000232  -0.045403
    13  H   -0.000169  -0.023056   0.290000  -0.025367   0.006115  -0.000037
    14  H    0.000308   0.006519  -0.012265   0.236617  -0.000059   0.000000
    15  H    0.002682  -0.003183  -0.000081   0.000003  -0.039883   0.372215
    16  H    0.002959  -0.003938  -0.000013   0.000003  -0.031480   0.366809
    17  H    0.000003  -0.000000  -0.000004  -0.000000   0.002935  -0.007766
    18  H    0.000000  -0.000000  -0.000000  -0.000000  -0.000001  -0.000168
    19  H    0.000000   0.000000   0.000000   0.000000   0.000000   0.000006
    20  H    0.000000  -0.000000   0.000000  -0.000000   0.000000  -0.000166
    21  H    0.000001  -0.000004   0.000000  -0.000000   0.000043  -0.009685
    22  H    0.000223  -0.026047   0.291336  -0.027663   0.007549  -0.000064
               7          8          9         10         11         12
     1  O    0.000446   0.000002   0.000000   0.000000  -0.000000  -0.000004
     2  C    0.005077   0.000276   0.000003  -0.000000  -0.000000  -0.000017
     3  N   -0.000011  -0.000035   0.000000   0.000000  -0.000000  -0.000001
     4  O    0.000000   0.000000  -0.000000  -0.000000   0.000000   0.000000
     5  O   -0.041973   0.003266   0.000117   0.000009  -0.000063  -0.000232
     6  C    0.352393  -0.068176   0.005216   0.000303   0.006528  -0.045403
     7  C    4.748350   0.515041  -0.020025  -0.031899  -0.025266   0.549741
     8  C    0.515041   4.962194   0.535479  -0.036220  -0.042974  -0.035323
     9  C   -0.020025   0.535479   4.843379   0.540883  -0.027310  -0.041754
    10  C   -0.031899  -0.036220   0.540883   4.840593   0.545875  -0.036470
    11  C   -0.025266  -0.042974  -0.027310   0.545875   4.849439   0.528519
    12  C    0.549741  -0.035323  -0.041754  -0.036470   0.528519   4.929245
    13  H   -0.000027   0.000028   0.000000   0.000000  -0.000000   0.000000
    14  H   -0.000000  -0.000000   0.000000   0.000000   0.000000  -0.000000
    15  H   -0.036693  -0.004928  -0.000071   0.000027  -0.000203   0.001961
    16  H   -0.039081   0.006082  -0.000130   0.000003  -0.000022  -0.003707
    17  H   -0.057272   0.357725  -0.036257   0.004647   0.000338   0.004788
    18  H    0.003463  -0.038462   0.361160  -0.037508   0.004109   0.000724
    19  H    0.000638   0.004349  -0.038809   0.362220  -0.038566   0.004348
    20  H    0.003492   0.000762   0.004020  -0.037776   0.361300  -0.036260
    21  H   -0.044865   0.005119   0.000321   0.004293  -0.036305   0.355010
    22  H   -0.000032   0.000003  -0.000000  -0.000000   0.000000   0.000000
              13         14         15         16         17         18
     1  O   -0.000169   0.000308   0.002682   0.002959   0.000003   0.000000
     2  C   -0.023056   0.006519  -0.003183  -0.003938  -0.000000  -0.000000
     3  N    0.290000  -0.012265  -0.000081  -0.000013  -0.000004  -0.000000
     4  O   -0.025367   0.236617   0.000003   0.000003  -0.000000  -0.000000
     5  O    0.006115  -0.000059  -0.039883  -0.031480   0.002935  -0.000001
     6  C   -0.000037   0.000000   0.372215   0.366809  -0.007766  -0.000168
     7  C   -0.000027  -0.000000  -0.036693  -0.039081  -0.057272   0.003463
     8  C    0.000028  -0.000000  -0.004928   0.006082   0.357725  -0.038462
     9  C    0.000000   0.000000  -0.000071  -0.000130  -0.036257   0.361160
    10  C    0.000000   0.000000   0.000027   0.000003   0.004647  -0.037508
    11  C   -0.000000   0.000000  -0.000203  -0.000022   0.000338   0.004109
    12  C    0.000000  -0.000000   0.001961  -0.003707   0.004788   0.000724
    13  H    0.331698  -0.005382   0.000014   0.000024   0.000055  -0.000000
    14  H   -0.005382   0.300929  -0.000000  -0.000000   0.000000   0.000000
    15  H    0.000014  -0.000000   0.512794  -0.019614   0.002479  -0.000002
    16  H    0.000024  -0.000000  -0.019614   0.511781   0.000140   0.000003
    17  H    0.000055   0.000000   0.002479   0.000140   0.608829  -0.005098
    18  H   -0.000000   0.000000  -0.000002   0.000003  -0.005098   0.555301
    19  H   -0.000000  -0.000000  -0.000000  -0.000000  -0.000162  -0.004579
    20  H    0.000000   0.000000   0.000003  -0.000007   0.000014  -0.000157
    21  H   -0.000000   0.000000   0.000068   0.007951  -0.000154   0.000013
    22  H   -0.017467  -0.004408   0.000032   0.000007  -0.000000   0.000000
              19         20         21         22
     1  O    0.000000   0.000000   0.000001   0.000223
     2  C    0.000000  -0.000000  -0.000004  -0.026047
     3  N    0.000000   0.000000   0.000000   0.291336
     4  O    0.000000  -0.000000  -0.000000  -0.027663
     5  O    0.000000   0.000000   0.000043   0.007549
     6  C    0.000006  -0.000166  -0.009685  -0.000064
     7  C    0.000638   0.003492  -0.044865  -0.000032
     8  C    0.004349   0.000762   0.005119   0.000003
     9  C   -0.038809   0.004020   0.000321  -0.000000
    10  C    0.362220  -0.037776   0.004293  -0.000000
    11  C   -0.038566   0.361300  -0.036305   0.000000
    12  C    0.004348  -0.036260   0.355010   0.000000
    13  H   -0.000000   0.000000  -0.000000  -0.017467
    14  H   -0.000000   0.000000   0.000000  -0.004408
    15  H   -0.000000   0.000003   0.000068   0.000032
    16  H   -0.000000  -0.000007   0.007951   0.000007
    17  H   -0.000162   0.000014  -0.000154  -0.000000
    18  H   -0.004579  -0.000157   0.000013   0.000000
    19  H    0.546844  -0.004617  -0.000151  -0.000000
    20  H   -0.004617   0.546800  -0.004691   0.000000
    21  H   -0.000151  -0.004691   0.572201   0.000000
    22  H   -0.000000   0.000000   0.000000   0.331822
 Mulliken charges:
               1
     1  O   -0.360270
     2  C    0.717326
     3  N   -0.312708
     4  O   -0.415579
     5  O   -0.457348
     6  C   -0.133145
     7  C    0.118503
     8  C   -0.164209
     9  C   -0.126222
    10  C   -0.118979
    11  C   -0.125399
    12  C   -0.175165
    13  H    0.443571
    14  H    0.477743
    15  H    0.212382
    16  H    0.202231
    17  H    0.124761
    18  H    0.161203
    19  H    0.168480
    20  H    0.167280
    21  H    0.150834
    22  H    0.444709
 Sum of Mulliken charges =   1.00000
 Mulliken charges with hydrogens summed into heavy atoms:
               1
     1  O   -0.360270
     2  C    0.717326
     3  N    0.575572
     4  O    0.062164
     5  O   -0.457348
     6  C    0.281468
     7  C    0.118503
     8  C   -0.039448
     9  C    0.034982
    10  C    0.049501
    11  C    0.041881
    12  C   -0.024331
 Electronic spatial extent (au):  <R**2>=           3011.1643
 Charge=              1.0000 electrons
 Dipole moment (field-independent basis, Debye):
    X=             -8.7443    Y=              5.7715    Z=             -3.4954  Tot=             11.0449
 Quadrupole moment (field-independent basis, Debye-Ang):
   XX=            -15.0490   YY=            -54.3505   ZZ=            -61.8070
   XY=            -22.8916   XZ=             11.2796   YZ=             -0.1533
 Traceless Quadrupole moment (field-independent basis, Debye-Ang):
   XX=             28.6865   YY=            -10.6150   ZZ=            -18.0715
   XY=            -22.8916   XZ=             11.2796   YZ=             -0.1533
 Octapole moment (field-independent basis, Debye-Ang**2):
  XXX=           -136.5172  YYY=             18.2089  ZZZ=             -7.4166  XYY=            -34.5720
  XXY=            103.0630  XXZ=            -70.1374  XZZ=            -34.6070  YZZ=              5.2730
  YYZ=             -7.3510  XYZ=             20.4446
 Hexadecapole moment (field-independent basis, Debye-Ang**3):
 XXXX=          -2235.2156 YYYY=           -364.2620 ZZZZ=           -187.4238 XXXY=           -340.7773
 XXXZ=            146.1523 YYYX=            -68.4759 YYYZ=              1.3056 ZZZX=             32.2948
 ZZZY=            -13.5352 XXYY=           -436.4335 XXZZ=           -504.0453 YYZZ=            -90.7719
 XXYZ=            -37.0745 YYXZ=             31.5230 ZZXY=            -33.0542
 N-N= 6.691814964869D+02 E-N=-2.702207778614D+03  KE= 5.857615950087D+02
 No NMR shielding tensors so no spin-rotation constants.
 Leave Link  601 at Mon Oct 14 00:22:08 2019, MaxMem= 10737418240 cpu:               2.4 elap:               0.1
 (Enter /apps/cent7/gaussian/g16-A.03/g16-haswell/g16/l701.exe)
 ... and contract with generalized density number  0.
 Compute integral first derivatives.
 Leave Link  701 at Mon Oct 14 00:22:08 2019, MaxMem= 10737418240 cpu:               2.6 elap:               0.1
 (Enter /apps/cent7/gaussian/g16-A.03/g16-haswell/g16/l702.exe)
 L702 exits ... SP integral derivatives will be done elsewhere.
 Leave Link  702 at Mon Oct 14 00:22:08 2019, MaxMem= 10737418240 cpu:               0.5 elap:               0.0
 (Enter /apps/cent7/gaussian/g16-A.03/g16-haswell/g16/l703.exe)
 Integral derivatives from FoFJK, PRISM(SPDF).
 Compute integral first derivatives, UseDBF=F ICtDFT=           0.
 Calling FoFJK, ICntrl=      2127 FMM=F ISym2X=0 I1Cent= 0 IOpClX= 0 NMat=1 NMatS=1 NMatT=0.
 FoFJK:  IHMeth= 1 ICntrl=    2127 DoSepK=F KAlg= 0 I1Cent=           0 FoldK=F
 IRaf=         0 NMat=       1 IRICut=       1 DoRegI=T DoRafI=F ISym2E= 0 IDoP0=0 IntGTp=1.
 FoFCou: FMM=F IPFlag=           0 FMFlag=      100000 FMFlg1=         800
         NFxFlg=           0 DoJE=F BraDBF=F KetDBF=F FulRan=T
         wScrn=  0.000000 ICntrl=      2127 IOpCl=  0 I1Cent=           0 NGrid=           0
         NMat0=    1 NMatS0=      1 NMatT0=    0 NMatD0=    1 NMtDS0=    0 NMtDT0=    0
 Symmetry not used in FoFCou.
 Leave Link  703 at Mon Oct 14 00:22:09 2019, MaxMem= 10737418240 cpu:              23.7 elap:               1.0
 (Enter /apps/cent7/gaussian/g16-A.03/g16-haswell/g16/l716.exe)
 Dipole        =-3.44026458D+00 2.27067338D+00-1.37520469D+00
 ***** Axes restored to original set *****
 -------------------------------------------------------------------
 Center     Atomic                   Forces (Hartrees/Bohr)
 Number     Number              X              Y              Z
 -------------------------------------------------------------------
      1        8          -0.012721580   -0.029167395    0.067731733
      2        6          -0.018299757    0.002156706   -0.246243899
      3        7          -0.027314459   -0.051948920    0.103974145
      4        8           0.055626762    0.083514871   -0.033626291
      5        8           0.032961277    0.038442467    0.095557508
      6        6          -0.005049721   -0.009324727   -0.022003648
      7        6          -0.013661161   -0.025101884    0.014718236
      8        6          -0.000054730   -0.010022141   -0.003765160
      9        6           0.006873915    0.003524539   -0.003573100
     10        6           0.004972943    0.005266963   -0.001952751
     11        6          -0.003020844    0.007081999    0.001774909
     12        6          -0.004763038    0.002549859    0.005662251
     13        1          -0.033385917   -0.007962656    0.016468934
     14        1          -0.000382191   -0.000644984    0.016751254
     15        1           0.011324259    0.007390442   -0.011711895
     16        1          -0.002308883    0.013816317   -0.011856846
     17        1           0.000191333   -0.001020517   -0.001097819
     18        1           0.002257623    0.000467787   -0.001917767
     19        1           0.001692167    0.002461567   -0.000329368
     20        1          -0.000542701    0.003158689    0.000572010
     21        1          -0.001345053    0.000485264    0.000827659
     22        1           0.006949756   -0.035124245    0.014039906
 -------------------------------------------------------------------
 Cartesian Forces:  Max     0.246243899 RMS     0.040754896
 Leave Link  716 at Mon Oct 14 00:22:09 2019, MaxMem= 10737418240 cpu:               0.6 elap:               0.0
 (Enter /apps/cent7/gaussian/g16-A.03/g16-haswell/g16/l103.exe)

 GradGradGradGradGradGradGradGradGradGradGradGradGradGradGradGradGradGrad
 Berny optimization.
 FormGI is forming the generalized inverse of G from B-inverse, IUseBI=4.
 GSVD:  received Info=                   1 from GESDD.
 Internal  Forces:  Max     0.107540286 RMS     0.021348692
 Search for a local minimum.
 Step number   1 out of a maximum of  111
 All quantities printed in internal units (Hartrees-Bohrs-Radians)
 RMS Force = .21349D-01 SwitMx=.10000D-02 MixMth= 1
 Mixed Optimization -- RFO/linear search
 Second derivative matrix not updated -- first step.
 ITU=  0
     Eigenvalues ---    0.00998   0.01268   0.01530   0.01900   0.01935
     Eigenvalues ---    0.01945   0.01976   0.02001   0.02003   0.02007
     Eigenvalues ---    0.02011   0.02206   0.02339   0.02384   0.02561
     Eigenvalues ---    0.06035   0.07156   0.07773   0.08244   0.11216
     Eigenvalues ---    0.13081   0.13716   0.14828   0.16000   0.16000
     Eigenvalues ---    0.16000   0.16000   0.16000   0.16000   0.22000
     Eigenvalues ---    0.22000   0.22258   0.22599   0.23471   0.24999
     Eigenvalues ---    0.25000   0.25000   0.25000   0.34286   0.34803
     Eigenvalues ---    0.34810   0.34811   0.34811   0.34812   0.34817
     Eigenvalues ---    0.34821   0.40203   0.40276   0.40700   0.43469
     Eigenvalues ---    0.44036   0.44455   0.44619   0.47688   0.47688
     Eigenvalues ---    0.52714   0.55467   0.55521   0.66023   0.81923
 RFO step:  Lambda=-8.91191901D-02 EMin= 9.97565993D-03
 Linear search not attempted -- first point.
 Maximum step size (   0.300) exceeded in Quadratic search.
    -- Step size scaled by   0.676
 Iteration  1 RMS(Cart)=  0.03994761 RMS(Int)=  0.00131023
 Iteration  2 RMS(Cart)=  0.00302245 RMS(Int)=  0.00037499
 Iteration  3 RMS(Cart)=  0.00000406 RMS(Int)=  0.00037498
 Iteration  4 RMS(Cart)=  0.00000001 RMS(Int)=  0.00037498
 ITry= 1 IFail=0 DXMaxC= 1.51D-01 DCOld= 1.00D+10 DXMaxT= 3.00D-01 DXLimC= 3.00D+00 Rises=F
 Variable       Old X    -DE/DX   Delta X   Delta X   Delta X     New X
                                 (Linear)    (Quad)   (Total)
    R1        2.36895  -0.07259   0.00000  -0.05406  -0.05406   2.31489
    R2        2.54672   0.10754   0.00000   0.11291   0.11291   2.65963
    R3        2.57222  -0.05626   0.00000  -0.06175  -0.06175   2.51046
    R4        2.46470   0.09383   0.00000   0.08470   0.08470   2.54940
    R5        1.88973   0.03603   0.00000   0.04306   0.04306   1.93278
    R6        1.88973   0.03653   0.00000   0.04366   0.04366   1.93338
    R7        1.81419   0.01652   0.00000   0.01736   0.01736   1.83155
    R8        2.70613   0.03090   0.00000   0.04213   0.04213   2.74825
    R9        2.80150   0.01514   0.00000   0.02370   0.02370   2.82520
   R10        2.05983   0.00186   0.00000   0.00288   0.00288   2.06271
   R11        2.05966   0.00094   0.00000   0.00146   0.00146   2.06112
   R12        2.67506  -0.01044   0.00000  -0.01365  -0.01364   2.66142
   R13        2.67390  -0.01369   0.00000  -0.01786  -0.01786   2.65604
   R14        2.65900  -0.01382   0.00000  -0.01749  -0.01749   2.64151
   R15        2.05973  -0.00137   0.00000  -0.00212  -0.00212   2.05761
   R16        2.65692  -0.00808   0.00000  -0.01011  -0.01011   2.64681
   R17        2.05982  -0.00293   0.00000  -0.00454  -0.00454   2.05529
   R18        2.65662  -0.00984   0.00000  -0.01234  -0.01235   2.64427
   R19        2.05985  -0.00299   0.00000  -0.00463  -0.00463   2.05521
   R20        2.65927  -0.01187   0.00000  -0.01507  -0.01507   2.64419
   R21        2.05981  -0.00314   0.00000  -0.00486  -0.00486   2.05495
   R22        2.05996  -0.00160   0.00000  -0.00247  -0.00247   2.05749
    A1        2.11397   0.00512   0.00000   0.01022   0.01022   2.12419
    A2        2.12245   0.04819   0.00000   0.09613   0.09613   2.21858
    A3        2.04676  -0.05331   0.00000  -0.10635  -0.10635   1.94041
    A4        2.13290  -0.05680   0.00000  -0.12307  -0.12260   2.01030
    A5        1.86167   0.00922   0.00000   0.01374   0.01451   1.87618
    A6        1.86167   0.00953   0.00000   0.01452   0.01527   1.87693
    A7        1.86167   0.02485   0.00000   0.06021   0.05941   1.92107
    A8        1.86167   0.02444   0.00000   0.05892   0.05811   1.91978
    A9        1.87087  -0.00791   0.00000  -0.01711  -0.01850   1.85237
   A10        1.91068  -0.00524   0.00000  -0.01424  -0.01424   1.89644
   A11        2.21287  -0.03822   0.00000  -0.07624  -0.07624   2.13663
   A12        1.89991  -0.00909   0.00000  -0.01445  -0.01436   1.88554
   A13        1.85552   0.00076   0.00000   0.00099   0.00103   1.85655
   A14        1.85562   0.00161   0.00000   0.00327   0.00331   1.85893
   A15        1.87611   0.01195   0.00000   0.03602   0.03595   1.91206
   A16        1.87611   0.01029   0.00000   0.03084   0.03077   1.90688
   A17        2.09443  -0.01629   0.00000  -0.05670  -0.05700   2.03743
   A18        2.09426   0.00316   0.00000   0.00641   0.00640   2.10067
   A19        2.11861  -0.00582   0.00000  -0.01150  -0.01151   2.10709
   A20        2.07028   0.00267   0.00000   0.00513   0.00514   2.07542
   A21        2.10648  -0.00088   0.00000  -0.00195  -0.00195   2.10454
   A22        2.09355   0.00030   0.00000   0.00059   0.00058   2.09414
   A23        2.08315   0.00058   0.00000   0.00136   0.00136   2.08451
   A24        2.09528  -0.00077   0.00000  -0.00139  -0.00139   2.09389
   A25        2.09466  -0.00014   0.00000  -0.00073  -0.00073   2.09393
   A26        2.09324   0.00091   0.00000   0.00212   0.00212   2.09536
   A27        2.09225   0.00036   0.00000   0.00119   0.00118   2.09344
   A28        2.09554  -0.00018   0.00000  -0.00059  -0.00058   2.09495
   A29        2.09539  -0.00018   0.00000  -0.00060  -0.00060   2.09480
   A30        2.09596  -0.00037   0.00000  -0.00063  -0.00063   2.09533
   A31        2.09279   0.00101   0.00000   0.00255   0.00255   2.09534
   A32        2.09443  -0.00064   0.00000  -0.00192  -0.00192   2.09252
   A33        2.10601  -0.00101   0.00000  -0.00234  -0.00233   2.10368
   A34        2.09335   0.00010   0.00000   0.00006   0.00005   2.09340
   A35        2.08383   0.00092   0.00000   0.00228   0.00228   2.08611
    D1       -0.03867  -0.00018   0.00000  -0.00082  -0.00083  -0.03950
    D2        2.10537   0.00013   0.00000   0.00294   0.00328   2.10865
    D3       -2.18270  -0.00021   0.00000  -0.00350  -0.00384  -2.18654
    D4        3.09942  -0.00009   0.00000  -0.00040  -0.00041   3.09901
    D5       -1.03973   0.00022   0.00000   0.00336   0.00371  -1.03602
    D6        0.95538  -0.00012   0.00000  -0.00308  -0.00342   0.95197
    D7       -0.01776   0.00020   0.00000   0.00135   0.00135  -0.01640
    D8        3.12736   0.00021   0.00000   0.00112   0.00112   3.12848
    D9        3.08063   0.00001   0.00000   0.00022   0.00018   3.08082
   D10        0.93660   0.00695   0.00000   0.01801   0.02014   0.95674
   D11       -1.05852  -0.00687   0.00000  -0.01769  -0.01979  -1.07831
   D12       -3.14107  -0.00054   0.00000  -0.00192  -0.00192   3.14020
   D13       -1.12475   0.00932   0.00000   0.03346   0.03337  -1.09139
   D14        1.12576  -0.00892   0.00000  -0.03246  -0.03236   1.09340
   D15        1.06221   0.00127   0.00000   0.00883   0.00882   1.07103
   D16       -2.06983   0.00044   0.00000   0.00350   0.00351  -2.06631
   D17       -0.94078  -0.00126   0.00000  -0.00382  -0.00372  -0.94449
   D18        2.21038  -0.00208   0.00000  -0.00915  -0.00903   2.20135
   D19        3.06530   0.00394   0.00000   0.02145   0.02133   3.08663
   D20       -0.06673   0.00311   0.00000   0.01613   0.01602  -0.05071
   D21        3.13945  -0.00047   0.00000  -0.00316  -0.00319   3.13626
   D22       -0.00203  -0.00019   0.00000  -0.00141  -0.00144  -0.00346
   D23       -0.01144   0.00029   0.00000   0.00193   0.00194  -0.00950
   D24        3.13027   0.00057   0.00000   0.00368   0.00369   3.13396
   D25       -3.13929   0.00090   0.00000   0.00561   0.00559  -3.13369
   D26        0.00225   0.00040   0.00000   0.00253   0.00252   0.00477
   D27        0.01174   0.00007   0.00000   0.00035   0.00035   0.01209
   D28       -3.12991  -0.00042   0.00000  -0.00273  -0.00272  -3.13263
   D29        0.00087  -0.00028   0.00000  -0.00176  -0.00176  -0.00089
   D30       -3.14088   0.00009   0.00000   0.00057   0.00057  -3.14031
   D31       -3.14084  -0.00055   0.00000  -0.00349  -0.00350   3.13885
   D32        0.00060  -0.00018   0.00000  -0.00116  -0.00117  -0.00057
   D33        0.00962  -0.00013   0.00000  -0.00077  -0.00077   0.00885
   D34       -3.13199   0.00012   0.00000   0.00077   0.00077  -3.13122
   D35       -3.13182  -0.00050   0.00000  -0.00310  -0.00310  -3.13492
   D36        0.00975  -0.00025   0.00000  -0.00156  -0.00156   0.00819
   D37       -0.00932   0.00049   0.00000   0.00304   0.00304  -0.00628
   D38        3.13226   0.00035   0.00000   0.00215   0.00215   3.13441
   D39        3.13229   0.00024   0.00000   0.00150   0.00150   3.13379
   D40       -0.00932   0.00010   0.00000   0.00061   0.00061  -0.00870
   D41       -0.00147  -0.00045   0.00000  -0.00282  -0.00282  -0.00429
   D42        3.14018   0.00004   0.00000   0.00025   0.00024   3.14042
   D43        3.14013  -0.00031   0.00000  -0.00193  -0.00193   3.13820
   D44       -0.00141   0.00018   0.00000   0.00113   0.00113  -0.00028
         Item               Value     Threshold  Converged?
 Maximum Force            0.107540     0.000450     NO 
 RMS     Force            0.021349     0.000300     NO 
 Maximum Displacement     0.151374     0.001800     NO 
 RMS     Displacement     0.041070     0.001200     NO 
 Predicted change in Energy=-4.408470D-02
 Lowest energy point so far.  Saving SCF results.
 GradGradGradGradGradGradGradGradGradGradGradGradGradGradGradGradGradGrad

 Leave Link  103 at Mon Oct 14 00:22:09 2019, MaxMem= 10737418240 cpu:               1.4 elap:               0.1
 (Enter /apps/cent7/gaussian/g16-A.03/g16-haswell/g16/l202.exe)
                          Input orientation:                          
 ---------------------------------------------------------------------
 Center     Atomic      Atomic             Coordinates (Angstroms)
 Number     Number       Type             X           Y           Z
 ---------------------------------------------------------------------
      1          8           0        1.282070    1.439204   -0.301659
      2          6           0        0.913937    0.725680    0.623519
      3          7           0        1.221885    1.032530    1.962110
      4          8           0        1.984034    2.131668    2.138347
      5          8           0        0.207129   -0.395959    0.538645
      6          6           0       -0.256339   -0.931244   -0.731668
      7          6           0       -1.010422   -2.192187   -0.455074
      8          6           0       -2.172671   -2.166702    0.339916
      9          6           0       -2.884859   -3.341866    0.596240
     10          6           0       -2.444204   -4.558253    0.059596
     11          6           0       -1.285424   -4.597123   -0.723813
     12          6           0       -0.571252   -3.420896   -0.977459
     13          1           0        0.337430    1.134300    2.465569
     14          1           0        2.091356    2.285364    3.089259
     15          1           0       -0.933620   -0.185104   -1.151221
     16          1           0        0.636060   -1.166004   -1.313159
     17          1           0       -2.524527   -1.225521    0.759376
     18          1           0       -3.781829   -3.310602    1.210540
     19          1           0       -3.002950   -5.471603    0.250404
     20          1           0       -0.937991   -5.541618   -1.135794
     21          1           0        0.329852   -3.461226   -1.587232
     22          1           0        1.686882    0.215857    2.366537
 ---------------------------------------------------------------------
                    Distance matrix (angstroms):
                    1          2          3          4          5
     1  O    0.000000
     2  C    1.224986   0.000000
     3  N    2.300795   1.407415   0.000000
     4  O    2.631708   2.327361   1.349086   0.000000
     5  O    2.286794   1.328478   2.257558   3.479272   0.000000
     6  C    2.858431   2.439564   3.646642   4.757907   1.454313
     7  C    4.297214   3.657932   4.607035   5.864155   2.386701
     8  C    5.034819   4.239511   4.938584   6.244080   2.972957
     9  C    6.405321   5.565656   6.153559   7.486239   4.271074
    10  C    7.070014   6.286101   6.951017   8.287674   4.958200
    11  C    6.573239   5.914789   6.722632   8.009865   4.633713
    12  C    5.245195   4.686470   5.629335   6.860662   3.471986
    13  H    2.939875   1.972937   1.022785   1.952721   2.464084
    14  H    3.587375   3.146237   1.896322   0.969214   4.152763
    15  H    2.875658   2.718951   3.977646   4.970049   2.049735
    16  H    2.868373   2.721470   3.987998   4.960298   2.050884
    17  H    4.766207   3.955841   4.536625   5.787866   2.863362
    18  H    7.105665   6.219838   6.668195   7.982750   4.985818
    19  H    8.150179   7.340813   7.942476   9.286768   6.012475
    20  H    7.372673   6.767853   7.581655   8.839544   5.531080
    21  H    5.154961   4.770613   5.795463   6.920745   3.732328
    22  H    2.963059   1.973695   1.023102   1.952102   2.430056
                    6          7          8          9         10
     6  C    0.000000
     7  C    1.495033   0.000000
     8  C    2.519321   1.408361   0.000000
     9  C    3.805727   2.437322   1.397828   0.000000
    10  C    4.309066   2.814051   2.423185   1.400629   0.000000
    11  C    3.807591   2.435480   2.797441   2.424130   1.399290
    12  C    2.521498   1.405518   2.423431   2.799205   2.424255
    13  H    3.852449   4.627351   4.660003   5.823538   6.777268
    14  H    5.518852   6.498599   6.749942   7.914770   8.751301
    15  H    1.091540   2.125771   2.772268   4.101964   4.782508
    16  H    1.090696   2.121383   3.409255   4.558185   4.783287
    17  H    2.730291   2.168374   1.088839   2.152990   3.406354
    18  H    4.675746   3.421377   2.157750   1.087610   2.161144
    19  H    5.396592   3.901594   3.408775   2.160863   1.087572
    20  H    4.677982   3.418671   3.884869   3.410154   2.159778
    21  H    2.734304   2.165312   3.413548   3.887951   3.407476
    22  H    3.832860   4.586459   4.967889   6.057405   6.721605
                   11         12         13         14         15
    11  C    0.000000
    12  C    1.399246   0.000000
    13  H    6.756851   5.781864   0.000000
    14  H    8.562173   7.495938   2.188651   0.000000
    15  H    4.446612   3.260652   4.054327   5.765013   0.000000
    16  H    3.976432   2.579697   4.433888   5.780235   1.858032
    17  H    3.886249   3.413436   4.082971   6.249884   2.695151
    18  H    3.410117   3.886812   6.188744   8.326989   4.843445
    19  H    2.159563   3.409722   7.726775   9.704721   5.847543
    20  H    1.087432   2.158015   7.691840   9.396258   5.356538
    21  H    2.155196   1.088778   6.127325   7.615495   3.538282
    22  H    6.445901   5.432075   1.635348   2.229078   4.404817
                   16         17         18         19         20
    16  H    0.000000
    17  H    3.779980   0.000000
    18  H    5.521422   2.476272   0.000000
    19  H    5.850240   4.303156   2.489666   0.000000
    20  H    4.653503   4.973677   4.309307   2.488072   0.000000
    21  H    2.331721   4.318845   4.975553   4.304194   2.477751
    22  H    4.068651   4.732494   6.609012   7.669403   7.232205
                   21         22
    21  H    0.000000
    22  H    5.567293   0.000000
 Stoichiometry    C8H10NO3(1+)
 Framework group  C1[X(C8H10NO3)]
 Deg. of freedom    60
 Full point group                 C1      NOp   1
 RotChk:  IX=0 Diff= 9.02D-03
 Largest Abelian subgroup         C1      NOp   1
 Largest concise Abelian subgroup C1      NOp   1
                         Standard orientation:                         
 ---------------------------------------------------------------------
 Center     Atomic      Atomic             Coordinates (Angstroms)
 Number     Number       Type             X           Y           Z
 ---------------------------------------------------------------------
      1          8           0       -2.841453   -1.186186    0.674942
      2          6           0       -2.287763   -0.245690    0.118627
      3          7           0       -3.021371    0.779121   -0.507790
      4          8           0       -4.360920    0.620122   -0.488827
      5          8           0       -0.980516   -0.036429    0.008307
      6          6           0        0.004760   -0.938788    0.582769
      7          6           0        1.363817   -0.401536    0.267418
      8          6           0        1.755902    0.865484    0.741137
      9          6           0        3.027744    1.369598    0.454413
     10          6           0        3.924806    0.612155   -0.309342
     11          6           0        3.542710   -0.643930   -0.793353
     12          6           0        2.268321   -1.146644   -0.508577
     13          1           0       -2.766102    1.660414   -0.055850
     14          1           0       -4.771437    1.399555   -0.892977
     15          1           0       -0.153823   -0.920399    1.662571
     16          1           0       -0.126858   -1.899678    0.083785
     17          1           0        1.066448    1.460632    1.337814
     18          1           0        3.320649    2.348792    0.826277
     19          1           0        4.918035    0.999270   -0.524866
     20          1           0        4.235381   -1.230607   -1.392123
     21          1           0        1.979610   -2.124523   -0.890464
     22          1           0       -2.690976    0.848753   -1.473569
 ---------------------------------------------------------------------
 Rotational constants (GHZ):           2.7492983           0.3731534           0.3523390
 Leave Link  202 at Mon Oct 14 00:22:09 2019, MaxMem= 10737418240 cpu:               0.8 elap:               0.1
 (Enter /apps/cent7/gaussian/g16-A.03/g16-haswell/g16/l301.exe)
 Standard basis: 6-31G(d) (6D, 7F)
 Ernie: Thresh=  0.10000D-02 Tol=  0.10000D-05 Strict=F.
 There are   200 symmetry adapted cartesian basis functions of A   symmetry.
 There are   200 symmetry adapted basis functions of A   symmetry.
   200 basis functions,   376 primitive gaussians,   200 cartesian basis functions
    44 alpha electrons       44 beta electrons
       nuclear repulsion energy       670.0204866984 Hartrees.
 IExCor=  402 DFT=T Ex+Corr=B3LYP ExCW=0 ScaHFX=  0.200000
 ScaDFX=  0.800000  0.720000  1.000000  0.810000 ScalE2=  1.000000  1.000000
 IRadAn=      5 IRanWt=     -1 IRanGd=            0 ICorTp=0 IEmpDi=  4
 NAtoms=   22 NActive=   22 NUniq=   22 SFac= 1.00D+00 NAtFMM=   60 NAOKFM=F Big=F
 Integral buffers will be    131072 words long.
 Raffenetti 2 integral format.
 Two-electron integral symmetry is turned on.
 Leave Link  301 at Mon Oct 14 00:22:09 2019, MaxMem= 10737418240 cpu:               1.3 elap:               0.1
 (Enter /apps/cent7/gaussian/g16-A.03/g16-haswell/g16/l302.exe)
 NPDir=0 NMtPBC=     1 NCelOv=     1 NCel=       1 NClECP=     1 NCelD=      1
         NCelK=      1 NCelE2=     1 NClLst=     1 CellRange=     0.0.
 One-electron integrals computed using PRISM.
 One-electron integral symmetry used in STVInt
 NBasis=   200 RedAO= T EigKep=  4.85D-04  NBF=   200
 NBsUse=   200 1.00D-06 EigRej= -1.00D+00 NBFU=   200
 Precomputing XC quadrature grid using
 IXCGrd= 4 IRadAn=           5 IRanWt=          -1 IRanGd=           0 AccXCQ= 0.00D+00.
 Generated NRdTot=       0 NPtTot=           0 NUsed=           0 NTot=          32
 NSgBfM=   199   199   199   199   199 MxSgAt=    22 MxSgA2=    22.
[...]
 46185,0.00100146,-0.00422356,0.00602550,0.00091676,0.04127728,-0.04100
 682,-0.07708244,0.01165978,-0.01036663,0.00521366,-0.00219301,0.000744
 52,-0.00648756,0.01218515,0.01043406,0.00186244,0.03831790,0.04693524,
 -0.07724821,-0.20387228,-0.01423482,0.21340800,-0.00265131,0.00192366,
 -0.00479694,0.01726123,0.00109742,0.00002620,-0.24474785,0.02492252,0.
 15790639,-0.01317442,-0.01307924,0.00646158,-0.00317932,-0.00204026,-0
 .00122735,0.00047653,0.00052428,0.00076219,-0.00008064,-0.00011451,-0.
 00004670,0.00014369,-0.00013307,0.00000233,-0.00001942,-0.00000746,0.0
 0003786,0.00001336,-0.00003114,-0.00000646,-0.00006897,-0.00001827,0.0
 0003139,-0.00005780,0.00007114,0.00000195,0.25989161,-0.00004867,-0.00
 114774,0.00020845,0.00238122,0.00345643,0.00158055,0.02434905,-0.06386
 628,-0.01792490,-0.03325854,-0.01042897,0.02176540,-0.00108806,-0.0008
 0756,0.00002795,-0.00019985,-0.00023314,-0.00019836,0.00002274,0.00001
 498,-0.00002769,-0.00003514,0.00003583,0.00004342,-0.00001510,-0.00001
 524,0.00002083,-0.00001393,-0.00001289,0.00000620,0.00001724,-0.000008
 38,0.00000156,0.00003663,-0.00003444,0.00000202,-0.01368029,0.06803938
 ,-0.00306902,0.00104086,-0.00261496,0.01926068,-0.00050392,-0.01555111
 ,0.18076286,-0.01738331,-0.20350757,-0.00778930,0.00055282,0.00679116,
 -0.00087534,0.00061059,0.00270834,-0.00206977,-0.00083434,-0.00101256,
 0.00012672,0.00022230,-0.00004228,-0.00014670,-0.00000299,0.00005238,-
 0.00003498,0.00011237,0.00000090,0.00003555,-0.00000058,-0.00001850,0.
 00004338,0.00000542,-0.00003485,0.00012281,-0.00008152,-0.00003174,-0.
 17544872,0.01524474,0.20277403,0.00047178,0.00046141,0.00092877,-0.001
 86426,-0.00328172,0.00107489,-0.01564139,-0.00380341,-0.02393074,-0.06
 511987,-0.03609942,-0.12963450,-0.00022796,-0.00018055,-0.00103171,0.0
 0008585,-0.00017181,-0.00000744,-0.00003870,-0.00004190,-0.00001491,0.
 00001877,-0.00000773,0.00000351,-0.00000951,0.00000932,0.00001737,0.00
 000687,-0.00000446,-0.00000346,-0.00001038,-0.00000977,0.00001122,0.00
 003161,0.00002018,-0.00001981,-0.00091144,-0.00065622,-0.00187169,0.08
 054587,0.00129974,0.00154628,0.00062571,-0.00209736,-0.00620176,0.0045
 5574,-0.02225998,-0.01717983,-0.04415463,-0.01714505,-0.03400242,0.015
 23189,-0.00145851,-0.00063590,-0.00260269,0.00016594,0.00018874,0.0004
 3429,-0.00010503,-0.00017575,-0.00003466,0.00005807,0.00002762,-0.0000
 2655,0.00001159,-0.00004693,0.00001589,-0.00000830,-0.00000267,0.00000
 269,-0.00001296,-0.00001952,0.00002896,-0.00004157,0.00006041,0.000021
 17,-0.00046686,0.00189989,0.00002918,0.04289540,0.05508627,-0.00055177
 ,-0.00185825,0.00149254,-0.00068970,0.00197953,-0.00556135,0.01127456,
 0.01094934,0.00764410,-0.16634772,-0.04226211,-0.42287211,0.00141162,0
 .00118810,0.00229085,-0.00065391,-0.00055508,-0.00074683,0.00012918,0.
 00020473,0.00002669,-0.00011643,0.00003977,0.00004563,-0.00002642,0.00
 005977,-0.00000199,0.00000117,0.00000993,-0.00000192,0.00006594,0.0000
 1421,-0.00003314,0.00008284,-0.00008504,-0.00002043,0.00056063,0.00166
 202,0.00219744,0.15382755,0.02838798,0.41462562,0.00012693,-0.00126771
 ,0.00203739,0.00091993,0.00545213,-0.00362617,-0.00001986,-0.00048554,
 0.00011975,-0.00007636,-0.00009432,-0.00025919,-0.01216688,0.00104290,
 -0.01026980,-0.16814251,0.13516073,-0.02590164,0.01210557,-0.01165541,
 0.00407654,0.00091966,-0.00143061,-0.00058448,0.00025147,0.00025493,0.
 00014577,0.00028903,-0.00020261,0.00005554,-0.00008141,-0.00072293,-0.
 00054882,-0.00129865,-0.00146554,0.00131178,-0.00003426,0.00003842,0.0
 0003821,-0.00002189,-0.00004875,0.00003781,0.17861149,0.00041073,-0.00
 093617,0.00104778,-0.00027237,0.00531853,-0.00189349,0.00043943,-0.000
 53583,-0.00049207,-0.00008585,-0.00010472,-0.00022785,-0.01283147,0.00
 484057,-0.00721816,0.13921875,-0.21021919,0.04079251,0.01771597,-0.019
 74503,0.00297449,0.00186936,0.00144498,-0.00183685,-0.00022846,-0.0002
 4236,-0.00010887,-0.00003943,0.00012066,0.00010139,0.00063864,-0.00065
 952,-0.00101991,-0.00331381,-0.00287624,0.00295629,-0.00008615,0.00001
 846,-0.00007041,0.00001027,-0.00002143,0.00006387,-0.14145241,0.221788
 88,-0.00045982,-0.00156173,0.00104384,0.00161445,0.00753583,-0.0006511
 0,0.00002315,-0.00086482,-0.00082384,-0.00017554,-0.00024389,-0.000524
 33,-0.02924927,0.00788229,-0.02120467,-0.01928204,0.03678506,-0.054861
 73,-0.00383657,0.00330745,0.00300211,-0.00068416,-0.00013629,-0.000494
 51,0.00012529,-0.00019319,0.00009118,0.00013511,-0.00022149,-0.0000271
 2,-0.00097080,-0.00008712,-0.00011111,0.00120356,0.00080462,0.00106962
 ,-0.00018290,0.00009680,-0.00000754,-0.00000360,-0.00006878,0.00011201
 ,0.03722796,-0.03678651,0.06451450,-0.00058378,-0.00066896,0.00076216,
 0.00437138,0.00344861,-0.00193952,-0.00103486,0.00015220,-0.00028903,-
 0.00026521,-0.00009938,-0.00032513,0.00692305,-0.00798576,-0.02227566,
 -0.20682083,0.01254764,0.14845242,-0.00886026,-0.00021329,0.00816185,0
 .00073380,-0.00252543,0.00153791,-0.00055475,0.00005097,-0.00042953,0.
 00009560,-0.00003700,-0.00001666,-0.00027039,-0.00035104,-0.00007385,0
 .00022508,0.00190507,-0.00126635,-0.00006834,0.00002438,0.00030788,0.0
 0000449,-0.00003391,0.00009581,-0.01132919,-0.00090158,0.01406590,0.21
 630664,-0.00009345,-0.00080501,0.00208842,0.00216290,0.00394564,-0.004
 53957,-0.00038203,-0.00008839,0.00030895,-0.00011968,-0.00002883,-0.00
 017341,0.00102969,-0.00408470,-0.00941465,0.00928914,-0.05492553,-0.00
 246690,-0.02208059,0.00297985,0.01946735,0.00008215,-0.00481974,0.0011
 7961,-0.00140188,0.00020480,-0.00025318,-0.00003202,0.00008225,0.00017
 959,0.00009174,0.00008576,0.00000448,-0.00161256,0.00175575,-0.0000531
 6,0.00003997,-0.00000395,0.00016584,-0.00001089,-0.00003416,0.00003293
 ,0.01684170,0.00149458,-0.01623857,-0.00457497,0.05491071,-0.00038925,
 -0.00164295,0.00161121,0.00431012,0.00596362,-0.00273290,-0.00079900,-
 0.00039979,-0.00015422,-0.00034904,-0.00010011,-0.00044819,0.00398070,
 -0.01151755,-0.03157364,0.14036076,-0.00094600,-0.17153099,0.00450165,
 -0.00129502,0.00126228,0.00044275,0.00120327,0.00098893,0.00015301,-0.
 00091015,-0.00050116,-0.00036012,0.00003614,0.00020374,0.00000651,0.00
 019993,0.00028255,-0.00081459,-0.00112629,-0.00010719,0.00000727,0.000
 09325,0.00035469,-0.00002015,-0.00007872,0.00009401,-0.00401044,0.0004
 5608,0.00838600,-0.14692817,0.00976798,0.19383437,0.00007938,0.0001322
 9,-0.00002010,-0.00039779,-0.00044113,-0.00017121,-0.00006484,-0.00005
 396,0.00001847,0.00003073,0.00000443,0.00000835,-0.00007571,-0.0003210
 1,-0.00032759,0.00067163,0.00204874,-0.00159538,-0.01071418,0.02610985
 ,0.00399166,-0.13024020,0.11999321,0.03073738,0.01152002,-0.01317192,-
 0.00258943,-0.00015986,-0.00278636,0.00274004,-0.00042173,-0.00063777,
 0.00000794,-0.00400060,-0.00223598,0.00368618,-0.00004927,-0.00001542,
 -0.00003794,-0.00002662,-0.00001127,-0.00001598,-0.00017973,-0.0009429
 8,0.00036040,0.00044965,-0.00004079,0.00014349,0.13338668,0.00003614,0
 .00003320,0.00002255,-0.00007978,-0.00008220,-0.00008338,0.00005359,0.
 00002393,0.00006157,0.00000962,0.00001626,0.00003658,0.00019184,0.0003
 5267,0.00029507,-0.00115309,0.00057049,-0.00016151,-0.00216097,0.00349
 233,0.00081163,0.11960437,-0.25845730,-0.03633864,0.01656295,-0.018959
 87,-0.00552093,-0.00389631,-0.00329029,0.00173770,-0.00072077,0.000110
 18,0.00025407,-0.00085948,0.00136082,0.00062888,0.00003028,0.00001014,
 -0.00001328,0.00000712,0.00000004,-0.00000989,0.00030551,0.00046714,-0
 .00006909,0.00001727,0.00012453,-0.00006936,-0.12868758,0.27392631,-0.
 00003044,0.00002054,-0.00002844,0.00006598,0.00007837,0.00000312,-0.00
 008313,-0.00008006,-0.00008392,-0.00000493,-0.00000864,-0.00004924,-0.
 00067980,-0.00063142,-0.00041410,-0.00101321,-0.00119126,-0.00240988,0
 .00554512,-0.00924472,0.00068608,0.02991390,-0.03584072,-0.04589092,-0
 .00339899,0.00528980,0.00466982,0.00289506,0.00125141,0.00636058,-0.00
 000443,0.00026228,-0.00045772,0.00386917,0.00080834,0.00430697,-0.0000
 5688,-0.00002000,0.00001002,-0.00001562,-0.00001153,0.00000727,-0.0000
 1126,0.00072687,-0.00002328,0.00004582,0.00025597,0.00011170,-0.035311
 95,0.03888494,0.03688394,-0.00003324,-0.00006114,-0.00001997,0.0001299
 2,0.00020934,0.00011000,-0.00002980,-0.00001775,-0.00005769,-0.0000120
 3,-0.00001395,-0.00003464,-0.00018385,-0.00019499,-0.00016190,-0.00020
 336,0.00036114,0.00054521,0.00199254,-0.00220783,0.00195058,-0.0082373
 7,0.00131599,0.00392174,-0.30878540,-0.00931055,0.09900759,-0.01008483
 ,-0.00249538,0.00493177,0.00108235,0.00286578,0.00204619,0.00058676,0.
 00024854,-0.00035030,-0.00001970,-0.00000409,0.00001897,-0.00000218,0.
 00000050,0.00001307,-0.00002459,-0.00000401,-0.00003040,-0.00012343,-0
 .00018613,-0.00004850,0.00028082,-0.00017007,-0.00155080,0.32412100,-0
 .00003113,-0.00005916,-0.00002529,0.00011462,0.00016268,0.00009314,-0.
 00002747,-0.00001404,-0.00004099,-0.00000793,-0.00001023,-0.00002776,-
 0.00008661,-0.00016176,-0.00006798,-0.00136344,0.00028238,0.00076986,-
 0.00116727,-0.00460272,0.00054694,-0.02818095,0.00319521,0.01023673,-0
 .00923165,-0.06073292,0.00399704,0.02686787,0.00571389,-0.00982812,0.0
 0210611,-0.00469657,-0.00056981,0.00009508,-0.00132597,0.00001609,-0.0
 0002053,0.00000184,0.00001195,-0.00000329,0.00000107,0.00000831,0.0000
 1220,0.00001028,-0.00004095,-0.00020273,-0.00037443,0.00006182,0.00026
 305,0.00103971,-0.00023119,0.00990416,0.06017694,0.00002042,0.00004824
 ,-0.00002668,-0.00006412,-0.00009448,0.00003944,0.00001580,0.00001194,
 0.00001735,0.00001660,0.00001065,0.00002058,0.00010179,0.00021024,0.00
 004374,0.00018669,-0.00035786,0.00031036,0.00228369,0.00123242,0.00652
 625,0.00456288,-0.00050095,0.00099146,0.09865248,0.00417916,-0.0737243
 5,0.00448374,0.00073061,0.00173275,0.00210096,-0.00087352,0.00615228,-
 0.00031311,-0.00001709,-0.00020696,-0.00000466,-0.00000801,-0.00000087
 ,-0.00000412,-0.00000158,-0.00000329,-0.00003165,0.00003617,0.00003122
 ,-0.00006429,-0.00006406,-0.00011003,-0.00153091,-0.00010455,-0.003438
 22,-0.10868680,-0.00440022,0.06600465,-0.00001146,-0.00002131,-0.00000
 067,0.00004513,0.00007525,0.00001911,-0.00001926,-0.00000683,-0.000021
 85,-0.00000708,-0.00000614,-0.00001555,-0.00006097,-0.00015297,-0.0000
 8174,-0.00007248,-0.00010392,-0.00029151,-0.00081903,0.00092455,0.0000
 8988,-0.00053051,0.00314828,0.00279614,0.01146816,0.01584425,-0.002911
 61,-0.11235129,-0.10900691,0.02858454,-0.00785018,-0.02749952,0.004926
 96,-0.00405801,0.00091769,0.00426072,-0.00000591,-0.00000246,0.0000070
 6,0.00000003,-0.00000142,0.00000491,-0.00002156,-0.00004457,0.00001504
 ,0.00007983,0.00006332,-0.00002186,0.00043325,0.00093632,-0.00022659,0
 .00029175,-0.00039199,-0.00151571,0.11356513,-0.00002325,-0.00003654,-
 0.00000422,0.00009054,0.00011722,0.00005462,-0.00000421,-0.00000055,-0
 .00002536,-0.00001070,-0.00000665,-0.00001564,-0.00007354,-0.00005693,
 -0.00002275,-0.00005081,-0.00004101,0.00006561,0.00085294,0.00036901,-
 0.00036653,0.00359398,-0.00277427,-0.00113764,-0.01332812,-0.01830758,
 0.00527318,-0.10893170,-0.28221719,0.04445631,0.00155228,0.00396408,-0
 .00059401,0.00049687,0.00136971,-0.00012042,0.00000136,-0.00000007,0.0
 0001148,0.00000390,0.00000154,0.00000752,0.00002422,0.00004317,-0.0000
 2698,-0.00004465,-0.00001109,-0.00000178,-0.00071080,-0.00100191,0.000
 29241,0.00003295,0.00098269,-0.00010399,0.11655118,0.29674426,0.000001
 20,-0.00000078,0.00000686,-0.00000158,0.00001629,-0.00004051,-0.000025
 65,-0.00003090,-0.00002825,-0.00000857,-0.00000289,-0.00001637,-0.0002
 0928,-0.00024517,-0.00013422,-0.00037157,-0.00007995,-0.00081316,0.000
 20032,-0.00016924,-0.00055559,0.00275456,-0.00100460,0.00629944,-0.002
 55512,-0.00525998,0.00534594,0.02846910,0.04424927,-0.05157222,0.00475
 806,0.01027192,0.00239342,0.00426315,-0.00032207,0.00568240,-0.0000029
 2,-0.00000505,0.00000514,-0.00000395,-0.00000771,0.00000108,-0.0000372
 1,0.00010691,0.00006141,0.00009294,-0.00002645,0.00001440,-0.00016379,
 -0.00027918,-0.00001736,-0.00150546,0.00004206,-0.00332742,-0.03419661
 ,-0.04769075,0.04012071,-0.00001088,0.00000633,-0.00002112,0.00002241,
 -0.00000567,0.00004462,0.00000183,-0.00000066,-0.00000252,0.00000028,0
 .00000643,0.00000372,0.00003525,0.00006202,0.00003603,0.00053868,-0.00
 090380,0.00003015,0.00000593,-0.00243548,0.00276046,-0.00074909,-0.000
 88355,0.00020321,-0.00397279,-0.00164392,0.00412193,-0.01004363,0.0267
 0561,0.00476867,-0.12815165,0.12058614,0.03288573,0.01111525,-0.013913
 76,-0.00304756,-0.00000107,-0.00000193,-0.00000041,0.00000142,-0.00000
 337,-0.00000190,-0.00013766,-0.00025783,0.00000884,0.00001825,0.000019
 21,-0.00001007,-0.00002276,0.00009927,-0.00045820,-0.00053952,0.001374
 23,0.00020053,0.00046070,-0.00022256,-0.00165280,0.13118735,-0.0000678
 4,-0.00008397,-0.00001388,0.00022024,0.00026259,0.00011189,-0.00003803
 ,-0.00002809,-0.00007364,-0.00003261,-0.00001119,-0.00004394,-0.000245
 63,-0.00028764,-0.00016754,0.00117419,-0.00067461,-0.00001160,-0.00372
 290,-0.00239366,0.00142640,-0.00075276,0.00021985,0.00028460,-0.000885
 62,0.00116111,0.00037643,-0.00248879,0.00578826,0.00089864,0.12053081,
 -0.26533549,-0.04270097,0.01542355,-0.01903863,-0.00560035,-0.00000426
 ,-0.00000077,0.00001764,0.00000891,-0.00000556,0.00001186,-0.00017593,
 -0.00034673,0.00002230,-0.00003206,0.00000897,-0.00004492,0.00009700,-
 0.00000297,-0.00005345,-0.00023027,0.00021400,0.00007551,0.00020195,0.
 00073730,-0.00012407,-0.12888831,0.27885091,0.00000491,0.00002687,-0.0
 0002311,0.00002237,-0.00004043,0.00004595,0.00000085,0.00000736,-0.000
 00068,0.00000321,0.00000852,0.00000922,0.00007260,0.00008558,-0.000048
 84,-0.00015880,0.00014645,0.00052664,0.00281207,0.00142291,0.00630540,
 0.00020150,0.00037714,-0.00041761,0.00407013,0.00068193,0.00534793,0.0
 0494661,-0.01012704,0.00161747,0.03320638,-0.04294769,-0.04978447,-0.0
 0343896,0.00557723,0.00387385,0.00000553,-0.00000601,0.00000212,0.0000
 0146,-0.00000446,-0.00000022,-0.00007540,-0.00002881,-0.00012583,0.000
 04601,-0.00002506,-0.00000988,-0.00042874,-0.00008241,-0.00104844,0.00
 024994,-0.00053405,0.00003470,-0.00164000,0.00002466,-0.00324984,-0.03
 822579,0.04563979,0.04029137,0.00000161,-0.00002297,0.00000231,0.00006
 547,0.00017294,0.00002533,-0.00000799,0.00001994,0.00001040,0.00000776
 ,-0.00000235,-0.00000413,0.00019527,-0.00012002,0.00001918,-0.00045709
 ,-0.00160208,-0.00116575,-0.01137883,-0.00241870,0.00545496,0.00137456
 ,0.00310208,0.00175848,0.00049418,-0.00004800,-0.00035987,0.00163651,-
 0.00267449,0.00235066,-0.00866120,0.00161676,0.00463615,-0.29717532,-0
 .00761288,0.10200715,-0.00001788,-0.00000268,0.00000884,-0.00000265,0.
 00000502,0.00000556,0.00021086,0.00004451,-0.00017820,0.00062627,0.000
 89146,-0.00032070,-0.00047223,-0.00012794,0.00051503,-0.00021003,-0.00
 002790,-0.00040202,-0.00053827,0.00019453,0.00019509,0.00023727,-0.000
 11205,-0.00167498,0.31407059,0.00005961,0.00013206,0.00002001,-0.00027
 404,-0.00046549,-0.00022417,0.00002543,-0.00002013,0.00006588,0.000020
 87,0.00002079,0.00004394,0.00001957,0.00025100,0.00010540,0.00135767,0
 .00156837,-0.00108736,0.02531376,0.00430201,-0.00984245,0.00183383,-0.
 00490043,-0.00035820,0.00001809,-0.00093238,0.00000600,-0.00156694,-0.
 00524539,0.00074691,-0.02790038,0.00427305,0.01065589,-0.00729973,-0.0
 6113616,0.00364418,0.00002453,0.00000196,-0.00002362,-0.00000952,-0.00
 000756,-0.00002102,-0.00013666,0.00024045,0.00021765,-0.00041517,-0.00
 041811,0.00041405,0.00137821,0.00026704,-0.00054479,-0.00003583,0.0002
 0391,-0.00001045,-0.00142243,0.00013053,0.00057162,0.00031144,0.000993
 23,-0.00018899,0.00871412,0.06073365,0.00003520,0.00005317,-0.00005024
 ,-0.00008298,-0.00015874,-0.00007516,-0.00007708,-0.00012441,-0.000087
 71,-0.00003396,0.00001617,-0.00003277,-0.00066539,-0.00076105,-0.00058
 166,-0.00137869,0.00056408,-0.00228131,0.00473263,0.00169448,0.0005320
 3,0.00140622,-0.00083489,0.00519418,-0.00032340,0.00004284,-0.00033013
 ,0.00219841,0.00123689,0.00652109,0.00511036,-0.00075177,0.00161808,0.
 10297723,0.00339522,-0.07627140,0.00001332,-0.00000910,-0.00000372,-0.
 00000221,-0.00003133,-0.00000828,0.00011506,0.00023412,0.00023326,0.00
 015525,-0.00019754,0.00005761,0.00050254,0.00000775,0.00081300,-0.0003
 6338,-0.00002370,-0.00106817,0.00021001,-0.00008376,-0.00017859,-0.001
 63977,-0.00003738,-0.00334866,-0.11289828,-0.00415325,0.06938908,-0.00
 040690,-0.00125265,0.00026208,-0.00236917,0.00753988,-0.00294006,-0.18
 495874,0.16222447,-0.03018062,0.01360317,-0.03026352,0.00489377,0.0010
 5036,-0.00051443,0.00134612,-0.00062357,-0.00120469,-0.00113392,0.0000
 7126,0.00017650,-0.00002072,-0.00012115,0.00003513,0.00007064,-0.00003
 476,0.00005716,0.00000903,0.00000193,-0.00000025,-0.00000213,0.0000405
 5,0.00000603,-0.00002000,0.00014832,-0.00009124,-0.00005304,-0.0126988
 2,0.02215268,-0.00938907,0.00271016,-0.00074194,0.00089317,0.00009963,
 0.00011327,0.00027360,0.00007700,0.00002370,0.00016565,-0.00002664,0.0
 0000169,-0.00000384,0.00000421,0.00000557,-0.00000820,0.00000205,0.000
 00561,0.00000010,0.00000441,0.00002040,-0.00000090,0.00000112,-0.00001
 644,0.00000891,0.18342559,-0.00047121,0.00024306,-0.00360716,0.0016302
 8,0.00797526,0.00844959,0.15629598,-0.25931299,0.04274229,0.00033817,-
 0.03159047,0.00487754,-0.00172885,-0.00309130,-0.00237543,0.00048082,0
 .00081196,0.00098162,-0.00010567,-0.00014830,-0.00002985,0.00007964,-0
 .00001738,-0.00003805,0.00002284,-0.00006904,0.00000783,-0.00002032,-0
 .00002642,0.00000835,-0.00001336,-0.00005157,0.00004294,-0.00011015,0.
 00006005,0.00010248,0.00104686,0.00308050,0.00088878,0.00086418,-0.000
 47836,0.00017153,0.00000567,-0.00010049,-0.00011257,-0.00006023,0.0000
 0110,-0.00006352,0.00003020,-0.00000024,-0.00001315,-0.00000643,-0.000
 00680,0.00000181,-0.00000230,-0.00000570,-0.00000925,-0.00000984,-0.00
 002692,-0.00001350,0.00001067,0.00000758,-0.00007779,-0.15827695,0.282
 74644,0.00054495,-0.00066542,-0.00642168,-0.01408596,0.02330552,-0.000
 30891,-0.04027633,0.06157496,-0.06806371,-0.00014806,-0.00429146,0.001
 27546,0.00145026,-0.00213339,0.00084483,-0.00009705,-0.00132119,-0.001
 04175,0.00005208,0.00015135,-0.00004977,-0.00006959,0.00004548,0.00002
 111,-0.00000963,0.00000898,-0.00001362,-0.00003272,0.00003085,0.000005
 70,0.00009745,0.00002173,-0.00003466,-0.00001715,-0.00009100,0.0000248
 1,0.01595689,-0.02255407,0.00792950,0.00069913,-0.00231084,0.00071233,
 0.00019027,0.00018645,0.00030992,-0.00011575,0.00000144,-0.00003329,-0
 .00000342,-0.00000852,0.00000902,0.00001479,0.00000613,0.00000121,0.00
 000935,0.00000803,0.00000272,-0.00000373,0.00000668,0.00000293,0.00001
 480,-0.00003724,-0.00004055,0.03582943,-0.05193448,0.06486841\\-0.0000
 0322,0.00000878,0.00000517,-0.00001910,-0.00002194,-0.00000980,-0.0000
 2332,-0.00002646,-0.00000087,0.00003358,0.00001138,-0.00001334,0.00002
 665,0.00002466,0.00001068,0.00000369,0.00001413,-0.00002854,-0.0000050
 7,-0.00000843,0.00001670,0.00000552,0.00000503,-0.00001533,0.00000160,
 -0.00000565,-0.00000252,-0.00000620,-0.00000042,0.00000200,0.00000446,
 0.00000332,-0.00000380,-0.00000620,-0.00000376,0.00000153,0.00000890,0
 .00000637,0.00000630,-0.00001469,0.00000288,0.00000587,-0.00000653,-0.
 00000858,0.00000989,-0.00000263,-0.00000129,0.00000485,-0.00000088,-0.
 00000017,0.00000607,0.00000080,0.00000117,0.00000131,0.00000131,-0.000
 00024,-0.00000049,0.00000084,-0.00000010,0.00000097,0.00000177,-0.0000
 0249,-0.00000136,-0.00000126,0.00000179,0.00000472\\\@


 THE HURRIEDER I GO, THE BEHINDER I GET.
 Job cpu time:       0 days  0 hours 13 minutes 20.6 seconds.
 Elapsed time:       0 days  0 hours  0 minutes 33.9 seconds.
 File lengths (MBytes):  RWF=    110 Int=      0 D2E=      0 Chk=      5 Scr=      1
 Normal termination of Gaussian 16 at Mon Oct 14 00:24:01 2019.
real 119.56
user 2681.05
sys 20.79
Machine:
brown-a462
brown-a462
brown-a462
brown-a462
brown-a462
brown-a462
brown-a462
brown-a462
brown-a462
brown-a462
brown-a462
brown-a462
brown-a462
brown-a462
brown-a462
brown-a462
brown-a462
brown-a462
brown-a462
brown-a462
brown-a462
brown-a462
brown-a462
brown-a462
