Title Card Required                                                     
Freq      RB3LYP                                                      6-31G(d)            
Number of atoms                            I               17
Info1-9                                    I   N=           9
          44          44        1002           0           0         100
           6          18        -502
Full Title                                 C   N=           2
Title Card Required     
Route                                      C   N=           6
#P opt freq b3lyp/6-31g(d) geom=connectivity temperature=0.0
01          
Charge                                     I                0
Multiplicity                               I                1
Number of electrons                        I               72
Number of alpha electrons                  I               36
Number of beta electrons                   I               36
Number of basis functions                  I              164
Number of independent functions            I              164
Number of point charges in /Mol/           I                0
Number of translation vectors              I                0
Atomic numbers                             I   N=          17
           8           6           7           8           6           6
           6           6           6           6           1           1
           1           1           1           1           1
Nuclear charges                            R   N=          17
  8.00000000E+00  6.00000000E+00  7.00000000E+00  8.00000000E+00  6.00000000E+00
  6.00000000E+00  6.00000000E+00  6.00000000E+00  6.00000000E+00  6.00000000E+00
  1.00000000E+00  1.00000000E+00  1.00000000E+00  1.00000000E+00  1.00000000E+00
  1.00000000E+00  1.00000000E+00
Current cartesian coordinates              R   N=          51
  3.36678220E+00  2.63554926E+00  6.99435079E-01  2.36194885E+00  5.89409608E-01
  2.15274461E-01  3.86275267E+00 -1.49892826E+00 -2.03266915E-01  6.45073348E+00
 -9.55618140E-01 -4.42211471E-01 -4.18605065E-01  1.78781236E-01  1.16624735E-01
 -1.96632873E+00  2.29734340E+00 -2.44010041E-01 -4.57915212E+00  2.01455434E+00
 -3.82952955E-01 -5.66575191E+00 -3.80457543E-01 -1.45869436E-01 -4.13317427E+00
 -2.49351010E+00  2.45258550E-01 -1.51672081E+00 -2.21961807E+00  3.81587731E-01
  3.34245838E+00 -2.73642072E+00 -1.57059575E+00  6.45802237E+00  8.73898086E-01
 -7.63407299E-02 -1.08483055E+00  4.14126314E+00 -4.09216184E-01 -5.77070395E+00
  3.66118036E+00 -6.72126814E-01 -7.70501898E+00 -5.98102262E-01 -2.48601263E-01
 -4.97673002E+00 -4.35198435E+00  4.67074454E-01 -3.35887065E-01 -3.85580261E+00
  7.59407564E-01
Number of symbols in /Mol/                 I                0
Force Field                                I                0
Atom Types                                 C   N=          17
                                                            
                                                            
                                                            
                        
Int Atom Types                             I   N=          17
           0           0           0           0           0           0
           0           0           0           0           0           0
           0           0           0           0           0
MM charges                                 R   N=          17
  0.00000000E+00  0.00000000E+00  0.00000000E+00  0.00000000E+00  0.00000000E+00
  0.00000000E+00  0.00000000E+00  0.00000000E+00  0.00000000E+00  0.00000000E+00
  0.00000000E+00  0.00000000E+00  0.00000000E+00  0.00000000E+00  0.00000000E+00
  0.00000000E+00  0.00000000E+00
Integer atomic weights                     I   N=          17
          16          12          14          16          12          12
          12          12          12          12           1           1
           1           1           1           1           1
Real atomic weights                        R   N=          17
  1.59949146E+01  1.20000000E+01  1.40030740E+01  1.59949146E+01  1.20000000E+01
  1.20000000E+01  1.20000000E+01  1.20000000E+01  1.20000000E+01  1.20000000E+01
  1.00782504E+00  1.00782504E+00  1.00782504E+00  1.00782504E+00  1.00782504E+00
  1.00782504E+00  1.00782504E+00
Atom fragment info                         I   N=          17
           0           0           0           0           0           0
           0           0           0           0           0           0
           0           0           0           0           0
Atom residue num                           I   N=          17
           0           0           0           0           0           0
           0           0           0           0           0           0
           0           0           0           0           0
Nuclear spins                              I   N=          17
           0           0           2           0           0           0
           0           0           0           0           1           1
           1           1           1           1           1
Nuclear ZEff                               R   N=          17
 -5.60000000E+00 -3.60000000E+00 -4.55000000E+00 -5.60000000E+00 -3.60000000E+00
 -3.60000000E+00 -3.60000000E+00 -3.60000000E+00 -3.60000000E+00 -3.60000000E+00
 -1.00000000E+00 -1.00000000E+00 -1.00000000E+00 -1.00000000E+00 -1.00000000E+00
 -1.00000000E+00 -1.00000000E+00
Nuclear ZNuc                               R   N=          17
  8.00000000E+00  6.00000000E+00  7.00000000E+00  8.00000000E+00  6.00000000E+00
  6.00000000E+00  6.00000000E+00  6.00000000E+00  6.00000000E+00  6.00000000E+00
  1.00000000E+00  1.00000000E+00  1.00000000E+00  1.00000000E+00  1.00000000E+00
  1.00000000E+00  1.00000000E+00
Nuclear QMom                               R   N=          17
  0.00000000E+00  0.00000000E+00  2.04400000E+00  0.00000000E+00  0.00000000E+00
  0.00000000E+00  0.00000000E+00  0.00000000E+00  0.00000000E+00  0.00000000E+00
  0.00000000E+00  0.00000000E+00  0.00000000E+00  0.00000000E+00  0.00000000E+00
  0.00000000E+00  0.00000000E+00
Nuclear GFac                               R   N=          17
  0.00000000E+00  0.00000000E+00  4.03761000E-01  0.00000000E+00  0.00000000E+00
  0.00000000E+00  0.00000000E+00  0.00000000E+00  0.00000000E+00  0.00000000E+00
  2.79284600E+00  2.79284600E+00  2.79284600E+00  2.79284600E+00  2.79284600E+00
  2.79284600E+00  2.79284600E+00
MicOpt                                     I   N=          17
          -1          -1          -1          -1          -1          -1
          -1          -1          -1          -1          -1          -1
          -1          -1          -1          -1          -1
Number of residues                         I                0
Number of secondary structures             I                0
Redundant internal dimensions              I   N=           4
          76          17          25          34
Redundant internal coordinate indices      I   N=         304
           1           2           0           0           2           3
           0           0           2           5           0           0
           3           4           0           0           3          11
           0           0           4          12           0           0
           5           6           0           0           5          10
           0           0           6           7           0           0
           6          13           0           0           7           8
           0           0           7          14           0           0
           8           9           0           0           8          15
           0           0           9          10           0           0
           9          16           0           0          10          17
           0           0           1           2           3           0
           1           2           5           0           3           2
           5           0           2           3           4           0
           2           3          11           0           4           3
          11           0           3           4          12           0
           2           5           6           0           2           5
          10           0           6           5          10           0
           5           6           7           0           5           6
          13           0           7           6          13           0
           6           7           8           0           6           7
          14           0           8           7          14           0
           7           8           9           0           7           8
          15           0           9           8          15           0
           8           9          10           0           8           9
          16           0          10           9          16           0
           5          10           9           0           5          10
          17           0           9          10          17           0
           1           2           3           4           1           2
           3          11           5           2           3           4
           5           2           3          11           1           2
           5           6           1           2           5          10
           3           2           5           6           3           2
           5          10           2           3           4          12
          11           3           4          12           2           5
           6           7           2           5           6          13
          10           5           6           7          10           5
           6          13           2           5          10           9
           2           5          10          17           6           5
          10           9           6           5          10          17
           5           6           7           8           5           6
           7          14          13           6           7           8
          13           6           7          14           6           7
           8           9           6           7           8          15
          14           7           8           9          14           7
           8          15           7           8           9          10
           7           8           9          16          15           8
           9          10          15           8           9          16
           8           9          10           5           8           9
          10          17          16           9          10           5
          16           9          10          17
Redundant internal coordinates             R   N=          76
  2.33040534E+00  2.60552184E+00  2.81244155E+00  2.65516950E+00  1.91616332E+00
  1.86575565E+00  2.64836017E+00  2.65110973E+00  2.63175244E+00  2.05045656E+00
  2.64064190E+00  2.05299647E+00  2.63946329E+00  2.05341989E+00  2.63428002E+00
  2.05297714E+00  2.05285558E+00  2.08144564E+00  2.16732851E+00  2.03400451E+00
  1.99531520E+00  2.06672543E+00  1.90984640E+00  1.75870985E+00  2.05529210E+00
  2.13897121E+00  2.08890852E+00  2.09605524E+00  2.07043436E+00  2.11669562E+00
  2.09583753E+00  2.09148164E+00  2.09586391E+00  2.09493839E+00  2.09473576E+00
  2.09347040E+00  2.09571574E+00  2.09687272E+00  2.09052360E+00  2.09473678E+00
  2.09576782E+00  2.09206247E+00 -1.77163567E-01 -2.46815314E+00  2.99378894E+00
  7.02799368E-01  3.65383716E-01 -2.77060653E+00 -2.80717123E+00  3.40023836E-01
  8.27787709E-02  2.44753024E+00  3.12732058E+00 -1.47128393E-02 -1.97076498E-02
  3.12144424E+00 -3.12935498E+00  5.00662462E-02  1.79442614E-02 -3.08581982E+00
  7.62534306E-03 -3.13623590E+00 -3.13351464E+00  5.80942458E-03  6.30807442E-03
  3.13819318E+00 -3.13301025E+00 -1.12513989E-03 -8.06024427E-03  3.12049823E+00
 -3.13995244E+00 -1.13939688E-02 -4.10953866E-03  3.09973533E+00 -3.13271563E+00
 -2.88707582E-02
ZRed-IntVec                                I   N=          76
           0           0           0           0           0           0
           0           0           0           0           0           0
           0           0           0           0           0           0
           0           0           0           0           0           0
           0           0           0           0           0           0
           0           0           0           0           0           0
           0           0           0           0           0           0
           0           0           0           0           0           0
           0           0           0           0           0           0
           0           0           0           0           0           0
           0           0           0           0           0           0
           0           0           0           0           0           0
           0           0           0           0
ZRed-FPVec                                 R   N=          76
  0.00000000E+00  0.00000000E+00  0.00000000E+00  0.00000000E+00  0.00000000E+00
  0.00000000E+00  0.00000000E+00  0.00000000E+00  0.00000000E+00  0.00000000E+00
  0.00000000E+00  0.00000000E+00  0.00000000E+00  0.00000000E+00  0.00000000E+00
  0.00000000E+00  0.00000000E+00  0.00000000E+00  0.00000000E+00  0.00000000E+00
  0.00000000E+00  0.00000000E+00  0.00000000E+00  0.00000000E+00  0.00000000E+00
  0.00000000E+00  0.00000000E+00  0.00000000E+00  0.00000000E+00  0.00000000E+00
  0.00000000E+00  0.00000000E+00  0.00000000E+00  0.00000000E+00  0.00000000E+00
  0.00000000E+00  0.00000000E+00  0.00000000E+00  0.00000000E+00  0.00000000E+00
  0.00000000E+00  0.00000000E+00  0.00000000E+00  0.00000000E+00  0.00000000E+00
  0.00000000E+00  0.00000000E+00  0.00000000E+00  0.00000000E+00  0.00000000E+00
  0.00000000E+00  0.00000000E+00  0.00000000E+00  0.00000000E+00  0.00000000E+00
  0.00000000E+00  0.00000000E+00  0.00000000E+00  0.00000000E+00  0.00000000E+00
  0.00000000E+00  0.00000000E+00  0.00000000E+00  0.00000000E+00  0.00000000E+00
  0.00000000E+00  0.00000000E+00  0.00000000E+00  0.00000000E+00  0.00000000E+00
  0.00000000E+00  0.00000000E+00  0.00000000E+00  0.00000000E+00  0.00000000E+00
  0.00000000E+00
ZRed-Constraint1                           R   N=          76
  2.33040534E+00  2.60552184E+00  2.81244155E+00  2.65516950E+00  1.91616332E+00
  1.86575565E+00  2.64836017E+00  2.65110973E+00  2.63175244E+00  2.05045656E+00
  2.64064190E+00  2.05299647E+00  2.63946329E+00  2.05341989E+00  2.63428002E+00
  2.05297714E+00  2.05285558E+00  2.08144564E+00  2.16732851E+00  2.03400451E+00
  1.99531520E+00  2.06672543E+00  1.90984640E+00  1.75870985E+00  2.05529210E+00
  2.13897121E+00  2.08890852E+00  2.09605524E+00  2.07043436E+00  2.11669562E+00
  2.09583753E+00  2.09148164E+00  2.09586391E+00  2.09493839E+00  2.09473576E+00
  2.09347040E+00  2.09571574E+00  2.09687272E+00  2.09052360E+00  2.09473678E+00
  2.09576782E+00  2.09206247E+00 -1.77163567E-01 -2.46815314E+00  2.99378894E+00
  7.02799368E-01  3.65383716E-01 -2.77060653E+00 -2.80717123E+00  3.40023836E-01
  8.27787709E-02  2.44753024E+00  3.12732058E+00 -1.47128393E-02 -1.97076498E-02
  3.12144424E+00 -3.12935498E+00  5.00662462E-02  1.79442614E-02 -3.08581982E+00
  7.62534306E-03 -3.13623590E+00 -3.13351464E+00  5.80942458E-03  6.30807442E-03
  3.13819318E+00 -3.13301025E+00 -1.12513989E-03 -8.06024427E-03  3.12049823E+00
 -3.13995244E+00 -1.13939688E-02 -4.10953866E-03  3.09973533E+00 -3.13271563E+00
 -2.88707582E-02
ZRed-Constraint2                           R   N=          76
  2.37042600E+00  2.56686871E+00  2.69212010E+00  2.46256744E+00  1.90865453E+00
  1.81425682E+00  2.68079727E+00  2.68134356E+00  2.66162179E+00  2.05987058E+00
  2.65588958E+00  2.05985610E+00  2.65386792E+00  2.05986744E+00  2.65815695E+00
  2.05982965E+00  2.05968376E+00  2.06831842E+00  2.10354759E+00  2.11107346E+00
  2.14766115E+00  2.10612965E+00  2.02939450E+00  1.91057821E+00  2.11393073E+00
  2.11273003E+00  2.05644500E+00  2.11189626E+00  2.09211145E+00  2.07917760E+00
  2.09567103E+00  2.09553442E+00  2.09197986E+00  2.09172674E+00  2.09652492E+00
  2.09493365E+00  2.09444858E+00  2.09284404E+00  2.09589268E+00  2.11496953E+00
  2.09165384E+00  2.07656193E+00  3.45076503E-02 -3.10716328E+00 -3.13079127E+00
  1.07231086E-02  3.30106556E-01 -2.82533641E+00 -2.78730213E+00  3.40440210E-01
  1.21845862E+00 -1.92305895E+00  3.08121506E+00 -6.03108030E-02 -4.69604816E-02
  3.09469896E+00 -3.08367210E+00  5.77846111E-02  4.45131511E-02 -3.09721544E+00
  1.32906880E-02 -3.12835664E+00 -3.12836827E+00  1.31697150E-02  2.43687679E-02
 -3.11712533E+00 -3.11716932E+00  2.45218821E-02 -2.68533657E-02  3.11468554E+00
  3.11464083E+00 -2.70055782E-02 -8.25883217E-03  3.13346861E+00  3.13338767E+00
 -8.07020010E-03
SymInf integers                            I   N=          26
           1           1           1           1           1           0
           0           0           0           0           0           0
           0           0           0           0           0           0
           0           0           0           0           0           0
           0           0
RotTr to input orientation                 R   N=          12
 -9.84718465E-01  1.63337651E-01 -6.04181793E-02 -1.69355747E-01 -9.78988992E-01
  1.13574574E-01 -4.05977283E-02  1.22071146E-01  9.91690708E-01 -1.61216064E+00
  2.73353790E+00 -1.21087520E-01
Number of contracted shells                I               54
Number of primitive shells                 I              138
Pure/Cartesian d shells                    I                1
Pure/Cartesian f shells                    I                0
Highest angular momentum                   I                2
Largest degree of contraction              I                6
Shell types                                I   N=          54
           0          -1          -1           2           0          -1
          -1           2           0          -1          -1           2
           0          -1          -1           2           0          -1
          -1           2           0          -1          -1           2
           0          -1          -1           2           0          -1
          -1           2           0          -1          -1           2
           0          -1          -1           2           0           0
           0           0           0           0           0           0
           0           0           0           0           0           0
Number of primitives per shell             I   N=          54
           6           3           1           1           6           3
           1           1           6           3           1           1
           6           3           1           1           6           3
           1           1           6           3           1           1
           6           3           1           1           6           3
           1           1           6           3           1           1
           6           3           1           1           3           1
           3           1           3           1           3           1
           3           1           3           1           3           1
Shell to atom map                          I   N=          54
           1           1           1           1           2           2
           2           2           3           3           3           3
           4           4           4           4           5           5
           5           5           6           6           6           6
           7           7           7           7           8           8
           8           8           9           9           9           9
          10          10          10          10          11          11
          12          12          13          13          14          14
          15          15          16          16          17          17
Primitive exponents                        R   N=         138
  5.48467166E+03  8.25234946E+02  1.88046958E+02  5.29645000E+01  1.68975704E+01
  5.79963534E+00  1.55396162E+01  3.59993359E+00  1.01376175E+00  2.70005823E-01
  8.00000000E-01  3.04752488E+03  4.57369518E+02  1.03948685E+02  2.92101553E+01
  9.28666296E+00  3.16392696E+00  7.86827235E+00  1.88128854E+00  5.44249258E-01
  1.68714478E-01  8.00000000E-01  4.17351146E+03  6.27457911E+02  1.42902093E+02
  4.02343293E+01  1.28202129E+01  4.39043701E+00  1.16263619E+01  2.71627981E+00
  7.72218397E-01  2.12031498E-01  8.00000000E-01  5.48467166E+03  8.25234946E+02
  1.88046958E+02  5.29645000E+01  1.68975704E+01  5.79963534E+00  1.55396162E+01
  3.59993359E+00  1.01376175E+00  2.70005823E-01  8.00000000E-01  3.04752488E+03
  4.57369518E+02  1.03948685E+02  2.92101553E+01  9.28666296E+00  3.16392696E+00
  7.86827235E+00  1.88128854E+00  5.44249258E-01  1.68714478E-01  8.00000000E-01
  3.04752488E+03  4.57369518E+02  1.03948685E+02  2.92101553E+01  9.28666296E+00
  3.16392696E+00  7.86827235E+00  1.88128854E+00  5.44249258E-01  1.68714478E-01
  8.00000000E-01  3.04752488E+03  4.57369518E+02  1.03948685E+02  2.92101553E+01
  9.28666296E+00  3.16392696E+00  7.86827235E+00  1.88128854E+00  5.44249258E-01
  1.68714478E-01  8.00000000E-01  3.04752488E+03  4.57369518E+02  1.03948685E+02
  2.92101553E+01  9.28666296E+00  3.16392696E+00  7.86827235E+00  1.88128854E+00
  5.44249258E-01  1.68714478E-01  8.00000000E-01  3.04752488E+03  4.57369518E+02
  1.03948685E+02  2.92101553E+01  9.28666296E+00  3.16392696E+00  7.86827235E+00
  1.88128854E+00  5.44249258E-01  1.68714478E-01  8.00000000E-01  3.04752488E+03
  4.57369518E+02  1.03948685E+02  2.92101553E+01  9.28666296E+00  3.16392696E+00
  7.86827235E+00  1.88128854E+00  5.44249258E-01  1.68714478E-01  8.00000000E-01
  1.87311370E+01  2.82539436E+00  6.40121692E-01  1.61277759E-01  1.87311370E+01
  2.82539436E+00  6.40121692E-01  1.61277759E-01  1.87311370E+01  2.82539436E+00
  6.40121692E-01  1.61277759E-01  1.87311370E+01  2.82539436E+00  6.40121692E-01
  1.61277759E-01  1.87311370E+01  2.82539436E+00  6.40121692E-01  1.61277759E-01
  1.87311370E+01  2.82539436E+00  6.40121692E-01  1.61277759E-01  1.87311370E+01
  2.82539436E+00  6.40121692E-01  1.61277759E-01
Contraction coefficients                   R   N=         138
  1.83107443E-03  1.39501722E-02  6.84450781E-02  2.32714336E-01  4.70192898E-01
  3.58520853E-01 -1.10777550E-01 -1.48026263E-01  1.13076702E+00  1.00000000E+00
  1.00000000E+00  1.83473713E-03  1.40373228E-02  6.88426223E-02  2.32184443E-01
  4.67941348E-01  3.62311985E-01 -1.19332420E-01 -1.60854152E-01  1.14345644E+00
  1.00000000E+00  1.00000000E+00  1.83477216E-03  1.39946270E-02  6.85865518E-02
  2.32240873E-01  4.69069948E-01  3.60455199E-01 -1.14961182E-01 -1.69117479E-01
  1.14585195E+00  1.00000000E+00  1.00000000E+00  1.83107443E-03  1.39501722E-02
  6.84450781E-02  2.32714336E-01  4.70192898E-01  3.58520853E-01 -1.10777550E-01
 -1.48026263E-01  1.13076702E+00  1.00000000E+00  1.00000000E+00  1.83473713E-03
  1.40373228E-02  6.88426223E-02  2.32184443E-01  4.67941348E-01  3.62311985E-01
 -1.19332420E-01 -1.60854152E-01  1.14345644E+00  1.00000000E+00  1.00000000E+00
  1.83473713E-03  1.40373228E-02  6.88426223E-02  2.32184443E-01  4.67941348E-01
  3.62311985E-01 -1.19332420E-01 -1.60854152E-01  1.14345644E+00  1.00000000E+00
  1.00000000E+00  1.83473713E-03  1.40373228E-02  6.88426223E-02  2.32184443E-01
  4.67941348E-01  3.62311985E-01 -1.19332420E-01 -1.60854152E-01  1.14345644E+00
  1.00000000E+00  1.00000000E+00  1.83473713E-03  1.40373228E-02  6.88426223E-02
  2.32184443E-01  4.67941348E-01  3.62311985E-01 -1.19332420E-01 -1.60854152E-01
  1.14345644E+00  1.00000000E+00  1.00000000E+00  1.83473713E-03  1.40373228E-02
  6.88426223E-02  2.32184443E-01  4.67941348E-01  3.62311985E-01 -1.19332420E-01
 -1.60854152E-01  1.14345644E+00  1.00000000E+00  1.00000000E+00  1.83473713E-03
  1.40373228E-02  6.88426223E-02  2.32184443E-01  4.67941348E-01  3.62311985E-01
 -1.19332420E-01 -1.60854152E-01  1.14345644E+00  1.00000000E+00  1.00000000E+00
  3.34946043E-02  2.34726953E-01  8.13757326E-01  1.00000000E+00  3.34946043E-02
  2.34726953E-01  8.13757326E-01  1.00000000E+00  3.34946043E-02  2.34726953E-01
  8.13757326E-01  1.00000000E+00  3.34946043E-02  2.34726953E-01  8.13757326E-01
  1.00000000E+00  3.34946043E-02  2.34726953E-01  8.13757326E-01  1.00000000E+00
  3.34946043E-02  2.34726953E-01  8.13757326E-01  1.00000000E+00  3.34946043E-02
  2.34726953E-01  8.13757326E-01  1.00000000E+00
P(S=P) Contraction coefficients            R   N=         138
  0.00000000E+00  0.00000000E+00  0.00000000E+00  0.00000000E+00  0.00000000E+00
  0.00000000E+00  7.08742682E-02  3.39752839E-01  7.27158577E-01  1.00000000E+00
  0.00000000E+00  0.00000000E+00  0.00000000E+00  0.00000000E+00  0.00000000E+00
  0.00000000E+00  0.00000000E+00  6.89990666E-02  3.16423961E-01  7.44308291E-01
  1.00000000E+00  0.00000000E+00  0.00000000E+00  0.00000000E+00  0.00000000E+00
  0.00000000E+00  0.00000000E+00  0.00000000E+00  6.75797439E-02  3.23907296E-01
  7.40895140E-01  1.00000000E+00  0.00000000E+00  0.00000000E+00  0.00000000E+00
  0.00000000E+00  0.00000000E+00  0.00000000E+00  0.00000000E+00  7.08742682E-02
  3.39752839E-01  7.27158577E-01  1.00000000E+00  0.00000000E+00  0.00000000E+00
  0.00000000E+00  0.00000000E+00  0.00000000E+00  0.00000000E+00  0.00000000E+00
  6.89990666E-02  3.16423961E-01  7.44308291E-01  1.00000000E+00  0.00000000E+00
  0.00000000E+00  0.00000000E+00  0.00000000E+00  0.00000000E+00  0.00000000E+00
  0.00000000E+00  6.89990666E-02  3.16423961E-01  7.44308291E-01  1.00000000E+00
  0.00000000E+00  0.00000000E+00  0.00000000E+00  0.00000000E+00  0.00000000E+00
  0.00000000E+00  0.00000000E+00  6.89990666E-02  3.16423961E-01  7.44308291E-01
  1.00000000E+00  0.00000000E+00  0.00000000E+00  0.00000000E+00  0.00000000E+00
  0.00000000E+00  0.00000000E+00  0.00000000E+00  6.89990666E-02  3.16423961E-01
  7.44308291E-01  1.00000000E+00  0.00000000E+00  0.00000000E+00  0.00000000E+00
  0.00000000E+00  0.00000000E+00  0.00000000E+00  0.00000000E+00  6.89990666E-02
  3.16423961E-01  7.44308291E-01  1.00000000E+00  0.00000000E+00  0.00000000E+00
  0.00000000E+00  0.00000000E+00  0.00000000E+00  0.00000000E+00  0.00000000E+00
  6.89990666E-02  3.16423961E-01  7.44308291E-01  1.00000000E+00  0.00000000E+00
  0.00000000E+00  0.00000000E+00  0.00000000E+00  0.00000000E+00  0.00000000E+00
  0.00000000E+00  0.00000000E+00  0.00000000E+00  0.00000000E+00  0.00000000E+00
  0.00000000E+00  0.00000000E+00  0.00000000E+00  0.00000000E+00  0.00000000E+00
  0.00000000E+00  0.00000000E+00  0.00000000E+00  0.00000000E+00  0.00000000E+00
  0.00000000E+00  0.00000000E+00  0.00000000E+00  0.00000000E+00  0.00000000E+00
  0.00000000E+00  0.00000000E+00  0.00000000E+00
Coordinates of each shell                  R   N=         162
  3.36678220E+00  2.63554926E+00  6.99435079E-01  3.36678220E+00  2.63554926E+00
  6.99435079E-01  3.36678220E+00  2.63554926E+00  6.99435079E-01  3.36678220E+00
  2.63554926E+00  6.99435079E-01  2.36194885E+00  5.89409608E-01  2.15274461E-01
  2.36194885E+00  5.89409608E-01  2.15274461E-01  2.36194885E+00  5.89409608E-01
  2.15274461E-01  2.36194885E+00  5.89409608E-01  2.15274461E-01  3.86275267E+00
 -1.49892826E+00 -2.03266915E-01  3.86275267E+00 -1.49892826E+00 -2.03266915E-01
  3.86275267E+00 -1.49892826E+00 -2.03266915E-01  3.86275267E+00 -1.49892826E+00
 -2.03266915E-01  6.45073348E+00 -9.55618140E-01 -4.42211471E-01  6.45073348E+00
 -9.55618140E-01 -4.42211471E-01  6.45073348E+00 -9.55618140E-01 -4.42211471E-01
  6.45073348E+00 -9.55618140E-01 -4.42211471E-01 -4.18605065E-01  1.78781236E-01
  1.16624735E-01 -4.18605065E-01  1.78781236E-01  1.16624735E-01 -4.18605065E-01
  1.78781236E-01  1.16624735E-01 -4.18605065E-01  1.78781236E-01  1.16624735E-01
 -1.96632873E+00  2.29734340E+00 -2.44010041E-01 -1.96632873E+00  2.29734340E+00
 -2.44010041E-01 -1.96632873E+00  2.29734340E+00 -2.44010041E-01 -1.96632873E+00
  2.29734340E+00 -2.44010041E-01 -4.57915212E+00  2.01455434E+00 -3.82952955E-01
 -4.57915212E+00  2.01455434E+00 -3.82952955E-01 -4.57915212E+00  2.01455434E+00
 -3.82952955E-01 -4.57915212E+00  2.01455434E+00 -3.82952955E-01 -5.66575191E+00
 -3.80457543E-01 -1.45869436E-01 -5.66575191E+00 -3.80457543E-01 -1.45869436E-01
 -5.66575191E+00 -3.80457543E-01 -1.45869436E-01 -5.66575191E+00 -3.80457543E-01
 -1.45869436E-01 -4.13317427E+00 -2.49351010E+00  2.45258550E-01 -4.13317427E+00
 -2.49351010E+00  2.45258550E-01 -4.13317427E+00 -2.49351010E+00  2.45258550E-01
 -4.13317427E+00 -2.49351010E+00  2.45258550E-01 -1.51672081E+00 -2.21961807E+00
  3.81587731E-01 -1.51672081E+00 -2.21961807E+00  3.81587731E-01 -1.51672081E+00
 -2.21961807E+00  3.81587731E-01 -1.51672081E+00 -2.21961807E+00  3.81587731E-01
  3.34245838E+00 -2.73642072E+00 -1.57059575E+00  3.34245838E+00 -2.73642072E+00
 -1.57059575E+00  6.45802237E+00  8.73898086E-01 -7.63407299E-02  6.45802237E+00
  8.73898086E-01 -7.63407299E-02 -1.08483055E+00  4.14126314E+00 -4.09216184E-01
 -1.08483055E+00  4.14126314E+00 -4.09216184E-01 -5.77070395E+00  3.66118036E+00
 -6.72126814E-01 -5.77070395E+00  3.66118036E+00 -6.72126814E-01 -7.70501898E+00
 -5.98102262E-01 -2.48601263E-01 -7.70501898E+00 -5.98102262E-01 -2.48601263E-01
 -4.97673002E+00 -4.35198435E+00  4.67074454E-01 -4.97673002E+00 -4.35198435E+00
  4.67074454E-01 -3.35887065E-01 -3.85580261E+00  7.59407564E-01 -3.35887065E-01
 -3.85580261E+00  7.59407564E-01
Num ILSW                                   I              100
ILSW                                       I   N=         100
           0           1           0           0           2           0
           0           0           0           0         402          -1
           5           0           0           0           2           0