 Entering Gaussian System, Link 0=/apps/cent7/gaussian/g16-A.03/g16-haswell/g16/g16
 Initial command:
 /apps/cent7/gaussian/g16-A.03/g16-haswell/g16/l1.exe "/scratch/brown/finej/gaussian/Gau-394168.inp" -scrdir="/scratch/brown/finej/gaussian/"
 Entering Link 1 = /apps/cent7/gaussian/g16-A.03/g16-haswell/g16/l1.exe PID=    394171.
  
 Copyright (c) 1988,1990,1992,1993,1995,1998,2003,2009,2016,
            Gaussian, Inc.  All Rights Reserved.
  
 This is part of the Gaussian(R) 16 program.  It is based on
 the Gaussian(R) 09 system (copyright 2009, Gaussian, Inc.),
 the Gaussian(R) 03 system (copyright 2003, Gaussian, Inc.),
 the Gaussian(R) 98 system (copyright 1998, Gaussian, Inc.),
 the Gaussian(R) 94 system (copyright 1995, Gaussian, Inc.),
 the Gaussian 92(TM) system (copyright 1992, Gaussian, Inc.),
 the Gaussian 90(TM) system (copyright 1990, Gaussian, Inc.),
 the Gaussian 88(TM) system (copyright 1988, Gaussian, Inc.),
 the Gaussian 86(TM) system (copyright 1986, Carnegie Mellon
 University), and the Gaussian 82(TM) system (copyright 1983,
 Carnegie Mellon University). Gaussian is a federally registered
 trademark of Gaussian, Inc.
  
 This software contains proprietary and confidential information,
 including trade secrets, belonging to Gaussian, Inc.
  
 This software is provided under written license and may be
 used, copied, transmitted, or stored only in accord with that
 written license.
  
 The following legend is applicable only to US Government
 contracts under FAR:
  
                    RESTRICTED RIGHTS LEGEND
  
 Use, reproduction and disclosure by the US Government is
 subject to restrictions as set forth in subparagraphs (a)
 and (c) of the Commercial Computer Software - Restricted
 Rights clause in FAR 52.227-19.
  
 Gaussian, Inc.
 340 Quinnipiac St., Bldg. 40, Wallingford CT 06492
  
  
 ---------------------------------------------------------------
 Warning -- This program may not be used in any manner that
 competes with the business of Gaussian, Inc. or will provide
 assistance to any competitor of Gaussian, Inc.  The licensee
 of this program is prohibited from giving any competitor of
 Gaussian, Inc. access to this program.  By using this program,
 the user acknowledges that Gaussian, Inc. is engaged in the
 business of creating and licensing software in the field of
 computational chemistry and represents and warrants to the
 licensee that it is not a competitor of Gaussian, Inc. and that
 it will not use this program in any manner prohibited above.
 ---------------------------------------------------------------
  

 Cite this work as:
 Gaussian 16, Revision A.03,
 M. J. Frisch, G. W. Trucks, H. B. Schlegel, G. E. Scuseria, 
 M. A. Robb, J. R. Cheeseman, G. Scalmani, V. Barone, 
 G. A. Petersson, H. Nakatsuji, X. Li, M. Caricato, A. V. Marenich, 
 J. Bloino, B. G. Janesko, R. Gomperts, B. Mennucci, H. P. Hratchian, 
 J. V. Ortiz, A. F. Izmaylov, J. L. Sonnenberg, D. Williams-Young, 
 F. Ding, F. Lipparini, F. Egidi, J. Goings, B. Peng, A. Petrone, 
 T. Henderson, D. Ranasinghe, V. G. Zakrzewski, J. Gao, N. Rega, 
 G. Zheng, W. Liang, M. Hada, M. Ehara, K. Toyota, R. Fukuda, 
 J. Hasegawa, M. Ishida, T. Nakajima, Y. Honda, O. Kitao, H. Nakai, 
 T. Vreven, K. Throssell, J. A. Montgomery, Jr., J. E. Peralta, 
 F. Ogliaro, M. J. Bearpark, J. J. Heyd, E. N. Brothers, K. N. Kudin, 
 V. N. Staroverov, T. A. Keith, R. Kobayashi, J. Normand, 
 K. Raghavachari, A. P. Rendell, J. C. Burant, S. S. Iyengar, 
 J. Tomasi, M. Cossi, J. M. Millam, M. Klene, C. Adamo, R. Cammi, 
 J. W. Ochterski, R. L. Martin, K. Morokuma, O. Farkas, 
 J. B. Foresman, and D. J. Fox, Gaussian, Inc., Wallingford CT, 2016.
 
 ******************************************
 Gaussian 16:  ES64L-G16RevA.03 25-Dec-2016
                14-Oct-2019 
 ******************************************
 %chk=13.chk
 %nprocshared=24
 Will use up to   24 processors via shared memory.
 %mem=80GB
 --------------------------------------------------------------
 #P opt freq b3lyp/6-31g(d) geom=connectivity temperature=0.001
 --------------------------------------------------------------
 1/18=20,19=15,26=3,38=1,57=2,112=-1000/1,3;
 2/9=110,12=2,17=6,18=5,40=1/2;
 3/5=1,6=6,7=1,11=2,25=1,30=1,71=1,74=-5/1,2,3;
 4//1;
 5/5=2,38=5/2;
 6/7=2,8=2,9=2,10=2,28=1/1;
 7//1,2,3,16;
 1/18=20,19=15,26=3/3(2);
 2/9=110/2;
 99//99;
 2/9=110/2;
 3/5=1,6=6,7=1,11=2,25=1,30=1,71=1,74=-5/1,2,3;
 4/5=5,16=3,69=1/1;
 5/5=2,38=5/2;
 7//1,2,3,16;
 1/18=20,19=15,26=3/3(-5);
 2/9=110/2;
 6/7=2,8=2,9=2,10=2,19=2,28=1/1;
 99/9=1/99;
 Leave Link    1 at Mon Oct 14 00:23:28 2019, MaxMem= 10737418240 cpu:               0.8 elap:               0.0
 (Enter /apps/cent7/gaussian/g16-A.03/g16-haswell/g16/l101.exe)
 -------------------
 Title Card Required
 -------------------
 Symbolic Z-matrix:
 Charge =  0 Multiplicity = 1
 O                    -2.7858    0.2039    0.1487 
 C                    -2.1146    1.2215   -0.147 
 N                    -2.7705    2.3222   -0.5979 
 O                    -4.068     2.3833   -0.7024 
 C                    -0.6942    1.2081   -0.0384 
 C                     0.0258   -0.0132    0.0116 
 C                     1.4338   -0.0244    0.0462 
 C                     2.1479    1.1861    0.0476 
 C                     1.4539    2.407     0.0441 
 C                     0.0478    2.4167    0.0065 
 H                    -2.2603    3.1492   -0.8734 
 H                    -4.4591    2.4016    0.1742 
 H                    -0.5128   -0.9608    0.0236 
 H                     1.9719   -0.972     0.072 
 H                     3.2379    1.1782    0.0513 
 H                     2.0063    3.3463    0.0706 
 H                    -0.474     3.3736    0.0121 
 
 ITRead=  0  0  0  0  0  0  0  0  0  0  0  0  0  0  0  0  0
 MicOpt= -1 -1 -1 -1 -1 -1 -1 -1 -1 -1 -1 -1 -1 -1 -1 -1 -1
 NAtoms=     17 NQM=       17 NQMF=       0 NMMI=      0 NMMIF=      0
                NMic=       0 NMicF=      0.
                    Isotopes and Nuclear Properties:
 (Nuclear quadrupole moments (NQMom) in fm**2, nuclear magnetic moments (NMagM)
  in nuclear magnetons)

  Atom         1           2           3           4           5           6           7           8           9          10
 IAtWgt=          16          12          14          16          12          12          12          12          12          12
 AtmWgt=  15.9949146  12.0000000  14.0030740  15.9949146  12.0000000  12.0000000  12.0000000  12.0000000  12.0000000  12.0000000
 NucSpn=           0           0           2           0           0           0           0           0           0           0
 AtZEff=  -0.0000000  -0.0000000  -0.0000000  -0.0000000  -0.0000000  -0.0000000  -0.0000000  -0.0000000  -0.0000000  -0.0000000
 NQMom=    0.0000000   0.0000000   2.0440000   0.0000000   0.0000000   0.0000000   0.0000000   0.0000000   0.0000000   0.0000000
 NMagM=    0.0000000   0.0000000   0.4037610   0.0000000   0.0000000   0.0000000   0.0000000   0.0000000   0.0000000   0.0000000
 AtZNuc=   8.0000000   6.0000000   7.0000000   8.0000000   6.0000000   6.0000000   6.0000000   6.0000000   6.0000000   6.0000000

  Atom        11          12          13          14          15          16          17
 IAtWgt=           1           1           1           1           1           1           1
 AtmWgt=   1.0078250   1.0078250   1.0078250   1.0078250   1.0078250   1.0078250   1.0078250
 NucSpn=           1           1           1           1           1           1           1
 AtZEff=  -0.0000000  -0.0000000  -0.0000000  -0.0000000  -0.0000000  -0.0000000  -0.0000000
 NQMom=    0.0000000   0.0000000   0.0000000   0.0000000   0.0000000   0.0000000   0.0000000
 NMagM=    2.7928460   2.7928460   2.7928460   2.7928460   2.7928460   2.7928460   2.7928460
 AtZNuc=   1.0000000   1.0000000   1.0000000   1.0000000   1.0000000   1.0000000   1.0000000
 Leave Link  101 at Mon Oct 14 00:23:28 2019, MaxMem= 10737418240 cpu:               9.0 elap:               0.4
 (Enter /apps/cent7/gaussian/g16-A.03/g16-haswell/g16/l103.exe)

 GradGradGradGradGradGradGradGradGradGradGradGradGradGradGradGradGradGrad
 Berny optimization.
 Initialization pass.
                           ----------------------------
                           !    Initial Parameters    !
                           ! (Angstroms and Degrees)  !
 --------------------------                            --------------------------
 ! Name  Definition              Value          Derivative Info.                !
 --------------------------------------------------------------------------------
 ! R1    R(1,2)                  1.2544         estimate D2E/DX2                !
 ! R2    R(2,3)                  1.3583         estimate D2E/DX2                !
 ! R3    R(2,5)                  1.4246         estimate D2E/DX2                !
 ! R4    R(3,4)                  1.3031         estimate D2E/DX2                !
 ! R5    R(3,11)                 1.01           estimate D2E/DX2                !
 ! R6    R(4,12)                 0.9601         estimate D2E/DX2                !
 ! R7    R(5,6)                  1.4186         estimate D2E/DX2                !
 ! R8    R(5,10)                 1.4189         estimate D2E/DX2                !
 ! R9    R(6,7)                  1.4085         estimate D2E/DX2                !
 ! R10   R(6,13)                 1.09           estimate D2E/DX2                !
 ! R11   R(7,8)                  1.4054         estimate D2E/DX2                !
 ! R12   R(7,14)                 1.09           estimate D2E/DX2                !
 ! R13   R(8,9)                  1.4044         estimate D2E/DX2                !
 ! R14   R(8,15)                 1.09           estimate D2E/DX2                !
 ! R15   R(9,10)                 1.4066         estimate D2E/DX2                !
 ! R16   R(9,16)                 1.09           estimate D2E/DX2                !
 ! R17   R(10,17)                1.0899         estimate D2E/DX2                !
 ! A1    A(1,2,3)              118.5059         estimate D2E/DX2                !
 ! A2    A(1,2,5)              120.5244         estimate D2E/DX2                !
 ! A3    A(3,2,5)              120.9556         estimate D2E/DX2                !
 ! A4    A(2,3,4)              123.0519         estimate D2E/DX2                !
 ! A5    A(2,3,11)             120.6723         estimate D2E/DX2                !
 ! A6    A(4,3,11)             116.2757         estimate D2E/DX2                !
 ! A7    A(3,4,12)             109.4681         estimate D2E/DX2                !
 ! A8    A(2,5,6)              121.1193         estimate D2E/DX2                !
 ! A9    A(2,5,10)             121.0505         estimate D2E/DX2                !
 ! A10   A(6,5,10)             117.8256         estimate D2E/DX2                !
 ! A11   A(5,6,7)              121.0027         estimate D2E/DX2                !
 ! A12   A(5,6,13)             119.8692         estimate D2E/DX2                !
 ! A13   A(7,6,13)             119.1281         estimate D2E/DX2                !
 ! A14   A(6,7,8)              120.0731         estimate D2E/DX2                !
 ! A15   A(6,7,14)             120.0653         estimate D2E/DX2                !
 ! A16   A(8,7,14)             119.8616         estimate D2E/DX2                !
 ! A17   A(7,8,9)              119.8471         estimate D2E/DX2                !
 ! A18   A(7,8,15)             120.122          estimate D2E/DX2                !
 ! A19   A(9,8,15)             120.0309         estimate D2E/DX2                !
 ! A20   A(8,9,10)             120.0031         estimate D2E/DX2                !
 ! A21   A(8,9,16)             119.9111         estimate D2E/DX2                !
 ! A22   A(10,9,16)            120.0858         estimate D2E/DX2                !
 ! A23   A(5,10,9)             121.1788         estimate D2E/DX2                !
 ! A24   A(5,10,17)            119.8429         estimate D2E/DX2                !
 ! A25   A(9,10,17)            118.9782         estimate D2E/DX2                !
 ! D1    D(1,2,3,4)              1.9771         estimate D2E/DX2                !
 ! D2    D(1,2,3,11)          -178.0273         estimate D2E/DX2                !
 ! D3    D(5,2,3,4)           -179.3811         estimate D2E/DX2                !
 ! D4    D(5,2,3,11)             0.6144         estimate D2E/DX2                !
 ! D5    D(1,2,5,6)             18.9137         estimate D2E/DX2                !
 ! D6    D(1,2,5,10)          -161.8799         estimate D2E/DX2                !
 ! D7    D(3,2,5,6)           -159.7006         estimate D2E/DX2                !
 ! D8    D(3,2,5,10)            19.5058         estimate D2E/DX2                !
 ! D9    D(2,3,4,12)            69.8125         estimate D2E/DX2                !
 ! D10   D(11,3,4,12)         -110.1832         estimate D2E/DX2                !
 ! D11   D(2,5,6,7)            176.5406         estimate D2E/DX2                !
 ! D12   D(2,5,6,13)            -3.4556         estimate D2E/DX2                !
 ! D13   D(10,5,6,7)            -2.6906         estimate D2E/DX2                !
 ! D14   D(10,5,6,13)          177.3132         estimate D2E/DX2                !
 ! D15   D(2,5,10,9)          -176.6814         estimate D2E/DX2                !
 ! D16   D(2,5,10,17)            3.3108         estimate D2E/DX2                !
 ! D17   D(6,5,10,9)             2.5504         estimate D2E/DX2                !
 ! D18   D(6,5,10,17)         -177.4574         estimate D2E/DX2                !
 ! D19   D(5,6,7,8)              0.7615         estimate D2E/DX2                !
 ! D20   D(5,6,7,14)          -179.2416         estimate D2E/DX2                !
 ! D21   D(13,6,7,8)          -179.2423         estimate D2E/DX2                !
 ! D22   D(13,6,7,14)            0.7546         estimate D2E/DX2                !
 ! D23   D(6,7,8,9)              1.3962         estimate D2E/DX2                !
 ! D24   D(6,7,8,15)          -178.5981         estimate D2E/DX2                !
 ! D25   D(14,7,8,9)          -178.6006         estimate D2E/DX2                !
 ! D26   D(14,7,8,15)            1.405          estimate D2E/DX2                !
 ! D27   D(7,8,9,10)            -1.5386         estimate D2E/DX2                !
 ! D28   D(7,8,9,16)           178.4583         estimate D2E/DX2                !
 ! D29   D(15,8,9,10)          178.4558         estimate D2E/DX2                !
 ! D30   D(15,8,9,16)           -1.5473         estimate D2E/DX2                !
 ! D31   D(8,9,10,5)            -0.4732         estimate D2E/DX2                !
 ! D32   D(8,9,10,17)          179.5345         estimate D2E/DX2                !
 ! D33   D(16,9,10,5)          179.5299         estimate D2E/DX2                !
 ! D34   D(16,9,10,17)          -0.4624         estimate D2E/DX2                !
 --------------------------------------------------------------------------------
 Trust Radius=3.00D-01 FncErr=1.00D-07 GrdErr=1.00D-06 EigMax=2.50D+02 EigMin=1.00D-04
 Number of steps in this run=     86 maximum allowed number of steps=    102.
 GradGradGradGradGradGradGradGradGradGradGradGradGradGradGradGradGradGrad

 Leave Link  103 at Mon Oct 14 00:23:28 2019, MaxMem= 10737418240 cpu:               0.3 elap:               0.0
 (Enter /apps/cent7/gaussian/g16-A.03/g16-haswell/g16/l202.exe)
                          Input orientation:                          
 ---------------------------------------------------------------------
 Center     Atomic      Atomic             Coordinates (Angstroms)
 Number     Number       Type             X           Y           Z
 ---------------------------------------------------------------------
      1          8           0       -2.785800    0.203900    0.148700
      2          6           0       -2.114600    1.221500   -0.147000
      3          7           0       -2.770500    2.322200   -0.597900
      4          8           0       -4.068000    2.383300   -0.702400
      5          6           0       -0.694200    1.208100   -0.038400
      6          6           0        0.025800   -0.013200    0.011600
      7          6           0        1.433800   -0.024400    0.046200
      8          6           0        2.147900    1.186100    0.047600
      9          6           0        1.453900    2.407000    0.044100
     10          6           0        0.047800    2.416700    0.006500
     11          1           0       -2.260300    3.149200   -0.873400
     12          1           0       -4.459100    2.401600    0.174200
     13          1           0       -0.512800   -0.960800    0.023600
     14          1           0        1.971900   -0.972000    0.072000
     15          1           0        3.237900    1.178200    0.051300
     16          1           0        2.006300    3.346300    0.070600
     17          1           0       -0.474000    3.373600    0.012100
 ---------------------------------------------------------------------
                    Distance matrix (angstroms):
                    1          2          3          4          5
     1  O    0.000000
     2  C    1.254375   0.000000
     3  N    2.246072   1.358328   0.000000
     4  O    2.667994   2.339662   1.303135   0.000000
     5  C    2.327706   1.424609   2.421834   3.633802   0.000000
     6  C    2.823300   2.476076   3.693897   4.797104   1.418617
     7  C    4.227014   3.765732   4.857729   6.052043   2.460609
     8  C    5.031534   4.267087   5.089013   6.374418   2.843486
     9  C    4.779084   3.765119   4.273747   5.572181   2.461402
    10  C    3.598054   2.475488   2.883929   4.176537   1.418906
    11  H    3.161587   2.065167   1.010016   1.970691   2.630164
    12  H    2.762330   2.644331   1.858444   0.960063   3.955264
    13  H    2.557089   2.712434   4.032563   4.934524   2.177356
    14  H    4.901462   4.643155   5.812992   6.952563   3.445738
    15  H    6.102762   5.356347   6.150696   7.442883   3.933237
    16  H    5.731056   4.641545   4.930871   6.198550   3.446227
    17  H    3.925567   2.710796   2.598356   3.795792   2.177253
                    6          7          8          9         10
     6  C    0.000000
     7  C    1.408470   0.000000
     8  C    2.437811   1.405436   0.000000
     9  C    2.810319   2.431484   1.404366   0.000000
    10  C    2.430005   2.807408   2.434437   1.406636   0.000000
    11  H    4.001281   4.956186   4.912660   3.897172   2.576452
    12  H    5.096276   6.374020   6.719071   5.914434   4.510044
    13  H    1.090037   2.160233   3.418930   3.900052   3.423751
    14  H    2.170311   1.090029   2.165402   3.418588   3.897402
    15  H    3.426164   2.168190   1.090035   2.166254   3.422372
    16  H    3.900269   3.419060   2.164958   1.090015   2.168868
    17  H    3.423480   3.897085   3.414788   2.156882   1.089938
                   11         12         13         14         15
    11  H    0.000000
    12  H    2.547762   0.000000
    13  H    4.555268   5.186685   0.000000
    14  H    5.982440   7.262877   2.485197   0.000000
    15  H    5.913553   7.794589   4.317851   2.495304   0.000000
    16  H    4.374227   6.534875   4.989908   4.318437   2.493565
    17  H    2.006323   4.105129   4.334589   4.987009   4.312716
                   16         17
    16  H    0.000000
    17  H    2.481140   0.000000
 Stoichiometry    C7H7NO2
 Framework group  C1[X(C7H7NO2)]
 Deg. of freedom    45
 Full point group                 C1      NOp   1
 Largest Abelian subgroup         C1      NOp   1
 Largest concise Abelian subgroup C1      NOp   1
                         Standard orientation:                         
 ---------------------------------------------------------------------
 Center     Atomic      Atomic             Coordinates (Angstroms)
 Number     Number       Type             X           Y           Z
 ---------------------------------------------------------------------
      1          8           0        1.701773    1.494002    0.281521
      2          6           0        1.226105    0.355051    0.057937
      3          7           0        2.082987   -0.663895   -0.211429
      4          8           0        3.378363   -0.521912   -0.211760
      5          6           0       -0.183163    0.146548    0.058809
      6          6           0       -1.084970    1.231789   -0.087711
      7          6           0       -2.474909    1.015500   -0.158953
      8          6           0       -2.990195   -0.288964   -0.068921
      9          6           0       -2.118292   -1.373262    0.121681
     10          6           0       -0.730179   -1.156123    0.189636
     11          1           0        1.734348   -1.587374   -0.425371
     12          1           0        3.685473   -0.384984    0.687494
     13          1           0       -0.702874    2.250955   -0.146730
     14          1           0       -3.153215    1.859556   -0.283986
     15          1           0       -4.063975   -0.459550   -0.146846
     16          1           0       -2.518780   -2.382563    0.216839
     17          1           0       -0.069350   -2.008724    0.345648
 ---------------------------------------------------------------------
 Rotational constants (GHZ):           3.5059272           0.8176943           0.6712818
 Leave Link  202 at Mon Oct 14 00:23:28 2019, MaxMem= 10737418240 cpu:               0.8 elap:               0.1
 (Enter /apps/cent7/gaussian/g16-A.03/g16-haswell/g16/l301.exe)
 Standard basis: 6-31G(d) (6D, 7F)
 Ernie: Thresh=  0.10000D-02 Tol=  0.10000D-05 Strict=F.
 There are   164 symmetry adapted cartesian basis functions of A   symmetry.
 There are   164 symmetry adapted basis functions of A   symmetry.
   164 basis functions,   308 primitive gaussians,   164 cartesian basis functions
    36 alpha electrons       36 beta electrons
       nuclear repulsion energy       488.7749300834 Hartrees.
 IExCor=  402 DFT=T Ex+Corr=B3LYP ExCW=0 ScaHFX=  0.200000
 ScaDFX=  0.800000  0.720000  1.000000  0.810000 ScalE2=  1.000000  1.000000
 IRadAn=      5 IRanWt=     -1 IRanGd=            0 ICorTp=0 IEmpDi=  4
 NAtoms=   17 NActive=   17 NUniq=   17 SFac= 1.00D+00 NAtFMM=   60 NAOKFM=F Big=F
 Integral buffers will be    131072 words long.
 Raffenetti 2 integral format.
 Two-electron integral symmetry is turned on.
 Leave Link  301 at Mon Oct 14 00:23:28 2019, MaxMem= 10737418240 cpu:               1.3 elap:               0.1
 (Enter /apps/cent7/gaussian/g16-A.03/g16-haswell/g16/l302.exe)
 NPDir=0 NMtPBC=     1 NCelOv=     1 NCel=       1 NClECP=     1 NCelD=      1
         NCelK=      1 NCelE2=     1 NClLst=     1 CellRange=     0.0.
 One-electron integrals computed using PRISM.
 One-electron integral symmetry used in STVInt
 NBasis=   164 RedAO= T EigKep=  4.99D-04  NBF=   164
 NBsUse=   164 1.00D-06 EigRej= -1.00D+00 NBFU=   164
 Precomputing XC quadrature grid using
 IXCGrd= 4 IRadAn=           5 IRanWt=          -1 IRanGd=           0 AccXCQ= 0.00D+00.
 Generated NRdTot=       0 NPtTot=           0 NUsed=           0 NTot=          32
 NSgBfM=   164   164   164   164   164 MxSgAt=    17 MxSgA2=    17.
 Leave Link  302 at Mon Oct 14 00:23:29 2019, MaxMem= 10737418240 cpu:               3.4 elap:               0.2
 (Enter /apps/cent7/gaussian/g16-A.03/g16-haswell/g16/l303.exe)
 DipDrv:  MaxL=1.
 Leave Link  303 at Mon Oct 14 00:23:29 2019, MaxMem= 10737418240 cpu:               0.9 elap:               0.1
 (Enter /apps/cent7/gaussian/g16-A.03/g16-haswell/g16/l401.exe)
 ExpMin= 1.61D-01 ExpMax= 5.48D+03 ExpMxC= 8.25D+02 IAcc=3 IRadAn=         5 AccDes= 0.00D+00
 Harris functional with IExCor=  402 and IRadAn=       5 diagonalized for initial guess.
 HarFok:  IExCor=  402 AccDes= 0.00D+00 IRadAn=         5 IDoV= 1 UseB2=F ITyADJ=14
 ICtDFT=  3500011 ScaDFX=  1.000000  1.000000  1.000000  1.000000
 FoFCou: FMM=F IPFlag=           0 FMFlag=      100000 FMFlg1=           0
         NFxFlg=           0 DoJE=T BraDBF=F KetDBF=T FulRan=T
         wScrn=  0.000000 ICntrl=       500 IOpCl=  0 I1Cent=   200000004 NGrid=           0
         NMat0=    1 NMatS0=      1 NMatT0=    0 NMatD0=    1 NMtDS0=    0 NMtDT0=    0
 Petite list used in FoFCou.
 Harris En= -476.105419887273    
 JPrj=0 DoOrth=F DoCkMO=F.
 Leave Link  401 at Mon Oct 14 00:23:29 2019, MaxMem= 10737418240 cpu:               6.8 elap:               0.3
 (Enter /apps/cent7/gaussian/g16-A.03/g16-haswell/g16/l502.exe)
 Integral symmetry usage will be decided dynamically.
 Closed shell SCF:
 Using DIIS extrapolation, IDIIS=  1040.
 NGot= 10737418240 LenX= 10737358645 LenY= 10737331308
 Requested convergence on RMS density matrix=1.00D-08 within 128 cycles.
 Requested convergence on MAX density matrix=1.00D-06.
 Requested convergence on             energy=1.00D-06.
 No special actions if energy rises.
 Fock matrices will be formed incrementally for  20 cycles.
 Integral accuracy reduced to 1.0D-05 until final iterations.

 Cycle   1  Pass 0  IDiag  1:
 FoFJK:  IHMeth= 1 ICntrl=       0 DoSepK=F KAlg= 0 I1Cent=           0 FoldK=F
 IRaf= 920000000 NMat=       1 IRICut=       1 DoRegI=T DoRafI=F ISym2E= 0 IDoP0=0 IntGTp=1.
 FoFCou: FMM=F IPFlag=           0 FMFlag=      100000 FMFlg1=           0
         NFxFlg=           0 DoJE=F BraDBF=F KetDBF=F FulRan=T
         wScrn=  0.000000 ICntrl=         0 IOpCl=  0 I1Cent=           0 NGrid=           0
         NMat0=    1 NMatS0=      1 NMatT0=    0 NMatD0=    1 NMtDS0=    0 NMtDT0=    0
 Symmetry not used in FoFCou.
 E= -475.835286332454    
 DIIS: error= 3.46D-02 at cycle   1 NSaved=   1.
 NSaved= 1 IEnMin= 1 EnMin= -475.835286332454     IErMin= 1 ErrMin= 3.46D-02
 ErrMax= 3.46D-02  0.00D+00 EMaxC= 1.00D-01 BMatC= 2.66D-01 BMatP= 2.66D-01
 IDIUse=3 WtCom= 6.54D-01 WtEn= 3.46D-01
 Coeff-Com:  0.100D+01
 Coeff-En:   0.100D+01
 Coeff:      0.100D+01
 Gap=     0.253 Goal=   None    Shift=    0.000
 GapD=    0.253 DampG=1.000 DampE=0.500 DampFc=0.5000 IDamp=-1.
 Damping current iteration by 5.00D-01
 RMSDP=1.10D-02 MaxDP=3.99D-01              OVMax= 3.71D-01

 Cycle   2  Pass 0  IDiag  1:
 RMSU=  5.50D-03    CP:  9.90D-01
 E= -475.863799051155     Delta-E=       -0.028512718701 Rises=F Damp=T
 DIIS: error= 2.24D-02 at cycle   2 NSaved=   2.
 NSaved= 2 IEnMin= 2 EnMin= -475.863799051155     IErMin= 2 ErrMin= 2.24D-02
 ErrMax= 2.24D-02  0.00D+00 EMaxC= 1.00D-01 BMatC= 7.84D-02 BMatP= 2.66D-01
 IDIUse=3 WtCom= 7.76D-01 WtEn= 2.24D-01
 Coeff-Com:  0.298D+00 0.702D+00
 Coeff-En:   0.447D+00 0.553D+00
 Coeff:      0.332D+00 0.668D+00
 Gap=     0.309 Goal=   None    Shift=    0.000
 RMSDP=3.99D-03 MaxDP=1.75D-01 DE=-2.85D-02 OVMax= 2.87D-01

 Cycle   3  Pass 0  IDiag  1:
 RMSU=  2.80D-03    CP:  9.73D-01  4.90D-01
 E= -476.040449814248     Delta-E=       -0.176650763093 Rises=F Damp=F
 DIIS: error= 1.53D-02 at cycle   3 NSaved=   3.
 NSaved= 3 IEnMin= 3 EnMin= -476.040449814248     IErMin= 3 ErrMin= 1.53D-02
 ErrMax= 1.53D-02  0.00D+00 EMaxC= 1.00D-01 BMatC= 5.01D-02 BMatP= 7.84D-02
 IDIUse=3 WtCom= 8.47D-01 WtEn= 1.53D-01
 Coeff-Com:  0.937D-01 0.426D+00 0.480D+00
 Coeff-En:   0.000D+00 0.000D+00 0.100D+01
 Coeff:      0.794D-01 0.361D+00 0.559D+00
 Gap=     0.208 Goal=   None    Shift=    0.000
 RMSDP=2.06D-03 MaxDP=5.98D-02 DE=-1.77D-01 OVMax= 1.07D-01

 Cycle   4  Pass 0  IDiag  1:
 RMSU=  1.40D-03    CP:  9.81D-01  6.30D-01  5.45D-01
 E= -476.078774009694     Delta-E=       -0.038324195446 Rises=F Damp=F
 DIIS: error= 6.23D-03 at cycle   4 NSaved=   4.
 NSaved= 4 IEnMin= 4 EnMin= -476.078774009694     IErMin= 4 ErrMin= 6.23D-03
 ErrMax= 6.23D-03  0.00D+00 EMaxC= 1.00D-01 BMatC= 9.01D-03 BMatP= 5.01D-02
 IDIUse=3 WtCom= 9.38D-01 WtEn= 6.23D-02
 Coeff-Com:  0.217D-01 0.513D-01 0.301D+00 0.626D+00
 Coeff-En:   0.000D+00 0.000D+00 0.166D+00 0.834D+00
 Coeff:      0.204D-01 0.481D-01 0.293D+00 0.639D+00
 Gap=     0.198 Goal=   None    Shift=    0.000
 RMSDP=7.27D-04 MaxDP=1.99D-02 DE=-3.83D-02 OVMax= 3.05D-02

 Cycle   5  Pass 0  IDiag  1:
 RMSU=  2.53D-04    CP:  9.79D-01  5.67D-01  6.84D-01  6.89D-01
 E= -476.086199935750     Delta-E=       -0.007425926056 Rises=F Damp=F
 DIIS: error= 1.00D-03 at cycle   5 NSaved=   5.
 NSaved= 5 IEnMin= 5 EnMin= -476.086199935750     IErMin= 5 ErrMin= 1.00D-03
 ErrMax= 1.00D-03  0.00D+00 EMaxC= 1.00D-01 BMatC= 3.13D-04 BMatP= 9.01D-03
 IDIUse=3 WtCom= 9.90D-01 WtEn= 1.00D-02
 Coeff-Com:  0.423D-02-0.197D-02 0.105D+00 0.309D+00 0.583D+00
 Coeff-En:   0.000D+00 0.000D+00 0.000D+00 0.000D+00 0.100D+01
 Coeff:      0.419D-02-0.195D-02 0.104D+00 0.306D+00 0.588D+00
 Gap=     0.195 Goal=   None    Shift=    0.000
 RMSDP=1.61D-04 MaxDP=2.95D-03 DE=-7.43D-03 OVMax= 8.38D-03

 Cycle   6  Pass 0  IDiag  1:
 RMSU=  1.03D-04    CP:  9.79D-01  5.77D-01  6.79D-01  7.27D-01  6.25D-01
 E= -476.086441030929     Delta-E=       -0.000241095179 Rises=F Damp=F
 DIIS: error= 4.56D-04 at cycle   6 NSaved=   6.
 NSaved= 6 IEnMin= 6 EnMin= -476.086441030929     IErMin= 6 ErrMin= 4.56D-04
 ErrMax= 4.56D-04  0.00D+00 EMaxC= 1.00D-01 BMatC= 5.53D-05 BMatP= 3.13D-04
 IDIUse=3 WtCom= 9.95D-01 WtEn= 4.56D-03
 Coeff-Com:  0.965D-03-0.642D-02 0.326D-01 0.112D+00 0.354D+00 0.507D+00
 Coeff-En:   0.000D+00 0.000D+00 0.000D+00 0.000D+00 0.161D+00 0.839D+00
 Coeff:      0.961D-03-0.639D-02 0.325D-01 0.112D+00 0.353D+00 0.508D+00
 Gap=     0.194 Goal=   None    Shift=    0.000
 RMSDP=5.81D-05 MaxDP=1.09D-03 DE=-2.41D-04 OVMax= 3.58D-03

 Cycle   7  Pass 0  IDiag  1:
 RMSU=  2.77D-05    CP:  9.79D-01  5.74D-01  6.80D-01  7.30D-01  6.96D-01
                    CP:  5.67D-01
 E= -476.086495925315     Delta-E=       -0.000054894387 Rises=F Damp=F
 DIIS: error= 1.26D-04 at cycle   7 NSaved=   7.
 NSaved= 7 IEnMin= 7 EnMin= -476.086495925315     IErMin= 7 ErrMin= 1.26D-04
 ErrMax= 1.26D-04  0.00D+00 EMaxC= 1.00D-01 BMatC= 4.12D-06 BMatP= 5.53D-05
 IDIUse=3 WtCom= 9.99D-01 WtEn= 1.26D-03
 Coeff-Com:  0.595D-03-0.393D-02 0.123D-01 0.432D-01 0.169D+00 0.288D+00
 Coeff-Com:  0.491D+00
 Coeff-En:   0.000D+00 0.000D+00 0.000D+00 0.000D+00 0.000D+00 0.000D+00
 Coeff-En:   0.100D+01
 Coeff:      0.594D-03-0.393D-02 0.123D-01 0.431D-01 0.168D+00 0.288D+00
 Coeff:      0.492D+00
 Gap=     0.194 Goal=   None    Shift=    0.000
 RMSDP=1.52D-05 MaxDP=3.66D-04 DE=-5.49D-05 OVMax= 8.28D-04

 Cycle   8  Pass 0  IDiag  1:
 RMSU=  8.85D-06    CP:  9.79D-01  5.73D-01  6.81D-01  7.29D-01  6.98D-01
                    CP:  6.08D-01  6.33D-01
 E= -476.086499675629     Delta-E=       -0.000003750313 Rises=F Damp=F
 DIIS: error= 3.55D-05 at cycle   8 NSaved=   8.
 NSaved= 8 IEnMin= 8 EnMin= -476.086499675629     IErMin= 8 ErrMin= 3.55D-05
 ErrMax= 3.55D-05  0.00D+00 EMaxC= 1.00D-01 BMatC= 3.96D-07 BMatP= 4.12D-06
 IDIUse=1 WtCom= 1.00D+00 WtEn= 0.00D+00
 Coeff-Com:  0.327D-03-0.126D-02 0.118D-02 0.303D-02 0.296D-01 0.577D-01
 Coeff-Com:  0.227D+00 0.682D+00
 Coeff:      0.327D-03-0.126D-02 0.118D-02 0.303D-02 0.296D-01 0.577D-01
 Coeff:      0.227D+00 0.682D+00
 Gap=     0.195 Goal=   None    Shift=    0.000
 RMSDP=4.92D-06 MaxDP=1.13D-04 DE=-3.75D-06 OVMax= 2.61D-04

 Initial convergence to 1.0D-05 achieved.  Increase integral accuracy.
 Cycle   9  Pass 1  IDiag  1:
 E= -476.086503864715     Delta-E=       -0.000004189086 Rises=F Damp=F
 DIIS: error= 1.77D-05 at cycle   1 NSaved=   1.
 NSaved= 1 IEnMin= 1 EnMin= -476.086503864715     IErMin= 1 ErrMin= 1.77D-05
 ErrMax= 1.77D-05  0.00D+00 EMaxC= 1.00D-01 BMatC= 7.04D-08 BMatP= 7.04D-08
 IDIUse=1 WtCom= 1.00D+00 WtEn= 0.00D+00
 Coeff-Com:  0.100D+01
 Coeff:      0.100D+01
 Gap=     0.195 Goal=   None    Shift=    0.000
 RMSDP=4.92D-06 MaxDP=1.13D-04 DE=-4.19D-06 OVMax= 2.18D-04

 Cycle  10  Pass 1  IDiag  1:
 RMSU=  8.49D-06    CP:  1.00D+00
 E= -476.086503783869     Delta-E=        0.000000080845 Rises=F Damp=F
 DIIS: error= 3.30D-05 at cycle   2 NSaved=   2.
 NSaved= 2 IEnMin= 1 EnMin= -476.086503864715     IErMin= 1 ErrMin= 1.77D-05
 ErrMax= 3.30D-05  0.00D+00 EMaxC= 1.00D-01 BMatC= 1.48D-07 BMatP= 7.04D-08
 IDIUse=1 WtCom= 1.00D+00 WtEn= 0.00D+00
 Coeff-Com:  0.602D+00 0.398D+00
 Coeff:      0.602D+00 0.398D+00
 Gap=     0.195 Goal=   None    Shift=    0.000
 RMSDP=2.85D-06 MaxDP=6.19D-05 DE= 8.08D-08 OVMax= 1.59D-04

 Cycle  11  Pass 1  IDiag  1:
 RMSU=  2.62D-06    CP:  1.00D+00  8.71D-01
 E= -476.086503921919     Delta-E=       -0.000000138049 Rises=F Damp=F
 DIIS: error= 6.34D-06 at cycle   3 NSaved=   3.
 NSaved= 3 IEnMin= 3 EnMin= -476.086503921919     IErMin= 3 ErrMin= 6.34D-06
 ErrMax= 6.34D-06  0.00D+00 EMaxC= 1.00D-01 BMatC= 1.01D-08 BMatP= 7.04D-08
 IDIUse=1 WtCom= 1.00D+00 WtEn= 0.00D+00
 Coeff-Com:  0.198D+00 0.223D+00 0.579D+00
 Coeff:      0.198D+00 0.223D+00 0.579D+00
 Gap=     0.195 Goal=   None    Shift=    0.000
 RMSDP=9.11D-07 MaxDP=2.92D-05 DE=-1.38D-07 OVMax= 3.26D-05

 Cycle  12  Pass 1  IDiag  1:
 RMSU=  6.82D-07    CP:  1.00D+00  8.98D-01  7.90D-01
 E= -476.086503928575     Delta-E=       -0.000000006657 Rises=F Damp=F
 DIIS: error= 3.05D-06 at cycle   4 NSaved=   4.
 NSaved= 4 IEnMin= 4 EnMin= -476.086503928575     IErMin= 4 ErrMin= 3.05D-06
 ErrMax= 3.05D-06  0.00D+00 EMaxC= 1.00D-01 BMatC= 2.77D-09 BMatP= 1.01D-08
 IDIUse=1 WtCom= 1.00D+00 WtEn= 0.00D+00
 Coeff-Com:  0.771D-02 0.682D-01 0.387D+00 0.537D+00
 Coeff:      0.771D-02 0.682D-01 0.387D+00 0.537D+00
 Gap=     0.195 Goal=   None    Shift=    0.000
 RMSDP=3.63D-07 MaxDP=1.18D-05 DE=-6.66D-09 OVMax= 1.37D-05

 Cycle  13  Pass 1  IDiag  1:
 RMSU=  1.37D-07    CP:  1.00D+00  8.99D-01  8.25D-01  5.28D-01
 E= -476.086503930628     Delta-E=       -0.000000002053 Rises=F Damp=F
 DIIS: error= 1.04D-06 at cycle   5 NSaved=   5.
 NSaved= 5 IEnMin= 5 EnMin= -476.086503930628     IErMin= 5 ErrMin= 1.04D-06
 ErrMax= 1.04D-06  0.00D+00 EMaxC= 1.00D-01 BMatC= 2.27D-10 BMatP= 2.77D-09
 IDIUse=1 WtCom= 1.00D+00 WtEn= 0.00D+00
 Coeff-Com: -0.397D-02 0.344D-01 0.224D+00 0.350D+00 0.396D+00
 Coeff:     -0.397D-02 0.344D-01 0.224D+00 0.350D+00 0.396D+00
 Gap=     0.195 Goal=   None    Shift=    0.000
 RMSDP=9.59D-08 MaxDP=2.19D-06 DE=-2.05D-09 OVMax= 5.12D-06

 Cycle  14  Pass 1  IDiag  1:
 RMSU=  4.15D-08    CP:  1.00D+00  8.99D-01  8.29D-01  5.67D-01  4.07D-01
 E= -476.086503930838     Delta-E=       -0.000000000210 Rises=F Damp=F
 DIIS: error= 1.42D-07 at cycle   6 NSaved=   6.
 NSaved= 6 IEnMin= 6 EnMin= -476.086503930838     IErMin= 6 ErrMin= 1.42D-07
 ErrMax= 1.42D-07  0.00D+00 EMaxC= 1.00D-01 BMatC= 5.35D-12 BMatP= 2.27D-10
 IDIUse=1 WtCom= 1.00D+00 WtEn= 0.00D+00
 Coeff-Com: -0.238D-02 0.160D-01 0.104D+00 0.170D+00 0.215D+00 0.496D+00
 Coeff:     -0.238D-02 0.160D-01 0.104D+00 0.170D+00 0.215D+00 0.496D+00
 Gap=     0.195 Goal=   None    Shift=    0.000
 RMSDP=2.04D-08 MaxDP=4.30D-07 DE=-2.10D-10 OVMax= 8.72D-07

 Cycle  15  Pass 1  IDiag  1:
 RMSU=  1.39D-08    CP:  1.00D+00  9.00D-01  8.28D-01  5.63D-01  4.49D-01
                    CP:  6.85D-01
 E= -476.086503930844     Delta-E=       -0.000000000006 Rises=F Damp=F
 DIIS: error= 4.43D-08 at cycle   7 NSaved=   7.
 NSaved= 7 IEnMin= 7 EnMin= -476.086503930844     IErMin= 7 ErrMin= 4.43D-08
 ErrMax= 4.43D-08  0.00D+00 EMaxC= 1.00D-01 BMatC= 5.53D-13 BMatP= 5.35D-12
 IDIUse=1 WtCom= 1.00D+00 WtEn= 0.00D+00
 Coeff-Com: -0.483D-03 0.157D-02 0.912D-02 0.203D-01 0.301D-01 0.253D+00
 Coeff-Com:  0.686D+00
 Coeff:     -0.483D-03 0.157D-02 0.912D-02 0.203D-01 0.301D-01 0.253D+00
 Coeff:      0.686D+00
 Gap=     0.195 Goal=   None    Shift=    0.000
 RMSDP=6.16D-09 MaxDP=1.86D-07 DE=-5.91D-12 OVMax= 2.30D-07

 SCF Done:  E(RB3LYP) =  -476.086503931     A.U. after   15 cycles
            NFock= 15  Conv=0.62D-08     -V/T= 2.0091
 KE= 4.717969355817D+02 PE=-2.087635222489D+03 EE= 6.509768528931D+02
 Leave Link  502 at Mon Oct 14 00:23:32 2019, MaxMem= 10737418240 cpu:              71.0 elap:               3.0
 (Enter /apps/cent7/gaussian/g16-A.03/g16-haswell/g16/l601.exe)
 Copying SCF densities to generalized density rwf, IOpCl= 0 IROHF=0.

 **********************************************************************

            Population analysis using the SCF density.

 **********************************************************************

 Orbital symmetries:
       Occupied  (A) (A) (A) (A) (A) (A) (A) (A) (A) (A) (A) (A)
                 (A) (A) (A) (A) (A) (A) (A) (A) (A) (A) (A) (A)
                 (A) (A) (A) (A) (A) (A) (A) (A) (A) (A) (A) (A)
       Virtual   (A) (A) (A) (A) (A) (A) (A) (A) (A) (A) (A) (A)
                 (A) (A) (A) (A) (A) (A) (A) (A) (A) (A) (A) (A)
                 (A) (A) (A) (A) (A) (A) (A) (A) (A) (A) (A) (A)
                 (A) (A) (A) (A) (A) (A) (A) (A) (A) (A) (A) (A)
                 (A) (A) (A) (A) (A) (A) (A) (A) (A) (A) (A) (A)
                 (A) (A) (A) (A) (A) (A) (A) (A) (A) (A) (A) (A)
                 (A) (A) (A) (A) (A) (A) (A) (A) (A) (A) (A) (A)
                 (A) (A) (A) (A) (A) (A) (A) (A) (A) (A) (A) (A)
                 (A) (A) (A) (A) (A) (A) (A) (A) (A) (A) (A) (A)
                 (A) (A) (A) (A) (A) (A) (A) (A) (A) (A) (A) (A)
                 (A) (A) (A) (A) (A) (A) (A) (A)
 The electronic state is 1-A.
 Alpha  occ. eigenvalues --  -19.20239 -19.09944 -14.41283 -10.28135 -10.21252
 Alpha  occ. eigenvalues --  -10.21040 -10.20758 -10.20680 -10.20488 -10.20411
 Alpha  occ. eigenvalues --   -1.14289  -1.00169  -0.87027  -0.84953  -0.76530
 Alpha  occ. eigenvalues --   -0.75282  -0.66057  -0.61974  -0.60656  -0.58165
 Alpha  occ. eigenvalues --   -0.54245  -0.49790  -0.47332  -0.45838  -0.44682
 Alpha  occ. eigenvalues --   -0.42985  -0.40226  -0.39245  -0.36968  -0.35518
 Alpha  occ. eigenvalues --   -0.35024  -0.32804  -0.26207  -0.25862  -0.24228
 Alpha  occ. eigenvalues --   -0.23992
 Alpha virt. eigenvalues --   -0.04537  -0.01538   0.06004   0.06555   0.07589
 Alpha virt. eigenvalues --    0.10029   0.13851   0.15320   0.15908   0.18102
 Alpha virt. eigenvalues --    0.18936   0.20211   0.26429   0.28623   0.29463
 Alpha virt. eigenvalues --    0.30775   0.32043   0.38832   0.42883   0.47447
 Alpha virt. eigenvalues --    0.50876   0.52096   0.53975   0.55447   0.56293
 Alpha virt. eigenvalues --    0.57055   0.58195   0.58816   0.59678   0.60669
 Alpha virt. eigenvalues --    0.61670   0.62711   0.63659   0.65892   0.67259
 Alpha virt. eigenvalues --    0.70063   0.74604   0.76492   0.78121   0.80858
 Alpha virt. eigenvalues --    0.82414   0.82530   0.83571   0.84688   0.87316
 Alpha virt. eigenvalues --    0.89493   0.91745   0.92694   0.93623   0.96795
 Alpha virt. eigenvalues --    0.98265   0.99488   1.02378   1.05061   1.08064
 Alpha virt. eigenvalues --    1.09635   1.11319   1.14004   1.17610   1.18326
 Alpha virt. eigenvalues --    1.22399   1.24387   1.28890   1.33356   1.39353
 Alpha virt. eigenvalues --    1.40928   1.42203   1.43384   1.43791   1.47795
 Alpha virt. eigenvalues --    1.48412   1.49783   1.50813   1.53659   1.66977
 Alpha virt. eigenvalues --    1.75648   1.77129   1.78743   1.79088   1.85401
 Alpha virt. eigenvalues --    1.86741   1.88719   1.89693   1.92063   1.95980
 Alpha virt. eigenvalues --    1.99252   1.99940   2.02478   2.07662   2.09776
 Alpha virt. eigenvalues --    2.11198   2.12124   2.13566   2.16487   2.24184
 Alpha virt. eigenvalues --    2.26139   2.28474   2.29303   2.32787   2.40518
 Alpha virt. eigenvalues --    2.44409   2.46693   2.55127   2.57287   2.60275
 Alpha virt. eigenvalues --    2.60605   2.63794   2.67277   2.71065   2.72287
 Alpha virt. eigenvalues --    2.73578   2.76371   2.87487   2.92401   2.95999
 Alpha virt. eigenvalues --    3.18141   3.21384   3.39909   3.68435   3.93291
 Alpha virt. eigenvalues --    4.05084   4.07274   4.10020   4.15427   4.31354
 Alpha virt. eigenvalues --    4.35594   4.50681   4.71094
          Condensed to atoms (all electrons):
               1          2          3          4          5          6
     1  O    8.125640   0.612762  -0.118496  -0.002427  -0.110352   0.003803
     2  C    0.612762   4.595507   0.172313  -0.021438   0.236915  -0.028809
     3  N   -0.118496   0.172313   7.029391   0.143252  -0.117737   0.007561
     4  O   -0.002427  -0.021438   0.143252   8.136818   0.004978  -0.000056
     5  C   -0.110352   0.236915  -0.117737   0.004978   5.049643   0.497146
     6  C    0.003803  -0.028809   0.007561  -0.000056   0.497146   4.996751
     7  C    0.000946   0.007791  -0.000037   0.000000  -0.023035   0.483928
     8  C   -0.000013   0.000213  -0.000013   0.000000  -0.032141  -0.030546
     9  C   -0.000076   0.003432   0.000263  -0.000001  -0.017813  -0.037674
    10  C    0.003212  -0.047604  -0.008813   0.000233   0.477029  -0.064087
    11  H    0.003323  -0.032202   0.305420  -0.032755   0.005590  -0.000473
    12  H    0.006626  -0.000610  -0.061012   0.239947   0.000624  -0.000026
    13  H    0.012793  -0.007676   0.000422   0.000002  -0.038428   0.356298
    14  H   -0.000001  -0.000137   0.000001  -0.000000   0.003223  -0.037192
    15  H    0.000000   0.000006  -0.000000  -0.000000   0.000541   0.004219
    16  H    0.000000  -0.000132   0.000006  -0.000000   0.003266   0.000664
    17  H   -0.000085  -0.012795   0.006218  -0.000151  -0.048580   0.005755
               7          8          9         10         11         12
     1  O    0.000946  -0.000013  -0.000076   0.003212   0.003323   0.006626
     2  C    0.007791   0.000213   0.003432  -0.047604  -0.032202  -0.000610
     3  N   -0.000037  -0.000013   0.000263  -0.008813   0.305420  -0.061012
     4  O    0.000000   0.000000  -0.000001   0.000233  -0.032755   0.239947
     5  C   -0.023035  -0.032141  -0.017813   0.477029   0.005590   0.000624
     6  C    0.483928  -0.030546  -0.037674  -0.064087  -0.000473  -0.000026
     7  C    4.918612   0.532615  -0.027773  -0.040123  -0.000019  -0.000000
     8  C    0.532615   4.854613   0.548665  -0.036605   0.000012   0.000000
     9  C   -0.027773   0.548665   4.864541   0.514398   0.000109  -0.000001
    10  C   -0.040123  -0.036605   0.514398   5.069226   0.006007  -0.000085
    11  H   -0.000019   0.000012   0.000109   0.006007   0.399226   0.003558
    12  H   -0.000000   0.000000  -0.000001  -0.000085   0.003558   0.390576
    13  H   -0.043357   0.004224   0.000304   0.005779  -0.000025  -0.000003
    14  H    0.360891  -0.042471   0.004354   0.000711   0.000000   0.000000
    15  H   -0.041772   0.359285  -0.041771   0.004802  -0.000000  -0.000000
    16  H    0.004396  -0.041326   0.357953  -0.037954  -0.000011  -0.000000
    17  H    0.000350   0.004537  -0.034863   0.340615   0.008337  -0.000105
              13         14         15         16         17
     1  O    0.012793  -0.000001   0.000000   0.000000  -0.000085
     2  C   -0.007676  -0.000137   0.000006  -0.000132  -0.012795
     3  N    0.000422   0.000001  -0.000000   0.000006   0.006218
     4  O    0.000002  -0.000000  -0.000000  -0.000000  -0.000151
     5  C   -0.038428   0.003223   0.000541   0.003266  -0.048580
     6  C    0.356298  -0.037192   0.004219   0.000664   0.005755
     7  C   -0.043357   0.360891  -0.041772   0.004396   0.000350
     8  C    0.004224  -0.042471   0.359285  -0.041326   0.004537
     9  C    0.000304   0.004354  -0.041771   0.357953  -0.034863
    10  C    0.005779   0.000711   0.004802  -0.037954   0.340615
    11  H   -0.000025   0.000000  -0.000000  -0.000011   0.008337
    12  H   -0.000003   0.000000  -0.000000  -0.000000  -0.000105
    13  H    0.544478  -0.004683  -0.000148   0.000014  -0.000137
    14  H   -0.004683   0.577505  -0.005022  -0.000169   0.000014
    15  H   -0.000148  -0.005022   0.585459  -0.005141  -0.000170
    16  H    0.000014  -0.000169  -0.005141   0.585778  -0.005235
    17  H   -0.000137   0.000014  -0.000170  -0.005235   0.615718
 Mulliken charges:
               1
     1  O   -0.537656
     2  C    0.522464
     3  N   -0.358739
     4  O   -0.468402
     5  C    0.109130
     6  C   -0.157261
     7  C   -0.133413
     8  C   -0.121049
     9  C   -0.134048
    10  C   -0.186740
    11  H    0.333903
    12  H    0.420511
    13  H    0.170144
    14  H    0.142978
    15  H    0.139710
    16  H    0.137890
    17  H    0.120576
 Sum of Mulliken charges =  -0.00000
 Mulliken charges with hydrogens summed into heavy atoms:
               1
     1  O   -0.537656
     2  C    0.522464
     3  N   -0.024836
     4  O   -0.047891
     5  C    0.109130
     6  C    0.012883
     7  C    0.009565
     8  C    0.018661
     9  C    0.003843
    10  C   -0.066164
 Electronic spatial extent (au):  <R**2>=           1602.9429
 Charge=             -0.0000 electrons
 Dipole moment (field-independent basis, Debye):
    X=             -1.9697    Y=             -3.4687    Z=              0.7053  Tot=              4.0508
 Quadrupole moment (field-independent basis, Debye-Ang):
   XX=            -51.5760   YY=            -54.3972   ZZ=            -58.5647
   XY=             -7.0074   XZ=              5.1687   YZ=             -1.6991
 Traceless Quadrupole moment (field-independent basis, Debye-Ang):
   XX=              3.2700   YY=              0.4488   ZZ=             -3.7188
   XY=             -7.0074   XZ=              5.1687   YZ=             -1.6991
 Octapole moment (field-independent basis, Debye-Ang**2):
  XXX=              9.7215  YYY=            -10.6207  ZZZ=              1.0004  XYY=             -3.9951
  XXY=            -10.3960  XXZ=             19.0470  XZZ=             17.6063  YZZ=              0.0393
  YYZ=             -2.7039  XYZ=             -1.5502
 Hexadecapole moment (field-independent basis, Debye-Ang**3):
 XXXX=          -1382.1818 YYYY=           -393.6971 ZZZZ=            -67.5849 XXXY=            -18.3808
 XXXZ=             92.3241 YYYX=            -25.1207 YYYZ=             -2.7121 ZZZX=              3.2835
 ZZZY=              2.6383 XXYY=           -318.1458 XXZZ=           -269.4348 YYZZ=            -84.9511
 XXYZ=            -12.5841 YYXZ=             -3.8956 ZZXY=             -3.9450
 N-N= 4.887749300834D+02 E-N=-2.087635221122D+03  KE= 4.717969355817D+02
 No NMR shielding tensors so no spin-rotation constants.
 Leave Link  601 at Mon Oct 14 00:23:32 2019, MaxMem= 10737418240 cpu:               2.2 elap:               0.1
 (Enter /apps/cent7/gaussian/g16-A.03/g16-haswell/g16/l701.exe)
 ... and contract with generalized density number  0.
 Compute integral first derivatives.
 Leave Link  701 at Mon Oct 14 00:23:32 2019, MaxMem= 10737418240 cpu:               3.1 elap:               0.2
 (Enter /apps/cent7/gaussian/g16-A.03/g16-haswell/g16/l702.exe)
 L702 exits ... SP integral derivatives will be done elsewhere.
 Leave Link  702 at Mon Oct 14 00:23:32 2019, MaxMem= 10737418240 cpu:               1.1 elap:               0.1
 (Enter /apps/cent7/gaussian/g16-A.03/g16-haswell/g16/l703.exe)
 Integral derivatives from FoFJK, PRISM(SPDF).
 Compute integral first derivatives, UseDBF=F ICtDFT=           0.
 Calling FoFJK, ICntrl=      2127 FMM=F ISym2X=0 I1Cent= 0 IOpClX= 0 NMat=1 NMatS=1 NMatT=0.
 FoFJK:  IHMeth= 1 ICntrl=    2127 DoSepK=F KAlg= 0 I1Cent=           0 FoldK=F
 IRaf=         0 NMat=       1 IRICut=       1 DoRegI=T DoRafI=F ISym2E= 0 IDoP0=0 IntGTp=1.
 FoFCou: FMM=F IPFlag=           0 FMFlag=      100000 FMFlg1=         800
         NFxFlg=           0 DoJE=F BraDBF=F KetDBF=F FulRan=T
         wScrn=  0.000000 ICntrl=      2127 IOpCl=  0 I1Cent=           0 NGrid=           0
         NMat0=    1 NMatS0=      1 NMatT0=    0 NMatD0=    1 NMtDS0=    0 NMtDT0=    0
 Symmetry not used in FoFCou.
 Leave Link  703 at Mon Oct 14 00:23:33 2019, MaxMem= 10737418240 cpu:              17.4 elap:               0.8
 (Enter /apps/cent7/gaussian/g16-A.03/g16-haswell/g16/l716.exe)
 Dipole        =-7.74933143D-01-1.36467357D+00 2.77500966D-01
 ***** Axes restored to original set *****
 -------------------------------------------------------------------
 Center     Atomic                   Forces (Hartrees/Bohr)
 Number     Number              X              Y              Z
 -------------------------------------------------------------------
      1        8           0.011837592    0.019102753   -0.001912640
      2        6          -0.066965630   -0.053576363    0.007634703
      3        7           0.078954546    0.012659219    0.006640463
      4        8          -0.061709351    0.002233253   -0.024389591
      5        6           0.059266650    0.015392980   -0.000198804
      6        6           0.004347670    0.001624995    0.000510977
      7        6          -0.009237426    0.008782423    0.000143165
      8        6          -0.005941521    0.000234747   -0.000073858
      9        6          -0.005918457   -0.004958490   -0.000109647
     10        6           0.008442441   -0.007115654   -0.001973740
     11        1          -0.003998744    0.003712002   -0.002464009
     12        1          -0.003167442   -0.002276599    0.015785333
     13        1          -0.001706741    0.005428856   -0.001338150
     14        1          -0.002466990    0.001910031   -0.000298717
     15        1          -0.002377319    0.000154277    0.000838511
     16        1          -0.001890436   -0.001855150   -0.000102221
     17        1           0.002531159   -0.001453278    0.001308223
 -------------------------------------------------------------------
 Cartesian Forces:  Max     0.078954546 RMS     0.021369913
 Leave Link  716 at Mon Oct 14 00:23:33 2019, MaxMem= 10737418240 cpu:               0.6 elap:               0.0
 (Enter /apps/cent7/gaussian/g16-A.03/g16-haswell/g16/l103.exe)

 GradGradGradGradGradGradGradGradGradGradGradGradGradGradGradGradGradGrad
 Berny optimization.
 FormGI is forming the generalized inverse of G from B-inverse, IUseBI=4.
 GSVD:  received Info=                   1 from GESDD.
 Internal  Forces:  Max     0.065284007 RMS     0.010913397
 Search for a local minimum.
 Step number   1 out of a maximum of   86
 All quantities printed in internal units (Hartrees-Bohrs-Radians)
 RMS Force = .10913D-01 SwitMx=.10000D-02 MixMth= 1
 Mixed Optimization -- RFO/linear search
 Second derivative matrix not updated -- first step.
 ITU=  0
     Eigenvalues ---    0.01763   0.01822   0.01868   0.01906   0.01923
     Eigenvalues ---    0.01965   0.01996   0.02000   0.02014   0.02017
     Eigenvalues ---    0.02024   0.02243   0.02348   0.02576   0.16000
     Eigenvalues ---    0.16000   0.16000   0.16000   0.16000   0.16000
     Eigenvalues ---    0.16000   0.21995   0.21997   0.22000   0.23457
     Eigenvalues ---    0.24996   0.24997   0.25000   0.34808   0.34809
     Eigenvalues ---    0.34809   0.34811   0.34820   0.39940   0.40082
     Eigenvalues ---    0.41774   0.43091   0.43974   0.44390   0.44756
     Eigenvalues ---    0.45970   0.53287   0.55460   0.66330   0.81641
 RFO step:  Lambda=-1.90095148D-02 EMin= 1.76323113D-02
 Linear search not attempted -- first point.
 Iteration  1 RMS(Cart)=  0.04085031 RMS(Int)=  0.00084958
 Iteration  2 RMS(Cart)=  0.00147415 RMS(Int)=  0.00014772
 Iteration  3 RMS(Cart)=  0.00000164 RMS(Int)=  0.00014772
 Iteration  4 RMS(Cart)=  0.00000000 RMS(Int)=  0.00014772
 ITry= 1 IFail=0 DXMaxC= 1.43D-01 DCOld= 1.00D+10 DXMaxT= 3.00D-01 DXLimC= 3.00D+00 Rises=F
 Variable       Old X    -DE/DX   Delta X   Delta X   Delta X     New X
                                 (Linear)    (Quad)   (Total)
    R1        2.37043  -0.02228   0.00000  -0.02667  -0.02667   2.34375
    R2        2.56687   0.00983   0.00000   0.01782   0.01782   2.58469
    R3        2.69212   0.04465   0.00000   0.10222   0.10222   2.79434
    R4        2.46257   0.06528   0.00000   0.09568   0.09568   2.55825
    R5        1.90865   0.00169   0.00000   0.00353   0.00353   1.91219
    R6        1.81426   0.01566   0.00000   0.02730   0.02730   1.84156
    R7        2.68080  -0.01549   0.00000  -0.03511  -0.03510   2.64570
    R8        2.68134  -0.00771   0.00000  -0.01730  -0.01727   2.66407
    R9        2.66162  -0.01503   0.00000  -0.03293  -0.03295   2.62867
   R10        2.05987  -0.00389   0.00000  -0.01060  -0.01060   2.04927
   R11        2.65589  -0.00778   0.00000  -0.01669  -0.01672   2.63917
   R12        2.05986  -0.00289   0.00000  -0.00786  -0.00786   2.05200
   R13        2.65387  -0.00897   0.00000  -0.01883  -0.01884   2.63502
   R14        2.05987  -0.00238   0.00000  -0.00647  -0.00647   2.05340
   R15        2.65816  -0.01281   0.00000  -0.02724  -0.02722   2.63094
   R16        2.05983  -0.00256   0.00000  -0.00697  -0.00697   2.05286
   R17        2.05968  -0.00248   0.00000  -0.00676  -0.00676   2.05293
    A1        2.06832   0.00853   0.00000   0.03196   0.03171   2.10003
    A2        2.10355   0.00798   0.00000   0.02990   0.02965   2.13320
    A3        2.11107  -0.01648   0.00000  -0.06101  -0.06126   2.04981
    A4        2.14766  -0.00891   0.00000  -0.03729  -0.03740   2.11026
    A5        2.10613   0.00989   0.00000   0.04898   0.04886   2.15499
    A6        2.02939  -0.00097   0.00000  -0.01169  -0.01179   2.01760
    A7        1.91058  -0.00662   0.00000  -0.03696  -0.03696   1.87362
    A8        2.11393  -0.01450   0.00000  -0.05368  -0.05375   2.06018
    A9        2.11273   0.01217   0.00000   0.04549   0.04541   2.15814
   A10        2.05645   0.00234   0.00000   0.00841   0.00841   2.06486
   A11        2.11190  -0.00103   0.00000  -0.00541  -0.00541   2.10649
   A12        2.09211  -0.00382   0.00000  -0.02151  -0.02151   2.07060
   A13        2.07918   0.00485   0.00000   0.02692   0.02692   2.10610
   A14        2.09567   0.00142   0.00000   0.00550   0.00546   2.10113
   A15        2.09553  -0.00195   0.00000  -0.00968  -0.00967   2.08586
   A16        2.09198   0.00053   0.00000   0.00419   0.00420   2.09618
   A17        2.09173  -0.00065   0.00000  -0.00180  -0.00183   2.08990
   A18        2.09652   0.00047   0.00000   0.00168   0.00169   2.09822
   A19        2.09493   0.00019   0.00000   0.00012   0.00013   2.09506
   A20        2.09445  -0.00124   0.00000  -0.00355  -0.00354   2.09091
   A21        2.09284   0.00133   0.00000   0.00574   0.00571   2.09856
   A22        2.09589  -0.00009   0.00000  -0.00219  -0.00222   2.09367
   A23        2.11497  -0.00080   0.00000  -0.00235  -0.00243   2.11254
   A24        2.09165   0.00202   0.00000   0.01021   0.01003   2.10168
   A25        2.07656  -0.00122   0.00000  -0.00786  -0.00804   2.06852
    D1        0.03451  -0.00265   0.00000  -0.06475  -0.06490  -0.03040
    D2       -3.10716  -0.00144   0.00000  -0.03631  -0.03615   3.13987
    D3       -3.13079  -0.00103   0.00000  -0.02341  -0.02357   3.12882
    D4        0.01072   0.00017   0.00000   0.00503   0.00518   0.01590
    D5        0.33011   0.00110   0.00000   0.02914   0.02919   0.35930
    D6       -2.82534   0.00185   0.00000   0.04862   0.04857  -2.77676
    D7       -2.78730  -0.00055   0.00000  -0.01302  -0.01297  -2.80027
    D8        0.34044   0.00021   0.00000   0.00646   0.00641   0.34685
    D9        1.21846  -0.00149   0.00000  -0.03260  -0.03294   1.18552
   D10       -1.92306  -0.00265   0.00000  -0.05988  -0.05954  -1.98260
   D11        3.08122   0.00134   0.00000   0.03328   0.03282   3.11403
   D12       -0.06031   0.00133   0.00000   0.03373   0.03334  -0.02697
   D13       -0.04696   0.00053   0.00000   0.01410   0.01417  -0.03279
   D14        3.09470   0.00052   0.00000   0.01455   0.01469   3.10939
   D15       -3.08367  -0.00119   0.00000  -0.03426  -0.03483  -3.11850
   D16        0.05778   0.00005   0.00000  -0.00164  -0.00197   0.05581
   D17        0.04451  -0.00060   0.00000  -0.01589  -0.01588   0.02863
   D18       -3.09722   0.00065   0.00000   0.01673   0.01698  -3.08024
   D19        0.01329  -0.00005   0.00000  -0.00148  -0.00156   0.01173
   D20       -3.12836  -0.00016   0.00000  -0.00412  -0.00412  -3.13247
   D21       -3.12837  -0.00005   0.00000  -0.00193  -0.00209  -3.13046
   D22        0.01317  -0.00016   0.00000  -0.00457  -0.00465   0.00852
   D23        0.02437  -0.00039   0.00000  -0.00995  -0.00992   0.01445
   D24       -3.11713  -0.00052   0.00000  -0.01367  -0.01365  -3.13078
   D25       -3.11717  -0.00029   0.00000  -0.00731  -0.00735  -3.12451
   D26        0.02452  -0.00041   0.00000  -0.01103  -0.01107   0.01345
   D27       -0.02685   0.00036   0.00000   0.00824   0.00827  -0.01858
   D28        3.11469  -0.00002   0.00000  -0.00193  -0.00200   3.11268
   D29        3.11464   0.00048   0.00000   0.01196   0.01199   3.12664
   D30       -0.02701   0.00010   0.00000   0.00178   0.00172  -0.02529
   D31       -0.00826   0.00025   0.00000   0.00524   0.00507  -0.00318
   D32        3.13347  -0.00098   0.00000  -0.02710  -0.02717   3.10629
   D33        3.13339   0.00063   0.00000   0.01544   0.01532  -3.13448
   D34       -0.00807  -0.00060   0.00000  -0.01691  -0.01693  -0.02500
         Item               Value     Threshold  Converged?
 Maximum Force            0.065284     0.000450     NO 
 RMS     Force            0.010913     0.000300     NO 
 Maximum Displacement     0.143017     0.001800     NO 
 RMS     Displacement     0.040868     0.001200     NO 
 Predicted change in Energy=-1.011014D-02
 Lowest energy point so far.  Saving SCF results.
 GradGradGradGradGradGradGradGradGradGradGradGradGradGradGradGradGradGrad

 Leave Link  103 at Mon Oct 14 00:23:33 2019, MaxMem= 10737418240 cpu:               1.0 elap:               0.1
 (Enter /apps/cent7/gaussian/g16-A.03/g16-haswell/g16/l202.exe)
                          Input orientation:                          
 ---------------------------------------------------------------------
 Center     Atomic      Atomic             Coordinates (Angstroms)
 Number     Number       Type             X           Y           Z
 ---------------------------------------------------------------------
      1          8           0       -2.791008    0.200977    0.196554
      2          6           0       -2.134532    1.197318   -0.141961
      3          7           0       -2.769086    2.321150   -0.594847
      4          8           0       -4.116937    2.357671   -0.715877
      5          6           0       -0.658868    1.235930   -0.055425
      6          6           0        0.029576    0.017864   -0.005669
      7          6           0        1.419454   -0.010698    0.043309
      8          6           0        2.150417    1.179237    0.057697
      9          6           0        1.481215    2.402429    0.040204
     10          6           0        0.090297    2.429442   -0.013906
     11          1           0       -2.281453    3.160102   -0.881705
     12          1           0       -4.490457    2.325919    0.183648
     13          1           0       -0.542940   -0.903118   -0.006649
     14          1           0        1.934112   -0.966402    0.072837
     15          1           0        3.236363    1.153691    0.085831
     16          1           0        2.040798    3.332762    0.078318
     17          1           0       -0.410952    3.393026    0.007040
 ---------------------------------------------------------------------
                    Distance matrix (angstroms):
                    1          2          3          4          5
     1  O    0.000000
     2  C    1.240261   0.000000
     3  N    2.263168   1.367758   0.000000
     4  O    2.691087   2.367642   1.353767   0.000000
     5  C    2.383410   1.478704   2.433454   3.694962   0.000000
     6  C    2.833746   2.468410   3.672161   4.813799   1.400042
     7  C    4.218564   3.758250   4.836179   6.069363   2.425542
     8  C    5.039242   4.289636   5.092277   6.423928   2.812133
     9  C    4.808609   3.815639   4.298250   5.649156   2.439225
    10  C    3.648598   2.546447   2.919810   4.265997   1.409767
    11  H    3.190409   2.102695   1.011886   2.010073   2.649143
    12  H    2.720969   2.632517   1.889232   0.974511   3.990778
    13  H    2.512792   2.638807   3.962020   4.889704   2.142743
    14  H    4.868761   4.613207   5.777012   6.948865   3.404447
    15  H    6.103206   5.375900   6.155623   7.494219   3.898658
    16  H    5.759201   4.694893   4.960997   6.284842   3.420933
    17  H    3.986196   2.795364   2.659320   3.915213   2.172194
                    6          7          8          9         10
     6  C    0.000000
     7  C    1.391034   0.000000
     8  C    2.418837   1.396589   0.000000
     9  C    2.792044   2.413920   1.394394   0.000000
    10  C    2.412357   2.779248   2.410858   1.392232   0.000000
    11  H    3.997744   4.960478   4.944469   3.947361   2.629094
    12  H    5.078746   6.356613   6.740323   5.973885   4.586181
    13  H    1.084428   2.156363   3.405073   3.876344   3.392197
    14  H    2.145274   1.085870   2.156568   3.399294   3.865092
    15  H    3.403228   2.158418   1.086611   2.154524   3.396354
    16  H    3.878223   3.400885   2.156411   1.086326   2.151498
    17  H    3.403814   3.864847   3.385859   2.136043   1.086362
                   11         12         13         14         15
    11  H    0.000000
    12  H    2.590471   0.000000
    13  H    4.505320   5.103507   0.000000
    14  H    5.975799   7.219885   2.479135   0.000000
    15  H    5.950471   7.815845   4.303737   2.488136   0.000000
    16  H    4.430949   6.609245   4.962419   4.300491   2.485514
    17  H    2.083961   4.220459   4.298193   4.950583   4.280624
                   16         17
    16  H    0.000000
    17  H    2.453526   0.000000
 Stoichiometry    C7H7NO2
 Framework group  C1[X(C7H7NO2)]
 Deg. of freedom    45
 Full point group                 C1      NOp   1
 RotChk:  IX=0 Diff= 1.89D-02
 Largest Abelian subgroup         C1      NOp   1
 Largest concise Abelian subgroup C1      NOp   1
                         Standard orientation:                         
 ---------------------------------------------------------------------
 Center     Atomic      Atomic             Coordinates (Angstroms)
 Number     Number       Type             X           Y           Z
 ---------------------------------------------------------------------
      1          8           0        1.717395    1.488891    0.314568
      2          6           0        1.245478    0.371159    0.057239
      3          7           0        2.074436   -0.684906   -0.204137
      4          8           0        3.418715   -0.525919   -0.222085
      5          6           0       -0.210738    0.114754    0.041262
      6          6           0       -1.070087    1.209359   -0.111957
      7          6           0       -2.448124    1.027906   -0.167336
      8          6           0       -2.997211   -0.251427   -0.056564
      9          6           0       -2.158988   -1.350388    0.127834
     10          6           0       -0.779689   -1.167835    0.178015
     11          1           0        1.741417   -1.616201   -0.417915
     12          1           0        3.701012   -0.335193    0.690934
     13          1           0       -0.639353    2.201729   -0.187154
     14          1           0       -3.096391    1.889609   -0.295124
     15          1           0       -4.073458   -0.391177   -0.110264
     16          1           0       -2.578972   -2.345733    0.241880
     17          1           0       -0.148043   -2.033636    0.355767
 ---------------------------------------------------------------------
 Rotational constants (GHZ):           3.5191457           0.8079518           0.6658528
 Leave Link  202 at Mon Oct 14 00:23:33 2019, MaxMem= 10737418240 cpu:               1.2 elap:               0.1
 (Enter /apps/cent7/gaussian/g16-A.03/g16-haswell/g16/l301.exe)
 Standard basis: 6-31G(d) (6D, 7F)
 Ernie: Thresh=  0.10000D-02 Tol=  0.10000D-05 Strict=F.
 There are   164 symmetry adapted cartesian basis functions of A   symmetry.
 There are   164 symmetry adapted basis functions of A   symmetry.
   164 basis functions,   308 primitive gaussians,   164 cartesian basis functions
    36 alpha electrons       36 beta electrons
       nuclear repulsion energy       487.3958941037 Hartrees.
 IExCor=  402 DFT=T Ex+Corr=B3LYP ExCW=0 ScaHFX=  0.200000
 ScaDFX=  0.800000  0.720000  1.000000  0.810000 ScalE2=  1.000000  1.000000
 IRadAn=      5 IRanWt=     -1 IRanGd=            0 ICorTp=0 IEmpDi=  4
 NAtoms=   17 NActive=   17 NUniq=   17 SFac= 1.00D+00 NAtFMM=   60 NAOKFM=F Big=F
 Integral buffers will be    131072 words long.
 Raffenetti 2 integral format.
 Two-electron integral symmetry is turned on.
 Leave Link  301 at Mon Oct 14 00:23:34 2019, MaxMem= 10737418240 cpu:               1.3 elap:               0.1
 (Enter /apps/cent7/gaussian/g16-A.03/g16-haswell/g16/l302.exe)
 NPDir=0 NMtPBC=     1 NCelOv=     1 NCel=       1 NClECP=     1 NCelD=      1
         NCelK=      1 NCelE2=     1 NClLst=     1 CellRange=     0.0.
 One-electron integrals computed using PRISM.
 One-electron integral symmetry used in STVInt
 NBasis=   164 RedAO= T EigKep=  4.62D-04  NBF=   164
 NBsUse=   164 1.00D-06 EigRej= -1.00D+00 NBFU=   164
 Precomputing XC quadrature grid using
 IXCGrd= 4 IRadAn=           5 IRanWt=          -1 IRanGd=           0 AccXCQ= 0.00D+00.
 Generated NRdTot=       0 NPtTot=           0 NUsed=           0 NTot=          32
 NSgBfM=   164   164   164   164   164 MxSgAt=    17 MxSgA2=    17.
 Leave Link  302 at Mon Oct 14 00:23:34 2019, MaxMem= 10737418240 cpu:               3.1 elap:               0.2
 (Enter /apps/cent7/gaussian/g16-A.03/g16-haswell/g16/l303.exe)
 DipDrv:  MaxL=1.
 Leave Link  303 at Mon Oct 14 00:23:34 2019, MaxMem= 10737418240 cpu:               0.6 elap:               0.0
 (Enter /apps/cent7/gaussian/g16-A.03/g16-haswell/g16/l401.exe)
 Initial guess from the checkpoint file:  "13.chk"
 B after Tr=     0.000000   -0.000000    0.000000
         Rot=    0.999992    0.000599    0.000592    0.003816 Ang=   0.45 deg.
 Guess basis will be translated and rotated to current coordinates.
 JPrj=2 DoOrth=T DoCkMO=T.
 Generating alternative initial guess.
 ExpMin= 1.61D-01 ExpMax= 5.48D+03 ExpMxC= 8.25D+02 IAcc=2 IRadAn=         4 AccDes= 0.00D+00
 Harris functional with IExCor=  402 and IRadAn=       4 diagonalized for initial guess.
 HarFok:  IExCor=  402 AccDes= 0.00D+00 IRadAn=         4 IDoV= 1 UseB2=F ITyADJ=14
 ICtDFT=  3500011 ScaDFX=  1.000000  1.000000  1.000000  1.000000
 FoFCou: FMM=F IPFlag=           0 FMFlag=      100000 FMFlg1=           0
         NFxFlg=           0 DoJE=T BraDBF=F KetDBF=T FulRan=T
         wScrn=  0.000000 ICntrl=       500 IOpCl=  0 I1Cent=   200000004 NGrid=           0
         NMat0=    1 NMatS0=      1 NMatT0=    0 NMatD0=    1 NMtDS0=    0 NMtDT0=    0
 Petite list used in FoFCou.
 Harris En= -476.121463591818    
 Leave Link  401 at Mon Oct 14 00:23:34 2019, MaxMem= 10737418240 cpu:               6.2 elap:               0.3
 (Enter /apps/cent7/gaussian/g16-A.03/g16-haswell/g16/l502.exe)
 Integral symmetry usage will be decided dynamically.
 Closed shell SCF:
 Using DIIS extrapolation, IDIIS=  1040.
 NGot= 10737418240 LenX= 10737358645 LenY= 10737331308
 Requested convergence on RMS density matrix=1.00D-08 within 128 cycles.
 Requested convergence on MAX density matrix=1.00D-06.
 Requested convergence on             energy=1.00D-06.
 No special actions if energy rises.
 Fock matrices will be formed incrementally for  20 cycles.
 Integral accuracy reduced to 1.0D-05 until final iterations.

 Cycle   1  Pass 0  IDiag  1:
 FoFJK:  IHMeth= 1 ICntrl=       0 DoSepK=F KAlg= 0 I1Cent=           0 FoldK=F
 IRaf= 910000000 NMat=       1 IRICut=       1 DoRegI=T DoRafI=F ISym2E= 0 IDoP0=0 IntGTp=1.
 FoFCou: FMM=F IPFlag=           0 FMFlag=      100000 FMFlg1=           0
         NFxFlg=           0 DoJE=F BraDBF=F KetDBF=F FulRan=T
         wScrn=  0.000000 ICntrl=         0 IOpCl=  0 I1Cent=           0 NGrid=           0
         NMat0=    1 NMatS0=      1 NMatT0=    0 NMatD0=    1 NMtDS0=    0 NMtDT0=    0
 Symmetry not used in FoFCou.
 E= -476.092314402935    
 DIIS: error= 2.19D-03 at cycle   1 NSaved=   1.
 NSaved= 1 IEnMin= 1 EnMin= -476.092314402935     IErMin= 1 ErrMin= 2.19D-03
 ErrMax= 2.19D-03  0.00D+00 EMaxC= 1.00D-01 BMatC= 3.80D-03 BMatP= 3.80D-03
 IDIUse=3 WtCom= 9.78D-01 WtEn= 2.19D-02
 Coeff-Com:  0.100D+01
 Coeff-En:   0.100D+01
 Coeff:      0.100D+01
 Gap=     1.941 Goal=   None    Shift=    0.000
 GapD=    1.941 DampG=2.000 DampE=1.000 DampFc=2.0000 IDamp=-1.
 RMSDP=9.08D-04 MaxDP=2.14D-02              OVMax= 2.18D-02

 Cycle   2  Pass 0  IDiag  1:
 RMSU=  9.05D-04    CP:  9.97D-01
 E= -476.097126311878     Delta-E=       -0.004811908943 Rises=F Damp=F
 DIIS: error= 2.80D-03 at cycle   2 NSaved=   2.
 NSaved= 2 IEnMin= 2 EnMin= -476.097126311878     IErMin= 1 ErrMin= 2.19D-03
 ErrMax= 2.80D-03  0.00D+00 EMaxC= 1.00D-01 BMatC= 1.59D-03 BMatP= 3.80D-03
 IDIUse=3 WtCom= 9.72D-01 WtEn= 2.80D-02
 Coeff-Com:  0.334D+00 0.666D+00
 Coeff-En:   0.000D+00 0.100D+01
 Coeff:      0.325D+00 0.675D+00
 Gap=     0.208 Goal=   None    Shift=    0.000
 RMSDP=4.75D-04 MaxDP=1.83D-02 DE=-4.81D-03 OVMax= 2.49D-02

 Cycle   3  Pass 0  IDiag  1:
 RMSU=  4.39D-04    CP:  9.99D-01  8.06D-01
 E= -476.096678573513     Delta-E=        0.000447738365 Rises=F Damp=F
 DIIS: error= 2.95D-03 at cycle   3 NSaved=   3.
 NSaved= 3 IEnMin= 2 EnMin= -476.097126311878     IErMin= 1 ErrMin= 2.19D-03
 ErrMax= 2.95D-03  0.00D+00 EMaxC= 1.00D-01 BMatC= 2.14D-03 BMatP= 1.59D-03
 IDIUse=3 WtCom= 1.55D-01 WtEn= 8.45D-01
 Coeff-Com: -0.158D-01 0.543D+00 0.473D+00
 Coeff-En:   0.000D+00 0.557D+00 0.443D+00
 Coeff:     -0.245D-02 0.555D+00 0.448D+00
 Gap=     0.209 Goal=   None    Shift=    0.000
 RMSDP=2.89D-04 MaxDP=1.05D-02 DE= 4.48D-04 OVMax= 1.51D-02

 Cycle   4  Pass 0  IDiag  1:
 RMSU=  7.90D-05    CP:  9.98D-01  9.58D-01  4.55D-01
 E= -476.098346097097     Delta-E=       -0.001667523584 Rises=F Damp=F
 DIIS: error= 3.57D-04 at cycle   4 NSaved=   4.
 NSaved= 4 IEnMin= 4 EnMin= -476.098346097097     IErMin= 4 ErrMin= 3.57D-04
 ErrMax= 3.57D-04  0.00D+00 EMaxC= 1.00D-01 BMatC= 5.06D-05 BMatP= 1.59D-03
 IDIUse=3 WtCom= 9.96D-01 WtEn= 3.57D-03
 Coeff-Com: -0.215D-01 0.289D+00 0.254D+00 0.479D+00
 Coeff-En:   0.000D+00 0.000D+00 0.000D+00 0.100D+01
 Coeff:     -0.214D-01 0.288D+00 0.253D+00 0.481D+00
 Gap=     0.207 Goal=   None    Shift=    0.000
 RMSDP=4.27D-05 MaxDP=1.15D-03 DE=-1.67D-03 OVMax= 1.67D-03

 Cycle   5  Pass 0  IDiag  1:
 RMSU=  2.56D-05    CP:  9.98D-01  9.61D-01  4.60D-01  5.72D-01
 E= -476.098387668337     Delta-E=       -0.000041571240 Rises=F Damp=F
 DIIS: error= 7.53D-05 at cycle   5 NSaved=   5.
 NSaved= 5 IEnMin= 5 EnMin= -476.098387668337     IErMin= 5 ErrMin= 7.53D-05
 ErrMax= 7.53D-05  0.00D+00 EMaxC= 1.00D-01 BMatC= 2.24D-06 BMatP= 5.06D-05
 IDIUse=1 WtCom= 1.00D+00 WtEn= 0.00D+00
 Coeff-Com: -0.761D-02 0.702D-01 0.685D-01 0.211D+00 0.658D+00
 Coeff:     -0.761D-02 0.702D-01 0.685D-01 0.211D+00 0.658D+00
 Gap=     0.207 Goal=   None    Shift=    0.000
 RMSDP=9.79D-06 MaxDP=2.53D-04 DE=-4.16D-05 OVMax= 3.99D-04

 Initial convergence to 1.0D-05 achieved.  Increase integral accuracy.
 Cycle   6  Pass 1  IDiag  1:
 E= -476.098392066881     Delta-E=       -0.000004398543 Rises=F Damp=F
 DIIS: error= 2.81D-05 at cycle   1 NSaved=   1.
 NSaved= 1 IEnMin= 1 EnMin= -476.098392066881     IErMin= 1 ErrMin= 2.81D-05
 ErrMax= 2.81D-05  0.00D+00 EMaxC= 1.00D-01 BMatC= 2.68D-07 BMatP= 2.68D-07
 IDIUse=1 WtCom= 1.00D+00 WtEn= 0.00D+00
 Coeff-Com:  0.100D+01
 Coeff:      0.100D+01
 Gap=     0.207 Goal=   None    Shift=    0.000
 RMSDP=9.79D-06 MaxDP=2.53D-04 DE=-4.40D-06 OVMax= 4.32D-04

 Cycle   7  Pass 1  IDiag  1:
 RMSU=  1.31D-05    CP:  1.00D+00
 E= -476.098391607304     Delta-E=        0.000000459577 Rises=F Damp=F
 DIIS: error= 4.97D-05 at cycle   2 NSaved=   2.
 NSaved= 2 IEnMin= 1 EnMin= -476.098392066881     IErMin= 1 ErrMin= 2.81D-05
 ErrMax= 4.97D-05  0.00D+00 EMaxC= 1.00D-01 BMatC= 7.03D-07 BMatP= 2.68D-07
 IDIUse=1 WtCom= 1.00D+00 WtEn= 0.00D+00
 Coeff-Com:  0.623D+00 0.377D+00
 Coeff:      0.623D+00 0.377D+00
 Gap=     0.207 Goal=   None    Shift=    0.000
 RMSDP=5.93D-06 MaxDP=1.45D-04 DE= 4.60D-07 OVMax= 3.21D-04

 Cycle   8  Pass 1  IDiag  1:
 RMSU=  4.56D-06    CP:  1.00D+00  7.11D-01
 E= -476.098392328440     Delta-E=       -0.000000721136 Rises=F Damp=F
 DIIS: error= 7.72D-06 at cycle   3 NSaved=   3.
 NSaved= 3 IEnMin= 3 EnMin= -476.098392328440     IErMin= 3 ErrMin= 7.72D-06
 ErrMax= 7.72D-06  0.00D+00 EMaxC= 1.00D-01 BMatC= 1.87D-08 BMatP= 2.68D-07
 IDIUse=1 WtCom= 1.00D+00 WtEn= 0.00D+00
 Coeff-Com:  0.278D+00 0.202D+00 0.519D+00
 Coeff:      0.278D+00 0.202D+00 0.519D+00
 Gap=     0.207 Goal=   None    Shift=    0.000
 RMSDP=1.22D-06 MaxDP=2.98D-05 DE=-7.21D-07 OVMax= 5.94D-05

 Cycle   9  Pass 1  IDiag  1:
 RMSU=  1.10D-06    CP:  1.00D+00  7.22D-01  8.90D-01
 E= -476.098392345154     Delta-E=       -0.000000016714 Rises=F Damp=F
 DIIS: error= 3.27D-06 at cycle   4 NSaved=   4.
 NSaved= 4 IEnMin= 4 EnMin= -476.098392345154     IErMin= 4 ErrMin= 3.27D-06
 ErrMax= 3.27D-06  0.00D+00 EMaxC= 1.00D-01 BMatC= 2.95D-09 BMatP= 1.87D-08
 IDIUse=1 WtCom= 1.00D+00 WtEn= 0.00D+00
 Coeff-Com:  0.461D-01 0.474D-01 0.303D+00 0.603D+00
 Coeff:      0.461D-01 0.474D-01 0.303D+00 0.603D+00
 Gap=     0.207 Goal=   None    Shift=    0.000
 RMSDP=4.76D-07 MaxDP=1.76D-05 DE=-1.67D-08 OVMax= 1.93D-05

 Cycle  10  Pass 1  IDiag  1:
 RMSU=  3.24D-07    CP:  1.00D+00  7.26D-01  9.10D-01  6.99D-01
 E= -476.098392347051     Delta-E=       -0.000000001897 Rises=F Damp=F
 DIIS: error= 1.77D-06 at cycle   5 NSaved=   5.
 NSaved= 5 IEnMin= 5 EnMin= -476.098392347051     IErMin= 5 ErrMin= 1.77D-06
 ErrMax= 1.77D-06  0.00D+00 EMaxC= 1.00D-01 BMatC= 8.17D-10 BMatP= 2.95D-09
 IDIUse=1 WtCom= 1.00D+00 WtEn= 0.00D+00
 Coeff-Com: -0.209D-02 0.807D-02 0.149D+00 0.416D+00 0.430D+00
 Coeff:     -0.209D-02 0.807D-02 0.149D+00 0.416D+00 0.430D+00
 Gap=     0.207 Goal=   None    Shift=    0.000
 RMSDP=1.87D-07 MaxDP=6.10D-06 DE=-1.90D-09 OVMax= 7.84D-06

 Cycle  11  Pass 1  IDiag  1:
 RMSU=  7.62D-08    CP:  1.00D+00  7.27D-01  9.13D-01  7.16D-01  4.81D-01
 E= -476.098392347701     Delta-E=       -0.000000000650 Rises=F Damp=F
 DIIS: error= 3.23D-07 at cycle   6 NSaved=   6.
 NSaved= 6 IEnMin= 6 EnMin= -476.098392347701     IErMin= 6 ErrMin= 3.23D-07
 ErrMax= 3.23D-07  0.00D+00 EMaxC= 1.00D-01 BMatC= 2.49D-11 BMatP= 8.17D-10
 IDIUse=1 WtCom= 1.00D+00 WtEn= 0.00D+00
 Coeff-Com: -0.398D-02 0.171D-02 0.660D-01 0.198D+00 0.235D+00 0.503D+00
 Coeff:     -0.398D-02 0.171D-02 0.660D-01 0.198D+00 0.235D+00 0.503D+00
 Gap=     0.207 Goal=   None    Shift=    0.000
 RMSDP=3.69D-08 MaxDP=1.17D-06 DE=-6.50D-10 OVMax= 1.87D-06

 Cycle  12  Pass 1  IDiag  1:
 RMSU=  2.87D-08    CP:  1.00D+00  7.27D-01  9.13D-01  7.20D-01  5.09D-01
                    CP:  7.42D-01
 E= -476.098392347727     Delta-E=       -0.000000000026 Rises=F Damp=F
 DIIS: error= 1.11D-07 at cycle   7 NSaved=   7.
 NSaved= 7 IEnMin= 7 EnMin= -476.098392347727     IErMin= 7 ErrMin= 1.11D-07
 ErrMax= 1.11D-07  0.00D+00 EMaxC= 1.00D-01 BMatC= 2.05D-12 BMatP= 2.49D-11
 IDIUse=1 WtCom= 1.00D+00 WtEn= 0.00D+00
 Coeff-Com: -0.157D-02-0.297D-03 0.115D-01 0.384D-01 0.498D-01 0.245D+00
 Coeff-Com:  0.657D+00
 Coeff:     -0.157D-02-0.297D-03 0.115D-01 0.384D-01 0.498D-01 0.245D+00
 Coeff:      0.657D+00
 Gap=     0.207 Goal=   None    Shift=    0.000
 RMSDP=1.21D-08 MaxDP=2.65D-07 DE=-2.58D-11 OVMax= 7.06D-07

 Cycle  13  Pass 1  IDiag  1:
 RMSU=  8.53D-09    CP:  1.00D+00  7.27D-01  9.13D-01  7.21D-01  5.03D-01
                    CP:  8.28D-01  8.66D-01
 E= -476.098392347725     Delta-E=        0.000000000002 Rises=F Damp=F
 DIIS: error= 3.15D-08 at cycle   8 NSaved=   8.
 NSaved= 8 IEnMin= 7 EnMin= -476.098392347727     IErMin= 8 ErrMin= 3.15D-08
 ErrMax= 3.15D-08  0.00D+00 EMaxC= 1.00D-01 BMatC= 2.69D-13 BMatP= 2.05D-12
 IDIUse=1 WtCom= 1.00D+00 WtEn= 0.00D+00
 Coeff-Com: -0.144D-03-0.413D-03-0.471D-02-0.123D-01-0.127D-01 0.427D-01
 Coeff-Com:  0.324D+00 0.664D+00
 Coeff:     -0.144D-03-0.413D-03-0.471D-02-0.123D-01-0.127D-01 0.427D-01
 Coeff:      0.324D+00 0.664D+00
 Gap=     0.207 Goal=   None    Shift=    0.000
 RMSDP=4.56D-09 MaxDP=7.74D-08 DE= 2.16D-12 OVMax= 2.37D-07

 SCF Done:  E(RB3LYP) =  -476.098392348     A.U. after   13 cycles
            NFock= 13  Conv=0.46D-08     -V/T= 2.0092
 KE= 4.717748994797D+02 PE=-2.084914719611D+03 EE= 6.496455336797D+02
 Leave Link  502 at Mon Oct 14 00:23:37 2019, MaxMem= 10737418240 cpu:              68.2 elap:               2.9
 (Enter /apps/cent7/gaussian/g16-A.03/g16-haswell/g16/l701.exe)
 ... and contract with generalized density number  0.
 Compute integral first derivatives.
 Leave Link  701 at Mon Oct 14 00:23:37 2019, MaxMem= 10737418240 cpu:               2.4 elap:               0.1
 (Enter /apps/cent7/gaussian/g16-A.03/g16-haswell/g16/l702.exe)
 L702 exits ... SP integral derivatives will be done elsewhere.
 Leave Link  702 at Mon Oct 14 00:23:37 2019, MaxMem= 10737418240 cpu:               0.4 elap:               0.0
 (Enter /apps/cent7/gaussian/g16-A.03/g16-haswell/g16/l703.exe)
 Integral derivatives from FoFJK, PRISM(SPDF).
 Compute integral first derivatives, UseDBF=F ICtDFT=           0.
 Calling FoFJK, ICntrl=      2127 FMM=F ISym2X=0 I1Cent= 0 IOpClX= 0 NMat=1 NMatS=1 NMatT=0.
 FoFJK:  IHMeth= 1 ICntrl=    2127 DoSepK=F KAlg= 0 I1Cent=           0 FoldK=F
 IRaf=         0 NMat=       1 IRICut=       1 DoRegI=T DoRafI=F ISym2E= 0 IDoP0=0 IntGTp=1.
 FoFCou: FMM=F IPFlag=           0 FMFlag=      100000 FMFlg1=         800
         NFxFlg=           0 DoJE=F BraDBF=F KetDBF=F FulRan=T
         wScrn=  0.000000 ICntrl=      2127 IOpCl=  0 I1Cent=           0 NGrid=           0
         NMat0=    1 NMatS0=      1 NMatT0=    0 NMatD0=    1 NMtDS0=    0 NMtDT0=    0
 Symmetry not used in FoFCou.
 Leave Link  703 at Mon Oct 14 00:23:38 2019, MaxMem= 10737418240 cpu:              17.6 elap:               0.8
 (Enter /apps/cent7/gaussian/g16-A.03/g16-haswell/g16/l716.exe)
 Dipole        =-7.75305734D-01-1.29344100D+00 2.70297561D-01
 ***** Axes restored to original set *****
 -------------------------------------------------------------------
 Center     Atomic                   Forces (Hartrees/Bohr)
 Number     Number              X              Y              Z
 -------------------------------------------------------------------
      1        8           0.009637218    0.012845820   -0.004019825
      2        6          -0.025713729   -0.020481344    0.007334117
      3        7           0.029841517    0.002009194    0.005793718
      4        8          -0.022179550    0.003487903   -0.007438451
      5        6           0.015111448    0.009378002   -0.001504101
      6        6          -0.001965305   -0.002422265   -0.000155354
      7        6           0.001500792    0.000232537    0.000264835
      8        6           0.001019114   -0.001166517   -0.000179544
      9        6           0.000075685   -0.000379143    0.000265831
     10        6          -0.004324780   -0.001350526   -0.000500138
     11        1          -0.004225341   -0.000454630   -0.001707529
     12        1           0.002513165   -0.002265971    0.002072117
     13        1          -0.001153909    0.000281211   -0.000417519
     14        1           0.000393300   -0.000304414   -0.000139856
     15        1           0.000038641   -0.000177927    0.000514984
     16        1          -0.000220220    0.000198699   -0.000208812
     17        1          -0.000348047    0.000569371    0.000025525
 -------------------------------------------------------------------
 Cartesian Forces:  Max     0.029841517 RMS     0.008031363
 Leave Link  716 at Mon Oct 14 00:23:38 2019, MaxMem= 10737418240 cpu:               0.5 elap:               0.0
 (Enter /apps/cent7/gaussian/g16-A.03/g16-haswell/g16/l103.exe)

 GradGradGradGradGradGradGradGradGradGradGradGradGradGradGradGradGradGrad
 Berny optimization.
 Using GEDIIS/GDIIS optimizer.
 FormGI is forming the generalized inverse of G from B-inverse, IUseBI=4.
 GSVD:  received Info=                   1 from GESDD.
 Internal  Forces:  Max     0.020093334 RMS     0.003614123
 Search for a local minimum.
 Step number   2 out of a maximum of   86
[...]
 1\1\GINC-BROWN-A236\Freq\RB3LYP\6-31G(d)\C7H7N1O2\FINEJ\14-Oct-2019\0\
 \#P Geom=AllCheck Guess=TCheck SCRF=Check GenChk RB3LYP/6-31G(d) Freq\
 \Title Card Required\\0,1\O,-2.8587391898,0.417344773,0.3537297145\C,-
 2.1413551862,1.3592373642,0.0088031056\N,-2.7272630437,2.5438035832,-0
 .3843340279\O,-4.119393123,2.4705928918,-0.5598165832\C,-0.6535152436,
 1.3252584855,0.0212541404\C,-0.0291272298,0.0706461618,0.0088117478\C,
 1.3607187002,-0.0176660975,0.0024383318\C,2.1364812988,1.1444857317,0.
 0176529428\C,1.5188368694,2.396904397,0.0469129464\C,0.1279528433,2.48
 99707584,0.0512639468\H,-2.3158646463,3.0516001556,-1.1596208425\H,-4.
 2950112255,1.5470604222,-0.2580920362\H,-0.6501690422,-0.8190923928,0.
 0047532169\H,1.8402682486,-0.9923860732,-0.0122541619\H,3.2208363176,1
 .0743391109,0.0158599314\H,2.1201954366,3.3011194125,0.078591321\H,-0.
 3488517844,3.4640813156,0.1134463063\\Version=ES64L-G16RevA.03\State=1
 -A\HF=-476.1081305\RMSD=6.962e-09\RMSF=2.418e-05\ZeroPoint=0.1318924\T
 hermal=0.1318925\Dipole=1.3186671,0.2926279,-0.5116679\DipoleDeriv=-0.
 9454192,-0.2967287,0.0917176,-0.10966,-0.8308357,0.202324,-0.0219199,0
 .2047461,-0.4460089,1.4419535,-0.0051446,0.0205703,-0.1972883,1.221605
 ,-0.3867303,0.1187059,-0.3238015,0.375849,0.1139494,-0.0043056,-0.0788
 32,0.4917216,-0.8878074,0.1863366,0.0441806,-0.1281115,-0.0932691,-0.8
 191096,0.2537115,-0.0496857,-0.0112299,-0.1842182,-0.021525,-0.1259229
 ,0.0434805,-0.3801645,-0.3900828,0.0059433,0.0142845,0.008254,-0.03372
 65,0.0139154,-0.0044876,0.0098744,-0.0088629,0.0189505,0.1228518,-0.00
 82318,-0.053731,0.0180784,0.0009425,0.0178406,-0.015392,-0.0814843,-0.
 0738089,-0.1562666,-0.004491,-0.1375209,0.1105477,-0.000262,0.0003597,
 0.0014278,-0.1083767,0.123676,0.0017047,-0.004905,-0.0290148,-0.002237
 5,0.0046685,-0.001798,0.0039969,-0.0876601,-0.0749701,0.1469116,0.0066
 76,0.1759433,0.0600837,0.0048245,0.0129947,0.0056276,-0.1060689,0.0323
 562,-0.0929324,-0.0219272,0.0626421,0.0115684,0.0251672,-0.0631515,0.0
 30006,-0.1092892,0.0957097,-0.0091788,0.0298087,-0.118665,0.3487714,-0
 .019355,0.024286,0.1271148,0.1750424,0.4476054,0.0135329,0.004613,-0.0
 996534,0.2344281,0.0115874,0.0083169,0.047907,0.3102695,0.0708903,-0.0
 646555,-0.0001707,-0.048086,0.0207134,-0.0067206,-0.0171332,0.005375,0
 .1122685,0.0182083,0.0648735,-0.0004171,0.075552,-0.0695158,-0.0027255
 ,0.000408,-0.0039666,0.1145127,-0.1094765,0.0119075,0.0003756,0.011073
 7,0.0657617,-0.0019367,-0.0015929,0.0006263,0.1115356,-0.0010991,-0.06
 9064,-0.0026418,-0.08581,-0.0513584,-0.0058096,0.0017179,-0.009021,0.1
 140888,0.0506671,0.0768395,0.0032566,0.0654726,-0.0318582,-0.0047015,0
 .0071956,0.0001103,0.1076181\Polar=123.9951791,-5.6190002,91.3882376,2
 .5016463,-4.9527224,33.7627155\Quadrupole=-0.4998254,1.9491085,-1.4492
 831,0.4532356,1.1847373,-0.3003662\PG=C01 [X(C7H7N1O2)]\NImag=0\\0.313
 24220,0.28091136,0.50478596,-0.10432645,-0.17243845,0.10175013,-0.2952
 9112,-0.23923888,0.08981518,0.73813762,-0.23541315,-0.40679208,0.12302
 140,0.14141755,0.73491286,0.09223872,0.12628987,-0.11951486,-0.0529529
 0,-0.20304009,0.26922438,0.00592942,-0.02517034,0.00579785,-0.15590640
 ,0.09548051,-0.02288734,0.57490762,-0.02307248,-0.09525270,0.04436528,
 0.05463087,-0.19989671,0.04545102,0.03320568,0.48935258,-0.00380016,0.
 03579770,0.01048008,-0.02055428,0.09719638,-0.08671212,-0.06888634,-0.
 33394725,0.39284220,0.01383760,-0.00075251,0.00184367,-0.05639947,-0.0
 1064809,-0.00549621,-0.25260252,0.03215827,-0.02663766,0.37727838,0.02
 555753,0.00137443,-0.00098558,0.03234086,-0.01808444,0.01176087,-0.058
 18507,-0.07464300,0.03762421,0.04868331,0.46611564,-0.00661357,0.00242
 955,-0.00202765,-0.01044833,-0.00355744,-0.00329599,-0.02170916,0.0407
 1983,-0.04526255,0.01387428,-0.16172892,0.08080863,-0.03833249,-0.0246
 6782,0.00705726,-0.19781397,0.01311456,-0.00430213,-0.02314055,0.01766
 463,-0.00565826,0.00481878,0.00124558,-0.00004944,0.63515429,-0.040612
 68,0.00232740,0.00485615,0.00885265,-0.10510565,0.00036047,0.03427968,
 0.00427090,0.00391050,0.00400756,-0.00353302,0.00284718,0.00778193,0.6
 9775947,0.01413411,0.00397937,0.01275764,-0.00530828,0.00914161,-0.070
 09632,-0.00990806,-0.00123836,0.00593131,-0.00118999,0.00343995,0.0047
 2852,0.00423039,-0.00588962,0.14522736,0.00078070,0.00352453,-0.001078
 29,-0.02520933,0.03220834,0.00058492,-0.00496520,-0.00451071,0.0015260
 2,-0.00163542,0.00143805,-0.00126493,-0.15663562,0.04576020,0.00288784
 ,0.71748493,-0.00396359,-0.00642957,0.00112876,0.01887642,0.00718894,-
 0.00077012,-0.00296899,0.00243076,-0.00068094,-0.00152261,0.00042890,-
 0.00050458,0.10146377,-0.28747208,-0.00191291,0.04061188,0.71014706,0.
 00088002,-0.00033200,-0.00000795,-0.00234374,0.00005947,0.00184916,0.0
 0006836,-0.00044513,0.00100220,-0.00016290,0.00014787,0.00058361,0.003
 37494,-0.00085390,-0.06445852,-0.00109401,0.00589498,0.13721506,0.0004
 1298,-0.00165388,0.00029031,0.00436165,0.00461667,-0.00031910,-0.00051
 254,0.00080006,-0.00061404,-0.00037157,-0.00007030,0.00017946,-0.02253
 675,0.07671416,0.00036311,-0.34750843,-0.01868308,0.00133076,0.6916153
 9,-0.00082938,0.00149372,-0.00012509,0.00199069,-0.00690520,0.00040125
 ,0.00190857,0.00185577,-0.00017466,-0.00013146,-0.00022871,0.00036392,
 0.03026110,0.02594462,-0.00054671,0.04762033,-0.13233200,-0.00109543,-
 0.03135630,0.73164560,-0.00068010,-0.00008316,-0.00035891,0.00048378,-
 0.00097505,0.00713042,0.00037283,0.00051014,-0.00019348,0.00021082,-0.
 00030485,-0.00044574,0.00017633,0.00153388,0.00745893,0.00179946,-0.00
 194667,-0.06115060,-0.00240044,0.00879027,0.13184776,-0.00016450,0.000
 57815,-0.00022529,-0.00014683,-0.00052191,0.00036311,0.00037785,0.0000
 1778,0.00017635,-0.00066893,-0.00007815,-0.00004971,-0.00021180,-0.003
 60664,-0.00009290,-0.03355807,-0.02558978,-0.00033984,-0.19464417,-0.1
 2910390,-0.00166133,0.74590901,-0.00144285,0.00037328,-0.00020177,0.00
 092767,-0.00391178,0.00025606,-0.00016482,0.00017346,0.00070272,0.0005
 5590,0.00008737,-0.00025248,-0.00500546,-0.06560233,0.00008099,-0.0733
 5368,0.04181500,0.00030738,-0.06146179,-0.27560361,-0.00246480,-0.0053
 9461,0.67191309,-0.00009830,0.00004864,0.00010899,-0.00000122,0.000004
 74,-0.00086117,0.00001771,-0.00012832,0.00010758,-0.00000210,0.0000898
 6,0.00003943,-0.00036824,-0.00133702,-0.00757093,-0.00119329,0.0008937
 4,0.00670513,-0.00027943,-0.00286554,-0.06097726,-0.00157635,0.0100380
 5,0.13417635,-0.00298525,-0.00030426,-0.00015914,0.00615777,-0.0053374
 0,0.00055355,-0.00057817,0.00157036,0.00069064,0.00057212,0.00027379,-
 0.00031642,-0.03666573,-0.06993141,-0.00083475,-0.04749453,0.03165563,
 0.00066650,0.06610230,0.01564362,0.00055965,-0.17145232,0.04854672,0.0
 0038468,0.69713881,-0.00088631,0.00091168,0.00054660,-0.00367394,-0.00
 487997,-0.00075648,0.00054269,-0.00007428,0.00009600,0.00001678,0.0005
 6056,0.00009760,-0.02198961,0.03830761,-0.00013399,0.02997017,-0.02109
 955,-0.00044523,-0.03196056,-0.05627232,-0.00116540,0.11621634,-0.2989
 9701,-0.00546849,0.03460644,0.72342566,-0.00121368,-0.00042363,-0.0009
 9296,0.00064423,-0.00121760,0.00778267,0.00075019,0.00027427,-0.000920
 22,0.00048752,0.00014841,0.00003900,-0.00144460,0.00183003,0.00748865,
 0.00082979,-0.00045477,-0.00748753,-0.00062453,-0.00118946,0.00748806,
 0.00246624,-0.00644314,-0.06108267,0.00152316,0.01788545,0.13061933,-0
 .00406324,0.00152486,0.00007754,-0.02248262,-0.02588025,0.00008934,-0.
 00111566,-0.00106959,-0.00081036,-0.00057257,-0.00035322,0.00043886,-0
 .17862725,-0.06018784,-0.00445295,0.06186003,-0.02991676,-0.00108951,-
 0.05493356,-0.02587221,-0.00044898,-0.02004508,0.08176852,0.00225055,-
 0.34391462,-0.02009384,-0.00044990,0.69293897,0.00695304,0.00146340,-0
 .00096326,-0.01331248,0.01134189,0.00044408,0.00127140,-0.00494091,-0.
 00095869,0.00099606,-0.00119319,0.00034303,-0.11389448,-0.26560849,-0.
 00437598,0.01481367,-0.05579544,-0.00130418,-0.02642172,-0.01364399,-0
 .00009885,0.03252628,0.02658986,0.00088770,0.04679562,-0.12998720,-0.0
 0250141,-0.03577383,0.71691225,0.00053537,-0.00004011,0.00248807,0.001
 26246,0.00010678,-0.00109725,-0.00070886,0.00080772,-0.00007693,-0.000
 07872,-0.00075915,-0.00010262,-0.00483946,-0.00720186,-0.06138966,-0.0
 0132714,-0.00067080,0.00847194,0.00013943,0.00043486,-0.00740362,0.001
 29886,-0.00036107,0.00682867,0.00134748,-0.00224585,-0.05982994,-0.003
 17646,0.02545975,0.13393392,-0.00062025,0.00594610,-0.00021355,0.01550
 222,0.00092069,-0.01056481,-0.10768491,-0.06459726,0.10575637,-0.02643
 121,-0.02389504,0.02395165,-0.00174932,0.00093334,0.00012309,0.0004510
 2,-0.00053490,0.00008957,-0.00036897,-0.00037903,-0.00004310,-0.000076
 00,0.00022058,-0.00002088,-0.00016404,-0.00026470,-0.00006870,-0.00090
 361,0.00085125,-0.00013713,0.13037614,0.00545754,-0.00087612,0.0018757
 4,-0.01524557,-0.02226304,0.02114110,-0.06789839,-0.11273812,0.1587830
 6,0.00279172,-0.00243610,-0.00137312,-0.00072348,-0.00049514,-0.001821
 02,0.00083869,-0.00099527,-0.00021580,-0.00073478,-0.00060689,0.000159
 01,-0.00015245,0.00070037,-0.00002335,0.00055434,-0.00051363,-0.000114
 65,-0.00069463,0.00189981,0.00004010,0.07832556,0.13925181,0.00070626,
 0.00304878,0.00356116,0.00686116,-0.01519695,-0.00615236,0.12332756,0.
 20392673,-0.27633209,-0.00596158,-0.01292448,0.01028051,-0.00075091,0.
 00039390,0.00015418,-0.00023508,-0.00005850,0.00007244,0.00021973,-0.0
 0015724,0.00000401,0.00009704,-0.00023498,-0.00005225,-0.00037156,-0.0
 0054313,0.00007783,0.00019705,0.00168691,0.00061145,-0.11914598,-0.178
 02380,0.26960992,0.00953161,-0.00049976,0.00140076,-0.01411181,-0.0113
 5150,0.00296714,-0.03248225,-0.04660970,0.01958797,-0.05742418,-0.0270
 3188,0.00173381,0.00103334,-0.00018292,0.00008730,0.00047867,0.0002494
 4,-0.00005510,-0.00010756,0.00007842,-0.00003108,0.00009629,0.00015304
 ,0.00003026,0.00031215,0.00002112,0.00005438,-0.00011154,-0.00064986,-
 0.00013944,-0.00758595,-0.00166912,-0.00438331,0.10045102,-0.01246539,
 -0.00729680,-0.00052787,0.01321495,0.01909468,-0.00294687,-0.01270767,
 -0.01269235,0.00129581,-0.07587508,-0.36969369,0.12070873,-0.00235141,
 -0.00308379,0.00047362,0.00044700,0.00000890,0.00004483,0.00020685,-0.
 00014432,-0.00008007,0.00004480,-0.00027231,-0.00001901,-0.00047805,-0
 .00009162,-0.00018266,-0.00038195,0.00048575,0.00021547,0.00324480,-0.
 00053664,-0.00055764,0.08698697,0.37451306,0.00683479,0.00098364,-0.00
 791668,-0.00683894,-0.00670258,0.00962275,-0.00498807,-0.00018030,-0.0
 0151005,0.02365729,0.12324792,-0.04520191,0.00147921,0.00093927,-0.000
 62358,-0.00015366,0.00014071,-0.00008198,0.00001848,0.00001264,0.00008
 533,-0.00008004,0.00002944,0.00000401,0.00011527,0.00012622,0.00014344
 ,0.00006719,-0.00026043,0.00005985,0.00127345,-0.00001821,-0.00124662,
 -0.02132865,-0.11850861,0.04675377,-0.00115163,-0.00041785,-0.00014082
 ,0.00051599,0.00218410,-0.00045566,0.00023601,-0.00114929,0.00025799,0
 .00003927,-0.00024244,0.00018172,0.01277990,0.01125260,0.00014624,-0.1
 5200786,-0.13445963,-0.00179067,-0.01190147,-0.02653081,-0.00011921,-0
 .00508811,0.00190639,0.00015648,-0.00058065,0.00085288,-0.00003094,-0.
 00135355,0.00291547,0.00017506,0.00013336,0.00001697,0.00016403,-0.000
 26205,0.00028858,-0.00014673,0.15753629,-0.00005485,0.00280549,-0.0003
 3825,-0.00325337,-0.00270847,0.00085798,0.00013847,0.00078024,0.000006
 51,-0.00003545,0.00023324,-0.00011453,-0.01673030,-0.02014690,-0.00004
 518,-0.13240656,-0.25350053,-0.00116559,0.00360801,0.00724201,0.000084
 55,0.00132637,0.00110841,0.00003463,0.00073060,0.00015341,-0.00000766,
 0.00402024,-0.00328423,-0.00006463,-0.00014046,-0.00008250,-0.00022825
 ,0.00024361,-0.00019268,0.00009340,0.14365155,0.26758924,0.00037069,0.
 00007461,-0.00041471,0.00042762,0.00040809,-0.00373529,-0.00020738,0.0
 0037045,-0.00000437,-0.00014139,0.00019494,0.00011263,-0.00122009,-0.0
 0046490,0.00387164,-0.00106454,-0.00096572,-0.03851430,0.00024508,0.00
 001828,0.00346405,0.00002777,-0.00031258,0.00739753,-0.00023763,0.0000
 4140,-0.00036477,0.00026088,-0.00022723,0.00579539,-0.00005955,-0.0000
 6609,-0.00002028,0.00008062,-0.00004506,0.00002973,0.00162201,0.000921
 88,0.02693097,-0.00024674,-0.00035131,0.00006059,0.00064148,0.00186003
 ,-0.00005048,-0.00054506,-0.00004284,0.00006802,-0.00028879,0.00013160
 ,-0.00014094,-0.00566184,-0.00114445,0.00006431,-0.00960240,0.03043428
 ,0.00047824,-0.11491591,0.11078762,0.00174392,0.01220089,-0.01751859,-
 0.00024645,-0.00173907,-0.00311684,-0.00003502,-0.00088305,-0.00082909
 ,0.00002587,-0.00000856,-0.00004816,-0.00000461,0.00009195,0.00001557,
 0.00000908,0.00116044,-0.00036595,-0.00002850,0.11828656,0.00023154,0.
 00006931,-0.00002646,-0.00053224,0.00000814,0.00002084,0.00003144,-0.0
 0007390,-0.00003168,0.00010034,-0.00001205,0.00002843,-0.00005971,0.00
 166763,-0.00007288,-0.00090529,0.00240282,0.00001245,0.11071549,-0.286
 15736,-0.00371271,0.01411173,-0.01896745,-0.00033757,-0.00427830,-0.00
 240150,-0.00013066,-0.00082614,0.00031639,0.00003246,-0.00001143,0.000
 02563,-0.00001568,-0.00005125,0.00001567,-0.00000586,0.00026408,0.0007
 4725,0.00006322,-0.11945267,0.30240227,0.00009337,-0.00000665,-0.00000
 585,-0.00000785,0.00003582,0.00047206,0.00006612,0.00002704,-0.0001061
 2,0.00002361,-0.00003635,-0.00007956,0.00005008,-0.00043392,0.00737990
 ,-0.00025523,0.00003978,0.00262045,0.00182864,-0.00360568,-0.03672736,
 0.00010346,-0.00023890,0.00265227,0.00007333,-0.00009982,0.00700505,0.
 00004751,0.00000275,-0.00026693,-0.00003155,0.00001773,0.00001096,-0.0
 0000422,0.00000662,0.00001841,-0.00006855,-0.00000057,-0.00407508,-0.0
 0189942,0.00411774,0.02594277,-0.00021240,0.00005059,0.00001550,0.0001
 8705,-0.00008014,0.00003079,-0.00005181,0.00007480,0.00001036,-0.00011
 226,0.00000149,-0.00004641,0.00073360,-0.00015103,-0.00000837,0.000151
 14,-0.00350177,-0.00004795,-0.01307241,0.00377914,0.00003924,-0.338986
 14,0.01804273,0.00051225,-0.00968137,-0.00163141,-0.00004841,0.0008630
 6,0.00271640,0.00007687,0.00004116,-0.00001068,0.00004880,0.00005347,-
 0.00002086,0.00000741,-0.00065075,0.00031353,-0.00000444,0.00088937,-0
 .00020873,-0.00000128,0.35955080,0.00001619,0.00025569,-0.00003741,-0.
 00005372,-0.00023706,0.00008031,0.00000444,0.00013335,0.00004764,-0.00
 001423,0.00006904,-0.00001153,-0.00011996,-0.00130675,-0.00000789,-0.0
 0252178,-0.00449554,-0.00010589,-0.02776231,0.00673359,0.00006600,0.01
 797527,-0.06221840,-0.00056566,0.02998178,0.00314426,0.00010537,0.0017
 4125,-0.00503199,-0.00034409,-0.00005043,-0.00004095,-0.00009832,0.000
 02628,-0.00001792,0.00000614,-0.00131080,0.00024974,-0.00002697,0.0004
 9989,0.00101306,0.00006876,-0.01945925,0.06070985,0.00019095,0.0000490
 0,0.00011032,-0.00012624,0.00014447,-0.00132364,-0.00012996,-0.0000538
 0,0.00016581,-0.00010984,-0.00002610,0.00000334,0.00009377,-0.00019715
 ,-0.00043599,-0.00008011,0.00001001,0.00725066,-0.00031617,0.00009035,
 0.00320890,0.00035419,-0.00052740,-0.03740607,0.00061326,-0.00018482,0
 .00310569,-0.00000804,-0.00022140,0.00718254,0.00002812,0.00001922,-0.
 00003501,-0.00001019,0.00003903,-0.00003944,-0.00004098,-0.00000175,0.
 00002740,0.00000652,0.00007806,-0.00382404,-0.00054739,0.00066341,0.02
 575111,-0.00096942,-0.00010721,0.00009412,0.00075839,-0.00170186,-0.00
 000636,-0.00007759,0.00032448,0.00011777,-0.00018265,0.00010224,-0.000
 08128,-0.00547579,0.00228458,-0.00008979,-0.00056805,0.00093176,0.0000
 0443,-0.00088493,0.00285188,-0.00000366,0.01215308,0.01343169,0.000433
 31,-0.14607838,-0.12893782,-0.00425986,-0.01316627,-0.02832809,-0.0011
 5792,-0.00000880,-0.00012501,-0.00001476,0.00010357,-0.00009375,0.0000
 3678,0.00006763,-0.00010352,0.00001076,0.00050258,0.00076233,-0.000008
 94,0.00085271,-0.00047436,0.00001085,0.15186326,-0.00006509,-0.0000113
 2,-0.00001512,0.00049066,0.00015898,0.00005045,-0.00002450,0.00010571,
 0.00000628,-0.00012017,0.00000375,-0.00002704,0.00095630,0.00136214,-0
 .00023520,0.00097582,0.00003985,0.00002556,0.00408260,-0.00336102,-0.0
 0030389,-0.01825089,-0.01882987,-0.00077951,-0.12904124,-0.25453633,-0
 .00763534,0.00321339,0.00585104,0.00013990,-0.00000154,-0.00004346,0.0
 0002156,0.00003826,-0.00000804,-0.00000294,-0.00010828,0.00002234,0.00
 003239,-0.00096864,-0.00103989,0.00001200,0.00023357,0.00104091,0.0001
 7454,0.13892957,0.26839883,-0.00009097,-0.00000071,-0.00032329,-0.0000
 1690,0.00009844,0.00074559,-0.00007155,-0.00000190,-0.00004546,-0.0000
 1990,0.00000508,-0.00001418,0.00027306,0.00003749,0.00732257,0.0002997
 8,-0.00012018,-0.00038131,-0.00014227,-0.00030506,0.00692800,-0.000549
 78,-0.00004609,0.00252237,-0.00411126,-0.00821601,-0.03611176,-0.00030
 454,-0.00027877,0.00209615,-0.00000575,0.00000997,0.00003823,-0.000000
 36,-0.00000029,0.00000269,-0.00000725,-0.00000112,-0.00117668,-0.00004
 245,-0.00004069,0.00029154,-0.00000701,0.00012738,-0.00383601,0.004906
 24,0.00838450,0.02592735,0.00030254,0.00062823,-0.00030924,0.00109936,
 -0.00086815,0.00020742,-0.00178827,0.00060493,-0.00123036,0.00014341,0
 .00008163,0.00036042,0.01233119,-0.01604972,-0.00015131,-0.00202157,-0
 .00308206,0.00003090,-0.00073406,-0.00071827,0.00000188,-0.00569517,-0
 .00121144,0.00000100,-0.00894903,0.03032861,0.00142013,-0.11348943,0.1
 0937035,0.00670373,-0.00090228,-0.00068254,-0.00075384,-0.00006675,-0.
 00007537,0.00003715,0.00052716,-0.00094192,-0.00008190,0.00011815,0.00
 010879,-0.00000911,-0.00055522,0.00152175,0.00007126,0.00111068,-0.000
 33983,-0.00010908,0.11856928,-0.00032143,0.00079825,-0.00013467,0.0025
 6788,-0.00192110,0.00039925,0.00025689,0.00120920,0.00032640,-0.000210
 34,0.00095128,0.00003137,0.01305434,-0.01928560,-0.00083578,-0.0045106
 6,-0.00234226,-0.00052937,-0.00063912,0.00034009,-0.00000838,-0.000098
 37,0.00164191,-0.00047288,-0.00098824,0.00235022,0.00005744,0.10878200
 ,-0.28537495,-0.01554949,-0.00056753,-0.00024976,-0.00103891,0.0002488
 5,-0.00008790,0.00009955,0.00088648,-0.00101605,-0.00001671,0.00010954
 ,-0.00001601,0.00009367,-0.00014839,-0.00000090,-0.00005569,0.00025308
 ,0.00084639,0.00034797,-0.11867499,0.30215721,0.00083895,0.00062355,0.
 00030648,-0.00089576,0.00047251,-0.00403803,-0.00090390,-0.00045741,0.
 00063421,-0.00029689,0.00010632,-0.00016548,0.00189810,-0.00033050,0.0
 0225430,-0.00018153,-0.00002278,0.00631156,0.00008097,-0.00004671,-0.0
 0035849,-0.00031178,-0.00033143,0.00740802,-0.00049675,0.00046596,0.00
 304013,0.00731183,-0.01763402,-0.03730103,-0.00093125,-0.00038991,-0.0
 0058208,0.00001011,0.00008398,-0.00009971,0.00009728,-0.00003142,0.000
 67614,-0.00000868,0.00002100,-0.00130847,-0.00002996,0.00003275,0.0000
 9442,0.00000832,0.00015187,-0.00398579,-0.00618905,0.01728623,0.027113
 81\\-0.00002381,-0.00001934,0.00001868,-0.00002637,0.00005272,-0.00003
 983,-0.00002381,-0.00001540,0.00001808,0.00005507,-0.00006679,0.000011
 94,0.00008050,-0.00000968,0.00000468,-0.00005008,-0.00000366,-0.000017
 49,-0.00000084,-0.00000027,0.00000981,-0.00000829,0.00001482,-0.000001
 99,0.00002154,-0.00002028,-0.00000069,-0.00003883,0.00002129,0.0000067
 3,0.00001238,0.00000947,-0.00000614,-0.00000144,0.00003800,-0.00000117
 ,0.00000680,0.00000408,0.00000230,0.00000214,0.00000350,-0.00000037,-0
 .00000004,0.00000176,-0.00000251,0.00000287,-0.00000085,0.00000255,-0.
 00000780,-0.00000935,-0.00000461\\\@


 IT CANNOT BE MY BEAUTY, FOR I HAVE NONE; AND IT CANNOT BE MY WIT,
 FOR HE HAS NOT ENOUGH TO KNOW THAT I HAVE ANY.
 -- CATHARINE SEDLEY, PUZZLED ABOUT WHY SHE WAS MISTRESS TO JAMES II
 Job cpu time:       0 days  0 hours  8 minutes 57.1 seconds.
 Elapsed time:       0 days  0 hours  0 minutes 22.9 seconds.
 File lengths (MBytes):  RWF=     60 Int=      0 D2E=      0 Chk=      4 Scr=      1
 Normal termination of Gaussian 16 at Mon Oct 14 00:24:52 2019.
real 84.25
user 1863.96
sys 16.53
Machine:
brown-a236
brown-a236
brown-a236
brown-a236
brown-a236
brown-a236
brown-a236
brown-a236
brown-a236
brown-a236
brown-a236
brown-a236
brown-a236
brown-a236
brown-a236
brown-a236
brown-a236
brown-a236
brown-a236
brown-a236
brown-a236
brown-a236
brown-a236
brown-a236
