 Entering Gaussian System, Link 0=/apps/cent7/gaussian/g16-A.03/g16-haswell/g16/g16
 Initial command:
 /apps/cent7/gaussian/g16-A.03/g16-haswell/g16/l1.exe "/scratch/brown/finej/gaussian/Gau-205256.inp" -scrdir="/scratch/brown/finej/gaussian/"
 Entering Link 1 = /apps/cent7/gaussian/g16-A.03/g16-haswell/g16/l1.exe PID=    205257.
  
 Copyright (c) 1988,1990,1992,1993,1995,1998,2003,2009,2016,
            Gaussian, Inc.  All Rights Reserved.
  
 This is part of the Gaussian(R) 16 program.  It is based on
 the Gaussian(R) 09 system (copyright 2009, Gaussian, Inc.),
 the Gaussian(R) 03 system (copyright 2003, Gaussian, Inc.),
 the Gaussian(R) 98 system (copyright 1998, Gaussian, Inc.),
 the Gaussian(R) 94 system (copyright 1995, Gaussian, Inc.),
 the Gaussian 92(TM) system (copyright 1992, Gaussian, Inc.),
 the Gaussian 90(TM) system (copyright 1990, Gaussian, Inc.),
 the Gaussian 88(TM) system (copyright 1988, Gaussian, Inc.),
 the Gaussian 86(TM) system (copyright 1986, Carnegie Mellon
 University), and the Gaussian 82(TM) system (copyright 1983,
 Carnegie Mellon University). Gaussian is a federally registered
 trademark of Gaussian, Inc.
  
 This software contains proprietary and confidential information,
 including trade secrets, belonging to Gaussian, Inc.
  
 This software is provided under written license and may be
 used, copied, transmitted, or stored only in accord with that
 written license.
  
 The following legend is applicable only to US Government
 contracts under FAR:
  
                    RESTRICTED RIGHTS LEGEND
  
 Use, reproduction and disclosure by the US Government is
 subject to restrictions as set forth in subparagraphs (a)
 and (c) of the Commercial Computer Software - Restricted
 Rights clause in FAR 52.227-19.
  
 Gaussian, Inc.
 340 Quinnipiac St., Bldg. 40, Wallingford CT 06492
  
  
 ---------------------------------------------------------------
 Warning -- This program may not be used in any manner that
 competes with the business of Gaussian, Inc. or will provide
 assistance to any competitor of Gaussian, Inc.  The licensee
 of this program is prohibited from giving any competitor of
 Gaussian, Inc. access to this program.  By using this program,
 the user acknowledges that Gaussian, Inc. is engaged in the
 business of creating and licensing software in the field of
 computational chemistry and represents and warrants to the
 licensee that it is not a competitor of Gaussian, Inc. and that
 it will not use this program in any manner prohibited above.
 ---------------------------------------------------------------
  

 Cite this work as:
 Gaussian 16, Revision A.03,
 M. J. Frisch, G. W. Trucks, H. B. Schlegel, G. E. Scuseria, 
 M. A. Robb, J. R. Cheeseman, G. Scalmani, V. Barone, 
 G. A. Petersson, H. Nakatsuji, X. Li, M. Caricato, A. V. Marenich, 
 J. Bloino, B. G. Janesko, R. Gomperts, B. Mennucci, H. P. Hratchian, 
 J. V. Ortiz, A. F. Izmaylov, J. L. Sonnenberg, D. Williams-Young, 
 F. Ding, F. Lipparini, F. Egidi, J. Goings, B. Peng, A. Petrone, 
 T. Henderson, D. Ranasinghe, V. G. Zakrzewski, J. Gao, N. Rega, 
 G. Zheng, W. Liang, M. Hada, M. Ehara, K. Toyota, R. Fukuda, 
 J. Hasegawa, M. Ishida, T. Nakajima, Y. Honda, O. Kitao, H. Nakai, 
 T. Vreven, K. Throssell, J. A. Montgomery, Jr., J. E. Peralta, 
 F. Ogliaro, M. J. Bearpark, J. J. Heyd, E. N. Brothers, K. N. Kudin, 
 V. N. Staroverov, T. A. Keith, R. Kobayashi, J. Normand, 
 K. Raghavachari, A. P. Rendell, J. C. Burant, S. S. Iyengar, 
 J. Tomasi, M. Cossi, J. M. Millam, M. Klene, C. Adamo, R. Cammi, 
 J. W. Ochterski, R. L. Martin, K. Morokuma, O. Farkas, 
 J. B. Foresman, and D. J. Fox, Gaussian, Inc., Wallingford CT, 2016.
 
 ******************************************
 Gaussian 16:  ES64L-G16RevA.03 25-Dec-2016
                14-Oct-2019 
 ******************************************
 %chk=13_p.chk
 %nprocshared=24
 Will use up to   24 processors via shared memory.
 %mem=80GB
 --------------------------------------------------------------
 #P opt freq b3lyp/6-31g(d) geom=connectivity temperature=0.001
 --------------------------------------------------------------
 1/18=20,19=15,26=3,38=1,57=2,112=-1000/1,3;
 2/9=110,12=2,17=6,18=5,40=1/2;
 3/5=1,6=6,7=1,11=2,25=1,30=1,71=1,74=-5/1,2,3;
 4//1;
 5/5=2,38=5/2;
 6/7=2,8=2,9=2,10=2,28=1/1;
 7//1,2,3,16;
 1/18=20,19=15,26=3/3(2);
 2/9=110/2;
 99//99;
 2/9=110/2;
 3/5=1,6=6,7=1,11=2,25=1,30=1,71=1,74=-5/1,2,3;
 4/5=5,16=3,69=1/1;
 5/5=2,38=5/2;
 7//1,2,3,16;
 1/18=20,19=15,26=3/3(-5);
 2/9=110/2;
 6/7=2,8=2,9=2,10=2,19=2,28=1/1;
 99/9=1/99;
 Leave Link    1 at Mon Oct 14 00:24:37 2019, MaxMem= 10737418240 cpu:               0.8 elap:               0.0
 (Enter /apps/cent7/gaussian/g16-A.03/g16-haswell/g16/l101.exe)
 -------------------
 Title Card Required
 -------------------
 Symbolic Z-matrix:
 Charge =  1 Multiplicity = 1
 O                    -2.7858    0.2039    0.1487 
 C                    -2.1146    1.2215   -0.147 
 N                    -2.7705    2.3222   -0.5979 
 O                    -4.068     2.3833   -0.7024 
 C                    -0.6942    1.2081   -0.0384 
 C                     0.0258   -0.0132    0.0116 
 C                     1.4338   -0.0244    0.0462 
 C                     2.1479    1.1861    0.0476 
 C                     1.4539    2.407     0.0441 
 C                     0.0478    2.4167    0.0065 
 H                    -2.49826   3.07805  -0.00244 
 H                    -4.4591    2.4016    0.1742 
 H                    -0.5128   -0.9608    0.0236 
 H                     1.9719   -0.972     0.072 
 H                     3.2379    1.1782    0.0513 
 H                     2.0063    3.3463    0.0706 
 H                    -0.474     3.3736    0.0121 
 H                    -2.40343   2.51812  -1.50723 
 
 ITRead=  0  0  0  0  0  0  0  0  0  0  0  0  0  0  0  0  0  0
 MicOpt= -1 -1 -1 -1 -1 -1 -1 -1 -1 -1 -1 -1 -1 -1 -1 -1 -1 -1
 NAtoms=     18 NQM=       18 NQMF=       0 NMMI=      0 NMMIF=      0
                NMic=       0 NMicF=      0.
                    Isotopes and Nuclear Properties:
 (Nuclear quadrupole moments (NQMom) in fm**2, nuclear magnetic moments (NMagM)
  in nuclear magnetons)

  Atom         1           2           3           4           5           6           7           8           9          10
 IAtWgt=          16          12          14          16          12          12          12          12          12          12
 AtmWgt=  15.9949146  12.0000000  14.0030740  15.9949146  12.0000000  12.0000000  12.0000000  12.0000000  12.0000000  12.0000000
 NucSpn=           0           0           2           0           0           0           0           0           0           0
 AtZEff=  -0.0000000  -0.0000000  -0.0000000  -0.0000000  -0.0000000  -0.0000000  -0.0000000  -0.0000000  -0.0000000  -0.0000000
 NQMom=    0.0000000   0.0000000   2.0440000   0.0000000   0.0000000   0.0000000   0.0000000   0.0000000   0.0000000   0.0000000
 NMagM=    0.0000000   0.0000000   0.4037610   0.0000000   0.0000000   0.0000000   0.0000000   0.0000000   0.0000000   0.0000000
 AtZNuc=   8.0000000   6.0000000   7.0000000   8.0000000   6.0000000   6.0000000   6.0000000   6.0000000   6.0000000   6.0000000

  Atom        11          12          13          14          15          16          17          18
 IAtWgt=           1           1           1           1           1           1           1           1
 AtmWgt=   1.0078250   1.0078250   1.0078250   1.0078250   1.0078250   1.0078250   1.0078250   1.0078250
 NucSpn=           1           1           1           1           1           1           1           1
 AtZEff=  -0.0000000  -0.0000000  -0.0000000  -0.0000000  -0.0000000  -0.0000000  -0.0000000  -0.0000000
 NQMom=    0.0000000   0.0000000   0.0000000   0.0000000   0.0000000   0.0000000   0.0000000   0.0000000
 NMagM=    2.7928460   2.7928460   2.7928460   2.7928460   2.7928460   2.7928460   2.7928460   2.7928460
 AtZNuc=   1.0000000   1.0000000   1.0000000   1.0000000   1.0000000   1.0000000   1.0000000   1.0000000
 Leave Link  101 at Mon Oct 14 00:24:38 2019, MaxMem= 10737418240 cpu:               8.3 elap:               0.4
 (Enter /apps/cent7/gaussian/g16-A.03/g16-haswell/g16/l103.exe)

 GradGradGradGradGradGradGradGradGradGradGradGradGradGradGradGradGradGrad
 Berny optimization.
 Initialization pass.
                           ----------------------------
                           !    Initial Parameters    !
                           ! (Angstroms and Degrees)  !
 --------------------------                            --------------------------
 ! Name  Definition              Value          Derivative Info.                !
 --------------------------------------------------------------------------------
 ! R1    R(1,2)                  1.2544         estimate D2E/DX2                !
 ! R2    R(2,3)                  1.3583         estimate D2E/DX2                !
 ! R3    R(2,5)                  1.4246         estimate D2E/DX2                !
 ! R4    R(3,4)                  1.3031         estimate D2E/DX2                !
 ! R5    R(3,11)                 1.0            estimate D2E/DX2                !
 ! R6    R(3,18)                 1.0            estimate D2E/DX2                !
 ! R7    R(4,12)                 0.9601         estimate D2E/DX2                !
 ! R8    R(5,6)                  1.4186         estimate D2E/DX2                !
 ! R9    R(5,10)                 1.4189         estimate D2E/DX2                !
 ! R10   R(6,7)                  1.4085         estimate D2E/DX2                !
 ! R11   R(6,13)                 1.09           estimate D2E/DX2                !
 ! R12   R(7,8)                  1.4054         estimate D2E/DX2                !
 ! R13   R(7,14)                 1.09           estimate D2E/DX2                !
 ! R14   R(8,9)                  1.4044         estimate D2E/DX2                !
 ! R15   R(8,15)                 1.09           estimate D2E/DX2                !
 ! R16   R(9,10)                 1.4066         estimate D2E/DX2                !
 ! R17   R(9,16)                 1.09           estimate D2E/DX2                !
 ! R18   R(10,17)                1.0899         estimate D2E/DX2                !
 ! A1    A(1,2,3)              118.5059         estimate D2E/DX2                !
 ! A2    A(1,2,5)              120.5244         estimate D2E/DX2                !
 ! A3    A(3,2,5)              120.9556         estimate D2E/DX2                !
 ! A4    A(2,3,4)              123.0519         estimate D2E/DX2                !
 ! A5    A(2,3,11)             106.4615         estimate D2E/DX2                !
 ! A6    A(2,3,18)             106.4615         estimate D2E/DX2                !
 ! A7    A(4,3,11)             106.4615         estimate D2E/DX2                !
 ! A8    A(4,3,18)             106.4615         estimate D2E/DX2                !
 ! A9    A(11,3,18)            107.0647         estimate D2E/DX2                !
 ! A10   A(3,4,12)             109.4681         estimate D2E/DX2                !
 ! A11   A(2,5,6)              121.1193         estimate D2E/DX2                !
 ! A12   A(2,5,10)             121.0505         estimate D2E/DX2                !
 ! A13   A(6,5,10)             117.8256         estimate D2E/DX2                !
 ! A14   A(5,6,7)              121.0027         estimate D2E/DX2                !
 ! A15   A(5,6,13)             119.8692         estimate D2E/DX2                !
 ! A16   A(7,6,13)             119.1281         estimate D2E/DX2                !
 ! A17   A(6,7,8)              120.0731         estimate D2E/DX2                !
 ! A18   A(6,7,14)             120.0653         estimate D2E/DX2                !
 ! A19   A(8,7,14)             119.8616         estimate D2E/DX2                !
 ! A20   A(7,8,9)              119.8471         estimate D2E/DX2                !
 ! A21   A(7,8,15)             120.122          estimate D2E/DX2                !
 ! A22   A(9,8,15)             120.0309         estimate D2E/DX2                !
 ! A23   A(8,9,10)             120.0031         estimate D2E/DX2                !
 ! A24   A(8,9,16)             119.9111         estimate D2E/DX2                !
 ! A25   A(10,9,16)            120.0858         estimate D2E/DX2                !
 ! A26   A(5,10,9)             121.1788         estimate D2E/DX2                !
 ! A27   A(5,10,17)            119.8429         estimate D2E/DX2                !
 ! A28   A(9,10,17)            118.9782         estimate D2E/DX2                !
 ! D1    D(1,2,3,4)              1.9771         estimate D2E/DX2                !
 ! D2    D(1,2,3,11)           124.9882         estimate D2E/DX2                !
 ! D3    D(1,2,3,18)          -121.0339         estimate D2E/DX2                !
 ! D4    D(5,2,3,4)           -179.3811         estimate D2E/DX2                !
 ! D5    D(5,2,3,11)           -56.37           estimate D2E/DX2                !
 ! D6    D(5,2,3,18)            57.6078         estimate D2E/DX2                !
 ! D7    D(1,2,5,6)             18.9137         estimate D2E/DX2                !
 ! D8    D(1,2,5,10)          -161.8799         estimate D2E/DX2                !
 ! D9    D(3,2,5,6)           -159.7006         estimate D2E/DX2                !
 ! D10   D(3,2,5,10)            19.5058         estimate D2E/DX2                !
 ! D11   D(2,3,4,12)            69.8125         estimate D2E/DX2                !
 ! D12   D(11,3,4,12)          -53.1985         estimate D2E/DX2                !
 ! D13   D(18,3,4,12)         -167.1764         estimate D2E/DX2                !
 ! D14   D(2,5,6,7)            176.5406         estimate D2E/DX2                !
 ! D15   D(2,5,6,13)            -3.4556         estimate D2E/DX2                !
 ! D16   D(10,5,6,7)            -2.6906         estimate D2E/DX2                !
 ! D17   D(10,5,6,13)          177.3132         estimate D2E/DX2                !
 ! D18   D(2,5,10,9)          -176.6814         estimate D2E/DX2                !
 ! D19   D(2,5,10,17)            3.3108         estimate D2E/DX2                !
 ! D20   D(6,5,10,9)             2.5504         estimate D2E/DX2                !
 ! D21   D(6,5,10,17)         -177.4574         estimate D2E/DX2                !
 ! D22   D(5,6,7,8)              0.7615         estimate D2E/DX2                !
 ! D23   D(5,6,7,14)          -179.2416         estimate D2E/DX2                !
 ! D24   D(13,6,7,8)          -179.2423         estimate D2E/DX2                !
 ! D25   D(13,6,7,14)            0.7546         estimate D2E/DX2                !
 ! D26   D(6,7,8,9)              1.3962         estimate D2E/DX2                !
 ! D27   D(6,7,8,15)          -178.5981         estimate D2E/DX2                !
 ! D28   D(14,7,8,9)          -178.6006         estimate D2E/DX2                !
 ! D29   D(14,7,8,15)            1.405          estimate D2E/DX2                !
 ! D30   D(7,8,9,10)            -1.5386         estimate D2E/DX2                !
 ! D31   D(7,8,9,16)           178.4583         estimate D2E/DX2                !
 ! D32   D(15,8,9,10)          178.4558         estimate D2E/DX2                !
 ! D33   D(15,8,9,16)           -1.5473         estimate D2E/DX2                !
 ! D34   D(8,9,10,5)            -0.4732         estimate D2E/DX2                !
 ! D35   D(8,9,10,17)          179.5345         estimate D2E/DX2                !
 ! D36   D(16,9,10,5)          179.5299         estimate D2E/DX2                !
 ! D37   D(16,9,10,17)          -0.4624         estimate D2E/DX2                !
 --------------------------------------------------------------------------------
 Trust Radius=3.00D-01 FncErr=1.00D-07 GrdErr=1.00D-06 EigMax=2.50D+02 EigMin=1.00D-04
 Number of steps in this run=     93 maximum allowed number of steps=    108.
 GradGradGradGradGradGradGradGradGradGradGradGradGradGradGradGradGradGrad

 Leave Link  103 at Mon Oct 14 00:24:38 2019, MaxMem= 10737418240 cpu:               1.0 elap:               0.1
 (Enter /apps/cent7/gaussian/g16-A.03/g16-haswell/g16/l202.exe)
                          Input orientation:                          
 ---------------------------------------------------------------------
 Center     Atomic      Atomic             Coordinates (Angstroms)
 Number     Number       Type             X           Y           Z
 ---------------------------------------------------------------------
      1          8           0       -2.785800    0.203900    0.148700
      2          6           0       -2.114600    1.221500   -0.147000
      3          7           0       -2.770500    2.322200   -0.597900
      4          8           0       -4.068000    2.383300   -0.702400
      5          6           0       -0.694200    1.208100   -0.038400
      6          6           0        0.025800   -0.013200    0.011600
      7          6           0        1.433800   -0.024400    0.046200
      8          6           0        2.147900    1.186100    0.047600
      9          6           0        1.453900    2.407000    0.044100
     10          6           0        0.047800    2.416700    0.006500
     11          1           0       -2.498263    3.078052   -0.002438
     12          1           0       -4.459100    2.401600    0.174200
     13          1           0       -0.512800   -0.960800    0.023600
     14          1           0        1.971900   -0.972000    0.072000
     15          1           0        3.237900    1.178200    0.051300
     16          1           0        2.006300    3.346300    0.070600
     17          1           0       -0.474000    3.373600    0.012100
     18          1           0       -2.403435    2.518124   -1.507228
 ---------------------------------------------------------------------
                    Distance matrix (angstroms):
                    1          2          3          4          5
     1  O    0.000000
     2  C    1.254375   0.000000
     3  N    2.246072   1.358328   0.000000
     4  O    2.667994   2.339662   1.303135   0.000000
     5  C    2.327706   1.424609   2.421834   3.633802   0.000000
     6  C    2.823300   2.476076   3.693897   4.797104   1.418617
     7  C    4.227014   3.765732   4.857729   6.052043   2.460609
     8  C    5.031534   4.267087   5.089013   6.374418   2.843486
     9  C    4.779084   3.765119   4.273747   5.572181   2.461402
    10  C    3.598054   2.475488   2.883929   4.176537   1.418906
    11  H    2.892450   1.901284   1.000000   1.853834   2.598587
    12  H    2.762330   2.644331   1.858444   0.960063   3.955264
    13  H    2.557089   2.712434   4.032563   4.934524   2.177356
    14  H    4.901462   4.643155   5.812992   6.952563   3.445738
    15  H    6.102762   5.356347   6.150696   7.442883   3.933237
    16  H    5.731056   4.641545   4.930871   6.198550   3.446227
    17  H    3.925567   2.710796   2.598356   3.795792   2.177253
    18  H    2.871225   1.901284   1.000000   1.853834   2.606742
                    6          7          8          9         10
     6  C    0.000000
     7  C    1.408470   0.000000
     8  C    2.437811   1.405436   0.000000
     9  C    2.810319   2.431484   1.404366   0.000000
    10  C    2.430005   2.807408   2.434437   1.406636   0.000000
    11  H    3.990855   5.008861   5.016853   4.008998   2.630570
    12  H    5.096276   6.374020   6.719071   5.914434   4.510044
    13  H    1.090037   2.160233   3.418930   3.900052   3.423751
    14  H    2.170311   1.090029   2.165402   3.418588   3.897402
    15  H    3.426164   2.168190   1.090035   2.166254   3.422372
    16  H    3.900269   3.419060   2.164958   1.090015   2.168868
    17  H    3.423480   3.897085   3.414788   2.156882   1.089938
    18  H    3.823038   4.858183   4.990634   4.159086   2.882744
                   11         12         13         14         15
    11  H    0.000000
    12  H    2.081747   0.000000
    13  H    4.500562   5.186685   0.000000
    14  H    6.032480   7.262877   2.485197   0.000000
    15  H    6.042838   7.794589   4.317851   2.495304   0.000000
    16  H    4.513134   6.534875   4.989908   4.318437   2.493565
    17  H    2.045776   4.105129   4.334589   4.987009   4.312716
    18  H    1.608385   2.658296   4.245097   5.815366   6.004087
                   16         17         18
    16  H    0.000000
    17  H    2.481140   0.000000
    18  H    4.756173   2.600560   0.000000
 Stoichiometry    C7H8NO2(1+)
 Framework group  C1[X(C7H8NO2)]
 Deg. of freedom    48
 Full point group                 C1      NOp   1
 Largest Abelian subgroup         C1      NOp   1
 Largest concise Abelian subgroup C1      NOp   1
                         Standard orientation:                         
 ---------------------------------------------------------------------
 Center     Atomic      Atomic             Coordinates (Angstroms)
 Number     Number       Type             X           Y           Z
 ---------------------------------------------------------------------
      1          8           0       -1.664264    1.515517   -0.290632
      2          6           0       -1.196460    0.373953   -0.063810
      3          7           0       -2.060446   -0.638690    0.206631
      4          8           0       -3.354854   -0.488140    0.204804
      5          6           0        0.211396    0.156128   -0.062213
      6          6           0        1.120161    1.235707    0.083145
      7          6           0        2.508536    1.010387    0.156845
      8          6           0        3.015301   -0.297658    0.070481
      9          6           0        2.136509   -1.376591   -0.118918
     10          6           0        0.749960   -1.150426   -0.189331
     11          1           0       -1.858832   -1.366012   -0.449384
     12          1           0       -3.659786   -0.351215   -0.695190
     13          1           0        0.744738    2.257510    0.139328
     14          1           0        3.192238    1.850217    0.280942
     15          1           0        4.087818   -0.475168    0.150313
     16          1           0        2.530440   -2.388731   -0.211236
     17          1           0        0.083721   -1.998987   -0.344362
     18          1           0       -1.816699   -0.984807    1.112606
 ---------------------------------------------------------------------
 Rotational constants (GHZ):           3.4639448           0.8111294           0.6675536
 Leave Link  202 at Mon Oct 14 00:24:38 2019, MaxMem= 10737418240 cpu:               0.7 elap:               0.1
 (Enter /apps/cent7/gaussian/g16-A.03/g16-haswell/g16/l301.exe)
 Standard basis: 6-31G(d) (6D, 7F)
 Ernie: Thresh=  0.10000D-02 Tol=  0.10000D-05 Strict=F.
 There are   166 symmetry adapted cartesian basis functions of A   symmetry.
 There are   166 symmetry adapted basis functions of A   symmetry.
   166 basis functions,   312 primitive gaussians,   166 cartesian basis functions
    36 alpha electrons       36 beta electrons
       nuclear repulsion energy       504.6710747297 Hartrees.
 IExCor=  402 DFT=T Ex+Corr=B3LYP ExCW=0 ScaHFX=  0.200000
 ScaDFX=  0.800000  0.720000  1.000000  0.810000 ScalE2=  1.000000  1.000000
 IRadAn=      5 IRanWt=     -1 IRanGd=            0 ICorTp=0 IEmpDi=  4
 NAtoms=   18 NActive=   18 NUniq=   18 SFac= 1.00D+00 NAtFMM=   60 NAOKFM=F Big=F
 Integral buffers will be    131072 words long.
 Raffenetti 2 integral format.
 Two-electron integral symmetry is turned on.
 Leave Link  301 at Mon Oct 14 00:24:38 2019, MaxMem= 10737418240 cpu:               1.3 elap:               0.1
 (Enter /apps/cent7/gaussian/g16-A.03/g16-haswell/g16/l302.exe)
 NPDir=0 NMtPBC=     1 NCelOv=     1 NCel=       1 NClECP=     1 NCelD=      1
         NCelK=      1 NCelE2=     1 NClLst=     1 CellRange=     0.0.
 One-electron integrals computed using PRISM.
 One-electron integral symmetry used in STVInt
 NBasis=   166 RedAO= T EigKep=  5.00D-04  NBF=   166
 NBsUse=   166 1.00D-06 EigRej= -1.00D+00 NBFU=   166
 Precomputing XC quadrature grid using
 IXCGrd= 4 IRadAn=           5 IRanWt=          -1 IRanGd=           0 AccXCQ= 0.00D+00.
 Generated NRdTot=       0 NPtTot=           0 NUsed=           0 NTot=          32
 NSgBfM=   166   166   166   166   166 MxSgAt=    18 MxSgA2=    18.
 Leave Link  302 at Mon Oct 14 00:24:38 2019, MaxMem= 10737418240 cpu:               3.4 elap:               0.2
 (Enter /apps/cent7/gaussian/g16-A.03/g16-haswell/g16/l303.exe)
 DipDrv:  MaxL=1.
 Leave Link  303 at Mon Oct 14 00:24:38 2019, MaxMem= 10737418240 cpu:               1.3 elap:               0.1
 (Enter /apps/cent7/gaussian/g16-A.03/g16-haswell/g16/l401.exe)
 ExpMin= 1.61D-01 ExpMax= 5.48D+03 ExpMxC= 8.25D+02 IAcc=3 IRadAn=         5 AccDes= 0.00D+00
 Harris functional with IExCor=  402 and IRadAn=       5 diagonalized for initial guess.
 HarFok:  IExCor=  402 AccDes= 0.00D+00 IRadAn=         5 IDoV= 1 UseB2=F ITyADJ=14
 ICtDFT=  3500011 ScaDFX=  1.000000  1.000000  1.000000  1.000000
 FoFCou: FMM=F IPFlag=           0 FMFlag=      100000 FMFlg1=           0
         NFxFlg=           0 DoJE=T BraDBF=F KetDBF=T FulRan=T
         wScrn=  0.000000 ICntrl=       500 IOpCl=  0 I1Cent=   200000004 NGrid=           0
         NMat0=    1 NMatS0=      1 NMatT0=    0 NMatD0=    1 NMtDS0=    0 NMtDT0=    0
 Petite list used in FoFCou.
 Harris En= -476.452284130090    
 JPrj=0 DoOrth=F DoCkMO=F.
 Leave Link  401 at Mon Oct 14 00:24:39 2019, MaxMem= 10737418240 cpu:               6.8 elap:               0.3
 (Enter /apps/cent7/gaussian/g16-A.03/g16-haswell/g16/l502.exe)
 Integral symmetry usage will be decided dynamically.
 Closed shell SCF:
 Using DIIS extrapolation, IDIIS=  1040.
 NGot= 10737418240 LenX= 10737357196 LenY= 10737329199
 Requested convergence on RMS density matrix=1.00D-08 within 128 cycles.
 Requested convergence on MAX density matrix=1.00D-06.
 Requested convergence on             energy=1.00D-06.
 No special actions if energy rises.
 Fock matrices will be formed incrementally for  20 cycles.
 Integral accuracy reduced to 1.0D-05 until final iterations.

 Cycle   1  Pass 0  IDiag  1:
 FoFJK:  IHMeth= 1 ICntrl=       0 DoSepK=F KAlg= 0 I1Cent=           0 FoldK=F
 IRaf= 920000000 NMat=       1 IRICut=       1 DoRegI=T DoRafI=F ISym2E= 0 IDoP0=0 IntGTp=1.
 FoFCou: FMM=F IPFlag=           0 FMFlag=      100000 FMFlg1=           0
         NFxFlg=           0 DoJE=F BraDBF=F KetDBF=F FulRan=T
         wScrn=  0.000000 ICntrl=         0 IOpCl=  0 I1Cent=           0 NGrid=           0
         NMat0=    1 NMatS0=      1 NMatT0=    0 NMatD0=    1 NMtDS0=    0 NMtDT0=    0
 Symmetry not used in FoFCou.
 E= -476.135949935071    
 DIIS: error= 3.64D-02 at cycle   1 NSaved=   1.
 NSaved= 1 IEnMin= 1 EnMin= -476.135949935071     IErMin= 1 ErrMin= 3.64D-02
 ErrMax= 3.64D-02  0.00D+00 EMaxC= 1.00D-01 BMatC= 2.58D-01 BMatP= 2.58D-01
 IDIUse=3 WtCom= 6.36D-01 WtEn= 3.64D-01
 Coeff-Com:  0.100D+01
 Coeff-En:   0.100D+01
 Coeff:      0.100D+01
 Gap=     0.116 Goal=   None    Shift=    0.000
 GapD=    0.116 DampG=1.000 DampE=0.500 DampFc=0.5000 IDamp=-1.
 Damping current iteration by 5.00D-01
 RMSDP=1.05D-02 MaxDP=3.60D-01              OVMax= 3.47D-01

 Cycle   2  Pass 0  IDiag  1:
 RMSU=  5.25D-03    CP:  9.93D-01
 E= -476.158065156597     Delta-E=       -0.022115221526 Rises=F Damp=T
 DIIS: error= 2.33D-02 at cycle   2 NSaved=   2.
 NSaved= 2 IEnMin= 2 EnMin= -476.158065156597     IErMin= 2 ErrMin= 2.33D-02
 ErrMax= 2.33D-02  0.00D+00 EMaxC= 1.00D-01 BMatC= 8.28D-02 BMatP= 2.58D-01
 IDIUse=3 WtCom= 7.67D-01 WtEn= 2.33D-01
 Coeff-Com:  0.319D+00 0.681D+00
 Coeff-En:   0.461D+00 0.539D+00
 Coeff:      0.352D+00 0.648D+00
 Gap=     0.192 Goal=   None    Shift=    0.000
 RMSDP=3.20D-03 MaxDP=1.08D-01 DE=-2.21D-02 OVMax= 2.99D-01

 Cycle   3  Pass 0  IDiag  1:
 RMSU=  2.54D-03    CP:  9.77D-01  6.36D-01
 E= -476.345853548285     Delta-E=       -0.187788391688 Rises=F Damp=F
 DIIS: error= 2.08D-02 at cycle   3 NSaved=   3.
 NSaved= 3 IEnMin= 3 EnMin= -476.345853548285     IErMin= 3 ErrMin= 2.08D-02
 ErrMax= 2.08D-02  0.00D+00 EMaxC= 1.00D-01 BMatC= 3.84D-02 BMatP= 8.28D-02
 IDIUse=3 WtCom= 7.92D-01 WtEn= 2.08D-01
 Coeff-Com:  0.115D+00 0.388D+00 0.497D+00
 Coeff-En:   0.000D+00 0.000D+00 0.100D+01
 Coeff:      0.915D-01 0.307D+00 0.601D+00
 Gap=     0.182 Goal=   None    Shift=    0.000
 RMSDP=2.12D-03 MaxDP=7.49D-02 DE=-1.88D-01 OVMax= 9.90D-02

 Cycle   4  Pass 0  IDiag  1:
 RMSU=  1.51D-03    CP:  9.84D-01  7.28D-01  4.53D-01
 E= -476.364023494906     Delta-E=       -0.018169946621 Rises=F Damp=F
 DIIS: error= 1.44D-02 at cycle   4 NSaved=   4.
 NSaved= 4 IEnMin= 4 EnMin= -476.364023494906     IErMin= 4 ErrMin= 1.44D-02
 ErrMax= 1.44D-02  0.00D+00 EMaxC= 1.00D-01 BMatC= 2.08D-02 BMatP= 3.84D-02
 IDIUse=3 WtCom= 8.56D-01 WtEn= 1.44D-01
 Coeff-Com:  0.417D-01 0.811D-01 0.407D+00 0.471D+00
 Coeff-En:   0.000D+00 0.000D+00 0.369D+00 0.631D+00
 Coeff:      0.357D-01 0.694D-01 0.401D+00 0.494D+00
 Gap=     0.175 Goal=   None    Shift=    0.000
 RMSDP=1.10D-03 MaxDP=3.81D-02 DE=-1.82D-02 OVMax= 6.63D-02

 Cycle   5  Pass 0  IDiag  1:
 RMSU=  3.49D-04    CP:  9.82D-01  6.53D-01  6.92D-01  5.07D-01
 E= -476.381888987352     Delta-E=       -0.017865492446 Rises=F Damp=F
 DIIS: error= 2.15D-03 at cycle   5 NSaved=   5.
 NSaved= 5 IEnMin= 5 EnMin= -476.381888987352     IErMin= 5 ErrMin= 2.15D-03
 ErrMax= 2.15D-03  0.00D+00 EMaxC= 1.00D-01 BMatC= 6.65D-04 BMatP= 2.08D-02
 IDIUse=3 WtCom= 9.78D-01 WtEn= 2.15D-02
 Coeff-Com:  0.846D-02 0.342D-02 0.167D+00 0.268D+00 0.553D+00
 Coeff-En:   0.000D+00 0.000D+00 0.000D+00 0.000D+00 0.100D+01
 Coeff:      0.827D-02 0.335D-02 0.164D+00 0.262D+00 0.563D+00
 Gap=     0.161 Goal=   None    Shift=    0.000
 RMSDP=2.37D-04 MaxDP=6.06D-03 DE=-1.79D-02 OVMax= 1.87D-02

 Cycle   6  Pass 0  IDiag  1:
 RMSU=  1.34D-04    CP:  9.82D-01  6.59D-01  6.80D-01  5.63D-01  5.11D-01
 E= -476.382449481421     Delta-E=       -0.000560494069 Rises=F Damp=F
 DIIS: error= 7.40D-04 at cycle   6 NSaved=   6.
 NSaved= 6 IEnMin= 6 EnMin= -476.382449481421     IErMin= 6 ErrMin= 7.40D-04
 ErrMax= 7.40D-04  0.00D+00 EMaxC= 1.00D-01 BMatC= 9.93D-05 BMatP= 6.65D-04
 IDIUse=3 WtCom= 9.93D-01 WtEn= 7.40D-03
 Coeff-Com:  0.112D-02-0.428D-02 0.561D-01 0.101D+00 0.342D+00 0.504D+00
 Coeff-En:   0.000D+00 0.000D+00 0.000D+00 0.000D+00 0.145D+00 0.855D+00
 Coeff:      0.111D-02-0.425D-02 0.557D-01 0.101D+00 0.341D+00 0.506D+00
 Gap=     0.161 Goal=   None    Shift=    0.000
 RMSDP=7.86D-05 MaxDP=2.16D-03 DE=-5.60D-04 OVMax= 5.98D-03

 Cycle   7  Pass 0  IDiag  1:
 RMSU=  3.71D-05    CP:  9.82D-01  6.59D-01  6.83D-01  5.60D-01  6.23D-01
                    CP:  5.80D-01
 E= -476.382554656838     Delta-E=       -0.000105175417 Rises=F Damp=F
 DIIS: error= 2.50D-04 at cycle   7 NSaved=   7.
 NSaved= 7 IEnMin= 7 EnMin= -476.382554656838     IErMin= 7 ErrMin= 2.50D-04
 ErrMax= 2.50D-04  0.00D+00 EMaxC= 1.00D-01 BMatC= 9.44D-06 BMatP= 9.93D-05
 IDIUse=3 WtCom= 9.98D-01 WtEn= 2.50D-03
 Coeff-Com: -0.136D-03-0.275D-02 0.156D-01 0.298D-01 0.146D+00 0.302D+00
 Coeff-Com:  0.509D+00
 Coeff-En:   0.000D+00 0.000D+00 0.000D+00 0.000D+00 0.000D+00 0.190D-01
 Coeff-En:   0.981D+00
 Coeff:     -0.135D-03-0.274D-02 0.155D-01 0.298D-01 0.145D+00 0.302D+00
 Coeff:      0.511D+00
 Gap=     0.161 Goal=   None    Shift=    0.000
 RMSDP=1.92D-05 MaxDP=4.96D-04 DE=-1.05D-04 OVMax= 1.35D-03

 Cycle   8  Pass 0  IDiag  1:
 RMSU=  8.92D-06    CP:  9.82D-01  6.59D-01  6.84D-01  5.59D-01  6.22D-01
                    CP:  6.23D-01  5.85D-01
 E= -476.382564058812     Delta-E=       -0.000009401974 Rises=F Damp=F
 DIIS: error= 2.82D-05 at cycle   8 NSaved=   8.
 NSaved= 8 IEnMin= 8 EnMin= -476.382564058812     IErMin= 8 ErrMin= 2.82D-05
 ErrMax= 2.82D-05  0.00D+00 EMaxC= 1.00D-01 BMatC= 2.93D-07 BMatP= 9.44D-06
 IDIUse=1 WtCom= 1.00D+00 WtEn= 0.00D+00
 Coeff-Com: -0.785D-04-0.735D-03 0.174D-02 0.306D-02 0.319D-01 0.851D-01
 Coeff-Com:  0.205D+00 0.674D+00
 Coeff:     -0.785D-04-0.735D-03 0.174D-02 0.306D-02 0.319D-01 0.851D-01
 Coeff:      0.205D+00 0.674D+00
 Gap=     0.161 Goal=   None    Shift=    0.000
 RMSDP=4.12D-06 MaxDP=1.15D-04 DE=-9.40D-06 OVMax= 2.50D-04

 Initial convergence to 1.0D-05 achieved.  Increase integral accuracy.
 Cycle   9  Pass 1  IDiag  1:
 E= -476.382573003759     Delta-E=       -0.000008944947 Rises=F Damp=F
 DIIS: error= 1.47D-05 at cycle   1 NSaved=   1.
 NSaved= 1 IEnMin= 1 EnMin= -476.382573003759     IErMin= 1 ErrMin= 1.47D-05
 ErrMax= 1.47D-05  0.00D+00 EMaxC= 1.00D-01 BMatC= 6.69D-08 BMatP= 6.69D-08
 IDIUse=1 WtCom= 1.00D+00 WtEn= 0.00D+00
 Coeff-Com:  0.100D+01
 Coeff:      0.100D+01
 Gap=     0.161 Goal=   None    Shift=    0.000
 RMSDP=4.12D-06 MaxDP=1.15D-04 DE=-8.94D-06 OVMax= 2.23D-04

 Cycle  10  Pass 1  IDiag  1:
 RMSU=  7.67D-06    CP:  1.00D+00
 E= -476.382572965830     Delta-E=        0.000000037929 Rises=F Damp=F
 DIIS: error= 1.94D-05 at cycle   2 NSaved=   2.
 NSaved= 2 IEnMin= 1 EnMin= -476.382573003759     IErMin= 1 ErrMin= 1.47D-05
 ErrMax= 1.94D-05  0.00D+00 EMaxC= 1.00D-01 BMatC= 9.88D-08 BMatP= 6.69D-08
 IDIUse=1 WtCom= 1.00D+00 WtEn= 0.00D+00
 Coeff-Com:  0.555D+00 0.445D+00
 Coeff:      0.555D+00 0.445D+00
 Gap=     0.161 Goal=   None    Shift=    0.000
 RMSDP=2.24D-06 MaxDP=8.05D-05 DE= 3.79D-08 OVMax= 1.80D-04

 Cycle  11  Pass 1  IDiag  1:
 RMSU=  2.11D-06    CP:  1.00D+00  9.03D-01
 E= -476.382573056171     Delta-E=       -0.000000090342 Rises=F Damp=F
 DIIS: error= 6.21D-06 at cycle   3 NSaved=   3.
 NSaved= 3 IEnMin= 3 EnMin= -476.382573056171     IErMin= 3 ErrMin= 6.21D-06
 ErrMax= 6.21D-06  0.00D+00 EMaxC= 1.00D-01 BMatC= 8.25D-09 BMatP= 6.69D-08
 IDIUse=1 WtCom= 1.00D+00 WtEn= 0.00D+00
 Coeff-Com:  0.170D+00 0.240D+00 0.590D+00
 Coeff:      0.170D+00 0.240D+00 0.590D+00
 Gap=     0.161 Goal=   None    Shift=    0.000
 RMSDP=8.11D-07 MaxDP=1.92D-05 DE=-9.03D-08 OVMax= 4.78D-05

 Cycle  12  Pass 1  IDiag  1:
 RMSU=  5.77D-07    CP:  1.00D+00  9.28D-01  7.48D-01
 E= -476.382573062484     Delta-E=       -0.000000006313 Rises=F Damp=F
 DIIS: error= 3.56D-06 at cycle   4 NSaved=   4.
 NSaved= 4 IEnMin= 4 EnMin= -476.382573062484     IErMin= 4 ErrMin= 3.56D-06
 ErrMax= 3.56D-06  0.00D+00 EMaxC= 1.00D-01 BMatC= 2.52D-09 BMatP= 8.25D-09
 IDIUse=1 WtCom= 1.00D+00 WtEn= 0.00D+00
 Coeff-Com:  0.995D-02 0.777D-01 0.398D+00 0.515D+00
 Coeff:      0.995D-02 0.777D-01 0.398D+00 0.515D+00
 Gap=     0.161 Goal=   None    Shift=    0.000
 RMSDP=3.34D-07 MaxDP=1.10D-05 DE=-6.31D-09 OVMax= 1.66D-05

 Cycle  13  Pass 1  IDiag  1:
 RMSU=  1.29D-07    CP:  1.00D+00  9.28D-01  7.96D-01  4.98D-01
 E= -476.382573064512     Delta-E=       -0.000000002028 Rises=F Damp=F
 DIIS: error= 1.58D-06 at cycle   5 NSaved=   5.
 NSaved= 5 IEnMin= 5 EnMin= -476.382573064512     IErMin= 5 ErrMin= 1.58D-06
 ErrMax= 1.58D-06  0.00D+00 EMaxC= 1.00D-01 BMatC= 2.29D-10 BMatP= 2.52D-09
 IDIUse=1 WtCom= 1.00D+00 WtEn= 0.00D+00
 Coeff-Com: -0.212D-02 0.397D-01 0.235D+00 0.346D+00 0.381D+00
 Coeff:     -0.212D-02 0.397D-01 0.235D+00 0.346D+00 0.381D+00
 Gap=     0.161 Goal=   None    Shift=    0.000
 RMSDP=9.78D-08 MaxDP=3.27D-06 DE=-2.03D-09 OVMax= 4.96D-06

 Cycle  14  Pass 1  IDiag  1:
 RMSU=  4.67D-08    CP:  1.00D+00  9.28D-01  8.04D-01  5.55D-01  4.08D-01
 E= -476.382573064703     Delta-E=       -0.000000000191 Rises=F Damp=F
 DIIS: error= 1.98D-07 at cycle   6 NSaved=   6.
 NSaved= 6 IEnMin= 6 EnMin= -476.382573064703     IErMin= 6 ErrMin= 1.98D-07
 ErrMax= 1.98D-07  0.00D+00 EMaxC= 1.00D-01 BMatC= 1.13D-11 BMatP= 2.29D-10
 IDIUse=1 WtCom= 1.00D+00 WtEn= 0.00D+00
 Coeff-Com: -0.215D-02 0.173D-01 0.108D+00 0.169D+00 0.234D+00 0.473D+00
 Coeff:     -0.215D-02 0.173D-01 0.108D+00 0.169D+00 0.234D+00 0.473D+00
 Gap=     0.161 Goal=   None    Shift=    0.000
 RMSDP=2.59D-08 MaxDP=7.41D-07 DE=-1.91D-10 OVMax= 1.91D-06

 Cycle  15  Pass 1  IDiag  1:
 RMSU=  1.55D-08    CP:  1.00D+00  9.29D-01  8.01D-01  5.51D-01  4.44D-01
                    CP:  5.97D-01
 E= -476.382573064716     Delta-E=       -0.000000000014 Rises=F Damp=F
 DIIS: error= 5.90D-08 at cycle   7 NSaved=   7.
 NSaved= 7 IEnMin= 7 EnMin= -476.382573064716     IErMin= 7 ErrMin= 5.90D-08
 ErrMax= 5.90D-08  0.00D+00 EMaxC= 1.00D-01 BMatC= 4.61D-13 BMatP= 1.13D-11
 IDIUse=1 WtCom= 1.00D+00 WtEn= 0.00D+00
 Coeff-Com: -0.827D-03 0.413D-02 0.277D-01 0.460D-01 0.711D-01 0.220D+00
 Coeff-Com:  0.632D+00
 Coeff:     -0.827D-03 0.413D-02 0.277D-01 0.460D-01 0.711D-01 0.220D+00
 Coeff:      0.632D+00
 Gap=     0.161 Goal=   None    Shift=    0.000
 RMSDP=6.85D-09 MaxDP=1.47D-07 DE=-1.35D-11 OVMax= 4.21D-07

 SCF Done:  E(RB3LYP) =  -476.382573065     A.U. after   15 cycles
            NFock= 15  Conv=0.68D-08     -V/T= 2.0084
 KE= 4.724126936252D+02 PE=-2.105994246765D+03 EE= 6.525279053458D+02
 Leave Link  502 at Mon Oct 14 00:24:42 2019, MaxMem= 10737418240 cpu:              73.1 elap:               3.1
 (Enter /apps/cent7/gaussian/g16-A.03/g16-haswell/g16/l601.exe)
 Copying SCF densities to generalized density rwf, IOpCl= 0 IROHF=0.

 **********************************************************************

            Population analysis using the SCF density.

 **********************************************************************

 Orbital symmetries:
       Occupied  (A) (A) (A) (A) (A) (A) (A) (A) (A) (A) (A) (A)
                 (A) (A) (A) (A) (A) (A) (A) (A) (A) (A) (A) (A)
                 (A) (A) (A) (A) (A) (A) (A) (A) (A) (A) (A) (A)
       Virtual   (A) (A) (A) (A) (A) (A) (A) (A) (A) (A) (A) (A)
                 (A) (A) (A) (A) (A) (A) (A) (A) (A) (A) (A) (A)
                 (A) (A) (A) (A) (A) (A) (A) (A) (A) (A) (A) (A)
                 (A) (A) (A) (A) (A) (A) (A) (A) (A) (A) (A) (A)
                 (A) (A) (A) (A) (A) (A) (A) (A) (A) (A) (A) (A)
                 (A) (A) (A) (A) (A) (A) (A) (A) (A) (A) (A) (A)
                 (A) (A) (A) (A) (A) (A) (A) (A) (A) (A) (A) (A)
                 (A) (A) (A) (A) (A) (A) (A) (A) (A) (A) (A) (A)
                 (A) (A) (A) (A) (A) (A) (A) (A) (A) (A) (A) (A)
                 (A) (A) (A) (A) (A) (A) (A) (A) (A) (A) (A) (A)
                 (A) (A) (A) (A) (A) (A) (A) (A) (A) (A)
 The electronic state is 1-A.
 Alpha  occ. eigenvalues --  -19.43449 -19.33608 -14.73611 -10.50206 -10.38269
 Alpha  occ. eigenvalues --  -10.37754 -10.36421 -10.35777 -10.35585 -10.35082
 Alpha  occ. eigenvalues --   -1.42666  -1.23406  -1.15731  -1.02132  -0.94395
 Alpha  occ. eigenvalues --   -0.90816  -0.90040  -0.88049  -0.82787  -0.79481
 Alpha  occ. eigenvalues --   -0.76744  -0.70904  -0.65654  -0.63719  -0.62373
 Alpha  occ. eigenvalues --   -0.60402  -0.59511  -0.58052  -0.57883  -0.55180
 Alpha  occ. eigenvalues --   -0.52078  -0.51505  -0.50425  -0.46340  -0.42155
 Alpha  occ. eigenvalues --   -0.41088
 Alpha virt. eigenvalues --   -0.25025  -0.17874  -0.16619  -0.14766  -0.12696
 Alpha virt. eigenvalues --   -0.10672  -0.05363  -0.03815  -0.00218   0.00384
 Alpha virt. eigenvalues --    0.01654   0.04739   0.05452   0.06837   0.11169
 Alpha virt. eigenvalues --    0.13107   0.14053   0.14718   0.21211   0.23202
 Alpha virt. eigenvalues --    0.30054   0.33858   0.35835   0.36248   0.38315
 Alpha virt. eigenvalues --    0.38613   0.39404   0.42278   0.42893   0.43619
 Alpha virt. eigenvalues --    0.45048   0.45884   0.46423   0.46626   0.47715
 Alpha virt. eigenvalues --    0.50156   0.52281   0.54943   0.55610   0.60744
 Alpha virt. eigenvalues --    0.61548   0.62018   0.64960   0.65684   0.67852
 Alpha virt. eigenvalues --    0.68077   0.70371   0.70528   0.73308   0.76366
 Alpha virt. eigenvalues --    0.76959   0.78283   0.79462   0.82200   0.83174
 Alpha virt. eigenvalues --    0.84878   0.87589   0.91101   0.94514   0.96000
 Alpha virt. eigenvalues --    0.99052   1.00631   1.02619   1.07758   1.10151
 Alpha virt. eigenvalues --    1.14383   1.21020   1.23748   1.27080   1.28188
 Alpha virt. eigenvalues --    1.29659   1.31872   1.33039   1.34672   1.37056
 Alpha virt. eigenvalues --    1.43216   1.46282   1.54901   1.58747   1.61339
 Alpha virt. eigenvalues --    1.62702   1.64648   1.68733   1.70763   1.72582
 Alpha virt. eigenvalues --    1.74761   1.80460   1.81582   1.83955   1.87071
 Alpha virt. eigenvalues --    1.88243   1.91519   1.95883   1.96846   1.98443
 Alpha virt. eigenvalues --    2.02119   2.03321   2.07316   2.10119   2.13106
 Alpha virt. eigenvalues --    2.14030   2.22072   2.23470   2.25351   2.34030
 Alpha virt. eigenvalues --    2.37882   2.40576   2.42656   2.45109   2.48201
 Alpha virt. eigenvalues --    2.49768   2.55837   2.57053   2.58616   2.68920
 Alpha virt. eigenvalues --    2.70714   2.76556   2.92647   3.02199   3.22910
 Alpha virt. eigenvalues --    3.45248   3.78679   3.85144   3.91443   3.94671
 Alpha virt. eigenvalues --    3.97534   4.14893   4.16307   4.27215   4.53572
          Condensed to atoms (all electrons):
               1          2          3          4          5          6
     1  O    7.986790   0.592155  -0.101489  -0.001966  -0.102801  -0.000545
     2  C    0.592155   4.945972   0.010457  -0.018039   0.236038  -0.028676
     3  N   -0.101489   0.010457   6.854932   0.119269  -0.132942   0.006128
     4  O   -0.001966  -0.018039   0.119269   8.115761   0.004309  -0.000052
     5  C   -0.102801   0.236038  -0.132942   0.004309   5.067871   0.506773
     6  C   -0.000545  -0.028676   0.006128  -0.000052   0.506773   4.931880
     7  C    0.000741   0.007698  -0.000048   0.000000  -0.022241   0.504905
     8  C   -0.000010  -0.000061  -0.000005   0.000000  -0.031059  -0.030804
     9  C   -0.000060   0.004307   0.000014   0.000001  -0.019831  -0.037110
    10  C    0.003283  -0.066542  -0.002749   0.000449   0.458228  -0.057055
    11  H   -0.000096  -0.029775   0.293536  -0.026288   0.002847   0.000158
    12  H    0.004443   0.003790  -0.033840   0.249344   0.000811  -0.000010
    13  H    0.007163  -0.008153   0.000296   0.000002  -0.040694   0.364990
    14  H   -0.000002  -0.000141   0.000001  -0.000000   0.003031  -0.031847
    15  H   -0.000000   0.000008  -0.000000  -0.000000   0.000601   0.003801
    16  H    0.000000  -0.000128   0.000004  -0.000000   0.003108   0.000632
    17  H   -0.000010  -0.016302   0.002965   0.000068  -0.062388   0.003905
    18  H   -0.000629  -0.031325   0.301303  -0.029999   0.011183  -0.000355
               7          8          9         10         11         12
     1  O    0.000741  -0.000010  -0.000060   0.003283  -0.000096   0.004443
     2  C    0.007698  -0.000061   0.004307  -0.066542  -0.029775   0.003790
     3  N   -0.000048  -0.000005   0.000014  -0.002749   0.293536  -0.033840
     4  O    0.000000   0.000000   0.000001   0.000449  -0.026288   0.249344
     5  C   -0.022241  -0.031059  -0.019831   0.458228   0.002847   0.000811
     6  C    0.504905  -0.030804  -0.037110  -0.057055   0.000158  -0.000010
     7  C    4.879470   0.521892  -0.027200  -0.040669  -0.000004  -0.000000
     8  C    0.521892   4.833467   0.540027  -0.036338   0.000010   0.000000
     9  C   -0.027200   0.540027   4.816624   0.532966   0.000097  -0.000000
    10  C   -0.040669  -0.036338   0.532966   5.084954   0.005969  -0.000066
    11  H   -0.000004   0.000010   0.000097   0.005969   0.336376  -0.005504
    12  H   -0.000000   0.000000  -0.000000  -0.000066  -0.005504   0.302427
    13  H   -0.034047   0.003949   0.000238   0.004499  -0.000007  -0.000001
    14  H    0.365257  -0.036047   0.003854   0.000647   0.000000   0.000000
    15  H   -0.036028   0.363709  -0.036122   0.004658  -0.000000   0.000000
    16  H    0.003831  -0.033835   0.363833  -0.034954  -0.000007  -0.000000
    17  H    0.000350   0.004298  -0.020344   0.347982   0.011439  -0.000005
    18  H   -0.000028   0.000002  -0.000059   0.002572  -0.017472   0.005193
              13         14         15         16         17         18
     1  O    0.007163  -0.000002  -0.000000   0.000000  -0.000010  -0.000629
     2  C   -0.008153  -0.000141   0.000008  -0.000128  -0.016302  -0.031325
     3  N    0.000296   0.000001  -0.000000   0.000004   0.002965   0.301303
     4  O    0.000002  -0.000000  -0.000000  -0.000000   0.000068  -0.029999
     5  C   -0.040694   0.003031   0.000601   0.003108  -0.062388   0.011183
     6  C    0.364990  -0.031847   0.003801   0.000632   0.003905  -0.000355
     7  C   -0.034047   0.365257  -0.036028   0.003831   0.000350  -0.000028
     8  C    0.003949  -0.036047   0.363709  -0.033835   0.004298   0.000002
     9  C    0.000238   0.003854  -0.036122   0.363833  -0.020344  -0.000059
    10  C    0.004499   0.000647   0.004658  -0.034954   0.347982   0.002572
    11  H   -0.000007   0.000000  -0.000000  -0.000007   0.011439  -0.017472
    12  H   -0.000001   0.000000   0.000000  -0.000000  -0.000005   0.005193
    13  H    0.496153  -0.004068  -0.000122   0.000011  -0.000133  -0.000007
    14  H   -0.004068   0.503568  -0.004055  -0.000135   0.000013   0.000000
    15  H   -0.000122  -0.004055   0.506911  -0.004193  -0.000152  -0.000000
    16  H    0.000011  -0.000135  -0.004193   0.514203  -0.004631  -0.000001
    17  H   -0.000133   0.000013  -0.000152  -0.004631   0.601904   0.000877
    18  H   -0.000007   0.000000  -0.000000  -0.000001   0.000877   0.303510
 Mulliken charges:
               1
     1  O   -0.386967
     2  C    0.398716
     3  N   -0.317829
     4  O   -0.412860
     5  C    0.117157
     6  C   -0.136715
     7  C   -0.123879
     8  C   -0.099194
     9  C   -0.121235
    10  C   -0.207834
    11  H    0.428720
    12  H    0.473418
    13  H    0.209931
    14  H    0.199924
    15  H    0.200984
    16  H    0.192261
    17  H    0.130163
    18  H    0.455238
 Sum of Mulliken charges =   1.00000
 Mulliken charges with hydrogens summed into heavy atoms:
               1
     1  O   -0.386967
     2  C    0.398716
     3  N    0.566128
     4  O    0.060558
     5  C    0.117157
     6  C    0.073216
     7  C    0.076045
     8  C    0.101791
     9  C    0.071026
    10  C   -0.077671
 Electronic spatial extent (au):  <R**2>=           1591.7018
 Charge=              1.0000 electrons
 Dipole moment (field-independent basis, Debye):
    X=             -2.7237    Y=             -4.6427    Z=             -0.2261  Tot=              5.3874
 Quadrupole moment (field-independent basis, Debye-Ang):
   XX=            -21.9880   YY=            -47.0926   ZZ=            -53.8404
   XY=              9.8118   XZ=              4.7301   YZ=              1.7172
 Traceless Quadrupole moment (field-independent basis, Debye-Ang):
   XX=             18.9857   YY=             -6.1189   ZZ=            -12.8667
   XY=              9.8118   XZ=              4.7301   YZ=              1.7172
 Octapole moment (field-independent basis, Debye-Ang**2):
  XXX=            -27.0686  YYY=             -8.5927  ZZZ=              2.1106  XYY=              2.9952
  XXY=            -19.4998  XXZ=            -17.5955  XZZ=            -24.7209  YZZ=             -2.8789
  YYZ=              0.9064  XYZ=             -0.6052
 Hexadecapole moment (field-independent basis, Debye-Ang**3):
 XXXX=          -1088.2783 YYYY=           -362.5606 ZZZZ=            -62.9292 XXXY=             37.8413
 XXXZ=             97.0461 YYYX=             21.5159 YYYZ=              6.0106 ZZZX=             -1.3976
 ZZZY=             -5.4145 XXYY=           -278.0425 XXZZ=           -246.0924 YYZZ=            -79.0876
 XXYZ=             13.0114 YYXZ=             -0.5838 ZZXY=              9.5735
 N-N= 5.046710747297D+02 E-N=-2.105994252393D+03  KE= 4.724126936252D+02
 No NMR shielding tensors so no spin-rotation constants.
 Leave Link  601 at Mon Oct 14 00:24:42 2019, MaxMem= 10737418240 cpu:               2.5 elap:               0.1
 (Enter /apps/cent7/gaussian/g16-A.03/g16-haswell/g16/l701.exe)
 ... and contract with generalized density number  0.
 Compute integral first derivatives.
 Leave Link  701 at Mon Oct 14 00:24:42 2019, MaxMem= 10737418240 cpu:               2.8 elap:               0.1
 (Enter /apps/cent7/gaussian/g16-A.03/g16-haswell/g16/l702.exe)
 L702 exits ... SP integral derivatives will be done elsewhere.
 Leave Link  702 at Mon Oct 14 00:24:42 2019, MaxMem= 10737418240 cpu:               1.2 elap:               0.1
 (Enter /apps/cent7/gaussian/g16-A.03/g16-haswell/g16/l703.exe)
 Integral derivatives from FoFJK, PRISM(SPDF).
 Compute integral first derivatives, UseDBF=F ICtDFT=           0.
 Calling FoFJK, ICntrl=      2127 FMM=F ISym2X=0 I1Cent= 0 IOpClX= 0 NMat=1 NMatS=1 NMatT=0.
 FoFJK:  IHMeth= 1 ICntrl=    2127 DoSepK=F KAlg= 0 I1Cent=           0 FoldK=F
 IRaf=         0 NMat=       1 IRICut=       1 DoRegI=T DoRafI=F ISym2E= 0 IDoP0=0 IntGTp=1.
 FoFCou: FMM=F IPFlag=           0 FMFlag=      100000 FMFlg1=         800
         NFxFlg=           0 DoJE=F BraDBF=F KetDBF=F FulRan=T
         wScrn=  0.000000 ICntrl=      2127 IOpCl=  0 I1Cent=           0 NGrid=           0
         NMat0=    1 NMatS0=      1 NMatT0=    0 NMatD0=    1 NMtDS0=    0 NMtDT0=    0
 Symmetry not used in FoFCou.
 Leave Link  703 at Mon Oct 14 00:24:43 2019, MaxMem= 10737418240 cpu:              18.4 elap:               0.8
 (Enter /apps/cent7/gaussian/g16-A.03/g16-haswell/g16/l716.exe)
 Dipole        =-1.07158722D+00-1.82657690D+00-8.89620344D-02
 ***** Axes restored to original set *****
 -------------------------------------------------------------------
 Center     Atomic                   Forces (Hartrees/Bohr)
 Number     Number              X              Y              Z
 -------------------------------------------------------------------
      1        8           0.012168785    0.050652206   -0.016293355
      2        6           0.001044637   -0.180851337    0.062562074
      3        7           0.025192060    0.077436312   -0.010527103
      4        8          -0.082795162   -0.008643046   -0.026655873
      5        6           0.039872918    0.021645830   -0.003521413
      6        6           0.006687185   -0.007425229    0.001689474
      7        6          -0.012077296    0.005994706    0.000395378
      8        6          -0.006331059   -0.000529458   -0.000450475
      9        6          -0.009520184    0.000701830    0.000385677
     10        6           0.011690715   -0.001774295   -0.004043932
     11        1           0.019546576    0.029782180    0.010082067
     12        1          -0.008379892   -0.006727220    0.016022303
     13        1          -0.000301720    0.004372318   -0.001707916
     14        1          -0.003438120    0.002367619   -0.000340418
     15        1          -0.003138458    0.000308912    0.000652093
     16        1          -0.002674582   -0.002475458    0.000220697
     17        1           0.004340148    0.002338096    0.000057458
     18        1           0.008113449    0.012826033   -0.028526736
 -------------------------------------------------------------------
 Cartesian Forces:  Max     0.180851337 RMS     0.033194647
 Leave Link  716 at Mon Oct 14 00:24:43 2019, MaxMem= 10737418240 cpu:               0.9 elap:               0.1
 (Enter /apps/cent7/gaussian/g16-A.03/g16-haswell/g16/l103.exe)

 GradGradGradGradGradGradGradGradGradGradGradGradGradGradGradGradGradGrad
 Berny optimization.
 FormGI is forming the generalized inverse of G from B-inverse, IUseBI=4.
 Internal  Forces:  Max     0.116473240 RMS     0.019757763
 Search for a local minimum.
 Step number   1 out of a maximum of   93
 All quantities printed in internal units (Hartrees-Bohrs-Radians)
 RMS Force = .19758D-01 SwitMx=.10000D-02 MixMth= 1
 Mixed Optimization -- RFO/linear search
 Second derivative matrix not updated -- first step.
 ITU=  0
     Eigenvalues ---    0.01763   0.01822   0.01868   0.01906   0.01923
     Eigenvalues ---    0.01965   0.01996   0.02014   0.02017   0.02024
     Eigenvalues ---    0.02048   0.02243   0.02576   0.05878   0.08173
     Eigenvalues ---    0.13159   0.14865   0.16000   0.16000   0.16000
     Eigenvalues ---    0.16000   0.16000   0.16000   0.21995   0.21997
     Eigenvalues ---    0.22265   0.23457   0.24995   0.24997   0.25000
     Eigenvalues ---    0.34808   0.34809   0.34809   0.34811   0.34820
     Eigenvalues ---    0.39940   0.40082   0.41774   0.43091   0.43974
     Eigenvalues ---    0.44390   0.44756   0.47688   0.47688   0.53287
     Eigenvalues ---    0.55460   0.66330   0.81641
 RFO step:  Lambda=-5.99246047D-02 EMin= 1.76323113D-02
 Linear search not attempted -- first point.
 Maximum step size (   0.300) exceeded in Quadratic search.
    -- Step size scaled by   0.862
 Iteration  1 RMS(Cart)=  0.05455523 RMS(Int)=  0.00194764
 Iteration  2 RMS(Cart)=  0.00316455 RMS(Int)=  0.00037027
 Iteration  3 RMS(Cart)=  0.00001247 RMS(Int)=  0.00037022
 Iteration  4 RMS(Cart)=  0.00000001 RMS(Int)=  0.00037022
 ITry= 1 IFail=0 DXMaxC= 2.69D-01 DCOld= 1.00D+10 DXMaxT= 3.00D-01 DXLimC= 3.00D+00 Rises=F
 Variable       Old X    -DE/DX   Delta X   Delta X   Delta X     New X
                                 (Linear)    (Quad)   (Total)
    R1        2.37043  -0.05144   0.00000  -0.05059  -0.05059   2.31983
    R2        2.56687   0.11647   0.00000   0.16933   0.16933   2.73620
    R3        2.69212   0.02429   0.00000   0.04382   0.04382   2.73594
    R4        2.46257   0.09091   0.00000   0.10834   0.10834   2.57090
    R5        1.88973   0.03384   0.00000   0.05432   0.05432   1.94405
    R6        1.88973   0.03143   0.00000   0.05046   0.05046   1.94019
    R7        1.81426   0.01792   0.00000   0.02513   0.02513   1.83938
    R8        2.68080  -0.00846   0.00000  -0.01486  -0.01487   2.66593
    R9        2.68134   0.00023   0.00000   0.00078   0.00078   2.68212
   R10        2.66162  -0.01921   0.00000  -0.03320  -0.03321   2.62842
   R11        2.05987  -0.00367   0.00000  -0.00775  -0.00775   2.05212
   R12        2.65589  -0.00447   0.00000  -0.00795  -0.00795   2.64794
   R13        2.05986  -0.00376   0.00000  -0.00795  -0.00795   2.05191
   R14        2.65387  -0.00531   0.00000  -0.00911  -0.00910   2.64477
   R15        2.05987  -0.00314   0.00000  -0.00663  -0.00663   2.05324
   R16        2.65816  -0.01798   0.00000  -0.03043  -0.03042   2.62774
   R17        2.05983  -0.00348   0.00000  -0.00736  -0.00736   2.05247
   R18        2.05968  -0.00002   0.00000  -0.00005  -0.00005   2.05963
    A1        2.06832  -0.01276   0.00000  -0.03546  -0.03546   2.03285
    A2        2.10355   0.03039   0.00000   0.08455   0.08455   2.18810
    A3        2.11107  -0.01764   0.00000  -0.04902  -0.04902   2.06205
    A4        2.14766  -0.03475   0.00000  -0.10421  -0.10359   2.04407
    A5        1.85810   0.00839   0.00000   0.03162   0.03279   1.89089
    A6        1.85810   0.01559   0.00000   0.04704   0.04576   1.90387
    A7        1.85810   0.01836   0.00000   0.07264   0.07400   1.93210
    A8        1.85810   0.00273   0.00000  -0.00858  -0.00879   1.84931
    A9        1.86863  -0.00901   0.00000  -0.03649  -0.03709   1.83154
   A10        1.91058   0.00149   0.00000   0.00583   0.00583   1.91640
   A11        2.11393  -0.01538   0.00000  -0.04336  -0.04335   2.07058
   A12        2.11273   0.00922   0.00000   0.02506   0.02507   2.13780
   A13        2.05645   0.00616   0.00000   0.01832   0.01830   2.07474
   A14        2.11190  -0.00485   0.00000  -0.01474  -0.01477   2.09713
   A15        2.09211  -0.00013   0.00000  -0.00263  -0.00262   2.08949
   A16        2.07918   0.00498   0.00000   0.01738   0.01739   2.09657
   A17        2.09567   0.00136   0.00000   0.00347   0.00346   2.09913
   A18        2.09553  -0.00256   0.00000  -0.00910  -0.00909   2.08644
   A19        2.09198   0.00120   0.00000   0.00563   0.00563   2.09761
   A20        2.09173   0.00318   0.00000   0.00927   0.00927   2.10100
   A21        2.09652  -0.00129   0.00000  -0.00348  -0.00348   2.09304
   A22        2.09493  -0.00188   0.00000  -0.00579  -0.00579   2.08915
   A23        2.09445  -0.00239   0.00000  -0.00677  -0.00677   2.08768
   A24        2.09284   0.00227   0.00000   0.00760   0.00760   2.10044
   A25        2.09589   0.00012   0.00000  -0.00084  -0.00084   2.09506
   A26        2.11497  -0.00340   0.00000  -0.00897  -0.00899   2.10598
   A27        2.09165   0.00678   0.00000   0.02438   0.02436   2.11602
   A28        2.07656  -0.00338   0.00000  -0.01541  -0.01542   2.06114
    D1        0.03451  -0.00625   0.00000  -0.04489  -0.04482  -0.01031
    D2        2.18146   0.00104   0.00000   0.00830   0.00781   2.18926
    D3       -2.11244   0.00170   0.00000   0.00257   0.00309  -2.10935
    D4       -3.13079  -0.00567   0.00000  -0.04056  -0.04056   3.11184
    D5       -0.98384   0.00163   0.00000   0.01263   0.01207  -0.97177
    D6        1.00545   0.00229   0.00000   0.00690   0.00736   1.01280
    D7        0.33011  -0.00174   0.00000  -0.01764  -0.01757   0.31253
    D8       -2.82534  -0.00148   0.00000  -0.01528  -0.01525  -2.84059
    D9       -2.78730  -0.00173   0.00000  -0.02039  -0.02041  -2.80771
   D10        0.34044  -0.00147   0.00000  -0.01803  -0.01809   0.32235
   D11        1.21846  -0.00243   0.00000  -0.02189  -0.02364   1.19482
   D12       -0.92849  -0.00520   0.00000  -0.05642  -0.05573  -0.98422
   D13       -2.91778  -0.00454   0.00000  -0.04405  -0.04298  -2.96076
   D14        3.08122   0.00132   0.00000   0.01367   0.01365   3.09486
   D15       -0.06031   0.00132   0.00000   0.01401   0.01399  -0.04632
   D16       -0.04696   0.00103   0.00000   0.01131   0.01134  -0.03563
   D17        3.09470   0.00104   0.00000   0.01165   0.01168   3.10638
   D18       -3.08367  -0.00133   0.00000  -0.01550  -0.01559  -3.09927
   D19        0.05778  -0.00032   0.00000  -0.00458  -0.00456   0.05322
   D20        0.04451  -0.00124   0.00000  -0.01369  -0.01374   0.03077
   D21       -3.09722  -0.00023   0.00000  -0.00277  -0.00271  -3.09993
   D22        0.01329  -0.00022   0.00000  -0.00228  -0.00226   0.01103
   D23       -3.12836  -0.00024   0.00000  -0.00245  -0.00244  -3.13080
   D24       -3.12837  -0.00023   0.00000  -0.00262  -0.00261  -3.13097
   D25        0.01317  -0.00024   0.00000  -0.00279  -0.00279   0.01038
   D26        0.02437  -0.00047   0.00000  -0.00501  -0.00501   0.01936
   D27       -3.11713  -0.00044   0.00000  -0.00488  -0.00489  -3.12202
   D28       -3.11717  -0.00046   0.00000  -0.00484  -0.00483  -3.12199
   D29        0.02452  -0.00042   0.00000  -0.00471  -0.00471   0.01981
   D30       -0.02685   0.00028   0.00000   0.00264   0.00262  -0.02423
   D31        3.11469   0.00012   0.00000   0.00074   0.00071   3.11539
   D32        3.11464   0.00024   0.00000   0.00251   0.00250   3.11714
   D33       -0.02701   0.00009   0.00000   0.00061   0.00059  -0.02641
   D34       -0.00826   0.00074   0.00000   0.00730   0.00720  -0.00106
   D35        3.13347  -0.00026   0.00000  -0.00354  -0.00350   3.12997
   D36        3.13339   0.00089   0.00000   0.00920   0.00910  -3.14070
   D37       -0.00807  -0.00011   0.00000  -0.00164  -0.00159  -0.00966
         Item               Value     Threshold  Converged?
 Maximum Force            0.116473     0.000450     NO 
 RMS     Force            0.019758     0.000300     NO 
 Maximum Displacement     0.268537     0.001800     NO 
 RMS     Displacement     0.054423     0.001200     NO 
 Predicted change in Energy=-3.244464D-02
 Lowest energy point so far.  Saving SCF results.
 GradGradGradGradGradGradGradGradGradGradGradGradGradGradGradGradGradGrad

 Leave Link  103 at Mon Oct 14 00:24:43 2019, MaxMem= 10737418240 cpu:               0.9 elap:               0.1
 (Enter /apps/cent7/gaussian/g16-A.03/g16-haswell/g16/l202.exe)
                          Input orientation:                          
 ---------------------------------------------------------------------
 Center     Atomic      Atomic             Coordinates (Angstroms)
 Number     Number       Type             X           Y           Z
 ---------------------------------------------------------------------
      1          8           0       -2.813486    0.223691    0.141399
      2          6           0       -2.100626    1.186731   -0.125801
      3          7           0       -2.775363    2.378733   -0.595249
      4          8           0       -4.129797    2.320444   -0.709153
      5          6           0       -0.656085    1.211736   -0.032026
      6          6           0        0.039396   -0.014578    0.019674
      7          6           0        1.429805   -0.028422    0.053835
      8          6           0        2.148469    1.174474    0.050500
      9          6           0        1.475005    2.401251    0.036174
     10          6           0        0.085201    2.421769   -0.004072
     11          1           0       -2.494344    3.166764    0.003377
     12          1           0       -4.532722    2.259496    0.174795
     13          1           0       -0.515406   -0.948005    0.032309
     14          1           0        1.955225   -0.978196    0.083352
     15          1           0        3.234820    1.156815    0.058870
     16          1           0        2.032100    3.333358    0.058146
     17          1           0       -0.414062    3.390603   -0.003261
     18          1           0       -2.423527    2.617612   -1.529737
 ---------------------------------------------------------------------
                    Distance matrix (angstroms):
                    1          2          3          4          5
     1  O    0.000000
     2  C    1.227603   0.000000
     3  N    2.277786   1.447937   0.000000
     4  O    2.617725   2.396484   1.360464   0.000000
     5  C    2.379220   1.447798   2.484037   3.708693   0.000000
     6  C    2.865401   2.458455   3.745522   4.833806   1.410749
     7  C    4.251675   3.738022   4.888675   6.083460   2.428230
     8  C    5.053043   4.252769   5.109927   6.427047   2.806015
     9  C    4.810821   3.779741   4.297073   5.654719   2.441546
    10  C    3.640755   2.513559   2.921330   4.274765   1.419319
    11  H    2.963542   2.022927   1.028746   1.974503   2.683763
    12  H    2.664844   2.675121   1.922367   0.973359   4.021056
    13  H    2.581848   2.663648   4.070432   4.929132   2.165274
    14  H    4.918181   4.602237   5.840200   6.966820   3.409994
    15  H    6.120419   5.338725   6.167921   7.495430   3.892354
    16  H    5.758182   4.660608   4.944688   6.291559   3.425748
    17  H    3.975865   2.777872   2.636300   3.930676   2.192457
    18  H    2.945440   2.030449   1.026703   1.916513   2.709884
                    6          7          8          9         10
     6  C    0.000000
     7  C    1.390898   0.000000
     8  C    2.421360   1.401231   0.000000
     9  C    2.810245   2.430157   1.399550   0.000000
    10  C    2.436893   2.795487   2.411596   1.390538   0.000000
    11  H    4.067068   5.060702   5.052440   4.042625   2.684982
    12  H    5.108790   6.387560   6.769862   6.010998   4.624234
    13  H    1.085934   2.151731   3.406095   3.896058   3.423074
    14  H    2.145465   1.085822   2.161576   3.413722   3.881288
    15  H    3.403591   2.159373   1.086527   2.155477   3.394726
    16  H    3.896283   3.415310   2.162031   1.086122   2.150646
    17  H    3.435318   3.884950   3.388315   2.132826   1.089910
    18  H    3.923657   4.935317   5.048063   4.206833   2.942741
                   11         12         13         14         15
    11  H    0.000000
    12  H    2.237746   0.000000
    13  H    4.566000   5.142684   0.000000
    14  H    6.081592   7.251516   2.471343   0.000000
    15  H    6.071762   7.846276   4.300601   2.489224   0.000000
    16  H    4.529839   6.653095   4.982020   4.312313   2.486739
    17  H    2.092301   4.274865   4.339938   4.970657   4.278785
    18  H    1.630038   2.735394   4.335266   5.891126   6.055946
                   16         17         18
    16  H    0.000000
    17  H    2.447602   0.000000
    18  H    4.783960   2.639242   0.000000
 Stoichiometry    C7H8NO2(1+)
 Framework group  C1[X(C7H8NO2)]
 Deg. of freedom    48
 Full point group                 C1      NOp   1
 RotChk:  IX=0 Diff= 1.17D-02
 Largest Abelian subgroup         C1      NOp   1
 Largest concise Abelian subgroup C1      NOp   1
                         Standard orientation:                         
 ---------------------------------------------------------------------
 Center     Atomic      Atomic             Coordinates (Angstroms)
 Number     Number       Type             X           Y           Z
 ---------------------------------------------------------------------
      1          8           0       -1.703865    1.488621   -0.279941
      2          6           0       -1.177311    0.398263   -0.077775
      3          7           0       -2.069859   -0.709424    0.192239
      4          8           0       -3.403489   -0.441129    0.209781
      5          6           0        0.248207    0.145595   -0.064578
      6          6           0        1.127255    1.238860    0.084610
      7          6           0        2.499969    1.026838    0.157414
      8          6           0        3.019795   -0.271458    0.069914
      9          6           0        2.165836   -1.364814   -0.114661
     10          6           0        0.792111   -1.160085   -0.182201
     11          1           0       -1.859544   -1.464453   -0.474108
     12          1           0       -3.707287   -0.220468   -0.688242
     13          1           0        0.727644    2.246917    0.142780
     14          1           0        3.166793    1.874623    0.282378
     15          1           0        4.091662   -0.432364    0.145757
     16          1           0        2.571157   -2.368255   -0.206754
     17          1           0        0.150902   -2.027630   -0.337509
     18          1           0       -1.848652   -1.101527    1.114975
 ---------------------------------------------------------------------
 Rotational constants (GHZ):           3.4625661           0.7979539           0.6583123
 Leave Link  202 at Mon Oct 14 00:24:43 2019, MaxMem= 10737418240 cpu:               0.2 elap:               0.0
 (Enter /apps/cent7/gaussian/g16-A.03/g16-haswell/g16/l301.exe)
 Standard basis: 6-31G(d) (6D, 7F)
 Ernie: Thresh=  0.10000D-02 Tol=  0.10000D-05 Strict=F.
 There are   166 symmetry adapted cartesian basis functions of A   symmetry.
 There are   166 symmetry adapted basis functions of A   symmetry.
   166 basis functions,   312 primitive gaussians,   166 cartesian basis functions
    36 alpha electrons       36 beta electrons
       nuclear repulsion energy       501.0696543354 Hartrees.
 IExCor=  402 DFT=T Ex+Corr=B3LYP ExCW=0 ScaHFX=  0.200000
 ScaDFX=  0.800000  0.720000  1.000000  0.810000 ScalE2=  1.000000  1.000000
 IRadAn=      5 IRanWt=     -1 IRanGd=            0 ICorTp=0 IEmpDi=  4
 NAtoms=   18 NActive=   18 NUniq=   18 SFac= 1.00D+00 NAtFMM=   60 NAOKFM=F Big=F
 Integral buffers will be    131072 words long.
 Raffenetti 2 integral format.
 Two-electron integral symmetry is turned on.
 Leave Link  301 at Mon Oct 14 00:24:43 2019, MaxMem= 10737418240 cpu:               1.3 elap:               0.1
 (Enter /apps/cent7/gaussian/g16-A.03/g16-haswell/g16/l302.exe)
 NPDir=0 NMtPBC=     1 NCelOv=     1 NCel=       1 NClECP=     1 NCelD=      1
         NCelK=      1 NCelE2=     1 NClLst=     1 CellRange=     0.0.
 One-electron integrals computed using PRISM.
 One-electron integral symmetry used in STVInt
 NBasis=   166 RedAO= T EigKep=  4.80D-04  NBF=   166
 NBsUse=   166 1.00D-06 EigRej= -1.00D+00 NBFU=   166
 Precomputing XC quadrature grid using
 IXCGrd= 4 IRadAn=           5 IRanWt=          -1 IRanGd=           0 AccXCQ= 0.00D+00.
 Generated NRdTot=       0 NPtTot=           0 NUsed=           0 NTot=          32
 NSgBfM=   166   166   166   166   166 MxSgAt=    18 MxSgA2=    18.
 Leave Link  302 at Mon Oct 14 00:24:43 2019, MaxMem= 10737418240 cpu:               3.1 elap:               0.2
 (Enter /apps/cent7/gaussian/g16-A.03/g16-haswell/g16/l303.exe)
 DipDrv:  MaxL=1.
 Leave Link  303 at Mon Oct 14 00:24:43 2019, MaxMem= 10737418240 cpu:               0.6 elap:               0.0
 (Enter /apps/cent7/gaussian/g16-A.03/g16-haswell/g16/l401.exe)
 Initial guess from the checkpoint file:  "13_p.chk"
 B after Tr=     0.000000    0.000000    0.000000
         Rot=    0.999997   -0.001095    0.000405   -0.002353 Ang=  -0.30 deg.
 Guess basis will be translated and rotated to current coordinates.
 JPrj=2 DoOrth=T DoCkMO=T.
 Generating alternative initial guess.
 ExpMin= 1.61D-01 ExpMax= 5.48D+03 ExpMxC= 8.25D+02 IAcc=2 IRadAn=         4 AccDes= 0.00D+00
 Harris functional with IExCor=  402 and IRadAn=       4 diagonalized for initial guess.
 HarFok:  IExCor=  402 AccDes= 0.00D+00 IRadAn=         4 IDoV= 1 UseB2=F ITyADJ=14
 ICtDFT=  3500011 ScaDFX=  1.000000  1.000000  1.000000  1.000000
 FoFCou: FMM=F IPFlag=           0 FMFlag=      100000 FMFlg1=           0
         NFxFlg=           0 DoJE=T BraDBF=F KetDBF=T FulRan=T
         wScrn=  0.000000 ICntrl=       500 IOpCl=  0 I1Cent=   200000004 NGrid=           0
         NMat0=    1 NMatS0=      1 NMatT0=    0 NMatD0=    1 NMtDS0=    0 NMtDT0=    0
 Petite list used in FoFCou.
 Harris En= -476.488538590974    
 Leave Link  401 at Mon Oct 14 00:24:44 2019, MaxMem= 10737418240 cpu:               6.9 elap:               0.3
 (Enter /apps/cent7/gaussian/g16-A.03/g16-haswell/g16/l502.exe)
 Integral symmetry usage will be decided dynamically.
 Closed shell SCF:
 Using DIIS extrapolation, IDIIS=  1040.
 NGot= 10737418240 LenX= 10737357196 LenY= 10737329199
 Requested convergence on RMS density matrix=1.00D-08 within 128 cycles.
 Requested convergence on MAX density matrix=1.00D-06.
 Requested convergence on             energy=1.00D-06.
 No special actions if energy rises.
 Fock matrices will be formed incrementally for  20 cycles.
 Integral accuracy reduced to 1.0D-05 until final iterations.

 Cycle   1  Pass 0  IDiag  1:
 FoFJK:  IHMeth= 1 ICntrl=       0 DoSepK=F KAlg= 0 I1Cent=           0 FoldK=F
 IRaf= 920000000 NMat=       1 IRICut=       1 DoRegI=T DoRafI=F ISym2E= 0 IDoP0=0 IntGTp=1.
 FoFCou: FMM=F IPFlag=           0 FMFlag=      100000 FMFlg1=           0
         NFxFlg=           0 DoJE=F BraDBF=F KetDBF=F FulRan=T
         wScrn=  0.000000 ICntrl=         0 IOpCl=  0 I1Cent=           0 NGrid=           0
         NMat0=    1 NMatS0=      1 NMatT0=    0 NMatD0=    1 NMtDS0=    0 NMtDT0=    0
 Symmetry not used in FoFCou.
 E= -476.403583029972    
 DIIS: error= 5.85D-03 at cycle   1 NSaved=   1.
 NSaved= 1 IEnMin= 1 EnMin= -476.403583029972     IErMin= 1 ErrMin= 5.85D-03
 ErrMax= 5.85D-03  0.00D+00 EMaxC= 1.00D-01 BMatC= 9.04D-03 BMatP= 9.04D-03
 IDIUse=3 WtCom= 9.41D-01 WtEn= 5.85D-02
 Coeff-Com:  0.100D+01
 Coeff-En:   0.100D+01
 Coeff:      0.100D+01
 Gap=     1.940 Goal=   None    Shift=    0.000
 GapD=    1.940 DampG=2.000 DampE=1.000 DampFc=2.0000 IDamp=-1.
 RMSDP=1.21D-03 MaxDP=2.67D-02              OVMax= 3.84D-02

 Cycle   2  Pass 0  IDiag  1:
 RMSU=  1.20D-03    CP:  9.94D-01
 E= -476.413960391310     Delta-E=       -0.010377361338 Rises=F Damp=F
 DIIS: error= 5.86D-03 at cycle   2 NSaved=   2.
 NSaved= 2 IEnMin= 2 EnMin= -476.413960391310     IErMin= 1 ErrMin= 5.85D-03
 ErrMax= 5.86D-03  0.00D+00 EMaxC= 1.00D-01 BMatC= 4.41D-03 BMatP= 9.04D-03
 IDIUse=3 WtCom= 9.41D-01 WtEn= 5.86D-02
 Coeff-Com:  0.366D+00 0.634D+00
 Coeff-En:   0.000D+00 0.100D+01
 Coeff:      0.344D+00 0.656D+00
 Gap=     0.168 Goal=   None    Shift=    0.000
 RMSDP=7.02D-04 MaxDP=2.77D-02 DE=-1.04D-02 OVMax= 3.19D-02

 Cycle   3  Pass 0  IDiag  1:
 RMSU=  6.38D-04    CP:  9.98D-01  7.68D-01
 E= -476.412914551445     Delta-E=        0.001045839865 Rises=F Damp=F
 DIIS: error= 8.43D-03 at cycle   3 NSaved=   3.
 NSaved= 3 IEnMin= 2 EnMin= -476.413960391310     IErMin= 1 ErrMin= 5.85D-03
 ErrMax= 8.43D-03  0.00D+00 EMaxC= 1.00D-01 BMatC= 5.81D-03 BMatP= 4.41D-03
 IDIUse=3 WtCom= 9.82D-02 WtEn= 9.02D-01
 Coeff-Com: -0.304D-02 0.536D+00 0.467D+00
 Coeff-En:   0.000D+00 0.549D+00 0.451D+00
 Coeff:     -0.299D-03 0.548D+00 0.453D+00
 Gap=     0.166 Goal=   None    Shift=    0.000
 RMSDP=4.30D-04 MaxDP=1.82D-02 DE= 1.05D-03 OVMax= 2.24D-02

 Cycle   4  Pass 0  IDiag  1:
 RMSU=  1.46D-04    CP:  9.96D-01  9.48D-01  4.70D-01
 E= -476.417283281785     Delta-E=       -0.004368730340 Rises=F Damp=F
 DIIS: error= 9.01D-04 at cycle   4 NSaved=   4.
 NSaved= 4 IEnMin= 4 EnMin= -476.417283281785     IErMin= 4 ErrMin= 9.01D-04
 ErrMax= 9.01D-04  0.00D+00 EMaxC= 1.00D-01 BMatC= 1.82D-04 BMatP= 4.41D-03
 IDIUse=3 WtCom= 9.91D-01 WtEn= 9.01D-03
 Coeff-Com: -0.229D-01 0.292D+00 0.268D+00 0.463D+00
 Coeff-En:   0.000D+00 0.000D+00 0.000D+00 0.100D+01
 Coeff:     -0.227D-01 0.290D+00 0.266D+00 0.468D+00
 Gap=     0.168 Goal=   None    Shift=    0.000
 RMSDP=8.81D-05 MaxDP=2.63D-03 DE=-4.37D-03 OVMax= 4.92D-03

 Cycle   5  Pass 0  IDiag  1:
 RMSU=  4.07D-05    CP:  9.96D-01  9.46D-01  4.86D-01  4.70D-01
 E= -476.417440790783     Delta-E=       -0.000157508998 Rises=F Damp=F
 DIIS: error= 1.40D-04 at cycle   5 NSaved=   5.
 NSaved= 5 IEnMin= 5 EnMin= -476.417440790783     IErMin= 5 ErrMin= 1.40D-04
 ErrMax= 1.40D-04  0.00D+00 EMaxC= 1.00D-01 BMatC= 5.30D-06 BMatP= 1.82D-04
 IDIUse=3 WtCom= 9.99D-01 WtEn= 1.40D-03
 Coeff-Com: -0.835D-02 0.770D-01 0.758D-01 0.194D+00 0.662D+00
 Coeff-En:   0.000D+00 0.000D+00 0.000D+00 0.000D+00 0.100D+01
 Coeff:     -0.834D-02 0.769D-01 0.757D-01 0.193D+00 0.662D+00
 Gap=     0.168 Goal=   None    Shift=    0.000
 RMSDP=1.74D-05 MaxDP=3.88D-04 DE=-1.58D-04 OVMax= 9.17D-04

 Cycle   6  Pass 0  IDiag  1:
 RMSU=  1.23D-05    CP:  9.96D-01  9.48D-01  4.90D-01  5.32D-01  8.15D-01
 E= -476.417444847604     Delta-E=       -0.000004056821 Rises=F Damp=F
 DIIS: error= 5.86D-05 at cycle   6 NSaved=   6.
 NSaved= 6 IEnMin= 6 EnMin= -476.417444847604     IErMin= 6 ErrMin= 5.86D-05
 ErrMax= 5.86D-05  0.00D+00 EMaxC= 1.00D-01 BMatC= 8.59D-07 BMatP= 5.30D-06
 IDIUse=1 WtCom= 1.00D+00 WtEn= 0.00D+00
 Coeff-Com: -0.245D-02 0.167D-01 0.188D-01 0.656D-01 0.361D+00 0.540D+00
 Coeff:     -0.245D-02 0.167D-01 0.188D-01 0.656D-01 0.361D+00 0.540D+00
 Gap=     0.168 Goal=   None    Shift=    0.000
 RMSDP=6.14D-06 MaxDP=1.94D-04 DE=-4.06D-06 OVMax= 2.97D-04

 Initial convergence to 1.0D-05 achieved.  Increase integral accuracy.
 Cycle   7  Pass 1  IDiag  1:
 E= -476.417447229211     Delta-E=       -0.000002381608 Rises=F Damp=F
 DIIS: error= 1.60D-05 at cycle   1 NSaved=   1.
 NSaved= 1 IEnMin= 1 EnMin= -476.417447229211     IErMin= 1 ErrMin= 1.60D-05
 ErrMax= 1.60D-05  0.00D+00 EMaxC= 1.00D-01 BMatC= 6.52D-08 BMatP= 6.52D-08
 IDIUse=1 WtCom= 1.00D+00 WtEn= 0.00D+00
 Coeff-Com:  0.100D+01
 Coeff:      0.100D+01
 Gap=     0.168 Goal=   None    Shift=    0.000
 RMSDP=6.14D-06 MaxDP=1.94D-04 DE=-2.38D-06 OVMax= 1.92D-04

 Cycle   8  Pass 1  IDiag  1:
 RMSU=  9.88D-06    CP:  1.00D+00
 E= -476.417447202656     Delta-E=        0.000000026555 Rises=F Damp=F
 DIIS: error= 1.85D-05 at cycle   2 NSaved=   2.
 NSaved= 2 IEnMin= 1 EnMin= -476.417447229211     IErMin= 1 ErrMin= 1.60D-05
 ErrMax= 1.85D-05  0.00D+00 EMaxC= 1.00D-01 BMatC= 9.49D-08 BMatP= 6.52D-08
 IDIUse=1 WtCom= 1.00D+00 WtEn= 0.00D+00
 Coeff-Com:  0.554D+00 0.446D+00
 Coeff:      0.554D+00 0.446D+00
 Gap=     0.168 Goal=   None    Shift=    0.000
 RMSDP=2.26D-06 MaxDP=5.37D-05 DE= 2.66D-08 OVMax= 1.67D-04

 Cycle   9  Pass 1  IDiag  1:
 RMSU=  2.20D-06    CP:  1.00D+00  9.50D-01
 E= -476.417447279606     Delta-E=       -0.000000076950 Rises=F Damp=F
 DIIS: error= 7.31D-06 at cycle   3 NSaved=   3.
 NSaved= 3 IEnMin= 3 EnMin= -476.417447279606     IErMin= 3 ErrMin= 7.31D-06
 ErrMax= 7.31D-06  0.00D+00 EMaxC= 1.00D-01 BMatC= 6.91D-09 BMatP= 6.52D-08
 IDIUse=1 WtCom= 1.00D+00 WtEn= 0.00D+00
 Coeff-Com:  0.116D+00 0.225D+00 0.660D+00
 Coeff:      0.116D+00 0.225D+00 0.660D+00
 Gap=     0.168 Goal=   None    Shift=    0.000
 RMSDP=7.53D-07 MaxDP=1.85D-05 DE=-7.70D-08 OVMax= 6.46D-05

 Cycle  10  Pass 1  IDiag  1:
 RMSU=  4.58D-07    CP:  1.00D+00  9.71D-01  7.45D-01
 E= -476.417447284947     Delta-E=       -0.000000005341 Rises=F Damp=F
 DIIS: error= 3.46D-06 at cycle   4 NSaved=   4.
 NSaved= 4 IEnMin= 4 EnMin= -476.417447284947     IErMin= 4 ErrMin= 3.46D-06
 ErrMax= 3.46D-06  0.00D+00 EMaxC= 1.00D-01 BMatC= 2.03D-09 BMatP= 6.91D-09
 IDIUse=1 WtCom= 1.00D+00 WtEn= 0.00D+00
 Coeff-Com:  0.130D-01 0.954D-01 0.430D+00 0.461D+00
 Coeff:      0.130D-01 0.954D-01 0.430D+00 0.461D+00
 Gap=     0.168 Goal=   None    Shift=    0.000
 RMSDP=3.03D-07 MaxDP=8.61D-06 DE=-5.34D-09 OVMax= 2.14D-05

 Cycle  11  Pass 1  IDiag  1:
 RMSU=  1.35D-07    CP:  1.00D+00  9.68D-01  8.10D-01  5.01D-01
 E= -476.417447286891     Delta-E=       -0.000000001944 Rises=F Damp=F
 DIIS: error= 1.00D-06 at cycle   5 NSaved=   5.
 NSaved= 5 IEnMin= 5 EnMin= -476.417447286891     IErMin= 5 ErrMin= 1.00D-06
 ErrMax= 1.00D-06  0.00D+00 EMaxC= 1.00D-01 BMatC= 1.02D-10 BMatP= 2.03D-09
 IDIUse=1 WtCom= 1.00D+00 WtEn= 0.00D+00
 Coeff-Com: -0.228D-02 0.355D-01 0.189D+00 0.259D+00 0.519D+00
 Coeff:     -0.228D-02 0.355D-01 0.189D+00 0.259D+00 0.519D+00
 Gap=     0.168 Goal=   None    Shift=    0.000
 RMSDP=6.97D-08 MaxDP=2.62D-06 DE=-1.94D-09 OVMax= 3.29D-06

 Cycle  12  Pass 1  IDiag  1:
 RMSU=  5.17D-08    CP:  1.00D+00  9.69D-01  8.07D-01  5.30D-01  6.85D-01
 E= -476.417447286945     Delta-E=       -0.000000000055 Rises=F Damp=F
 DIIS: error= 4.28D-07 at cycle   6 NSaved=   6.
 NSaved= 6 IEnMin= 6 EnMin= -476.417447286945     IErMin= 6 ErrMin= 4.28D-07
 ErrMax= 4.28D-07  0.00D+00 EMaxC= 1.00D-01 BMatC= 2.42D-11 BMatP= 1.02D-10
 IDIUse=1 WtCom= 1.00D+00 WtEn= 0.00D+00
 Coeff-Com: -0.338D-02 0.129D-01 0.781D-01 0.123D+00 0.359D+00 0.431D+00
 Coeff:     -0.338D-02 0.129D-01 0.781D-01 0.123D+00 0.359D+00 0.431D+00
 Gap=     0.168 Goal=   None    Shift=    0.000
 RMSDP=3.12D-08 MaxDP=9.37D-07 DE=-5.46D-11 OVMax= 1.40D-06

 Cycle  13  Pass 1  IDiag  1:
 RMSU=  1.89D-08    CP:  1.00D+00  9.69D-01  8.06D-01  5.37D-01  7.48D-01
                    CP:  5.70D-01
 E= -476.417447286965     Delta-E=       -0.000000000020 Rises=F Damp=F
 DIIS: error= 7.94D-08 at cycle   7 NSaved=   7.
 NSaved= 7 IEnMin= 7 EnMin= -476.417447286965     IErMin= 7 ErrMin= 7.94D-08
 ErrMax= 7.94D-08  0.00D+00 EMaxC= 1.00D-01 BMatC= 9.68D-13 BMatP= 2.42D-11
 IDIUse=1 WtCom= 1.00D+00 WtEn= 0.00D+00
 Coeff-Com: -0.136D-02 0.290D-02 0.205D-01 0.342D-01 0.120D+00 0.209D+00
 Coeff-Com:  0.615D+00
 Coeff:     -0.136D-02 0.290D-02 0.205D-01 0.342D-01 0.120D+00 0.209D+00
 Coeff:      0.615D+00
 Gap=     0.168 Goal=   None    Shift=    0.000
 RMSDP=8.39D-09 MaxDP=2.02D-07 DE=-1.99D-11 OVMax= 3.86D-07

 SCF Done:  E(RB3LYP) =  -476.417447287     A.U. after   13 cycles
            NFock= 13  Conv=0.84D-08     -V/T= 2.0091
 KE= 4.721350898972D+02 PE=-2.098928964028D+03 EE= 6.493067725086D+02
 Leave Link  502 at Mon Oct 14 00:24:47 2019, MaxMem= 10737418240 cpu:              65.7 elap:               2.8
 (Enter /apps/cent7/gaussian/g16-A.03/g16-haswell/g16/l701.exe)
 ... and contract with generalized density number  0.
 Compute integral first derivatives.
 Leave Link  701 at Mon Oct 14 00:24:47 2019, MaxMem= 10737418240 cpu:               2.5 elap:               0.1
 (Enter /apps/cent7/gaussian/g16-A.03/g16-haswell/g16/l702.exe)
 L702 exits ... SP integral derivatives will be done elsewhere.
 Leave Link  702 at Mon Oct 14 00:24:47 2019, MaxMem= 10737418240 cpu:               0.4 elap:               0.0
 (Enter /apps/cent7/gaussian/g16-A.03/g16-haswell/g16/l703.exe)
 Integral derivatives from FoFJK, PRISM(SPDF).
 Compute integral first derivatives, UseDBF=F ICtDFT=           0.
 Calling FoFJK, ICntrl=      2127 FMM=F ISym2X=0 I1Cent= 0 IOpClX= 0 NMat=1 NMatS=1 NMatT=0.
 FoFJK:  IHMeth= 1 ICntrl=    2127 DoSepK=F KAlg= 0 I1Cent=           0 FoldK=F
 IRaf=         0 NMat=       1 IRICut=       1 DoRegI=T DoRafI=F ISym2E= 0 IDoP0=0 IntGTp=1.
 FoFCou: FMM=F IPFlag=           0 FMFlag=      100000 FMFlg1=         800
         NFxFlg=           0 DoJE=F BraDBF=F KetDBF=F FulRan=T
[...]
 0.1767041,0.0497012,0.2589541,0.006135,0.004795,-0.001618,-0.0200758,-
 0.0758083,0.1542903,-0.0472298,-0.0245786,-0.0692066,0.2358051,0.02827
 ,-0.0833369,0.0760451,0.2341197,0.5612387,0.0144598,0.0106188,-0.11947
 53,0.3288813,-0.0049055,0.0263775,0.0027168,0.3462157,0.0658723,-0.039
 3505,0.0011959,-0.0128598,0.080316,0.00471,-0.0019107,0.0031904,0.1258
 912,0.0617543,0.0254893,-0.0070606,0.0257606,0.0335376,0.0131977,-0.00
 70833,0.0131863,0.1308882,0.0247463,0.0018159,-0.0056966,0.0018612,0.0
 882123,0.0039674,-0.0057005,0.0039642,0.1201057,0.0643306,-0.0207372,-
 0.0014015,-0.0341259,0.024739,0.0107104,0.000163,0.0114813,0.1305426,0
 .0122169,0.1033275,-0.0179179,0.0807605,-0.0242295,0.0207401,-0.015272
 6,0.0220469,0.1089455,0.1419513,-0.0330162,0.0221549,-0.0459343,0.2110
 396,-0.0279138,0.084975,-0.0736644,0.2711837\Polar=132.3050604,-1.6961
 41,88.0674861,5.8666615,-6.6098786,33.9789899\Quadrupole=8.5993302,0.7
 899566,-9.3892868,-4.6291965,1.5851781,-1.4965879\PG=C01 [X(C7H8N1O2)]
 \NImag=0\\0.46473632,0.39302765,0.56479048,-0.02152965,-0.04034273,0.0
 3485027,-0.43698041,-0.36336478,0.02154663,0.85354277,-0.34424420,-0.4
 5976909,0.02680059,0.36475540,0.55282735,0.01930150,0.02571347,-0.0670
 4152,-0.00466248,-0.02280361,0.18486263,0.01062771,-0.00718806,0.00030
 374,-0.08572285,-0.01607209,0.00103024,0.46667357,-0.02078038,-0.08719
 260,0.01143870,-0.01642342,0.01384763,-0.01086922,0.15143011,0.5000356
 4,0.00189835,0.01220693,0.01881711,0.00107431,-0.01084168,-0.06930206,
 -0.03141712,0.03284183,0.70002083,0.00341207,-0.00719563,0.00091051,-0
 .03467507,0.00481535,-0.00251418,-0.22980836,-0.00889937,-0.00840588,0
 .37163579,0.02747878,-0.00275343,0.00215419,0.01823199,-0.01633366,0.0
 0290708,-0.05796456,-0.10658014,0.00174529,0.06496344,0.52876651,-0.00
 316504,0.00018083,0.00206213,-0.00409424,0.00214190,-0.00091600,-0.002
 63931,0.00453916,-0.06433061,0.01139957,-0.05411928,0.04401081,-0.0514
 0602,-0.03528219,0.00027760,-0.24043792,0.01071632,-0.01143403,-0.0050
 7228,0.00849807,-0.00177586,0.00097325,0.00243625,-0.00027659,0.640368
 97,-0.04131916,0.00285912,-0.00073943,-0.01343957,-0.09534225,0.003187
 16,0.02859326,-0.00653097,0.00339363,0.00683179,-0.00234162,0.00075802
 ,0.03036598,0.67316613,0.00098650,-0.00039367,0.01671160,-0.00859355,0
 .00455759,-0.06290261,-0.00413899,0.00225289,0.00800383,-0.00079343,0.
 00050744,0.00068423,0.02562946,-0.06262809,0.13676766,0.00620540,0.008
 63962,-0.00066418,-0.04030430,0.02186134,-0.00476163,-0.00535329,-0.00
 180496,-0.00032261,-0.00184964,0.00042832,-0.00018213,-0.13735944,0.04
 633293,-0.00975762,0.71632988,-0.00927834,-0.00831193,0.00045183,0.028
 11671,0.00915995,0.00027592,-0.00372139,0.00383595,-0.00018257,-0.0014
 9786,0.00119956,-0.00017108,0.08304772,-0.26687895,0.02889328,0.055873
 14,0.69363060,0.00144542,0.00147271,-0.00008330,-0.00549364,-0.0000769
 7,-0.00237999,-0.00009455,-0.00007761,0.00406649,0.00004537,-0.0000621
 9,0.00047963,-0.01409457,0.02680130,-0.06623075,0.02627016,-0.06219986
 ,0.14872893,-0.00138100,-0.00338255,0.00037852,0.00885200,0.00901490,-
 0.00096891,-0.00028918,0.00115678,-0.00009996,-0.00033729,0.00048355,-
 0.00007044,-0.03124257,0.06120992,-0.00950387,-0.35896732,-0.02214647,
 -0.01426124,0.70004129,-0.00274122,-0.00131517,-0.00012104,0.00710072,
 -0.00237602,0.00153107,0.00227506,0.00049975,-0.00003987,0.00066097,0.
 00012453,0.00001056,0.02335230,0.02344013,-0.00040108,0.03963215,-0.13
 032005,0.01020549,-0.03800463,0.72539352,0.00030380,-0.00015701,-0.000
 97830,-0.00074193,0.00164085,0.00692602,-0.00023292,-0.00010223,-0.000
 92797,-0.00009176,0.00000074,-0.00010904,-0.00503719,0.00175072,0.0082
 4567,-0.02155497,0.00668515,-0.06504805,0.03677553,-0.07202672,0.14439
 098,0.00096727,0.00148004,-0.00013150,-0.00128630,-0.00143696,0.000149
 31,0.00000595,-0.00010797,-0.00000138,0.00009858,-0.00019045,0.0000282
 6,0.00003560,-0.00092536,0.00060307,-0.02956647,-0.03046134,0.00159152
 ,-0.18768046,-0.12139561,0.00728642,0.74744649,-0.00325453,-0.00117211
 ,-0.00002253,0.00247640,-0.00506266,0.00063017,0.00061281,-0.00058495,
 0.00013232,0.00024278,-0.00015942,0.00003258,-0.00471605,-0.05085451,0
 .00471405,-0.06917523,0.03430123,-0.00733170,-0.05701481,-0.28158691,0
 .02243589,0.00299482,0.66067473,0.00042716,0.00024849,0.00021407,-0.00
 031214,0.00040503,-0.00100808,-0.00008601,0.00009236,0.00023299,-0.000
 02279,0.00000750,-0.00000513,0.00105111,0.00493434,-0.00914785,0.00616
 313,-0.00512545,0.00656675,-0.00031688,0.01876516,-0.06629041,0.033910
 22,-0.06054414,0.15562073,-0.00721621,-0.00422677,0.00019304,0.0129087
 7,-0.00317269,0.00063837,0.00055086,0.00044150,0.00006688,0.00020866,0
 .00043527,-0.00005227,-0.04131305,-0.05760533,0.00397471,-0.04123432,0
 .02841552,-0.00533801,0.06456536,0.01348594,0.00168087,-0.17406312,0.0
 4636981,-0.01173485,0.70651112,0.00245415,0.00428674,-0.00058747,-0.01
 088474,-0.00821275,0.00132995,-0.00039487,-0.00041962,-0.00015508,-0.0
 0005273,0.00058050,-0.00004438,-0.01737955,0.02722375,-0.00322700,0.02
 068118,-0.01502334,0.00218984,-0.02084600,-0.05021085,0.00558431,0.111
 20060,-0.28721297,0.03266865,0.04864135,0.71716917,-0.00059327,-0.0009
 6795,-0.00179785,0.00154807,0.00177082,0.00819934,0.00016591,-0.000106
 97,-0.00153216,0.00000483,-0.00001666,0.00023351,-0.00077420,-0.005524
 84,0.00887835,-0.00442402,0.00263002,-0.00703438,0.00573448,0.00754148
 ,0.00658230,-0.01939132,0.02897475,-0.06880321,0.02701193,-0.06636811,
 0.14118252,0.00403723,0.00854418,-0.00111185,-0.04091530,-0.03407318,0
 .00213662,-0.00166828,0.00003031,-0.00004720,0.00117127,-0.00084117,0.
 00016920,-0.14942729,-0.06272834,0.00203018,0.04993866,-0.01991170,0.0
 0471820,-0.04588312,-0.02056634,0.00019352,-0.02270014,0.07532191,-0.0
 1052608,-0.35798205,-0.02958284,-0.01345208,0.69271996,0.01223907,0.00
 505663,0.00079824,-0.02005260,0.00694578,-0.00289844,0.00091394,-0.000
 92542,0.00005256,0.00039783,-0.00299674,0.00036843,-0.09683731,-0.2658
 4887,0.01936411,0.01454033,-0.05347693,0.00814261,-0.02692350,-0.01259
 518,-0.00083682,0.03234338,0.02709992,-0.00065959,0.03353842,-0.126496
 99,0.00968921,-0.03293920,0.70002122,-0.00155008,0.00058522,0.00572782
 ,0.00048294,-0.00369700,-0.00745202,-0.00015130,0.00000317,-0.00091530
 ,0.00002262,0.00029944,-0.00009836,0.00606014,0.02131538,-0.05724133,0
 .00064926,0.00617753,0.00776699,0.00094367,-0.00047527,-0.00657630,-0.
 00545180,0.00179312,0.00538713,-0.02090648,0.00608950,-0.06256886,0.03
 600030,-0.06926587,0.13976726,-0.00063619,0.00328717,-0.00146174,0.008
 59600,0.00021430,0.01085307,-0.05471923,-0.02760332,-0.03186619,-0.028
 33371,-0.03162491,-0.02482152,-0.00180267,0.00110088,-0.00111786,0.000
 59301,-0.00080038,-0.00032814,-0.00064424,-0.00040912,0.00014901,0.000
 12880,0.00040308,0.00005078,-0.00021586,-0.00048956,0.00022631,-0.0002
 8944,0.00154082,-0.00062438,0.07890729,-0.00053445,-0.00419250,0.00256
 261,-0.00372378,-0.00913648,-0.01577435,-0.04283516,-0.18903490,-0.172
 95038,-0.00243554,0.00179084,0.00116465,-0.00001809,-0.00010577,0.0008
 9978,0.00031200,-0.00048980,0.00077036,-0.00039426,-0.00018722,-0.0001
 8179,0.00000724,0.00037577,0.00002665,0.00031131,-0.00004045,0.0001158
 1,-0.00023889,0.00074765,-0.00000604,0.04633783,0.18715867,0.00064546,
 0.00445434,-0.00217384,0.00535639,-0.00261340,0.00952125,-0.04220035,-
 0.15371473,-0.26549528,-0.00408529,0.00418047,0.00979340,-0.00123125,0
 .00053896,-0.00082856,0.00017825,-0.00043510,-0.00023972,-0.00026270,-
 0.00008166,0.00008515,-0.00010013,-0.00000785,0.00001039,-0.00028281,0
 .00061920,0.00009015,-0.00007305,-0.00074110,0.00028566,0.04613898,0.1
 6944224,0.27054856,0.00978683,0.00154461,0.00072934,-0.01570385,-0.011
 54089,0.00017976,-0.02527134,-0.05373576,0.00536522,-0.05081867,0.0017
 9227,-0.00309817,0.00343842,0.00032477,0.00013364,-0.00045269,0.001051
 54,-0.00014215,0.00042784,0.00045517,-0.00003038,-0.00010922,0.0001443
 0,-0.00002361,0.00077282,-0.00028620,0.00008159,-0.00084908,-0.0017060
 1,0.00013818,-0.00514383,-0.00063911,0.00089222,0.08968271,-0.01228989
 ,-0.00938035,-0.00032751,0.01282522,0.02220324,-0.00129618,-0.00916485
 ,-0.00803905,-0.00058114,-0.05574052,-0.40351716,0.04426306,-0.0035945
 7,-0.00488518,0.00041988,0.00150406,-0.00026128,0.00010048,-0.00022772
 ,-0.00077985,0.00008145,0.00001956,-0.00016384,0.00002109,-0.00065193,
 0.00007670,-0.00005389,0.00000132,0.00141039,-0.00013550,0.00146382,-0
 .00169705,0.00114531,0.06303243,0.40711380,0.00235576,0.00045966,-0.00
 613734,-0.00268508,-0.00268228,0.00513440,0.00012563,-0.00311725,-0.00
 816347,0.00366588,0.04753667,-0.00543823,0.00059434,0.00064248,0.00038
 301,-0.00019502,0.00007492,-0.00015266,0.00005011,0.00011973,0.0000064
 4,-0.00000878,0.00002814,0.00000133,0.00012450,-0.00003325,-0.00005493
 ,-0.00006353,-0.00023172,0.00028668,-0.00484220,-0.00138224,0.00023604
 ,-0.00279470,-0.04327262,0.01347551,-0.00133862,-0.00048370,-0.0000352
 9,0.00150761,0.00272340,-0.00004273,0.00025542,-0.00075315,0.00010386,
 0.00000200,-0.00019980,0.00002392,0.01140758,0.01432770,-0.00120734,-0
 .14417049,-0.13213093,0.00963973,-0.01073515,-0.02706307,0.00223205,-0
 .00550348,0.00128838,-0.00091324,-0.00070556,0.00075092,-0.00008576,-0
 .00154624,0.00295201,-0.00070917,0.00010154,-0.00003633,0.00004405,-0.
 00015791,0.00017123,-0.00003024,0.14957739,0.00034000,0.00214247,-0.00
 020016,-0.00262997,-0.00264762,-0.00023635,-0.00005080,0.00029941,-0.0
 0003974,-0.00000944,0.00022999,-0.00002820,-0.01372938,-0.01840527,0.0
 0173368,-0.13057067,-0.26498442,0.01917186,0.00296626,0.00735021,0.000
 02870,0.00120641,0.00059240,0.00092482,0.00005256,0.00045361,-0.000139
 69,0.00408068,-0.00216603,0.00105264,-0.00008641,0.00002032,-0.0000054
 7,0.00022269,-0.00016680,0.00003459,0.13890868,0.27711852,-0.00013294,
 -0.00024738,0.00030064,0.00058784,0.00006887,-0.00334730,0.00002129,-0
 .00007999,-0.00000284,0.00000159,-0.00003925,-0.00000057,0.00210833,0.
 00333373,0.00263424,0.00945451,0.01908333,-0.04129070,-0.00131408,-0.0
 0168374,0.00628536,-0.00090352,0.00092988,0.00768089,-0.00000317,-0.00
 009969,-0.00074326,-0.00084235,0.00098795,0.00461317,0.00002468,0.0000
 1634,0.00003856,-0.00003649,0.00003178,0.00001382,-0.00936797,-0.02170
 984,0.02821737,-0.00006782,-0.00007586,0.00001090,0.00015704,0.0011688
 7,-0.00018976,-0.00058371,0.00016947,-0.00002666,-0.00022658,0.0001214
 8,-0.00002312,-0.00479827,-0.00120914,-0.00055650,-0.01147892,0.028620
 77,-0.00423371,-0.12410846,0.11878552,-0.01882802,0.01278646,-0.017078
 70,0.00251887,-0.00176876,-0.00337604,-0.00009208,-0.00073745,-0.00081
 079,0.00006995,-0.00002752,-0.00001654,-0.00003823,0.00006430,0.000073
 48,-0.00000663,0.00108882,-0.00005698,0.00031435,0.12825854,0.00011292
 ,0.00003091,-0.00000903,-0.00012070,0.00015658,0.00009969,-0.00020027,
 0.00011966,-0.00007991,-0.00005763,0.00002589,-0.00001474,-0.00096573,
 0.00147020,0.00065234,-0.00190997,0.00494427,-0.00027984,0.11901294,-0
 .28066899,0.03521704,0.01347473,-0.01803297,0.00336760,-0.00366569,-0.
 00240444,0.00088254,-0.00092249,0.00014619,-0.00010378,0.00000005,-0.0
 0002117,0.00000847,-0.00000056,0.00002819,0.00000007,0.00013627,0.0006
 4503,-0.00057680,-0.12583977,0.29346875,-0.00001136,-0.00001959,-0.000
 09900,-0.00003754,0.00017296,0.00103851,0.00001636,-0.00005894,-0.0004
 5416,-0.00000214,-0.00000446,-0.00007084,-0.00058480,0.00063923,0.0073
 5304,-0.00062817,0.00146106,0.00328912,-0.01885486,0.03520372,-0.04513
 030,-0.00108891,0.00162559,0.00372517,-0.00005801,0.00089882,0.0067294
 8,0.00008302,-0.00009748,-0.00027091,0.00004595,-0.00006845,0.00004015
 ,0.00000207,0.00000431,0.00002859,0.00029158,-0.00058785,-0.00421988,0
 .02062541,-0.03862453,0.03287424,0.00010501,0.00014677,-0.00003380,-0.
 00039996,-0.00010941,0.00008581,-0.00002243,-0.00003138,-0.00001702,-0
 .00000972,-0.00001751,0.00000327,0.00116676,-0.00011592,0.00009749,-0.
 00010800,-0.00261794,-0.00011279,-0.01023419,0.00223349,-0.00122564,-0
 .34738391,0.00777857,-0.01820831,-0.00844444,-0.00143490,-0.00067010,0
 .00037286,0.00205649,-0.00062294,0.00004026,0.00000090,-0.00001116,-0.
 00001179,0.00002141,-0.00000334,-0.00047526,0.00027488,-0.00001656,0.0
 0077646,0.00007962,0.00024847,0.36429484,-0.00003669,0.00017021,0.0000
 2436,0.00010268,-0.00031064,-0.00015575,-0.00006340,0.00005514,0.00003
 025,-0.00000636,0.00008829,-0.00001440,-0.00011954,-0.00110843,0.00008
 816,-0.00292210,-0.00461588,0.00123949,-0.02799147,0.00569552,-0.00148
 491,0.00766227,-0.06168213,0.00250594,0.02888973,0.00378608,0.00194158
 ,0.00236361,-0.00455060,0.00150325,-0.00007901,0.00000603,0.00003661,0
 .00003595,-0.00003473,0.00000645,-0.00133562,0.00022260,-0.00019144,0.
 00033482,0.00091134,-0.00053093,-0.00812777,0.06051032,-0.00001236,0.0
 0003468,0.00038919,0.00006050,-0.00016775,-0.00165525,-0.00001314,0.00
 003160,0.00033657,0.00000198,-0.00001501,-0.00002880,0.00009817,0.0000
 8901,-0.00030859,-0.00007703,0.00125651,0.00713932,0.00234358,0.000238
 66,0.00674163,-0.01819485,0.00251269,-0.04549771,-0.00425076,0.0002127
 7,0.00601300,-0.00065895,0.00148537,0.00682295,-0.00006702,-0.00001868
 ,-0.00006031,-0.00000507,0.00000560,0.00000175,0.00017368,-0.00009964,
 -0.00073220,0.00021829,-0.00054551,-0.00366951,0.02019372,-0.00442334,
 0.02865145,-0.00065893,0.00009515,-0.00001052,-0.00011664,-0.00177906,
 0.00012040,-0.00005908,0.00005397,-0.00000967,-0.00003516,0.00011764,-
 0.00001514,-0.00464512,0.00205452,-0.00092949,-0.00048445,0.00079026,-
 0.00009043,-0.00140682,0.00307623,-0.00082128,0.01295125,0.01488360,-0
 .00123661,-0.14223141,-0.13023590,0.00947487,-0.01344109,-0.02733408,0
 .00231041,-0.00003067,-0.00006086,-0.00002500,0.00007490,-0.00007557,0
 .00001330,0.00008148,-0.00006890,0.00006946,0.00056476,0.00076214,-0.0
 0005680,0.00075844,-0.00024823,0.00028213,0.14764333,0.00014314,-0.000
 03586,-0.00006700,0.00030271,0.00045228,0.00013549,-0.00001219,0.00004
 211,-0.00000571,-0.00000019,-0.00001623,0.00000043,0.00118411,0.001275
 18,0.00079241,0.00101230,-0.00005504,0.00000104,0.00355336,-0.00284646
 ,0.00132203,-0.01580360,-0.01817141,0.00169487,-0.13081883,-0.26572305
 ,0.01937685,0.00342088,0.00625598,-0.00022868,-0.00000592,0.00000669,-
 0.00001302,-0.00000134,0.00000959,-0.00000153,-0.00008951,0.00001273,-
 0.00012412,-0.00087571,-0.00080062,0.00004261,-0.00000227,0.00093517,-
 0.00054508,0.13809162,0.27780794,-0.00001618,-0.00006984,-0.00066561,-
 0.00012509,0.00001665,0.00144488,-0.00000176,-0.00000200,-0.00000023,-
 0.00000125,0.00000716,-0.00001337,-0.00082769,0.00084178,0.00726526,-0
 .00011686,-0.00001150,-0.00053966,-0.00087761,0.00129460,0.00642777,0.
 00238815,0.00344280,0.00353297,0.00954332,0.01941117,-0.04031166,-0.00
 132184,-0.00198090,0.00282800,-0.00001862,-0.00002244,0.00002901,0.000
 00461,-0.00000578,-0.00000184,0.00007192,-0.00012289,-0.00097621,0.000
 13659,0.00013606,-0.00002481,0.00025327,-0.00055895,-0.00359724,-0.009
 42140,-0.02178499,0.02878612,0.00050889,0.00045004,-0.00005698,0.00064
 237,-0.00007638,0.00026620,-0.00251945,0.00025204,-0.00026673,0.000096
 33,-0.00063684,0.00010175,0.01214918,-0.01516930,0.00247453,-0.0022975
 6,-0.00260977,-0.00011795,-0.00031818,-0.00042564,0.00007139,-0.006254
 84,-0.00166009,-0.00060950,-0.01012365,0.03170044,-0.00460599,-0.11245
 511,0.10452794,-0.01685827,-0.00121930,-0.00007449,0.00007373,-0.00022
 638,0.00007019,-0.00001954,0.00050405,-0.00076031,0.00003124,0.0001271
 8,0.00011526,0.00006092,-0.00045423,0.00159589,-0.00018576,0.00107095,
 -0.00009471,0.00031745,0.12187780,-0.00091108,0.00040977,-0.00003153,0
 .00350147,-0.00230397,0.00001332,0.00021457,0.00080860,0.00011389,-0.0
 0007165,0.00122952,-0.00019353,0.01268290,-0.01668519,0.00271395,-0.00
 478636,-0.00209613,0.00058641,-0.00011366,0.00050567,-0.00014741,-0.00
 010705,0.00128286,0.00077292,-0.00081143,0.00236886,0.00026192,0.10825
 659,-0.27953566,0.03525415,-0.00087674,0.00055202,0.00055205,0.0003854
 4,-0.00039883,0.00006539,0.00087631,-0.00073424,0.00031712,0.00008147,
 -0.00001423,-0.00013313,-0.00013835,-0.00007599,-0.00005814,-0.0000659
 3,0.00083583,-0.00061055,-0.11710536,0.29346752,0.00010287,0.00004472,
 0.00058142,-0.00015668,-0.00018845,-0.00385827,-0.00026239,0.00011296,
 0.00162894,0.00003565,-0.00022570,-0.00034598,-0.00081611,0.00112400,-
 0.00001270,0.00013827,0.00071039,0.00510093,0.00003517,-0.00016462,-0.
 00066663,-0.00079205,0.00068349,0.00774939,-0.00076496,0.00211436,0.00
 468254,-0.01729893,0.03504575,-0.03853867,0.00093957,-0.00002125,-0.00
 009573,-0.00005687,0.00004771,-0.00003717,-0.00016200,0.00022375,0.001
 49242,0.00006495,-0.00013112,-0.00116101,0.00001908,0.00004061,-0.0005
 0520,0.00031384,-0.00061192,-0.00420888,0.01950040,-0.03868802,0.02823
 396,-0.00070153,0.00398430,0.00068526,0.01033604,-0.00276500,-0.010187
 58,-0.06702402,-0.03189253,0.06574768,-0.03150374,-0.02501375,0.026712
 00,-0.00203510,0.00137036,0.00066905,0.00055996,-0.00073954,0.00059678
 ,-0.00065850,-0.00045193,-0.00012852,0.00012755,0.00038297,-0.00013125
 ,-0.00021917,-0.00046532,-0.00015917,-0.00034537,0.00155326,0.00019694
 ,0.00469576,0.00403822,-0.00501910,-0.00550307,0.00256233,0.00371957,0
 .00010682,-0.00008929,0.00000380,-0.00002607,-0.00001113,-0.00005118,0
 .00002931,-0.00005477,0.00009289,-0.00003574,-0.00000385,0.00001299,-0
 .00110804,-0.00101114,-0.00083981,0.09330490,-0.00040576,-0.00562329,-
 0.00178209,-0.00677375,-0.00409767,0.01821058,-0.04637211,-0.12023623,
 0.13435938,-0.00194525,0.00066277,0.00112598,0.00035875,-0.00044753,-0
 .00093971,0.00035192,-0.00055783,-0.00065342,-0.00035263,-0.00012261,0
 .00019002,0.00003928,0.00035697,-0.00010625,0.00037126,-0.00020097,-0.
 00000688,-0.00021532,0.00090868,-0.00016124,0.00762742,0.01424735,-0.0
 2336532,-0.00107931,-0.00151778,0.00175279,-0.00004279,0.00001707,-0.0
 0001674,-0.00001635,-0.00000460,0.00007707,0.00000332,-0.00000230,0.00
 000627,-0.00005659,0.00001516,0.00001961,-0.00009891,0.00038358,-0.000
 11667,0.04860680,0.11621924,-0.00045595,-0.00320288,-0.00067749,-0.003
 75429,0.00549587,0.00273605,0.07957468,0.11681627,-0.32198267,-0.00017
 127,-0.00486341,0.01409322,0.00103316,-0.00045737,-0.00025451,-0.00016
 933,0.00042564,-0.00013895,0.00026948,0.00008353,0.00003567,0.00010729
 ,-0.00002924,0.00003059,0.00015770,-0.00060359,0.00025514,0.00006481,0
 .00077770,0.00017610,0.00671934,0.01542717,-0.02178488,-0.00133920,-0.
 00044805,0.00041808,-0.00002705,-0.00000023,0.00003649,0.00003539,0.00
 000143,0.00002213,0.00002056,-0.00005698,-0.00004104,0.00003193,0.0000
 1632,0.00002553,-0.00017687,-0.00078879,-0.00003936,-0.08192036,-0.128
 59339,0.32708991\\0.00000397,0.00000412,-0.00000342,-0.00002035,-0.000
 00225,-0.00000364,-0.00001468,0.00001235,0.00000545,0.00002222,-0.0000
 1518,0.00000482,0.00002122,0.00000722,-0.00000343,-0.00000557,0.000003
 50,0.00000180,0.00000397,-0.00000254,0.00000066,-0.00000074,0.00000071
 ,-0.00000045,0.00000668,-0.00000463,0.00000082,-0.00001808,-0.00000254
 ,0.00000174,-0.00000657,-0.00000372,-0.00000206,-0.00000079,0.00001450
 ,-0.00000176,-0.00000048,-0.00000067,-0.00000010,0.00000075,-0.0000004
 1,-0.00000025,0.00000063,0.00000089,0.00000050,0.00000076,0.00000036,-
 0.00000084,0.00000414,0.00000020,-0.00000208,0.00000291,-0.00001193,0.
 00000223\\\@


 ... FOR AFTERWARDS A MAN FINDS PLEASURE IN HIS PAINS,
 WHEN HE HAS SUFFERED LONG AND WANDERED FAR.

                                    -- HOMER
 Job cpu time:       0 days  0 hours  9 minutes 17.0 seconds.
 Elapsed time:       0 days  0 hours  0 minutes 23.8 seconds.
 File lengths (MBytes):  RWF=     64 Int=      0 D2E=      0 Chk=      4 Scr=      1
 Normal termination of Gaussian 16 at Mon Oct 14 00:26:21 2019.
real 103.09
user 2247.29
sys 20.74
Machine:
brown-a426
brown-a426
brown-a426
brown-a426
brown-a426
brown-a426
brown-a426
brown-a426
brown-a426
brown-a426
brown-a426
brown-a426
brown-a426
brown-a426
brown-a426
brown-a426
brown-a426
brown-a426
brown-a426
brown-a426
brown-a426
brown-a426
brown-a426
brown-a426
