Title Card Required                                                     
Freq      RB3LYP                                                      6-31G(d)            
Number of atoms                            I               18
Info1-9                                    I   N=           9
          46          46        1002           0           0         100
           6          18        -502
Full Title                                 C   N=           2
Title Card Required     
Route                                      C   N=           6
#P opt freq b3lyp/6-31g(d) geom=connectivity temperature=0.0
01          
Charge                                     I                1
Multiplicity                               I                1
Number of electrons                        I               72
Number of alpha electrons                  I               36
Number of beta electrons                   I               36
Number of basis functions                  I              166
Number of independent functions            I              166
Number of point charges in /Mol/           I                0
Number of translation vectors              I                0
Atomic numbers                             I   N=          18
           8           6           7           8           6           6
           6           6           6           6           1           1
           1           1           1           1           1           1
Nuclear charges                            R   N=          18
  8.00000000E+00  6.00000000E+00  7.00000000E+00  8.00000000E+00  6.00000000E+00
  6.00000000E+00  6.00000000E+00  6.00000000E+00  6.00000000E+00  6.00000000E+00
  1.00000000E+00  1.00000000E+00  1.00000000E+00  1.00000000E+00  1.00000000E+00
  1.00000000E+00  1.00000000E+00  1.00000000E+00
Current cartesian coordinates              R   N=          54
 -3.30021266E+00  2.79321452E+00  8.67051642E-04 -2.12298591E+00  8.68557730E-01
  3.31046451E-04 -4.01338747E+00 -1.58880185E+00 -5.01738381E-04 -6.52501731E+00
 -7.97318324E-01 -5.15768603E-04  5.31860426E-01  2.86535693E-01  2.00820351E-04
  2.20602468E+00  2.37062613E+00 -2.87069678E-04  4.79391028E+00  1.94762829E+00
 -5.11916344E-04  5.72734370E+00 -5.27273867E-01 -2.08957977E-04  4.07828698E+00
 -2.59924102E+00  3.31384773E-04  1.48621024E+00 -2.20657738E+00  4.96368730E-04
 -3.73728371E+00 -2.68421587E+00 -1.58250223E+00 -6.39240713E+00  1.07311327E+00
  8.08191657E-05  1.44631044E+00  4.27484058E+00 -5.10527246E-04  6.08718594E+00
  3.53860839E+00 -9.10555304E-04  7.75384261E+00 -8.49427812E-01 -3.84674337E-04
  4.82323586E+00 -4.50914745E+00  6.55475909E-04  2.48172683E-01 -3.84606396E+00
  1.04543292E-03 -3.73740702E+00 -2.68479718E+00  1.58111810E+00
Number of symbols in /Mol/                 I                0
Force Field                                I                0
Atom Types                                 C   N=          18
                                                            
                                                            
                                                            
                                    
Int Atom Types                             I   N=          18
           0           0           0           0           0           0
           0           0           0           0           0           0
           0           0           0           0           0           0
MM charges                                 R   N=          18
  0.00000000E+00  0.00000000E+00  0.00000000E+00  0.00000000E+00  0.00000000E+00
  0.00000000E+00  0.00000000E+00  0.00000000E+00  0.00000000E+00  0.00000000E+00
  0.00000000E+00  0.00000000E+00  0.00000000E+00  0.00000000E+00  0.00000000E+00
  0.00000000E+00  0.00000000E+00  0.00000000E+00
Integer atomic weights                     I   N=          18
          16          12          14          16          12          12
          12          12          12          12           1           1
           1           1           1           1           1           1
Real atomic weights                        R   N=          18
  1.59949146E+01  1.20000000E+01  1.40030740E+01  1.59949146E+01  1.20000000E+01
  1.20000000E+01  1.20000000E+01  1.20000000E+01  1.20000000E+01  1.20000000E+01
  1.00782504E+00  1.00782504E+00  1.00782504E+00  1.00782504E+00  1.00782504E+00
  1.00782504E+00  1.00782504E+00  1.00782504E+00
Atom fragment info                         I   N=          18
           0           0           0           0           0           0
           0           0           0           0           0           0
           0           0           0           0           0           0
Atom residue num                           I   N=          18
           0           0           0           0           0           0
           0           0           0           0           0           0
           0           0           0           0           0           0
Nuclear spins                              I   N=          18
           0           0           2           0           0           0
           0           0           0           0           1           1
           1           1           1           1           1           1
Nuclear ZEff                               R   N=          18
 -5.60000000E+00 -3.60000000E+00 -4.55000000E+00 -5.60000000E+00 -3.60000000E+00
 -3.60000000E+00 -3.60000000E+00 -3.60000000E+00 -3.60000000E+00 -3.60000000E+00
 -1.00000000E+00 -1.00000000E+00 -1.00000000E+00 -1.00000000E+00 -1.00000000E+00
 -1.00000000E+00 -1.00000000E+00 -1.00000000E+00
Nuclear ZNuc                               R   N=          18
  8.00000000E+00  6.00000000E+00  7.00000000E+00  8.00000000E+00  6.00000000E+00
  6.00000000E+00  6.00000000E+00  6.00000000E+00  6.00000000E+00  6.00000000E+00
  1.00000000E+00  1.00000000E+00  1.00000000E+00  1.00000000E+00  1.00000000E+00
  1.00000000E+00  1.00000000E+00  1.00000000E+00
Nuclear QMom                               R   N=          18
  0.00000000E+00  0.00000000E+00  2.04400000E+00  0.00000000E+00  0.00000000E+00
  0.00000000E+00  0.00000000E+00  0.00000000E+00  0.00000000E+00  0.00000000E+00
  0.00000000E+00  0.00000000E+00  0.00000000E+00  0.00000000E+00  0.00000000E+00
  0.00000000E+00  0.00000000E+00  0.00000000E+00
Nuclear GFac                               R   N=          18
  0.00000000E+00  0.00000000E+00  4.03761000E-01  0.00000000E+00  0.00000000E+00
  0.00000000E+00  0.00000000E+00  0.00000000E+00  0.00000000E+00  0.00000000E+00
  2.79284600E+00  2.79284600E+00  2.79284600E+00  2.79284600E+00  2.79284600E+00
  2.79284600E+00  2.79284600E+00  2.79284600E+00
MicOpt                                     I   N=          18
          -1          -1          -1          -1          -1          -1
          -1          -1          -1          -1          -1          -1
          -1          -1          -1          -1          -1          -1
Number of residues                         I                0
Number of secondary structures             I                0
Redundant internal dimensions              I   N=           4
          83          18          28          37
Redundant internal coordinate indices      I   N=         332
           1           2           0           0           2           3
           0           0           2           5           0           0
           3           4           0           0           3          11
           0           0           3          18           0           0
           4          12           0           0           5           6
           0           0           5          10           0           0
           6           7           0           0           6          13
           0           0           7           8           0           0
           7          14           0           0           8           9
           0           0           8          15           0           0
           9          10           0           0           9          16
           0           0          10          17           0           0
           1           2           3           0           1           2
           5           0           3           2           5           0
           2           3           4           0           2           3
          11           0           2           3          18           0
           4           3          11           0           4           3
          18           0          11           3          18           0
           3           4          12           0           2           5
           6           0           2           5          10           0
           6           5          10           0           5           6
           7           0           5           6          13           0
           7           6          13           0           6           7
           8           0           6           7          14           0
           8           7          14           0           7           8
           9           0           7           8          15           0
           9           8          15           0           8           9
          10           0           8           9          16           0
          10           9          16           0           5          10
           9           0           5          10          17           0
           9          10          17           0           1           2
           3           4           1           2           3          11
           1           2           3          18           5           2
           3           4           5           2           3          11
           5           2           3          18           1           2
           5           6           1           2           5          10
           3           2           5           6           3           2
           5          10           2           3           4          12
          11           3           4          12          18           3
           4          12           2           5           6           7
           2           5           6          13          10           5
           6           7          10           5           6          13
           2           5          10           9           2           5
          10          17           6           5          10           9
           6           5          10          17           5           6
           7           8           5           6           7          14
          13           6           7           8          13           6
           7          14           6           7           8           9
           6           7           8          15          14           7
           8           9          14           7           8          15
           7           8           9          10           7           8
           9          16          15           8           9          10
          15           8           9          16           8           9
          10           5           8           9          10          17
          16           9          10           5          16           9
          10          17
Redundant internal coordinates             R   N=          83
  2.25613982E+00  3.10036044E+00  2.71789602E+00  2.63338767E+00  1.94393691E+00
  1.94393732E+00  1.87512670E+00  2.67324879E+00  2.66953113E+00  2.62222789E+00
  2.05017034E+00  2.64507821E+00  2.05031211E+00  2.64810050E+00  2.05194567E+00
  2.62164959E+00  2.05004671E+00  2.05442292E+00  1.93691952E+00  2.33555768E+00
  2.01070811E+00  1.92124711E+00  1.93933293E+00  1.93915978E+00  1.88055279E+00
  1.88059267E+00  1.90102907E+00  1.80529335E+00  2.03173467E+00  2.15219865E+00
  2.09925199E+00  2.08553012E+00  2.08522505E+00  2.11243013E+00  2.09347941E+00
  2.09132133E+00  2.09838457E+00  2.10870042E+00  2.08911059E+00  2.08537430E+00
  2.09268274E+00  2.09746835E+00  2.09303422E+00  2.08672593E+00  2.12922517E+00
  2.06723420E+00  5.89380202E-05  2.08188817E+00 -2.08170995E+00 -3.14150578E+00
 -1.05967656E+00  1.05991063E+00 -4.63262895E-04  3.14114540E+00  3.14109325E+00
 -4.83393617E-04 -4.43393460E-05 -2.11737030E+00  2.11709510E+00 -3.14156023E+00
  1.50921621E-05  1.69296866E-05  3.14159225E+00  3.14158760E+00 -1.15871347E-04
  1.15581345E-05  3.14149339E+00 -2.04066221E-05  3.14157888E+00  3.14158986E+00
  3.83579740E-06 -4.32449567E-06 -3.14159161E+00  3.14158167E+00 -5.61714485E-06
  3.31090926E-05 -3.14154007E+00 -3.14156490E+00  4.72331248E-05 -3.62216334E-05
 -3.14152198E+00  3.14153700E+00  5.12396768E-05
ZRed-IntVec                                I   N=          83
           0           0           0           0           0           0
           0           0           0           0           0           0
           0           0           0           0           0           0
           0           0           0           0           0           0
           0           0           0           0           0           0
           0           0           0           0           0           0
           0           0           0           0           0           0
           0           0           0           0           0           0
           0           0           0           0           0           0
           0           0           0           0           0           0
           0           0           0           0           0           0
           0           0           0           0           0           0
           0           0           0           0           0           0
           0           0           0           0           0
ZRed-FPVec                                 R   N=          83
  0.00000000E+00  0.00000000E+00  0.00000000E+00  0.00000000E+00  0.00000000E+00
  0.00000000E+00  0.00000000E+00  0.00000000E+00  0.00000000E+00  0.00000000E+00
  0.00000000E+00  0.00000000E+00  0.00000000E+00  0.00000000E+00  0.00000000E+00
  0.00000000E+00  0.00000000E+00  0.00000000E+00  0.00000000E+00  0.00000000E+00
  0.00000000E+00  0.00000000E+00  0.00000000E+00  0.00000000E+00  0.00000000E+00
  0.00000000E+00  0.00000000E+00  0.00000000E+00  0.00000000E+00  0.00000000E+00
  0.00000000E+00  0.00000000E+00  0.00000000E+00  0.00000000E+00  0.00000000E+00
  0.00000000E+00  0.00000000E+00  0.00000000E+00  0.00000000E+00  0.00000000E+00
  0.00000000E+00  0.00000000E+00  0.00000000E+00  0.00000000E+00  0.00000000E+00
  0.00000000E+00  0.00000000E+00  0.00000000E+00  0.00000000E+00  0.00000000E+00
  0.00000000E+00  0.00000000E+00  0.00000000E+00  0.00000000E+00  0.00000000E+00
  0.00000000E+00  0.00000000E+00  0.00000000E+00  0.00000000E+00  0.00000000E+00
  0.00000000E+00  0.00000000E+00  0.00000000E+00  0.00000000E+00  0.00000000E+00
  0.00000000E+00  0.00000000E+00  0.00000000E+00  0.00000000E+00  0.00000000E+00
  0.00000000E+00  0.00000000E+00  0.00000000E+00  0.00000000E+00  0.00000000E+00
  0.00000000E+00  0.00000000E+00  0.00000000E+00  0.00000000E+00  0.00000000E+00
  0.00000000E+00  0.00000000E+00  0.00000000E+00
ZRed-Constraint1                           R   N=          83
  2.25613982E+00  3.10036044E+00  2.71789602E+00  2.63338767E+00  1.94393691E+00
  1.94393732E+00  1.87512670E+00  2.67324879E+00  2.66953113E+00  2.62222789E+00
  2.05017034E+00  2.64507821E+00  2.05031211E+00  2.64810050E+00  2.05194567E+00
  2.62164959E+00  2.05004671E+00  2.05442292E+00  1.93691952E+00  2.33555768E+00
  2.01070811E+00  1.92124711E+00  1.93933293E+00  1.93915978E+00  1.88055279E+00
  1.88059267E+00  1.90102907E+00  1.80529335E+00  2.03173467E+00  2.15219865E+00
  2.09925199E+00  2.08553012E+00  2.08522505E+00  2.11243013E+00  2.09347941E+00
  2.09132133E+00  2.09838457E+00  2.10870042E+00  2.08911059E+00  2.08537430E+00
  2.09268274E+00  2.09746835E+00  2.09303422E+00  2.08672593E+00  2.12922517E+00
  2.06723420E+00  5.89380202E-05  2.08188817E+00 -2.08170995E+00 -3.14150578E+00
 -1.05967656E+00  1.05991063E+00 -4.63262895E-04  3.14114540E+00  3.14109325E+00
 -4.83393616E-04 -4.43393460E-05 -2.11737030E+00  2.11709510E+00 -3.14156023E+00
  1.50921547E-05  1.69296800E-05  3.14159225E+00  3.14158760E+00 -1.15871347E-04
  1.15581248E-05  3.14149339E+00 -2.04066221E-05  3.14157888E+00  3.14158986E+00
  3.83576845E-06 -4.32441865E-06 -3.14159161E+00  3.14158167E+00 -5.61714485E-06
  3.31090926E-05 -3.14154007E+00 -3.14156490E+00  4.72331248E-05 -3.62216365E-05
 -3.14152198E+00  3.14153700E+00  5.12396768E-05
ZRed-Constraint2                           R   N=          83
  2.37042600E+00  2.56686871E+00  2.69212010E+00  2.46256744E+00  1.88972612E+00
  1.88972613E+00  1.81425682E+00  2.68079727E+00  2.68134356E+00  2.66162179E+00
  2.05987058E+00  2.65588958E+00  2.05985610E+00  2.65386792E+00  2.05986744E+00
  2.65815695E+00  2.05982965E+00  2.05968376E+00  2.06831842E+00  2.10354759E+00
  2.11107346E+00  2.14766115E+00  1.85810429E+00  1.85810430E+00  1.85810431E+00
  1.85810429E+00  1.86863165E+00  1.91057821E+00  2.11393073E+00  2.11273003E+00
  2.05644500E+00  2.11189626E+00  2.09211145E+00  2.07917760E+00  2.09567103E+00
  2.09553442E+00  2.09197986E+00  2.09172674E+00  2.09652492E+00  2.09493365E+00
  2.09444858E+00  2.09284404E+00  2.09589268E+00  2.11496953E+00  2.09165384E+00
  2.07656193E+00  3.45076503E-02  2.18145600E+00 -2.11244069E+00 -3.13079127E+00
 -9.83842925E-01  1.00544570E+00  3.30106556E-01 -2.82533641E+00 -2.78730213E+00
  3.40440210E-01  1.21845862E+00 -9.28489722E-01 -2.91777835E+00  3.08121506E+00
 -6.03108030E-02 -4.69604816E-02  3.09469896E+00 -3.08367210E+00  5.77846111E-02
  4.45131511E-02 -3.09721544E+00  1.32906880E-02 -3.12835664E+00 -3.12836827E+00
  1.31697150E-02  2.43687679E-02 -3.11712533E+00 -3.11716932E+00  2.45218821E-02
 -2.68533657E-02  3.11468554E+00  3.11464083E+00 -2.70055782E-02 -8.25883217E-03
  3.13346861E+00  3.13338767E+00 -8.07020010E-03
SymInf integers                            I   N=          26
           1           1           1           1           1           0
           0           0           0           0           0           0
           0           0           0           0           0           0
           0           0           0           0           0           0
           0           0
RotTr to input orientation                 R   N=          12
  9.80095928E-01 -1.82830599E-01  7.73624166E-02 -1.90327236E-01 -9.76169418E-01
  1.04253593E-01  5.64580784E-02 -1.16902697E-01 -9.91537314E-01 -1.66130602E+00
  2.67964739E+00 -2.50585209E-01
Number of contracted shells                I               56
Number of primitive shells                 I              142
Pure/Cartesian d shells                    I                1
Pure/Cartesian f shells                    I                0
Highest angular momentum                   I                2
Largest degree of contraction              I                6
Shell types                                I   N=          56
           0          -1          -1           2           0          -1
          -1           2           0          -1          -1           2
           0          -1          -1           2           0          -1
          -1           2           0          -1          -1           2
           0          -1          -1           2           0          -1
          -1           2           0          -1          -1           2
           0          -1          -1           2           0           0
           0           0           0           0           0           0
           0           0           0           0           0           0
           0           0
Number of primitives per shell             I   N=          56
           6           3           1           1           6           3
           1           1           6           3           1           1
           6           3           1           1           6           3
           1           1           6           3           1           1
           6           3           1           1           6           3
           1           1           6           3           1           1
           6           3           1           1           3           1
           3           1           3           1           3           1
           3           1           3           1           3           1
           3           1
Shell to atom map                          I   N=          56
           1           1           1           1           2           2
           2           2           3           3           3           3
           4           4           4           4           5           5
           5           5           6           6           6           6
           7           7           7           7           8           8
           8           8           9           9           9           9
          10          10          10          10          11          11
          12          12          13          13          14          14
          15          15          16          16          17          17
          18          18
Primitive exponents                        R   N=         142
  5.48467166E+03  8.25234946E+02  1.88046958E+02  5.29645000E+01  1.68975704E+01
  5.79963534E+00  1.55396162E+01  3.59993359E+00  1.01376175E+00  2.70005823E-01
  8.00000000E-01  3.04752488E+03  4.57369518E+02  1.03948685E+02  2.92101553E+01
  9.28666296E+00  3.16392696E+00  7.86827235E+00  1.88128854E+00  5.44249258E-01
  1.68714478E-01  8.00000000E-01  4.17351146E+03  6.27457911E+02  1.42902093E+02
  4.02343293E+01  1.28202129E+01  4.39043701E+00  1.16263619E+01  2.71627981E+00
  7.72218397E-01  2.12031498E-01  8.00000000E-01  5.48467166E+03  8.25234946E+02
  1.88046958E+02  5.29645000E+01  1.68975704E+01  5.79963534E+00  1.55396162E+01
  3.59993359E+00  1.01376175E+00  2.70005823E-01  8.00000000E-01  3.04752488E+03
  4.57369518E+02  1.03948685E+02  2.92101553E+01  9.28666296E+00  3.16392696E+00
  7.86827235E+00  1.88128854E+00  5.44249258E-01  1.68714478E-01  8.00000000E-01
  3.04752488E+03  4.57369518E+02  1.03948685E+02  2.92101553E+01  9.28666296E+00
  3.16392696E+00  7.86827235E+00  1.88128854E+00  5.44249258E-01  1.68714478E-01
  8.00000000E-01  3.04752488E+03  4.57369518E+02  1.03948685E+02  2.92101553E+01
  9.28666296E+00  3.16392696E+00  7.86827235E+00  1.88128854E+00  5.44249258E-01
  1.68714478E-01  8.00000000E-01  3.04752488E+03  4.57369518E+02  1.03948685E+02
  2.92101553E+01  9.28666296E+00  3.16392696E+00  7.86827235E+00  1.88128854E+00
  5.44249258E-01  1.68714478E-01  8.00000000E-01  3.04752488E+03  4.57369518E+02
  1.03948685E+02  2.92101553E+01  9.28666296E+00  3.16392696E+00  7.86827235E+00
  1.88128854E+00  5.44249258E-01  1.68714478E-01  8.00000000E-01  3.04752488E+03
  4.57369518E+02  1.03948685E+02  2.92101553E+01  9.28666296E+00  3.16392696E+00
  7.86827235E+00  1.88128854E+00  5.44249258E-01  1.68714478E-01  8.00000000E-01
  1.87311370E+01  2.82539436E+00  6.40121692E-01  1.61277759E-01  1.87311370E+01
  2.82539436E+00  6.40121692E-01  1.61277759E-01  1.87311370E+01  2.82539436E+00
  6.40121692E-01  1.61277759E-01  1.87311370E+01  2.82539436E+00  6.40121692E-01
  1.61277759E-01  1.87311370E+01  2.82539436E+00  6.40121692E-01  1.61277759E-01
  1.87311370E+01  2.82539436E+00  6.40121692E-01  1.61277759E-01  1.87311370E+01
  2.82539436E+00  6.40121692E-01  1.61277759E-01  1.87311370E+01  2.82539436E+00
  6.40121692E-01  1.61277759E-01
Contraction coefficients                   R   N=         142
  1.83107443E-03  1.39501722E-02  6.84450781E-02  2.32714336E-01  4.70192898E-01
  3.58520853E-01 -1.10777550E-01 -1.48026263E-01  1.13076702E+00  1.00000000E+00
  1.00000000E+00  1.83473713E-03  1.40373228E-02  6.88426223E-02  2.32184443E-01
  4.67941348E-01  3.62311985E-01 -1.19332420E-01 -1.60854152E-01  1.14345644E+00
  1.00000000E+00  1.00000000E+00  1.83477216E-03  1.39946270E-02  6.85865518E-02
  2.32240873E-01  4.69069948E-01  3.60455199E-01 -1.14961182E-01 -1.69117479E-01
  1.14585195E+00  1.00000000E+00  1.00000000E+00  1.83107443E-03  1.39501722E-02
  6.84450781E-02  2.32714336E-01  4.70192898E-01  3.58520853E-01 -1.10777550E-01
 -1.48026263E-01  1.13076702E+00  1.00000000E+00  1.00000000E+00  1.83473713E-03
  1.40373228E-02  6.88426223E-02  2.32184443E-01  4.67941348E-01  3.62311985E-01
 -1.19332420E-01 -1.60854152E-01  1.14345644E+00  1.00000000E+00  1.00000000E+00
  1.83473713E-03  1.40373228E-02  6.88426223E-02  2.32184443E-01  4.67941348E-01
  3.62311985E-01 -1.19332420E-01 -1.60854152E-01  1.14345644E+00  1.00000000E+00
  1.00000000E+00  1.83473713E-03  1.40373228E-02  6.88426223E-02  2.32184443E-01
  4.67941348E-01  3.62311985E-01 -1.19332420E-01 -1.60854152E-01  1.14345644E+00
  1.00000000E+00  1.00000000E+00  1.83473713E-03  1.40373228E-02  6.88426223E-02
  2.32184443E-01  4.67941348E-01  3.62311985E-01 -1.19332420E-01 -1.60854152E-01
  1.14345644E+00  1.00000000E+00  1.00000000E+00  1.83473713E-03  1.40373228E-02
  6.88426223E-02  2.32184443E-01  4.67941348E-01  3.62311985E-01 -1.19332420E-01
 -1.60854152E-01  1.14345644E+00  1.00000000E+00  1.00000000E+00  1.83473713E-03
  1.40373228E-02  6.88426223E-02  2.32184443E-01  4.67941348E-01  3.62311985E-01
 -1.19332420E-01 -1.60854152E-01  1.14345644E+00  1.00000000E+00  1.00000000E+00
  3.34946043E-02  2.34726953E-01  8.13757326E-01  1.00000000E+00  3.34946043E-02
  2.34726953E-01  8.13757326E-01  1.00000000E+00  3.34946043E-02  2.34726953E-01
  8.13757326E-01  1.00000000E+00  3.34946043E-02  2.34726953E-01  8.13757326E-01
  1.00000000E+00  3.34946043E-02  2.34726953E-01  8.13757326E-01  1.00000000E+00
  3.34946043E-02  2.34726953E-01  8.13757326E-01  1.00000000E+00  3.34946043E-02
  2.34726953E-01  8.13757326E-01  1.00000000E+00  3.34946043E-02  2.34726953E-01
  8.13757326E-01  1.00000000E+00
P(S=P) Contraction coefficients            R   N=         142
  0.00000000E+00  0.00000000E+00  0.00000000E+00  0.00000000E+00  0.00000000E+00
  0.00000000E+00  7.08742682E-02  3.39752839E-01  7.27158577E-01  1.00000000E+00
  0.00000000E+00  0.00000000E+00  0.00000000E+00  0.00000000E+00  0.00000000E+00
  0.00000000E+00  0.00000000E+00  6.89990666E-02  3.16423961E-01  7.44308291E-01
  1.00000000E+00  0.00000000E+00  0.00000000E+00  0.00000000E+00  0.00000000E+00
  0.00000000E+00  0.00000000E+00  0.00000000E+00  6.75797439E-02  3.23907296E-01
  7.40895140E-01  1.00000000E+00  0.00000000E+00  0.00000000E+00  0.00000000E+00
  0.00000000E+00  0.00000000E+00  0.00000000E+00  0.00000000E+00  7.08742682E-02
  3.39752839E-01  7.27158577E-01  1.00000000E+00  0.00000000E+00  0.00000000E+00
  0.00000000E+00  0.00000000E+00  0.00000000E+00  0.00000000E+00  0.00000000E+00
  6.89990666E-02  3.16423961E-01  7.44308291E-01  1.00000000E+00  0.00000000E+00
  0.00000000E+00  0.00000000E+00  0.00000000E+00  0.00000000E+00  0.00000000E+00
  0.00000000E+00  6.89990666E-02  3.16423961E-01  7.44308291E-01  1.00000000E+00
  0.00000000E+00  0.00000000E+00  0.00000000E+00  0.00000000E+00  0.00000000E+00
  0.00000000E+00  0.00000000E+00  6.89990666E-02  3.16423961E-01  7.44308291E-01
  1.00000000E+00  0.00000000E+00  0.00000000E+00  0.00000000E+00  0.00000000E+00
  0.00000000E+00  0.00000000E+00  0.00000000E+00  6.89990666E-02  3.16423961E-01
  7.44308291E-01  1.00000000E+00  0.00000000E+00  0.00000000E+00  0.00000000E+00
  0.00000000E+00  0.00000000E+00  0.00000000E+00  0.00000000E+00  6.89990666E-02
  3.16423961E-01  7.44308291E-01  1.00000000E+00  0.00000000E+00  0.00000000E+00
  0.00000000E+00  0.00000000E+00  0.00000000E+00  0.00000000E+00  0.00000000E+00
  6.89990666E-02  3.16423961E-01  7.44308291E-01  1.00000000E+00  0.00000000E+00
  0.00000000E+00  0.00000000E+00  0.00000000E+00  0.00000000E+00  0.00000000E+00
  0.00000000E+00  0.00000000E+00  0.00000000E+00  0.00000000E+00  0.00000000E+00
  0.00000000E+00  0.00000000E+00  0.00000000E+00  0.00000000E+00  0.00000000E+00
  0.00000000E+00  0.00000000E+00  0.00000000E+00  0.00000000E+00  0.00000000E+00
  0.00000000E+00  0.00000000E+00  0.00000000E+00  0.00000000E+00  0.00000000E+00
  0.00000000E+00  0.00000000E+00  0.00000000E+00  0.00000000E+00  0.00000000E+00
  0.00000000E+00  0.00000000E+00
Coordinates of each shell                  R   N=         168
 -3.30021266E+00  2.79321452E+00  8.67051642E-04 -3.30021266E+00  2.79321452E+00
  8.67051642E-04 -3.30021266E+00  2.79321452E+00  8.67051642E-04 -3.30021266E+00
  2.79321452E+00  8.67051642E-04 -2.12298591E+00  8.68557730E-01  3.31046451E-04
 -2.12298591E+00  8.68557730E-01  3.31046451E-04 -2.12298591E+00  8.68557730E-01
  3.31046451E-04 -2.12298591E+00  8.68557730E-01  3.31046451E-04 -4.01338747E+00
 -1.58880185E+00 -5.01738381E-04 -4.01338747E+00 -1.58880185E+00 -5.01738381E-04
 -4.01338747E+00 -1.58880185E+00 -5.01738381E-04 -4.01338747E+00 -1.58880185E+00
 -5.01738381E-04 -6.52501731E+00 -7.97318324E-01 -5.15768603E-04 -6.52501731E+00
 -7.97318324E-01 -5.15768603E-04 -6.52501731E+00 -7.97318324E-01 -5.15768603E-04
 -6.52501731E+00 -7.97318324E-01 -5.15768603E-04  5.31860426E-01  2.86535693E-01
  2.00820351E-04  5.31860426E-01  2.86535693E-01  2.00820351E-04  5.31860426E-01
  2.86535693E-01  2.00820351E-04  5.31860426E-01  2.86535693E-01  2.00820351E-04
  2.20602468E+00  2.37062613E+00 -2.87069678E-04  2.20602468E+00  2.37062613E+00
 -2.87069678E-04  2.20602468E+00  2.37062613E+00 -2.87069678E-04  2.20602468E+00
  2.37062613E+00 -2.87069678E-04  4.79391028E+00  1.94762829E+00 -5.11916344E-04
  4.79391028E+00  1.94762829E+00 -5.11916344E-04  4.79391028E+00  1.94762829E+00
 -5.11916344E-04  4.79391028E+00  1.94762829E+00 -5.11916344E-04  5.72734370E+00
 -5.27273867E-01 -2.08957977E-04  5.72734370E+00 -5.27273867E-01 -2.08957977E-04
  5.72734370E+00 -5.27273867E-01 -2.08957977E-04  5.72734370E+00 -5.27273867E-01