Title Card Required                                                     
Freq      RB3LYP                                                      6-31G(d)            
Number of atoms                            I               15
Info1-9                                    I   N=           9
          40          40        1002           0           0         100
           6          18        -502
Full Title                                 C   N=           2
Title Card Required     
Route                                      C   N=           6
#P opt freq b3lyp/6-31g(d) geom=connectivity temperature=0.0
01          
Charge                                     I                0
Multiplicity                               I                1
Number of electrons                        I               64
Number of alpha electrons                  I               32
Number of beta electrons                   I               32
Number of basis functions                  I              147
Number of independent functions            I              147
Number of point charges in /Mol/           I                0
Number of translation vectors              I                0
Atomic numbers                             I   N=          15
           8           6           6           6           6           6
           6           6           8           1           1           1
           1           1           1
Nuclear charges                            R   N=          15
  8.00000000E+00  6.00000000E+00  6.00000000E+00  6.00000000E+00  6.00000000E+00
  6.00000000E+00  6.00000000E+00  6.00000000E+00  8.00000000E+00  1.00000000E+00
  1.00000000E+00  1.00000000E+00  1.00000000E+00  1.00000000E+00  1.00000000E+00
Current cartesian coordinates              R   N=          45
 -4.37503833E+00 -2.06352140E+00 -3.59687494E-05 -3.21923894E+00  2.29782427E-01
  1.36500055E-05 -4.16103412E-01  5.17055978E-02  1.32195130E-05  8.51030019E-01
 -2.27494991E+00  5.59273798E-07  3.48428852E+00 -2.33247946E+00  1.79873414E-05
  4.85816288E+00 -7.81818079E-02 -9.86136283E-06  3.59805421E+00  2.24306854E+00
 -2.29176644E-05  9.68078394E-01  2.30995433E+00  8.79171686E-06 -4.41578927E+00
  2.18978780E+00  1.66407146E-05 -6.18214389E+00 -1.70446074E+00 -2.27693368E-05
 -2.27866041E-01 -4.01704549E+00  6.74211514E-05  4.46563566E+00 -4.13582735E+00
  3.13373252E-05  6.91131951E+00 -1.30008857E-01 -2.28357672E-05  4.66709170E+00
  3.99576899E+00 -2.77776018E-05 -5.30461147E-02  4.08804385E+00  6.75568410E-07
Number of symbols in /Mol/                 I                0
Force Field                                I                0
Atom Types                                 C   N=          15
                                                            
                                                            
                                                            
Int Atom Types                             I   N=          15
           0           0           0           0           0           0
           0           0           0           0           0           0
           0           0           0
MM charges                                 R   N=          15
  0.00000000E+00  0.00000000E+00  0.00000000E+00  0.00000000E+00  0.00000000E+00
  0.00000000E+00  0.00000000E+00  0.00000000E+00  0.00000000E+00  0.00000000E+00
  0.00000000E+00  0.00000000E+00  0.00000000E+00  0.00000000E+00  0.00000000E+00
Integer atomic weights                     I   N=          15
          16          12          12          12          12          12
          12          12          16           1           1           1
           1           1           1
Real atomic weights                        R   N=          15
  1.59949146E+01  1.20000000E+01  1.20000000E+01  1.20000000E+01  1.20000000E+01
  1.20000000E+01  1.20000000E+01  1.20000000E+01  1.59949146E+01  1.00782504E+00
  1.00782504E+00  1.00782504E+00  1.00782504E+00  1.00782504E+00  1.00782504E+00
Atom fragment info                         I   N=          15
           0           0           0           0           0           0
           0           0           0           0           0           0
           0           0           0
Atom residue num                           I   N=          15
           0           0           0           0           0           0
           0           0           0           0           0           0
           0           0           0
Nuclear spins                              I   N=          15
           0           0           0           0           0           0
           0           0           0           1           1           1
           1           1           1
Nuclear ZEff                               R   N=          15
 -5.60000000E+00 -3.60000000E+00 -3.60000000E+00 -3.60000000E+00 -3.60000000E+00
 -3.60000000E+00 -3.60000000E+00 -3.60000000E+00 -5.60000000E+00 -1.00000000E+00
 -1.00000000E+00 -1.00000000E+00 -1.00000000E+00 -1.00000000E+00 -1.00000000E+00
Nuclear ZNuc                               R   N=          15
  8.00000000E+00  6.00000000E+00  6.00000000E+00  6.00000000E+00  6.00000000E+00
  6.00000000E+00  6.00000000E+00  6.00000000E+00  8.00000000E+00  1.00000000E+00
  1.00000000E+00  1.00000000E+00  1.00000000E+00  1.00000000E+00  1.00000000E+00
Nuclear QMom                               R   N=          15
  0.00000000E+00  0.00000000E+00  0.00000000E+00  0.00000000E+00  0.00000000E+00
  0.00000000E+00  0.00000000E+00  0.00000000E+00  0.00000000E+00  0.00000000E+00
  0.00000000E+00  0.00000000E+00  0.00000000E+00  0.00000000E+00  0.00000000E+00
Nuclear GFac                               R   N=          15
  0.00000000E+00  0.00000000E+00  0.00000000E+00  0.00000000E+00  0.00000000E+00
  0.00000000E+00  0.00000000E+00  0.00000000E+00  0.00000000E+00  2.79284600E+00
  2.79284600E+00  2.79284600E+00  2.79284600E+00  2.79284600E+00  2.79284600E+00
MicOpt                                     I   N=          15
          -1          -1          -1          -1          -1          -1
          -1          -1          -1          -1          -1          -1
          -1          -1          -1
Number of residues                         I                0
Number of secondary structures             I                0
Redundant internal dimensions              I   N=           4
          67          15          22          30
Redundant internal coordinate indices      I   N=         268
           1           2           0           0           1          10
           0           0           2           3           0           0
           2           9           0           0           3           4
           0           0           3           8           0           0
           4           5           0           0           4          11
           0           0           5           6           0           0
           5          12           0           0           6           7
           0           0           6          13           0           0
           7           8           0           0           7          14
           0           0           8          15           0           0
           2           1          10           0           1           2
           3           0           1           2           9           0
           3           2           9           0           2           3
           4           0           2           3           8           0
           4           3           8           0           3           4
           5           0           3           4          11           0
           5           4          11           0           4           5
           6           0           4           5          12           0
           6           5          12           0           5           6
           7           0           5           6          13           0
           7           6          13           0           6           7
           8           0           6           7          14           0
           8           7          14           0           3           8
           7           0           3           8          15           0
           7           8          15           0          10           1
           2           3          10           1           2           9
           1           2           3           4           1           2
           3           8           9           2           3           4
           9           2           3           8           2           3
           4           5           2           3           4          11
           8           3           4           5           8           3
           4          11           2           3           8           7
           2           3           8          15           4           3
           8           7           4           3           8          15
           3           4           5           6           3           4
           5          12          11           4           5           6
          11           4           5          12           4           5
           6           7           4           5           6          13
          12           5           6           7          12           5
           6          13           5           6           7           8
           5           6           7          14          13           6
           7           8          13           6           7          14
           6           7           8           3           6           7
           8          15          14           7           8           3
          14           7           8          15
Redundant internal coordinates             R   N=          67
  2.56809553E+00  1.84243184E+00  2.80878625E+00  2.29637840E+00  2.64933067E+00
  2.64870660E+00  2.63388686E+00  2.04912511E+00  2.63995997E+00  2.05307229E+00
  2.64122642E+00  2.05381066E+00  2.63082620E+00  2.05299782E+00  2.05043839E+00
  1.84149058E+00  1.97418739E+00  2.12666703E+00  2.18233089E+00  2.13293890E+00
  2.05723725E+00  2.09300916E+00  2.09134023E+00  2.08839587E+00  2.10344920E+00
  2.09628921E+00  2.09100459E+00  2.09589151E+00  2.09691280E+00  2.09289576E+00
  2.09337675E+00  2.09356610E+00  2.09655513E+00  2.09306407E+00  2.09525311E+00
  2.07041486E+00  2.11751733E+00  3.14158827E+00 -2.32659957E-05 -1.55215748E-05
  3.14156977E+00 -3.14158859E+00 -3.29312291E-06 -3.14158512E+00 -4.30978782E-05
  1.50454878E-05  3.14155706E+00 -3.14157899E+00 -2.88632838E-06  6.48186810E-06
  3.14158258E+00 -2.53327366E-05  3.14157965E+00 -3.14156691E+00  3.80740123E-05
  1.41755162E-05 -3.14157767E+00 -3.14159084E+00  2.62226569E-06  7.43151251E-06
  3.14158319E+00 -3.14158603E+00 -1.02688896E-05 -1.76921155E-05  3.14159197E+00
  3.14159182E+00  1.61752637E-05
ZRed-IntVec                                I   N=          67
           0           0           0           0           0           0
           0           0           0           0           0           0
           0           0           0           0           0           0
           0           0           0           0           0           0
           0           0           0           0           0           0
           0           0           0           0           0           0
           0           0           0           0           0           0
           0           0           0           0           0           0
           0           0           0           0           0           0
           0           0           0           0           0           0
           0           0           0           0           0           0
           0
ZRed-FPVec                                 R   N=          67
  0.00000000E+00  0.00000000E+00  0.00000000E+00  0.00000000E+00  0.00000000E+00
  0.00000000E+00  0.00000000E+00  0.00000000E+00  0.00000000E+00  0.00000000E+00
  0.00000000E+00  0.00000000E+00  0.00000000E+00  0.00000000E+00  0.00000000E+00
  0.00000000E+00  0.00000000E+00  0.00000000E+00  0.00000000E+00  0.00000000E+00
  0.00000000E+00  0.00000000E+00  0.00000000E+00  0.00000000E+00  0.00000000E+00
  0.00000000E+00  0.00000000E+00  0.00000000E+00  0.00000000E+00  0.00000000E+00
  0.00000000E+00  0.00000000E+00  0.00000000E+00  0.00000000E+00  0.00000000E+00
  0.00000000E+00  0.00000000E+00  0.00000000E+00  0.00000000E+00  0.00000000E+00
  0.00000000E+00  0.00000000E+00  0.00000000E+00  0.00000000E+00  0.00000000E+00
  0.00000000E+00  0.00000000E+00  0.00000000E+00  0.00000000E+00  0.00000000E+00
  0.00000000E+00  0.00000000E+00  0.00000000E+00  0.00000000E+00  0.00000000E+00
  0.00000000E+00  0.00000000E+00  0.00000000E+00  0.00000000E+00  0.00000000E+00
  0.00000000E+00  0.00000000E+00  0.00000000E+00  0.00000000E+00  0.00000000E+00
  0.00000000E+00  0.00000000E+00
ZRed-Constraint1                           R   N=          67
  2.56809553E+00  1.84243184E+00  2.80878625E+00  2.29637840E+00  2.64933067E+00
  2.64870660E+00  2.63388686E+00  2.04912511E+00  2.63995997E+00  2.05307229E+00
  2.64122642E+00  2.05381066E+00  2.63082620E+00  2.05299782E+00  2.05043839E+00
  1.84149058E+00  1.97418739E+00  2.12666703E+00  2.18233089E+00  2.13293890E+00
  2.05723725E+00  2.09300916E+00  2.09134023E+00  2.08839587E+00  2.10344920E+00
  2.09628921E+00  2.09100459E+00  2.09589151E+00  2.09691280E+00  2.09289576E+00
  2.09337675E+00  2.09356610E+00  2.09655513E+00  2.09306407E+00  2.09525311E+00
  2.07041486E+00  2.11751733E+00  3.14158827E+00 -2.32659957E-05 -1.55215748E-05
  3.14156977E+00 -3.14158859E+00 -3.29315662E-06 -3.14158512E+00 -4.30978782E-05
  1.50454878E-05  3.14155706E+00 -3.14157899E+00 -2.88632838E-06  6.48186810E-06
  3.14158258E+00 -2.53327366E-05  3.14157965E+00 -3.14156691E+00  3.80740123E-05
  1.41755162E-05 -3.14157767E+00 -3.14159084E+00  2.62226569E-06  7.43154239E-06
  3.14158319E+00 -3.14158603E+00 -1.02688896E-05 -1.76921218E-05  3.14159197E+00
  3.14159182E+00  1.61752637E-05
ZRed-Constraint2                           R   N=          67
  2.56231654E+00  1.81408100E+00  2.68216413E+00  2.36756909E+00  2.67897515E+00
  2.67945552E+00  2.65973477E+00  2.05982542E+00  2.65726068E+00  2.05979018E+00
  2.65598536E+00  2.05978839E+00  2.65716873E+00  2.05979403E+00  2.05979295E+00
  1.91074124E+00  2.12320091E+00  2.03205648E+00  2.12759966E+00  2.10891337E+00
  2.11020227E+00  2.06402321E+00  2.10805284E+00  2.09377918E+00  2.08135329E+00
  2.09625631E+00  2.09439757E+00  2.09253143E+00  2.09215497E+00  2.09594545E+00
  2.09508488E+00  2.09506964E+00  2.09370754E+00  2.09440811E+00  2.11051933E+00
  2.09366309E+00  2.07900288E+00  1.55232449E+00 -1.56222923E+00  1.35407841E-01
 -2.99564569E+00 -3.03470654E+00  1.17425234E-01 -3.10771062E+00  3.38613308E-02
  2.36156791E-02 -3.11799768E+00  3.10671737E+00 -3.49614842E-02 -2.46010150E-02
  3.11690544E+00 -6.73576901E-03  3.13484482E+00  3.13487744E+00 -6.72727921E-03
 -9.80429239E-03  3.13185890E+00  3.13180042E+00 -9.72169588E-03  8.85554764E-03
 -3.13289467E+00 -3.13280761E+00  8.62747535E-03  8.65475345E-03 -3.13285241E+00
 -3.13278027E+00  8.89787103E-03
SymInf integers                            I   N=          26
           1           1           1           1           1           0
           0           0           0           0           0           0
           0           0           0           0           0           0
           0           0           0           0           0           0
           0           0
RotTr to input orientation                 R   N=          12
  9.90100040E-01  6.96972806E-02 -1.21836772E-01 -7.50386708E-02  9.96385616E-01
 -3.98108313E-02  1.18621700E-01  4.85591751E-02  9.91751430E-01 -6.45448979E-01
  2.12570619E+00  3.05300314E-01
Number of contracted shells                I               48
Number of primitive shells                 I              123
Pure/Cartesian d shells                    I                1
Pure/Cartesian f shells                    I                0
Highest angular momentum                   I                2
Largest degree of contraction              I                6
Shell types                                I   N=          48
           0          -1          -1           2           0          -1
          -1           2           0          -1          -1           2
           0          -1          -1           2           0          -1
          -1           2           0          -1          -1           2
           0          -1          -1           2           0          -1
          -1           2           0          -1          -1           2
           0           0           0           0           0           0
           0           0           0           0           0           0
Number of primitives per shell             I   N=          48
           6           3           1           1           6           3
           1           1           6           3           1           1
           6           3           1           1           6           3
           1           1           6           3           1           1
           6           3           1           1           6           3
           1           1           6           3           1           1
           3           1           3           1           3           1
           3           1           3           1           3           1
Shell to atom map                          I   N=          48
           1           1           1           1           2           2
           2           2           3           3           3           3
           4           4           4           4           5           5
           5           5           6           6           6           6
           7           7           7           7           8           8
           8           8           9           9           9           9
          10          10          11          11          12          12
          13          13          14          14          15          15
Primitive exponents                        R   N=         123
  5.48467166E+03  8.25234946E+02  1.88046958E+02  5.29645000E+01  1.68975704E+01
  5.79963534E+00  1.55396162E+01  3.59993359E+00  1.01376175E+00  2.70005823E-01
  8.00000000E-01  3.04752488E+03  4.57369518E+02  1.03948685E+02  2.92101553E+01
  9.28666296E+00  3.16392696E+00  7.86827235E+00  1.88128854E+00  5.44249258E-01
  1.68714478E-01  8.00000000E-01  3.04752488E+03  4.57369518E+02  1.03948685E+02
  2.92101553E+01  9.28666296E+00  3.16392696E+00  7.86827235E+00  1.88128854E+00
  5.44249258E-01  1.68714478E-01  8.00000000E-01  3.04752488E+03  4.57369518E+02
  1.03948685E+02  2.92101553E+01  9.28666296E+00  3.16392696E+00  7.86827235E+00
  1.88128854E+00  5.44249258E-01  1.68714478E-01  8.00000000E-01  3.04752488E+03
  4.57369518E+02  1.03948685E+02  2.92101553E+01  9.28666296E+00  3.16392696E+00
  7.86827235E+00  1.88128854E+00  5.44249258E-01  1.68714478E-01  8.00000000E-01
  3.04752488E+03  4.57369518E+02  1.03948685E+02  2.92101553E+01  9.28666296E+00
  3.16392696E+00  7.86827235E+00  1.88128854E+00  5.44249258E-01  1.68714478E-01
  8.00000000E-01  3.04752488E+03  4.57369518E+02  1.03948685E+02  2.92101553E+01
  9.28666296E+00  3.16392696E+00  7.86827235E+00  1.88128854E+00  5.44249258E-01
  1.68714478E-01  8.00000000E-01  3.04752488E+03  4.57369518E+02  1.03948685E+02
  2.92101553E+01  9.28666296E+00  3.16392696E+00  7.86827235E+00  1.88128854E+00
  5.44249258E-01  1.68714478E-01  8.00000000E-01  5.48467166E+03  8.25234946E+02
  1.88046958E+02  5.29645000E+01  1.68975704E+01  5.79963534E+00  1.55396162E+01
  3.59993359E+00  1.01376175E+00  2.70005823E-01  8.00000000E-01  1.87311370E+01
  2.82539436E+00  6.40121692E-01  1.61277759E-01  1.87311370E+01  2.82539436E+00
  6.40121692E-01  1.61277759E-01  1.87311370E+01  2.82539436E+00  6.40121692E-01
  1.61277759E-01  1.87311370E+01  2.82539436E+00  6.40121692E-01  1.61277759E-01
  1.87311370E+01  2.82539436E+00  6.40121692E-01  1.61277759E-01  1.87311370E+01
  2.82539436E+00  6.40121692E-01  1.61277759E-01
Contraction coefficients                   R   N=         123
  1.83107443E-03  1.39501722E-02  6.84450781E-02  2.32714336E-01  4.70192898E-01
  3.58520853E-01 -1.10777550E-01 -1.48026263E-01  1.13076702E+00  1.00000000E+00
  1.00000000E+00  1.83473713E-03  1.40373228E-02  6.88426223E-02  2.32184443E-01
  4.67941348E-01  3.62311985E-01 -1.19332420E-01 -1.60854152E-01  1.14345644E+00
  1.00000000E+00  1.00000000E+00  1.83473713E-03  1.40373228E-02  6.88426223E-02
  2.32184443E-01  4.67941348E-01  3.62311985E-01 -1.19332420E-01 -1.60854152E-01
  1.14345644E+00  1.00000000E+00  1.00000000E+00  1.83473713E-03  1.40373228E-02
  6.88426223E-02  2.32184443E-01  4.67941348E-01  3.62311985E-01 -1.19332420E-01
 -1.60854152E-01  1.14345644E+00  1.00000000E+00  1.00000000E+00  1.83473713E-03
  1.40373228E-02  6.88426223E-02  2.32184443E-01  4.67941348E-01  3.62311985E-01
 -1.19332420E-01 -1.60854152E-01  1.14345644E+00  1.00000000E+00  1.00000000E+00
  1.83473713E-03  1.40373228E-02  6.88426223E-02  2.32184443E-01  4.67941348E-01
  3.62311985E-01 -1.19332420E-01 -1.60854152E-01  1.14345644E+00  1.00000000E+00
  1.00000000E+00  1.83473713E-03  1.40373228E-02  6.88426223E-02  2.32184443E-01
  4.67941348E-01  3.62311985E-01 -1.19332420E-01 -1.60854152E-01  1.14345644E+00
  1.00000000E+00  1.00000000E+00  1.83473713E-03  1.40373228E-02  6.88426223E-02
  2.32184443E-01  4.67941348E-01  3.62311985E-01 -1.19332420E-01 -1.60854152E-01
  1.14345644E+00  1.00000000E+00  1.00000000E+00  1.83107443E-03  1.39501722E-02
  6.84450781E-02  2.32714336E-01  4.70192898E-01  3.58520853E-01 -1.10777550E-01
 -1.48026263E-01  1.13076702E+00  1.00000000E+00  1.00000000E+00  3.34946043E-02
  2.34726953E-01  8.13757326E-01  1.00000000E+00  3.34946043E-02  2.34726953E-01
  8.13757326E-01  1.00000000E+00  3.34946043E-02  2.34726953E-01  8.13757326E-01
  1.00000000E+00  3.34946043E-02  2.34726953E-01  8.13757326E-01  1.00000000E+00
  3.34946043E-02  2.34726953E-01  8.13757326E-01  1.00000000E+00  3.34946043E-02
  2.34726953E-01  8.13757326E-01  1.00000000E+00
P(S=P) Contraction coefficients            R   N=         123
  0.00000000E+00  0.00000000E+00  0.00000000E+00  0.00000000E+00  0.00000000E+00
  0.00000000E+00  7.08742682E-02  3.39752839E-01  7.27158577E-01  1.00000000E+00
  0.00000000E+00  0.00000000E+00  0.00000000E+00  0.00000000E+00  0.00000000E+00
  0.00000000E+00  0.00000000E+00  6.89990666E-02  3.16423961E-01  7.44308291E-01
  1.00000000E+00  0.00000000E+00  0.00000000E+00  0.00000000E+00  0.00000000E+00
  0.00000000E+00  0.00000000E+00  0.00000000E+00  6.89990666E-02  3.16423961E-01
  7.44308291E-01  1.00000000E+00  0.00000000E+00  0.00000000E+00  0.00000000E+00
  0.00000000E+00  0.00000000E+00  0.00000000E+00  0.00000000E+00  6.89990666E-02
  3.16423961E-01  7.44308291E-01  1.00000000E+00  0.00000000E+00  0.00000000E+00
  0.00000000E+00  0.00000000E+00  0.00000000E+00  0.00000000E+00  0.00000000E+00
  6.89990666E-02  3.16423961E-01  7.44308291E-01  1.00000000E+00  0.00000000E+00
  0.00000000E+00  0.00000000E+00  0.00000000E+00  0.00000000E+00  0.00000000E+00
  0.00000000E+00  6.89990666E-02  3.16423961E-01  7.44308291E-01  1.00000000E+00
  0.00000000E+00  0.00000000E+00  0.00000000E+00  0.00000000E+00  0.00000000E+00
  0.00000000E+00  0.00000000E+00  6.89990666E-02  3.16423961E-01  7.44308291E-01
  1.00000000E+00  0.00000000E+00  0.00000000E+00  0.00000000E+00  0.00000000E+00
  0.00000000E+00  0.00000000E+00  0.00000000E+00  6.89990666E-02  3.16423961E-01
  7.44308291E-01  1.00000000E+00  0.00000000E+00  0.00000000E+00  0.00000000E+00
  0.00000000E+00  0.00000000E+00  0.00000000E+00  0.00000000E+00  7.08742682E-02
  3.39752839E-01  7.27158577E-01  1.00000000E+00  0.00000000E+00  0.00000000E+00
  0.00000000E+00  0.00000000E+00  0.00000000E+00  0.00000000E+00  0.00000000E+00
  0.00000000E+00  0.00000000E+00  0.00000000E+00  0.00000000E+00  0.00000000E+00
  0.00000000E+00  0.00000000E+00  0.00000000E+00  0.00000000E+00  0.00000000E+00
  0.00000000E+00  0.00000000E+00  0.00000000E+00  0.00000000E+00  0.00000000E+00
  0.00000000E+00  0.00000000E+00  0.00000000E+00
Coordinates of each shell                  R   N=         144
 -4.37503833E+00 -2.06352140E+00 -3.59687494E-05 -4.37503833E+00 -2.06352140E+00
 -3.59687494E-05 -4.37503833E+00 -2.06352140E+00 -3.59687494E-05 -4.37503833E+00
 -2.06352140E+00 -3.59687494E-05 -3.21923894E+00  2.29782427E-01  1.36500055E-05
 -3.21923894E+00  2.29782427E-01  1.36500055E-05 -3.21923894E+00  2.29782427E-01
  1.36500055E-05 -3.21923894E+00  2.29782427E-01  1.36500055E-05 -4.16103412E-01
  5.17055978E-02  1.32195130E-05 -4.16103412E-01  5.17055978E-02  1.32195130E-05
 -4.16103412E-01  5.17055978E-02  1.32195130E-05 -4.16103412E-01  5.17055978E-02
  1.32195130E-05  8.51030019E-01 -2.27494991E+00  5.59273798E-07  8.51030019E-01
 -2.27494991E+00  5.59273798E-07  8.51030019E-01 -2.27494991E+00  5.59273798E-07
  8.51030019E-01 -2.27494991E+00  5.59273798E-07  3.48428852E+00 -2.33247946E+00
  1.79873414E-05  3.48428852E+00 -2.33247946E+00  1.79873414E-05  3.48428852E+00
 -2.33247946E+00  1.79873414E-05  3.48428852E+00 -2.33247946E+00  1.79873414E-05
  4.85816288E+00 -7.81818079E-02 -9.86136283E-06  4.85816288E+00 -7.81818079E-02
 -9.86136283E-06  4.85816288E+00 -7.81818079E-02 -9.86136283E-06  4.85816288E+00
 -7.81818079E-02 -9.86136283E-06  3.59805421E+00  2.24306854E+00 -2.29176644E-05
  3.59805421E+00  2.24306854E+00 -2.29176644E-05  3.59805421E+00  2.24306854E+00
 -2.29176644E-05  3.59805421E+00  2.24306854E+00 -2.29176644E-05  9.68078394E-01
  2.30995433E+00  8.79171686E-06  9.68078394E-01  2.30995433E+00  8.79171686E-06
  9.68078394E-01  2.30995433E+00  8.79171686E-06  9.68078394E-01  2.30995433E+00
  8.79171686E-06 -4.41578927E+00  2.18978780E+00  1.66407146E-05 -4.41578927E+00
  2.18978780E+00  1.66407146E-05 -4.41578927E+00  2.18978780E+00  1.66407146E-05
 -4.41578927E+00  2.18978780E+00  1.66407146E-05 -6.18214389E+00 -1.70446074E+00
 -2.27693368E-05 -6.18214389E+00 -1.70446074E+00 -2.27693368E-05 -2.27866041E-01
 -4.01704549E+00  6.74211514E-05 -2.27866041E-01 -4.01704549E+00  6.74211514E-05
  4.46563566E+00 -4.13582735E+00  3.13373252E-05  4.46563566E+00 -4.13582735E+00
  3.13373252E-05  6.91131951E+00 -1.30008857E-01 -2.28357672E-05  6.91131951E+00
 -1.30008857E-01 -2.28357672E-05  4.66709170E+00  3.99576899E+00 -2.77776018E-05
  4.66709170E+00  3.99576899E+00 -2.77776018E-05 -5.30461147E-02  4.08804385E+00
  6.75568409E-07 -5.30461147E-02  4.08804385E+00  6.75568409E-07
Num ILSW                                   I              100
ILSW                                       I   N=         100
           0           1           0           0           2           0
           0           0           0           0         402          -1
           5           0           0           0           2           0
           0           0           0           0           1           0
           1           0           0           0           0           0
           0           0      100000           0          -1           0
           0           0           0           0           0           0
           0           0           0           1           0           0
           0 -2000000000           1           0           0           0
           0           0           4          52           0           0
           0           0           5           0           0           0
           0           0           0          15           0           1
           0           0           0           0           0           0
           0           0           0           0           0           0
           0           0           0           0           0           0
           0           0           0           0           0           0
           0           0           0           0
Num RLSW                                   I               52
RLSW                                       R   N=          52
  8.00000000E-01  7.20000000E-01  1.00000000E+00  8.10000000E-01  2.00000000E-01
  0.00000000E+00  0.00000000E+00  1.00000000E+00  0.00000000E+00  0.00000000E+00
  0.00000000E+00  0.00000000E+00  1.00000000E+00  0.00000000E+00  0.00000000E+00
  0.00000000E+00  0.00000000E+00  1.00000000E+00  0.00000000E+00  0.00000000E+00
  0.00000000E+00  0.00000000E+00  1.00000000E+00  0.00000000E+00  0.00000000E+00
  0.00000000E+00  0.00000000E+00  1.00000000E+00  0.00000000E+00  0.00000000E+00
  0.00000000E+00  0.00000000E+00  1.00000000E+00  0.00000000E+00  0.00000000E+00
  0.00000000E+00  0.00000000E+00  0.00000000E+00  1.00000000E+00  1.00000000E+00
  0.00000000E+00  1.00000000E+00  0.00000000E+00  0.00000000E+00  0.00000000E+00
  0.00000000E+00  0.00000000E+00  0.00000000E+00  0.00000000E+00  0.00000000E+00
  0.00000000E+00  0.00000000E+00
MxBond                                     I                3
NBond                                      I   N=          15
           2           3           3           3           3           3
           3           3           1           1           1           1
           1           1           1
IBond                                      I   N=          45
           2          10           0           1           3           9
           2           4           8           3           5          11
           4           6          12           5           7          13
           6           8          14           3           7          15
           2           0           0           1           0           0
           4           0           0           5           0           0
           6           0           0           7           0           0
           8           0           0