 Entering Gaussian System, Link 0=/apps/cent7/gaussian/g16-A.03/g16-haswell/g16/g16
 Initial command:
 /apps/cent7/gaussian/g16-A.03/g16-haswell/g16/l1.exe "/scratch/brown/finej/gaussian/Gau-282053.inp" -scrdir="/scratch/brown/finej/gaussian/"
 Entering Link 1 = /apps/cent7/gaussian/g16-A.03/g16-haswell/g16/l1.exe PID=    282054.
  
 Copyright (c) 1988,1990,1992,1993,1995,1998,2003,2009,2016,
            Gaussian, Inc.  All Rights Reserved.
  
 This is part of the Gaussian(R) 16 program.  It is based on
 the Gaussian(R) 09 system (copyright 2009, Gaussian, Inc.),
 the Gaussian(R) 03 system (copyright 2003, Gaussian, Inc.),
 the Gaussian(R) 98 system (copyright 1998, Gaussian, Inc.),
 the Gaussian(R) 94 system (copyright 1995, Gaussian, Inc.),
 the Gaussian 92(TM) system (copyright 1992, Gaussian, Inc.),
 the Gaussian 90(TM) system (copyright 1990, Gaussian, Inc.),
 the Gaussian 88(TM) system (copyright 1988, Gaussian, Inc.),
 the Gaussian 86(TM) system (copyright 1986, Carnegie Mellon
 University), and the Gaussian 82(TM) system (copyright 1983,
 Carnegie Mellon University). Gaussian is a federally registered
 trademark of Gaussian, Inc.
  
 This software contains proprietary and confidential information,
 including trade secrets, belonging to Gaussian, Inc.
  
 This software is provided under written license and may be
 used, copied, transmitted, or stored only in accord with that
 written license.
  
 The following legend is applicable only to US Government
 contracts under FAR:
  
                    RESTRICTED RIGHTS LEGEND
  
 Use, reproduction and disclosure by the US Government is
 subject to restrictions as set forth in subparagraphs (a)
 and (c) of the Commercial Computer Software - Restricted
 Rights clause in FAR 52.227-19.
  
 Gaussian, Inc.
 340 Quinnipiac St., Bldg. 40, Wallingford CT 06492
  
  
 ---------------------------------------------------------------
 Warning -- This program may not be used in any manner that
 competes with the business of Gaussian, Inc. or will provide
 assistance to any competitor of Gaussian, Inc.  The licensee
 of this program is prohibited from giving any competitor of
 Gaussian, Inc. access to this program.  By using this program,
 the user acknowledges that Gaussian, Inc. is engaged in the
 business of creating and licensing software in the field of
 computational chemistry and represents and warrants to the
 licensee that it is not a competitor of Gaussian, Inc. and that
 it will not use this program in any manner prohibited above.
 ---------------------------------------------------------------
  

 Cite this work as:
 Gaussian 16, Revision A.03,
 M. J. Frisch, G. W. Trucks, H. B. Schlegel, G. E. Scuseria, 
 M. A. Robb, J. R. Cheeseman, G. Scalmani, V. Barone, 
 G. A. Petersson, H. Nakatsuji, X. Li, M. Caricato, A. V. Marenich, 
 J. Bloino, B. G. Janesko, R. Gomperts, B. Mennucci, H. P. Hratchian, 
 J. V. Ortiz, A. F. Izmaylov, J. L. Sonnenberg, D. Williams-Young, 
 F. Ding, F. Lipparini, F. Egidi, J. Goings, B. Peng, A. Petrone, 
 T. Henderson, D. Ranasinghe, V. G. Zakrzewski, J. Gao, N. Rega, 
 G. Zheng, W. Liang, M. Hada, M. Ehara, K. Toyota, R. Fukuda, 
 J. Hasegawa, M. Ishida, T. Nakajima, Y. Honda, O. Kitao, H. Nakai, 
 T. Vreven, K. Throssell, J. A. Montgomery, Jr., J. E. Peralta, 
 F. Ogliaro, M. J. Bearpark, J. J. Heyd, E. N. Brothers, K. N. Kudin, 
 V. N. Staroverov, T. A. Keith, R. Kobayashi, J. Normand, 
 K. Raghavachari, A. P. Rendell, J. C. Burant, S. S. Iyengar, 
 J. Tomasi, M. Cossi, J. M. Millam, M. Klene, C. Adamo, R. Cammi, 
 J. W. Ochterski, R. L. Martin, K. Morokuma, O. Farkas, 
 J. B. Foresman, and D. J. Fox, Gaussian, Inc., Wallingford CT, 2016.
 
 ******************************************
 Gaussian 16:  ES64L-G16RevA.03 25-Dec-2016
                14-Oct-2019 
 ******************************************
 %chk=14.chk
 %nprocshared=24
 Will use up to   24 processors via shared memory.
 %mem=80GB
 --------------------------------------------------------------
 #P opt freq b3lyp/6-31g(d) geom=connectivity temperature=0.001
 --------------------------------------------------------------
 1/18=20,19=15,26=3,38=1,57=2,112=-1000/1,3;
 2/9=110,12=2,17=6,18=5,40=1/2;
 3/5=1,6=6,7=1,11=2,25=1,30=1,71=1,74=-5/1,2,3;
 4//1;
 5/5=2,38=5/2;
 6/7=2,8=2,9=2,10=2,28=1/1;
 7//1,2,3,16;
 1/18=20,19=15,26=3/3(2);
 2/9=110/2;
 99//99;
 2/9=110/2;
 3/5=1,6=6,7=1,11=2,25=1,30=1,71=1,74=-5/1,2,3;
 4/5=5,16=3,69=1/1;
 5/5=2,38=5/2;
 7//1,2,3,16;
 1/18=20,19=15,26=3/3(-5);
 2/9=110/2;
 6/7=2,8=2,9=2,10=2,19=2,28=1/1;
 99/9=1/99;
 Leave Link    1 at Mon Oct 14 00:33:33 2019, MaxMem= 10737418240 cpu:               1.3 elap:               0.1
 (Enter /apps/cent7/gaussian/g16-A.03/g16-haswell/g16/l101.exe)
 -------------------
 Title Card Required
 -------------------
 Symbolic Z-matrix:
 Charge =  0 Multiplicity = 1
 O                    -2.7352   -0.0303    0.3728 
 C                    -2.0671    1.1299    0.1581 
 C                    -0.6515    1.1674    0.0622 
 C                     0.1062   -0.0302    0.025 
 C                     1.5121    0.0083   -0.0292 
 C                     2.1834    1.2436   -0.0553 
 C                     1.4473    2.4408   -0.0391 
 C                     0.0427    2.4028    0.0139 
 O                    -2.7638    2.1682    0.0793 
 H                    -2.8214   -0.18      1.3171 
 H                    -0.4001   -0.9954    0.0383 
 H                     2.0823   -0.9204   -0.051 
 H                     3.2725    1.2731   -0.0881 
 H                     1.9659    3.3991   -0.0675 
 H                    -0.5135    3.3402    0.0175 
 
 ITRead=  0  0  0  0  0  0  0  0  0  0  0  0  0  0  0
 MicOpt= -1 -1 -1 -1 -1 -1 -1 -1 -1 -1 -1 -1 -1 -1 -1
 NAtoms=     15 NQM=       15 NQMF=       0 NMMI=      0 NMMIF=      0
                NMic=       0 NMicF=      0.
                    Isotopes and Nuclear Properties:
 (Nuclear quadrupole moments (NQMom) in fm**2, nuclear magnetic moments (NMagM)
  in nuclear magnetons)

  Atom         1           2           3           4           5           6           7           8           9          10
 IAtWgt=          16          12          12          12          12          12          12          12          16           1
 AtmWgt=  15.9949146  12.0000000  12.0000000  12.0000000  12.0000000  12.0000000  12.0000000  12.0000000  15.9949146   1.0078250
 NucSpn=           0           0           0           0           0           0           0           0           0           1
 AtZEff=  -0.0000000  -0.0000000  -0.0000000  -0.0000000  -0.0000000  -0.0000000  -0.0000000  -0.0000000  -0.0000000  -0.0000000
 NQMom=    0.0000000   0.0000000   0.0000000   0.0000000   0.0000000   0.0000000   0.0000000   0.0000000   0.0000000   0.0000000
 NMagM=    0.0000000   0.0000000   0.0000000   0.0000000   0.0000000   0.0000000   0.0000000   0.0000000   0.0000000   2.7928460
 AtZNuc=   8.0000000   6.0000000   6.0000000   6.0000000   6.0000000   6.0000000   6.0000000   6.0000000   8.0000000   1.0000000

  Atom        11          12          13          14          15
 IAtWgt=           1           1           1           1           1
 AtmWgt=   1.0078250   1.0078250   1.0078250   1.0078250   1.0078250
 NucSpn=           1           1           1           1           1
 AtZEff=  -0.0000000  -0.0000000  -0.0000000  -0.0000000  -0.0000000
 NQMom=    0.0000000   0.0000000   0.0000000   0.0000000   0.0000000
 NMagM=    2.7928460   2.7928460   2.7928460   2.7928460   2.7928460
 AtZNuc=   1.0000000   1.0000000   1.0000000   1.0000000   1.0000000
 Leave Link  101 at Mon Oct 14 00:33:34 2019, MaxMem= 10737418240 cpu:               9.0 elap:               0.4
 (Enter /apps/cent7/gaussian/g16-A.03/g16-haswell/g16/l103.exe)

 GradGradGradGradGradGradGradGradGradGradGradGradGradGradGradGradGradGrad
 Berny optimization.
 Initialization pass.
                           ----------------------------
                           !    Initial Parameters    !
                           ! (Angstroms and Degrees)  !
 --------------------------                            --------------------------
 ! Name  Definition              Value          Derivative Info.                !
 --------------------------------------------------------------------------------
 ! R1    R(1,2)                  1.3559         estimate D2E/DX2                !
 ! R2    R(1,10)                 0.96           estimate D2E/DX2                !
 ! R3    R(2,3)                  1.4193         estimate D2E/DX2                !
 ! R4    R(2,9)                  1.2529         estimate D2E/DX2                !
 ! R5    R(3,4)                  1.4177         estimate D2E/DX2                !
 ! R6    R(3,8)                  1.4179         estimate D2E/DX2                !
 ! R7    R(4,5)                  1.4075         estimate D2E/DX2                !
 ! R8    R(4,11)                 1.09           estimate D2E/DX2                !
 ! R9    R(5,6)                  1.4062         estimate D2E/DX2                !
 ! R10   R(5,12)                 1.09           estimate D2E/DX2                !
 ! R11   R(6,7)                  1.4055         estimate D2E/DX2                !
 ! R12   R(6,13)                 1.09           estimate D2E/DX2                !
 ! R13   R(7,8)                  1.4061         estimate D2E/DX2                !
 ! R14   R(7,14)                 1.09           estimate D2E/DX2                !
 ! R15   R(8,15)                 1.09           estimate D2E/DX2                !
 ! A1    A(2,1,10)             109.4774         estimate D2E/DX2                !
 ! A2    A(1,2,3)              121.6505         estimate D2E/DX2                !
 ! A3    A(1,2,9)              116.4283         estimate D2E/DX2                !
 ! A4    A(3,2,9)              121.9025         estimate D2E/DX2                !
 ! A5    A(2,3,4)              120.8318         estimate D2E/DX2                !
 ! A6    A(2,3,8)              120.9057         estimate D2E/DX2                !
 ! A7    A(4,3,8)              118.2598         estimate D2E/DX2                !
 ! A8    A(3,4,5)              120.7825         estimate D2E/DX2                !
 ! A9    A(3,4,11)             119.9647         estimate D2E/DX2                !
 ! A10   A(5,4,11)             119.2528         estimate D2E/DX2                !
 ! A11   A(4,5,6)              120.1066         estimate D2E/DX2                !
 ! A12   A(4,5,12)             120.0001         estimate D2E/DX2                !
 ! A13   A(6,5,12)             119.8932         estimate D2E/DX2                !
 ! A14   A(5,6,7)              119.8717         estimate D2E/DX2                !
 ! A15   A(5,6,13)             120.0888         estimate D2E/DX2                !
 ! A16   A(7,6,13)             120.0395         estimate D2E/DX2                !
 ! A17   A(6,7,8)              120.0386         estimate D2E/DX2                !
 ! A18   A(6,7,14)             119.9606         estimate D2E/DX2                !
 ! A19   A(8,7,14)             120.0007         estimate D2E/DX2                !
 ! A20   A(3,8,7)              120.9238         estimate D2E/DX2                !
 ! A21   A(3,8,15)             119.9581         estimate D2E/DX2                !
 ! A22   A(7,8,15)             119.1181         estimate D2E/DX2                !
 ! D1    D(10,1,2,3)            88.9416         estimate D2E/DX2                !
 ! D2    D(10,1,2,9)           -89.5091         estimate D2E/DX2                !
 ! D3    D(1,2,3,4)              7.7583         estimate D2E/DX2                !
 ! D4    D(1,2,3,8)           -171.6379         estimate D2E/DX2                !
 ! D5    D(9,2,3,4)           -173.8759         estimate D2E/DX2                !
 ! D6    D(9,2,3,8)              6.728          estimate D2E/DX2                !
 ! D7    D(2,3,4,5)           -178.0587         estimate D2E/DX2                !
 ! D8    D(2,3,4,11)             1.9401         estimate D2E/DX2                !
 ! D9    D(8,3,4,5)              1.3531         estimate D2E/DX2                !
 ! D10   D(8,3,4,11)          -178.6481         estimate D2E/DX2                !
 ! D11   D(2,3,8,7)            178.0018         estimate D2E/DX2                !
 ! D12   D(2,3,8,15)            -2.0031         estimate D2E/DX2                !
 ! D13   D(4,3,8,7)             -1.4095         estimate D2E/DX2                !
 ! D14   D(4,3,8,15)           178.5855         estimate D2E/DX2                !
 ! D15   D(3,4,5,6)             -0.3859         estimate D2E/DX2                !
 ! D16   D(3,4,5,12)           179.6134         estimate D2E/DX2                !
 ! D17   D(11,4,5,6)           179.6152         estimate D2E/DX2                !
 ! D18   D(11,4,5,12)           -0.3854         estimate D2E/DX2                !
 ! D19   D(4,5,6,7)             -0.5617         estimate D2E/DX2                !
 ! D20   D(4,5,6,13)           179.4423         estimate D2E/DX2                !
 ! D21   D(12,5,6,7)           179.4389         estimate D2E/DX2                !
 ! D22   D(12,5,6,13)           -0.557          estimate D2E/DX2                !
 ! D23   D(5,6,7,8)              0.5074         estimate D2E/DX2                !
 ! D24   D(5,6,7,14)          -179.5016         estimate D2E/DX2                !
 ! D25   D(13,6,7,8)          -179.4967         estimate D2E/DX2                !
 ! D26   D(13,6,7,14)            0.4943         estimate D2E/DX2                !
 ! D27   D(6,7,8,3)              0.4959         estimate D2E/DX2                !
 ! D28   D(6,7,8,15)          -179.4992         estimate D2E/DX2                !
 ! D29   D(14,7,8,3)          -179.4951         estimate D2E/DX2                !
 ! D30   D(14,7,8,15)            0.5098         estimate D2E/DX2                !
 --------------------------------------------------------------------------------
 Trust Radius=3.00D-01 FncErr=1.00D-07 GrdErr=1.00D-06 EigMax=2.50D+02 EigMin=1.00D-04
 Number of steps in this run=     77 maximum allowed number of steps=    100.
 GradGradGradGradGradGradGradGradGradGradGradGradGradGradGradGradGradGrad

 Leave Link  103 at Mon Oct 14 00:33:34 2019, MaxMem= 10737418240 cpu:               0.3 elap:               0.0
 (Enter /apps/cent7/gaussian/g16-A.03/g16-haswell/g16/l202.exe)
                          Input orientation:                          
 ---------------------------------------------------------------------
 Center     Atomic      Atomic             Coordinates (Angstroms)
 Number     Number       Type             X           Y           Z
 ---------------------------------------------------------------------
      1          8           0       -2.735200   -0.030300    0.372800
      2          6           0       -2.067100    1.129900    0.158100
      3          6           0       -0.651500    1.167400    0.062200
      4          6           0        0.106200   -0.030200    0.025000
      5          6           0        1.512100    0.008300   -0.029200
      6          6           0        2.183400    1.243600   -0.055300
      7          6           0        1.447300    2.440800   -0.039100
      8          6           0        0.042700    2.402800    0.013900
      9          8           0       -2.763800    2.168200    0.079300
     10          1           0       -2.821400   -0.180000    1.317100
     11          1           0       -0.400100   -0.995400    0.038300
     12          1           0        2.082300   -0.920400   -0.051000
     13          1           0        3.272500    1.273100   -0.088100
     14          1           0        1.965900    3.399100   -0.067500
     15          1           0       -0.513500    3.340200    0.017500
 ---------------------------------------------------------------------
                    Distance matrix (angstroms):
                    1          2          3          4          5
     1  O    0.000000
     2  C    1.355920   0.000000
     3  C    2.423378   1.419340   0.000000
     4  C    2.862607   2.467140   1.417653   0.000000
     5  C    4.266457   3.755495   2.456223   1.407471   0.000000
     6  C    5.098894   4.257372   2.838357   2.437986   1.406162
     7  C    4.875377   3.756109   2.456984   2.812205   2.433383
     8  C    3.710190   2.468263   1.417907   2.433854   2.809737
     9  O    2.218189   1.252864   2.337457   3.615634   4.791687
    10  H    0.959970   1.904754   2.845826   3.203561   4.541718
    11  H    2.548725   2.703727   2.177493   1.090013   2.160666
    12  H    4.917336   4.633031   3.441713   2.168687   1.089994
    13  H    6.164717   5.347191   3.928300   3.425907   2.168455
    14  H    5.835665   4.633061   3.442105   3.902197   3.421246
    15  H    4.052463   2.705341   2.177637   3.426905   3.899589
                    6          7          8          9         10
     6  C    0.000000
     7  C    1.405487   0.000000
     8  C    2.435391   1.406113   0.000000
     9  O    5.034659   4.221575   2.817047   0.000000
    10  H    5.381277   5.189381   4.070903   2.655091   0.000000
    11  H    3.419993   3.902095   3.427015   3.949319   2.857079
    12  H    2.166365   3.420677   3.899723   5.748140   5.144528
    13  H    1.089993   2.167321   3.423191   6.104600   6.420413
    14  H    2.166480   1.089996   2.167473   4.889451   6.135578
    15  H    3.416768   2.157976   1.089995   2.537962   4.405357
                   11         12         13         14         15
    11  H    0.000000
    12  H    2.485138   0.000000
    13  H    4.318572   2.495876   0.000000
    14  H    4.992072   4.321100   2.495497   0.000000
    15  H    4.337133   4.989547   4.314841   2.481556   0.000000
 Stoichiometry    C7H6O2
 Framework group  C1[X(C7H6O2)]
 Deg. of freedom    39
 Full point group                 C1      NOp   1
 Largest Abelian subgroup         C1      NOp   1
 Largest concise Abelian subgroup C1      NOp   1
                         Standard orientation:                         
 ---------------------------------------------------------------------
 Center     Atomic      Atomic             Coordinates (Angstroms)
 Number     Number       Type             X           Y           Z
 ---------------------------------------------------------------------
      1          8           0       -2.428651   -1.028287    0.057701
      2          6           0       -1.675284    0.094480   -0.044032
      3          6           0       -0.256901    0.042427   -0.041489
      4          6           0        0.424688   -1.199419   -0.096219
      5          6           0        1.830502   -1.252043   -0.052741
      6          6           0        2.578323   -0.064678    0.037923
      7          6           0        1.919709    1.176442    0.073176
      8          6           0        0.515305    1.229541    0.028619
      9          8           0       -2.297893    1.179694   -0.109889
     10          1           0       -2.591249   -1.221829    0.983793
     11          1           0       -0.140978   -2.128005   -0.172890
     12          1           0        2.341256   -2.214269   -0.089339
     13          1           0        3.666681   -0.106255    0.080736
     14          1           0        2.498262    2.098134    0.135242
     15          1           0        0.020334    2.200467    0.048540
 ---------------------------------------------------------------------
 Rotational constants (GHZ):           3.8282355           1.2139660           0.9269261
 Leave Link  202 at Mon Oct 14 00:33:34 2019, MaxMem= 10737418240 cpu:               0.5 elap:               0.0
 (Enter /apps/cent7/gaussian/g16-A.03/g16-haswell/g16/l301.exe)
 Standard basis: 6-31G(d) (6D, 7F)
 Ernie: Thresh=  0.10000D-02 Tol=  0.10000D-05 Strict=F.
 There are   147 symmetry adapted cartesian basis functions of A   symmetry.
 There are   147 symmetry adapted basis functions of A   symmetry.
   147 basis functions,   276 primitive gaussians,   147 cartesian basis functions
    32 alpha electrons       32 beta electrons
       nuclear repulsion energy       402.9558508281 Hartrees.
 IExCor=  402 DFT=T Ex+Corr=B3LYP ExCW=0 ScaHFX=  0.200000
 ScaDFX=  0.800000  0.720000  1.000000  0.810000 ScalE2=  1.000000  1.000000
 IRadAn=      5 IRanWt=     -1 IRanGd=            0 ICorTp=0 IEmpDi=  4
 NAtoms=   15 NActive=   15 NUniq=   15 SFac= 1.00D+00 NAtFMM=   60 NAOKFM=F Big=F
 Integral buffers will be    131072 words long.
 Raffenetti 2 integral format.
 Two-electron integral symmetry is turned on.
 Leave Link  301 at Mon Oct 14 00:33:34 2019, MaxMem= 10737418240 cpu:               1.6 elap:               0.1
 (Enter /apps/cent7/gaussian/g16-A.03/g16-haswell/g16/l302.exe)
 NPDir=0 NMtPBC=     1 NCelOv=     1 NCel=       1 NClECP=     1 NCelD=      1
         NCelK=      1 NCelE2=     1 NClLst=     1 CellRange=     0.0.
 One-electron integrals computed using PRISM.
 One-electron integral symmetry used in STVInt
 NBasis=   147 RedAO= T EigKep=  5.05D-04  NBF=   147
 NBsUse=   147 1.00D-06 EigRej= -1.00D+00 NBFU=   147
 Precomputing XC quadrature grid using
 IXCGrd= 4 IRadAn=           5 IRanWt=          -1 IRanGd=           0 AccXCQ= 0.00D+00.
 Generated NRdTot=       0 NPtTot=           0 NUsed=           0 NTot=          32
 NSgBfM=   147   147   147   147   147 MxSgAt=    15 MxSgA2=    15.
 Leave Link  302 at Mon Oct 14 00:33:34 2019, MaxMem= 10737418240 cpu:               3.3 elap:               0.2
 (Enter /apps/cent7/gaussian/g16-A.03/g16-haswell/g16/l303.exe)
 DipDrv:  MaxL=1.
 Leave Link  303 at Mon Oct 14 00:33:34 2019, MaxMem= 10737418240 cpu:               2.7 elap:               0.2
 (Enter /apps/cent7/gaussian/g16-A.03/g16-haswell/g16/l401.exe)
 ExpMin= 1.61D-01 ExpMax= 5.48D+03 ExpMxC= 8.25D+02 IAcc=3 IRadAn=         5 AccDes= 0.00D+00
 Harris functional with IExCor=  402 and IRadAn=       5 diagonalized for initial guess.
 HarFok:  IExCor=  402 AccDes= 0.00D+00 IRadAn=         5 IDoV= 1 UseB2=F ITyADJ=14
 ICtDFT=  3500011 ScaDFX=  1.000000  1.000000  1.000000  1.000000
 FoFCou: FMM=F IPFlag=           0 FMFlag=      100000 FMFlg1=           0
         NFxFlg=           0 DoJE=T BraDBF=F KetDBF=T FulRan=T
         wScrn=  0.000000 ICntrl=       500 IOpCl=  0 I1Cent=   200000004 NGrid=           0
         NMat0=    1 NMatS0=      1 NMatT0=    0 NMatD0=    1 NMtDS0=    0 NMtDT0=    0
 Petite list used in FoFCou.
 Harris En= -420.817554355199    
 JPrj=0 DoOrth=F DoCkMO=F.
 Leave Link  401 at Mon Oct 14 00:33:35 2019, MaxMem= 10737418240 cpu:               6.1 elap:               0.3
 (Enter /apps/cent7/gaussian/g16-A.03/g16-haswell/g16/l502.exe)
 Integral symmetry usage will be decided dynamically.
 Closed shell SCF:
 Using DIIS extrapolation, IDIIS=  1040.
 NGot= 10737418240 LenX= 10737369810 LenY= 10737347760
 Requested convergence on RMS density matrix=1.00D-08 within 128 cycles.
 Requested convergence on MAX density matrix=1.00D-06.
 Requested convergence on             energy=1.00D-06.
 No special actions if energy rises.
 Fock matrices will be formed incrementally for  20 cycles.
 Integral accuracy reduced to 1.0D-05 until final iterations.

 Cycle   1  Pass 0  IDiag  1:
 FoFJK:  IHMeth= 1 ICntrl=       0 DoSepK=F KAlg= 0 I1Cent=           0 FoldK=F
 IRaf= 940000000 NMat=       1 IRICut=       1 DoRegI=T DoRafI=F ISym2E= 0 IDoP0=0 IntGTp=1.
 FoFCou: FMM=F IPFlag=           0 FMFlag=      100000 FMFlg1=           0
         NFxFlg=           0 DoJE=F BraDBF=F KetDBF=F FulRan=T
         wScrn=  0.000000 ICntrl=         0 IOpCl=  0 I1Cent=           0 NGrid=           0
         NMat0=    1 NMatS0=      1 NMatT0=    0 NMatD0=    1 NMtDS0=    0 NMtDT0=    0
 Symmetry not used in FoFCou.
 E= -420.572282894364    
 DIIS: error= 4.29D-02 at cycle   1 NSaved=   1.
 NSaved= 1 IEnMin= 1 EnMin= -420.572282894364     IErMin= 1 ErrMin= 4.29D-02
 ErrMax= 4.29D-02  0.00D+00 EMaxC= 1.00D-01 BMatC= 2.46D-01 BMatP= 2.46D-01
 IDIUse=3 WtCom= 5.71D-01 WtEn= 4.29D-01
 Coeff-Com:  0.100D+01
 Coeff-En:   0.100D+01
 Coeff:      0.100D+01
 Gap=     0.170 Goal=   None    Shift=    0.000
 GapD=    0.170 DampG=1.000 DampE=0.500 DampFc=0.5000 IDamp=-1.
 Damping current iteration by 5.00D-01
 RMSDP=8.19D-03 MaxDP=2.23D-01              OVMax= 2.46D-01

 Cycle   2  Pass 0  IDiag  1:
 RMSU=  4.07D-03    CP:  9.83D-01
 E= -420.634298904203     Delta-E=       -0.062016009840 Rises=F Damp=T
 DIIS: error= 1.17D-02 at cycle   2 NSaved=   2.
 NSaved= 2 IEnMin= 2 EnMin= -420.634298904203     IErMin= 2 ErrMin= 1.17D-02
 ErrMax= 1.17D-02  0.00D+00 EMaxC= 1.00D-01 BMatC= 4.24D-02 BMatP= 2.46D-01
 IDIUse=3 WtCom= 8.83D-01 WtEn= 1.17D-01
 Coeff-Com:  0.221D+00 0.779D+00
 Coeff-En:   0.331D+00 0.669D+00
 Coeff:      0.234D+00 0.766D+00
 Gap=     0.204 Goal=   None    Shift=    0.000
 RMSDP=2.67D-03 MaxDP=7.02D-02 DE=-6.20D-02 OVMax= 2.26D-01

 Cycle   3  Pass 0  IDiag  1:
 RMSU=  2.37D-03    CP:  9.71D-01  7.08D-01
 E= -420.753388342200     Delta-E=       -0.119089437997 Rises=F Damp=F
 DIIS: error= 1.63D-02 at cycle   3 NSaved=   3.
 NSaved= 3 IEnMin= 3 EnMin= -420.753388342200     IErMin= 2 ErrMin= 1.17D-02
 ErrMax= 1.63D-02  0.00D+00 EMaxC= 1.00D-01 BMatC= 4.42D-02 BMatP= 4.24D-02
 IDIUse=3 WtCom= 8.37D-01 WtEn= 1.63D-01
 Coeff-Com:  0.670D-01 0.496D+00 0.437D+00
 Coeff-En:   0.000D+00 0.000D+00 0.100D+01
 Coeff:      0.561D-01 0.415D+00 0.529D+00
 Gap=     0.201 Goal=   None    Shift=    0.000
 RMSDP=2.02D-03 MaxDP=6.99D-02 DE=-1.19D-01 OVMax= 9.59D-02

 Cycle   4  Pass 0  IDiag  1:
 RMSU=  1.14D-03    CP:  9.76D-01  8.63D-01  3.51D-01
 E= -420.780981155680     Delta-E=       -0.027592813480 Rises=F Damp=F
 DIIS: error= 8.52D-03 at cycle   4 NSaved=   4.
 NSaved= 4 IEnMin= 4 EnMin= -420.780981155680     IErMin= 4 ErrMin= 8.52D-03
 ErrMax= 8.52D-03  0.00D+00 EMaxC= 1.00D-01 BMatC= 1.35D-02 BMatP= 4.24D-02
 IDIUse=3 WtCom= 9.15D-01 WtEn= 8.52D-02
 Coeff-Com:  0.185D-01 0.889D-01 0.353D+00 0.540D+00
 Coeff-En:   0.000D+00 0.000D+00 0.270D+00 0.730D+00
 Coeff:      0.169D-01 0.813D-01 0.346D+00 0.556D+00
 Gap=     0.194 Goal=   None    Shift=    0.000
 RMSDP=8.17D-04 MaxDP=2.71D-02 DE=-2.76D-02 OVMax= 3.79D-02

 Cycle   5  Pass 0  IDiag  1:
 RMSU=  2.68D-04    CP:  9.75D-01  7.79D-01  5.74D-01  6.07D-01
 E= -420.791547112059     Delta-E=       -0.010565956378 Rises=F Damp=F
 DIIS: error= 1.08D-03 at cycle   5 NSaved=   5.
 NSaved= 5 IEnMin= 5 EnMin= -420.791547112059     IErMin= 5 ErrMin= 1.08D-03
 ErrMax= 1.08D-03  0.00D+00 EMaxC= 1.00D-01 BMatC= 3.83D-04 BMatP= 1.35D-02
 IDIUse=3 WtCom= 9.89D-01 WtEn= 1.08D-02
 Coeff-Com:  0.481D-02 0.335D-02 0.141D+00 0.294D+00 0.557D+00
 Coeff-En:   0.000D+00 0.000D+00 0.000D+00 0.000D+00 0.100D+01
 Coeff:      0.475D-02 0.331D-02 0.139D+00 0.291D+00 0.562D+00
 Gap=     0.191 Goal=   None    Shift=    0.000
 RMSDP=1.69D-04 MaxDP=3.19D-03 DE=-1.06D-02 OVMax= 7.63D-03

 Cycle   6  Pass 0  IDiag  1:
 RMSU=  1.02D-04    CP:  9.75D-01  7.91D-01  5.68D-01  6.34D-01  5.52D-01
 E= -420.791846693312     Delta-E=       -0.000299581253 Rises=F Damp=F
 DIIS: error= 3.42D-04 at cycle   6 NSaved=   6.
 NSaved= 6 IEnMin= 6 EnMin= -420.791846693312     IErMin= 6 ErrMin= 3.42D-04
 ErrMax= 3.42D-04  0.00D+00 EMaxC= 1.00D-01 BMatC= 3.34D-05 BMatP= 3.83D-04
 IDIUse=3 WtCom= 9.97D-01 WtEn= 3.42D-03
 Coeff-Com:  0.120D-02-0.416D-02 0.447D-01 0.104D+00 0.302D+00 0.553D+00
 Coeff-En:   0.000D+00 0.000D+00 0.000D+00 0.000D+00 0.328D-01 0.967D+00
 Coeff:      0.119D-02-0.415D-02 0.445D-01 0.103D+00 0.301D+00 0.554D+00
 Gap=     0.191 Goal=   None    Shift=    0.000
 RMSDP=5.23D-05 MaxDP=1.25D-03 DE=-3.00D-04 OVMax= 3.06D-03

 Cycle   7  Pass 0  IDiag  1:
 RMSU=  2.71D-05    CP:  9.75D-01  7.90D-01  5.68D-01  6.40D-01  6.30D-01
                    CP:  6.23D-01
 E= -420.791875803175     Delta-E=       -0.000029109864 Rises=F Damp=F
 DIIS: error= 2.06D-04 at cycle   7 NSaved=   7.
 NSaved= 7 IEnMin= 7 EnMin= -420.791875803175     IErMin= 7 ErrMin= 2.06D-04
 ErrMax= 2.06D-04  0.00D+00 EMaxC= 1.00D-01 BMatC= 4.17D-06 BMatP= 3.34D-05
 IDIUse=3 WtCom= 9.98D-01 WtEn= 2.06D-03
 Coeff-Com:  0.435D-03-0.281D-02 0.158D-01 0.378D-01 0.139D+00 0.332D+00
 Coeff-Com:  0.479D+00
 Coeff-En:   0.000D+00 0.000D+00 0.000D+00 0.000D+00 0.000D+00 0.638D-01
 Coeff-En:   0.936D+00
 Coeff:      0.434D-03-0.281D-02 0.158D-01 0.378D-01 0.138D+00 0.331D+00
 Coeff:      0.479D+00
 Gap=     0.191 Goal=   None    Shift=    0.000
 RMSDP=1.65D-05 MaxDP=3.91D-04 DE=-2.91D-05 OVMax= 9.76D-04

 Cycle   8  Pass 0  IDiag  1:
 RMSU=  7.30D-06    CP:  9.75D-01  7.90D-01  5.69D-01  6.41D-01  6.24D-01
                    CP:  6.63D-01  4.93D-01
 E= -420.791880119040     Delta-E=       -0.000004315864 Rises=F Damp=F
 DIIS: error= 4.69D-05 at cycle   8 NSaved=   8.
 NSaved= 8 IEnMin= 8 EnMin= -420.791880119040     IErMin= 8 ErrMin= 4.69D-05
 ErrMax= 4.69D-05  0.00D+00 EMaxC= 1.00D-01 BMatC= 2.67D-07 BMatP= 4.17D-06
 IDIUse=1 WtCom= 1.00D+00 WtEn= 0.00D+00
 Coeff-Com:  0.135D-03-0.999D-03 0.298D-02 0.677D-02 0.370D-01 0.104D+00
 Coeff-Com:  0.241D+00 0.610D+00
 Coeff:      0.135D-03-0.999D-03 0.298D-02 0.677D-02 0.370D-01 0.104D+00
 Coeff:      0.241D+00 0.610D+00
 Gap=     0.191 Goal=   None    Shift=    0.000
 RMSDP=4.73D-06 MaxDP=9.82D-05 DE=-4.32D-06 OVMax= 2.38D-04

 Initial convergence to 1.0D-05 achieved.  Increase integral accuracy.
 Cycle   9  Pass 1  IDiag  1:
 E= -420.791883228037     Delta-E=       -0.000003108997 Rises=F Damp=F
 DIIS: error= 1.34D-05 at cycle   1 NSaved=   1.
 NSaved= 1 IEnMin= 1 EnMin= -420.791883228037     IErMin= 1 ErrMin= 1.34D-05
 ErrMax= 1.34D-05  0.00D+00 EMaxC= 1.00D-01 BMatC= 3.70D-08 BMatP= 3.70D-08
 IDIUse=1 WtCom= 1.00D+00 WtEn= 0.00D+00
 Coeff-Com:  0.100D+01
 Coeff:      0.100D+01
 Gap=     0.191 Goal=   None    Shift=    0.000
 RMSDP=4.73D-06 MaxDP=9.82D-05 DE=-3.11D-06 OVMax= 1.31D-04

 Cycle  10  Pass 1  IDiag  1:
 RMSU=  7.22D-06    CP:  1.00D+00
 E= -420.791883201326     Delta-E=        0.000000026710 Rises=F Damp=F
 DIIS: error= 2.59D-05 at cycle   2 NSaved=   2.
 NSaved= 2 IEnMin= 1 EnMin= -420.791883228037     IErMin= 1 ErrMin= 1.34D-05
 ErrMax= 2.59D-05  0.00D+00 EMaxC= 1.00D-01 BMatC= 5.79D-08 BMatP= 3.70D-08
 IDIUse=1 WtCom= 1.00D+00 WtEn= 0.00D+00
 Coeff-Com:  0.563D+00 0.437D+00
 Coeff:      0.563D+00 0.437D+00
 Gap=     0.191 Goal=   None    Shift=    0.000
 RMSDP=1.99D-06 MaxDP=4.34D-05 DE= 2.67D-08 OVMax= 1.04D-04

 Cycle  11  Pass 1  IDiag  1:
 RMSU=  1.91D-06    CP:  1.00D+00  9.22D-01
 E= -420.791883255868     Delta-E=       -0.000000054542 Rises=F Damp=F
 DIIS: error= 8.02D-06 at cycle   3 NSaved=   3.
 NSaved= 3 IEnMin= 3 EnMin= -420.791883255868     IErMin= 3 ErrMin= 8.02D-06
 ErrMax= 8.02D-06  0.00D+00 EMaxC= 1.00D-01 BMatC= 5.58D-09 BMatP= 3.70D-08
 IDIUse=1 WtCom= 1.00D+00 WtEn= 0.00D+00
 Coeff-Com:  0.180D+00 0.251D+00 0.569D+00
 Coeff:      0.180D+00 0.251D+00 0.569D+00
 Gap=     0.191 Goal=   None    Shift=    0.000
 RMSDP=6.82D-07 MaxDP=1.77D-05 DE=-5.45D-08 OVMax= 2.96D-05

 Cycle  12  Pass 1  IDiag  1:
 RMSU=  4.99D-07    CP:  1.00D+00  9.38D-01  7.66D-01
 E= -420.791883260302     Delta-E=       -0.000000004434 Rises=F Damp=F
 DIIS: error= 2.08D-06 at cycle   4 NSaved=   4.
 NSaved= 4 IEnMin= 4 EnMin= -420.791883260302     IErMin= 4 ErrMin= 2.08D-06
 ErrMax= 2.08D-06  0.00D+00 EMaxC= 1.00D-01 BMatC= 1.31D-09 BMatP= 5.58D-09
 IDIUse=1 WtCom= 1.00D+00 WtEn= 0.00D+00
 Coeff-Com:  0.131D-01 0.837D-01 0.373D+00 0.530D+00
 Coeff:      0.131D-01 0.837D-01 0.373D+00 0.530D+00
 Gap=     0.191 Goal=   None    Shift=    0.000
 RMSDP=2.72D-07 MaxDP=9.53D-06 DE=-4.43D-09 OVMax= 1.13D-05

 Cycle  13  Pass 1  IDiag  1:
 RMSU=  1.11D-07    CP:  1.00D+00  9.42D-01  7.90D-01  5.14D-01
 E= -420.791883261289     Delta-E=       -0.000000000986 Rises=F Damp=F
 DIIS: error= 8.09D-07 at cycle   5 NSaved=   5.
 NSaved= 5 IEnMin= 5 EnMin= -420.791883261289     IErMin= 5 ErrMin= 8.09D-07
 ErrMax= 8.09D-07  0.00D+00 EMaxC= 1.00D-01 BMatC= 1.41D-10 BMatP= 1.31D-09
 IDIUse=1 WtCom= 1.00D+00 WtEn= 0.00D+00
 Coeff-Com: -0.159D-02 0.410D-01 0.213D+00 0.352D+00 0.395D+00
 Coeff:     -0.159D-02 0.410D-01 0.213D+00 0.352D+00 0.395D+00
 Gap=     0.191 Goal=   None    Shift=    0.000
 RMSDP=7.80D-08 MaxDP=2.42D-06 DE=-9.86D-10 OVMax= 3.98D-06

 Cycle  14  Pass 1  IDiag  1:
 RMSU=  3.46D-08    CP:  1.00D+00  9.42D-01  8.01D-01  5.61D-01  4.41D-01
 E= -420.791883261409     Delta-E=       -0.000000000120 Rises=F Damp=F
 DIIS: error= 1.40D-07 at cycle   6 NSaved=   6.
 NSaved= 6 IEnMin= 6 EnMin= -420.791883261409     IErMin= 6 ErrMin= 1.40D-07
 ErrMax= 1.40D-07  0.00D+00 EMaxC= 1.00D-01 BMatC= 4.55D-12 BMatP= 1.41D-10
 IDIUse=1 WtCom= 1.00D+00 WtEn= 0.00D+00
 Coeff-Com: -0.172D-02 0.177D-01 0.960D-01 0.167D+00 0.221D+00 0.500D+00
 Coeff:     -0.172D-02 0.177D-01 0.960D-01 0.167D+00 0.221D+00 0.500D+00
 Gap=     0.191 Goal=   None    Shift=    0.000
 RMSDP=1.90D-08 MaxDP=4.29D-07 DE=-1.20D-10 OVMax= 9.74D-07

 Cycle  15  Pass 1  IDiag  1:
 RMSU=  1.19D-08    CP:  1.00D+00  9.42D-01  7.99D-01  5.61D-01  4.75D-01
                    CP:  6.07D-01
 E= -420.791883261416     Delta-E=       -0.000000000008 Rises=F Damp=F
 DIIS: error= 3.28D-08 at cycle   7 NSaved=   7.
 NSaved= 7 IEnMin= 7 EnMin= -420.791883261416     IErMin= 7 ErrMin= 3.28D-08
 ErrMax= 3.28D-08  0.00D+00 EMaxC= 1.00D-01 BMatC= 3.51D-13 BMatP= 4.55D-12
 IDIUse=1 WtCom= 1.00D+00 WtEn= 0.00D+00
 Coeff-Com: -0.786D-03 0.541D-02 0.302D-01 0.556D-01 0.767D-01 0.270D+00
 Coeff-Com:  0.563D+00
 Coeff:     -0.786D-03 0.541D-02 0.302D-01 0.556D-01 0.767D-01 0.270D+00
 Coeff:      0.563D+00
 Gap=     0.191 Goal=   None    Shift=    0.000
 RMSDP=4.66D-09 MaxDP=8.78D-08 DE=-7.50D-12 OVMax= 1.96D-07

 SCF Done:  E(RB3LYP) =  -420.791883261     A.U. after   15 cycles
            NFock= 15  Conv=0.47D-08     -V/T= 2.0096
 KE= 4.167989183268D+02 PE=-1.786742992809D+03 EE= 5.461963403931D+02
 Leave Link  502 at Mon Oct 14 00:33:37 2019, MaxMem= 10737418240 cpu:              59.6 elap:               2.5
 (Enter /apps/cent7/gaussian/g16-A.03/g16-haswell/g16/l601.exe)
 Copying SCF densities to generalized density rwf, IOpCl= 0 IROHF=0.

 **********************************************************************

            Population analysis using the SCF density.

 **********************************************************************

 Orbital symmetries:
       Occupied  (A) (A) (A) (A) (A) (A) (A) (A) (A) (A) (A) (A)
                 (A) (A) (A) (A) (A) (A) (A) (A) (A) (A) (A) (A)
                 (A) (A) (A) (A) (A) (A) (A) (A)
       Virtual   (A) (A) (A) (A) (A) (A) (A) (A) (A) (A) (A) (A)
                 (A) (A) (A) (A) (A) (A) (A) (A) (A) (A) (A) (A)
                 (A) (A) (A) (A) (A) (A) (A) (A) (A) (A) (A) (A)
                 (A) (A) (A) (A) (A) (A) (A) (A) (A) (A) (A) (A)
                 (A) (A) (A) (A) (A) (A) (A) (A) (A) (A) (A) (A)
                 (A) (A) (A) (A) (A) (A) (A) (A) (A) (A) (A) (A)
                 (A) (A) (A) (A) (A) (A) (A) (A) (A) (A) (A) (A)
                 (A) (A) (A) (A) (A) (A) (A) (A) (A) (A) (A) (A)
                 (A) (A) (A) (A) (A) (A) (A) (A) (A) (A) (A) (A)
                 (A) (A) (A) (A) (A) (A) (A)
 The electronic state is 1-A.
 Alpha  occ. eigenvalues --  -19.17671 -19.12938 -10.31560 -10.21437 -10.21387
 Alpha  occ. eigenvalues --  -10.21337 -10.21132 -10.20950 -10.20868  -1.08999
 Alpha  occ. eigenvalues --   -0.99054  -0.86589  -0.77743  -0.75690  -0.66261
 Alpha  occ. eigenvalues --   -0.61986  -0.59668  -0.55020  -0.50306  -0.46584
 Alpha  occ. eigenvalues --   -0.46103  -0.45234  -0.43287  -0.42758  -0.38114
 Alpha  occ. eigenvalues --   -0.37397  -0.35737  -0.33842  -0.31981  -0.26648
 Alpha  occ. eigenvalues --   -0.26371  -0.25862
 Alpha virt. eigenvalues --   -0.06717  -0.01770   0.03697   0.07239   0.08970
 Alpha virt. eigenvalues --    0.13295   0.14943   0.15890   0.17371   0.18039
 Alpha virt. eigenvalues --    0.23943   0.26195   0.28485   0.29175   0.30617
 Alpha virt. eigenvalues --    0.36555   0.40798   0.47068   0.50349   0.51347
 Alpha virt. eigenvalues --    0.53780   0.54583   0.55381   0.57601   0.58187
 Alpha virt. eigenvalues --    0.58732   0.59344   0.60266   0.61268   0.63312
 Alpha virt. eigenvalues --    0.64342   0.65870   0.69784   0.75083   0.77612
 Alpha virt. eigenvalues --    0.79249   0.81514   0.82144   0.83044   0.84909
 Alpha virt. eigenvalues --    0.86192   0.89046   0.92219   0.92821   0.95038
 Alpha virt. eigenvalues --    0.96013   1.01521   1.03512   1.04977   1.07081
 Alpha virt. eigenvalues --    1.10200   1.13387   1.16051   1.17216   1.23906
 Alpha virt. eigenvalues --    1.27714   1.31428   1.33127   1.41383   1.41795
 Alpha virt. eigenvalues --    1.42816   1.44432   1.47312   1.47812   1.49458
 Alpha virt. eigenvalues --    1.50423   1.69907   1.71209   1.74648   1.77012
 Alpha virt. eigenvalues --    1.79749   1.80258   1.85798   1.87698   1.88441
 Alpha virt. eigenvalues --    1.90511   1.95341   1.96410   1.99678   2.02235
 Alpha virt. eigenvalues --    2.06171   2.10442   2.11925   2.13153   2.13859
 Alpha virt. eigenvalues --    2.23546   2.25465   2.28080   2.31329   2.37864
 Alpha virt. eigenvalues --    2.44252   2.52379   2.56542   2.57076   2.57967
 Alpha virt. eigenvalues --    2.62766   2.66664   2.70988   2.71454   2.74791
 Alpha virt. eigenvalues --    2.81069   2.90953   2.94781   3.05255   3.19838
 Alpha virt. eigenvalues --    3.38414   3.83578   4.05462   4.09157   4.09726
 Alpha virt. eigenvalues --    4.21517   4.29096   4.33590   4.43001   4.69959
          Condensed to atoms (all electrons):
               1          2          3          4          5          6
     1  O    8.271893   0.283681  -0.108002   0.003331   0.000568  -0.000008
     2  C    0.283681   4.520121   0.264306  -0.038269   0.004423   0.000112
     3  C   -0.108002   0.264306   5.015956   0.470158  -0.017972  -0.033024
     4  C    0.003331  -0.038269   0.470158   5.053454   0.495934  -0.032875
     5  C    0.000568   0.004423  -0.017972   0.495934   4.895872   0.539648
     6  C   -0.000008   0.000112  -0.033024  -0.032875   0.539648   4.858779
     7  C   -0.000030   0.007188  -0.022842  -0.038551  -0.028987   0.530611
     8  C    0.004603  -0.036571   0.502366  -0.073941  -0.037671  -0.030239
     9  O   -0.107823   0.548232  -0.106385   0.004835  -0.000073  -0.000011
    10  H    0.236620  -0.011882   0.003652  -0.000580   0.000003   0.000002
    11  H    0.012314  -0.009907  -0.040803   0.354746  -0.041092   0.004479
    12  H   -0.000001  -0.000124   0.003202  -0.037404   0.360123  -0.042006
    13  H    0.000000   0.000008   0.000552   0.004390  -0.041149   0.359619
    14  H    0.000000  -0.000139   0.003246   0.000694   0.004308  -0.042458
    15  H    0.000188  -0.008112  -0.036547   0.005469   0.000233   0.004286
               7          8          9         10         11         12
     1  O   -0.000030   0.004603  -0.107823   0.236620   0.012314  -0.000001
     2  C    0.007188  -0.036571   0.548232  -0.011882  -0.009907  -0.000124
     3  C   -0.022842   0.502366  -0.106385   0.003652  -0.040803   0.003202
     4  C   -0.038551  -0.073941   0.004835  -0.000580   0.354746  -0.037404
     5  C   -0.028987  -0.037671  -0.000073   0.000003  -0.041092   0.360123
     6  C    0.530611  -0.030239  -0.000011   0.000002   0.004479  -0.042006
     7  C    4.920040   0.483976   0.001007  -0.000002   0.000201   0.004374
     8  C    0.483976   5.011585   0.001248  -0.000366   0.005255   0.000633
     9  O    0.001007   0.001248   8.094018   0.001602   0.000168   0.000000
    10  H   -0.000002  -0.000366   0.001602   0.348513  -0.000471  -0.000001
    11  H    0.000201   0.005255   0.000168  -0.000471   0.566215  -0.004911
    12  H    0.004374   0.000633   0.000000  -0.000001  -0.004911   0.579436
    13  H   -0.041365   0.004271   0.000000  -0.000000  -0.000152  -0.005014
    14  H    0.361069  -0.036891  -0.000001  -0.000000   0.000014  -0.000165
    15  H   -0.042080   0.354941   0.012779  -0.000031  -0.000140   0.000014
              13         14         15
     1  O    0.000000   0.000000   0.000188
     2  C    0.000008  -0.000139  -0.008112
     3  C    0.000552   0.003246  -0.036547
     4  C    0.004390   0.000694   0.005469
     5  C   -0.041149   0.004308   0.000233
     6  C    0.359619  -0.042458   0.004286
     7  C   -0.041365   0.361069  -0.042080
     8  C    0.004271  -0.036891   0.354941
     9  O    0.000000  -0.000001   0.012779
    10  H   -0.000000  -0.000000  -0.000031
    11  H   -0.000152   0.000014  -0.000140
    12  H   -0.005014  -0.000165   0.000014
    13  H    0.580076  -0.004963  -0.000148
    14  H   -0.004963   0.575338  -0.004766
    15  H   -0.000148  -0.004766   0.543225
 Mulliken charges:
               1
     1  O   -0.597335
     2  C    0.476935
     3  C    0.102137
     4  C   -0.171390
     5  C   -0.134168
     6  C   -0.116916
     7  C   -0.134609
     8  C   -0.153199
     9  O   -0.449597
    10  H    0.422941
    11  H    0.154084
    12  H    0.141842
    13  H    0.143874
    14  H    0.144714
    15  H    0.170687
 Sum of Mulliken charges =  -0.00000
 Mulliken charges with hydrogens summed into heavy atoms:
               1
     1  O   -0.174394
     2  C    0.476935
     3  C    0.102137
     4  C   -0.017307
     5  C    0.007674
     6  C    0.026959
     7  C    0.010105
     8  C    0.017488
     9  O   -0.449597
 Electronic spatial extent (au):  <R**2>=           1182.9438
 Charge=             -0.0000 electrons
 Dipole moment (field-independent basis, Debye):
    X=              3.1359    Y=             -1.8246    Z=              1.7217  Tot=              4.0159
 Quadrupole moment (field-independent basis, Debye-Ang):
   XX=            -51.7888   YY=            -48.0192   ZZ=            -50.7408
   XY=              5.2998   XZ=             -4.6277   YZ=             -1.5271
 Traceless Quadrupole moment (field-independent basis, Debye-Ang):
   XX=             -1.6059   YY=              2.1637   ZZ=             -0.5578
   XY=              5.2998   XZ=             -4.6277   YZ=             -1.5271
 Octapole moment (field-independent basis, Debye-Ang**2):
  XXX=             17.7532  YYY=             -3.5377  ZZZ=              2.8591  XYY=              4.9354
  XXY=            -13.1648  XXZ=             13.9386  XZZ=            -17.3399  YZZ=             -2.5414
  YYZ=              3.3451  XYZ=              5.8783
 Hexadecapole moment (field-independent basis, Debye-Ang**3):
 XXXX=          -1030.8327 YYYY=           -361.9184 ZZZZ=            -51.8880 XXXY=             36.2548
 XXXZ=            -34.4080 YYYX=             12.5561 YYYZ=             -2.8140 ZZZX=             -7.8260
 ZZZY=             -5.0270 XXYY=           -236.5599 XXZZ=           -177.3426 YYZZ=            -75.2133
 XXYZ=            -14.0755 YYXZ=             -9.2060 ZZXY=              7.4481
 N-N= 4.029558508281D+02 E-N=-1.786742994240D+03  KE= 4.167989183268D+02
 No NMR shielding tensors so no spin-rotation constants.
 Leave Link  601 at Mon Oct 14 00:33:37 2019, MaxMem= 10737418240 cpu:               2.2 elap:               0.1
 (Enter /apps/cent7/gaussian/g16-A.03/g16-haswell/g16/l701.exe)
 ... and contract with generalized density number  0.
 Compute integral first derivatives.
 Leave Link  701 at Mon Oct 14 00:33:37 2019, MaxMem= 10737418240 cpu:               2.8 elap:               0.2
 (Enter /apps/cent7/gaussian/g16-A.03/g16-haswell/g16/l702.exe)
 L702 exits ... SP integral derivatives will be done elsewhere.
 Leave Link  702 at Mon Oct 14 00:33:37 2019, MaxMem= 10737418240 cpu:               0.4 elap:               0.0
 (Enter /apps/cent7/gaussian/g16-A.03/g16-haswell/g16/l703.exe)
 Integral derivatives from FoFJK, PRISM(SPDF).
 Compute integral first derivatives, UseDBF=F ICtDFT=           0.
 Calling FoFJK, ICntrl=      2127 FMM=F ISym2X=0 I1Cent= 0 IOpClX= 0 NMat=1 NMatS=1 NMatT=0.
 FoFJK:  IHMeth= 1 ICntrl=    2127 DoSepK=F KAlg= 0 I1Cent=           0 FoldK=F
 IRaf=         0 NMat=       1 IRICut=       1 DoRegI=T DoRafI=F ISym2E= 0 IDoP0=0 IntGTp=1.
 FoFCou: FMM=F IPFlag=           0 FMFlag=      100000 FMFlg1=         800
         NFxFlg=           0 DoJE=F BraDBF=F KetDBF=F FulRan=T
         wScrn=  0.000000 ICntrl=      2127 IOpCl=  0 I1Cent=           0 NGrid=           0
         NMat0=    1 NMatS0=      1 NMatT0=    0 NMatD0=    1 NMtDS0=    0 NMtDT0=    0
 Symmetry not used in FoFCou.
 Leave Link  703 at Mon Oct 14 00:33:38 2019, MaxMem= 10737418240 cpu:              14.5 elap:               0.6
 (Enter /apps/cent7/gaussian/g16-A.03/g16-haswell/g16/l716.exe)
 Dipole        = 1.23377763D+00-7.17850069D-01 6.77384827D-01
 ***** Axes restored to original set *****
 -------------------------------------------------------------------
 Center     Atomic                   Forces (Hartrees/Bohr)
 Number     Number              X              Y              Z
 -------------------------------------------------------------------
      1        8           0.007974623   -0.025122398   -0.009002403
      2        6          -0.074915904    0.073534753    0.002965105
      3        6           0.052950674   -0.012167276   -0.005165558
      4        6           0.008770346    0.002968891    0.001232958
      5        6          -0.006199195    0.006051676   -0.000123882
      6        6          -0.006755177   -0.001966424    0.000391877
      7        6          -0.008598351   -0.007080397    0.000224654
      8        6           0.006917671    0.000814179   -0.001004727
      9        8           0.030453246   -0.033077069   -0.000389250
     10        1          -0.002465642   -0.002351014    0.009860842
     11        1          -0.000397048    0.004051119    0.000327174
     12        1          -0.001951794    0.001948743   -0.000083244
     13        1          -0.002312849   -0.000264561   -0.000160795
     14        1          -0.002165116   -0.002085687    0.000130807
     15        1          -0.001305483   -0.005254535    0.000796442
 -------------------------------------------------------------------
 Cartesian Forces:  Max     0.074915904 RMS     0.019645558
 Leave Link  716 at Mon Oct 14 00:33:38 2019, MaxMem= 10737418240 cpu:               0.6 elap:               0.0
 (Enter /apps/cent7/gaussian/g16-A.03/g16-haswell/g16/l103.exe)

 GradGradGradGradGradGradGradGradGradGradGradGradGradGradGradGradGradGrad
 Berny optimization.
 FormGI is forming the generalized inverse of G from B-inverse, IUseBI=4.
 Internal  Forces:  Max     0.044322996 RMS     0.009505835
 Search for a local minimum.
 Step number   1 out of a maximum of   77
 All quantities printed in internal units (Hartrees-Bohrs-Radians)
 RMS Force = .95058D-02 SwitMx=.10000D-02 MixMth= 1
 Mixed Optimization -- RFO/linear search
 Second derivative matrix not updated -- first step.
 ITU=  0
     Eigenvalues ---    0.01833   0.01849   0.01880   0.01918   0.01933
     Eigenvalues ---    0.01972   0.01973   0.01998   0.02009   0.02011
     Eigenvalues ---    0.02013   0.02275   0.16000   0.16000   0.16000
     Eigenvalues ---    0.16000   0.16000   0.16000   0.21998   0.22000
     Eigenvalues ---    0.23465   0.24996   0.24999   0.25000   0.34811
     Eigenvalues ---    0.34813   0.34813   0.34813   0.34813   0.39993
     Eigenvalues ---    0.40184   0.42560   0.43219   0.43918   0.44502
     Eigenvalues ---    0.44657   0.53781   0.55480   0.82188
 RFO step:  Lambda=-1.42358003D-02 EMin= 1.83292290D-02
 Linear search not attempted -- first point.
 Iteration  1 RMS(Cart)=  0.04282616 RMS(Int)=  0.00218050
 Iteration  2 RMS(Cart)=  0.00301446 RMS(Int)=  0.00058232
 Iteration  3 RMS(Cart)=  0.00000846 RMS(Int)=  0.00058229
 Iteration  4 RMS(Cart)=  0.00000001 RMS(Int)=  0.00058229
 ITry= 1 IFail=0 DXMaxC= 1.68D-01 DCOld= 1.00D+10 DXMaxT= 3.00D-01 DXLimC= 3.00D+00 Rises=F
 Variable       Old X    -DE/DX   Delta X   Delta X   Delta X     New X
                                 (Linear)    (Quad)   (Total)
    R1        2.56232   0.02093   0.00000   0.03791   0.03791   2.60023
    R2        1.81408   0.01029   0.00000   0.01808   0.01808   1.83216
    R3        2.68216   0.03874   0.00000   0.08808   0.08808   2.77024
    R4        2.36757  -0.04432   0.00000  -0.05301  -0.05301   2.31456
    R5        2.67898  -0.00934   0.00000  -0.02118  -0.02117   2.65780
    R6        2.67946  -0.01162   0.00000  -0.02638  -0.02638   2.65308
    R7        2.65973  -0.01367   0.00000  -0.02979  -0.02979   2.62994
    R8        2.05983  -0.00340   0.00000  -0.00938  -0.00938   2.05044
    R9        2.65726  -0.00914   0.00000  -0.01975  -0.01976   2.63750
   R10        2.05979  -0.00268   0.00000  -0.00740  -0.00740   2.05239
   R11        2.65599  -0.00623   0.00000  -0.01344  -0.01345   2.64254
   R12        2.05979  -0.00231   0.00000  -0.00638  -0.00638   2.05340
   R13        2.65717  -0.01439   0.00000  -0.03129  -0.03129   2.62588
   R14        2.05979  -0.00287   0.00000  -0.00791  -0.00791   2.05188
   R15        2.05979  -0.00385   0.00000  -0.01062  -0.01062   2.04917
    A1        1.91074   0.00261   0.00000   0.01500   0.01500   1.92574
    A2        2.12320  -0.02537   0.00000  -0.09514  -0.09750   2.02570
    A3        2.03206   0.02126   0.00000   0.08135   0.07890   2.11096
    A4        2.12760   0.00420   0.00000   0.01676   0.01449   2.14209
    A5        2.10891   0.00166   0.00000   0.00630   0.00630   2.11521
    A6        2.11020  -0.00540   0.00000  -0.02043  -0.02044   2.08977
    A7        2.06402   0.00374   0.00000   0.01417   0.01417   2.07819
    A8        2.10805  -0.00101   0.00000  -0.00404  -0.00406   2.10399
    A9        2.09378  -0.00181   0.00000  -0.01125  -0.01126   2.08252
   A10        2.08135   0.00282   0.00000   0.01529   0.01528   2.09663
   A11        2.09626  -0.00124   0.00000  -0.00468  -0.00470   2.09156
   A12        2.09440  -0.00004   0.00000  -0.00143  -0.00142   2.09298
   A13        2.09253   0.00128   0.00000   0.00611   0.00612   2.09865
   A14        2.09215   0.00058   0.00000   0.00316   0.00313   2.09529
   A15        2.09595  -0.00050   0.00000  -0.00276  -0.00275   2.09320
   A16        2.09508  -0.00008   0.00000  -0.00040  -0.00038   2.09470
   A17        2.09507   0.00055   0.00000   0.00275   0.00272   2.09779
   A18        2.09371   0.00067   0.00000   0.00403   0.00404   2.09774
   A19        2.09441  -0.00121   0.00000  -0.00677  -0.00676   2.08765
   A20        2.11052  -0.00260   0.00000  -0.01104  -0.01105   2.09947
   A21        2.09366  -0.00265   0.00000  -0.01715  -0.01714   2.07652
   A22        2.07900   0.00525   0.00000   0.02819   0.02819   2.10719
    D1        1.55232   0.00284   0.00000   0.08368   0.08502   1.63734
    D2       -1.56223  -0.00120   0.00000  -0.03916  -0.04050  -1.60273
    D3        0.13541  -0.00287   0.00000  -0.08491  -0.08418   0.05123
    D4       -2.99565  -0.00302   0.00000  -0.08860  -0.08781  -3.08346
    D5       -3.03471   0.00162   0.00000   0.04554   0.04475  -2.98996
    D6        0.11743   0.00147   0.00000   0.04184   0.04111   0.15854
    D7       -3.10771  -0.00060   0.00000  -0.01894  -0.01898  -3.12669
    D8        0.03386  -0.00028   0.00000  -0.00944  -0.00956   0.02430
    D9        0.02362  -0.00051   0.00000  -0.01555  -0.01558   0.00804
   D10       -3.11800  -0.00019   0.00000  -0.00604  -0.00615  -3.12415
   D11        3.10672   0.00052   0.00000   0.01534   0.01528   3.12199
   D12       -0.03496   0.00055   0.00000   0.01633   0.01630  -0.01867
   D13       -0.02460   0.00039   0.00000   0.01178   0.01176  -0.01284
   D14        3.11691   0.00041   0.00000   0.01277   0.01278   3.12969
   D15       -0.00674   0.00033   0.00000   0.00905   0.00898   0.00225
   D16        3.13484   0.00035   0.00000   0.00987   0.00984  -3.13850
   D17        3.13488   0.00001   0.00000  -0.00038  -0.00052   3.13436
   D18       -0.00673   0.00003   0.00000   0.00043   0.00034  -0.00639
   D19       -0.00980   0.00008   0.00000   0.00200   0.00195  -0.00785
   D20        3.13186   0.00006   0.00000   0.00168   0.00168   3.13354
   D21        3.13180   0.00006   0.00000   0.00118   0.00109   3.13289
   D22       -0.00972   0.00004   0.00000   0.00086   0.00083  -0.00890
   D23        0.00886  -0.00021   0.00000  -0.00582  -0.00580   0.00306
   D24       -3.13289  -0.00016   0.00000  -0.00427  -0.00424  -3.13713
   D25       -3.13281  -0.00019   0.00000  -0.00551  -0.00553  -3.13834
   D26        0.00863  -0.00013   0.00000  -0.00396  -0.00397   0.00466
   D27        0.00865  -0.00006   0.00000  -0.00131  -0.00127   0.00738
   D28       -3.13285  -0.00008   0.00000  -0.00230  -0.00231  -3.13516
   D29       -3.13278  -0.00011   0.00000  -0.00286  -0.00282  -3.13560
   D30        0.00890  -0.00013   0.00000  -0.00384  -0.00386   0.00504
         Item               Value     Threshold  Converged?
 Maximum Force            0.044323     0.000450     NO 
 RMS     Force            0.009506     0.000300     NO 
 Maximum Displacement     0.168085     0.001800     NO 
 RMS     Displacement     0.044149     0.001200     NO 
 Predicted change in Energy=-7.571978D-03
 Lowest energy point so far.  Saving SCF results.
 GradGradGradGradGradGradGradGradGradGradGradGradGradGradGradGradGradGrad

 Leave Link  103 at Mon Oct 14 00:33:38 2019, MaxMem= 10737418240 cpu:               1.1 elap:               0.1
 (Enter /apps/cent7/gaussian/g16-A.03/g16-haswell/g16/l202.exe)
                          Input orientation:                          
 ---------------------------------------------------------------------
 Center     Atomic      Atomic             Coordinates (Angstroms)
 Number     Number       Type             X           Y           Z
 ---------------------------------------------------------------------
      1          8           0       -2.677994   -0.057359    0.323990
      2          6           0       -2.088640    1.179149    0.193462
      3          6           0       -0.626369    1.188026    0.090063
      4          6           0        0.109237   -0.010407    0.062816
      5          6           0        1.498391    0.013925   -0.017837
      6          6           0        2.169671    1.236505   -0.069542
      7          6           0        1.447054    2.433534   -0.049827
      8          6           0        0.059687    2.411199    0.024892
      9          8           0       -2.767837    2.190203    0.064533
     10          1           0       -2.813352   -0.268947    1.260426
     11          1           0       -0.417833   -0.958243    0.096486
     12          1           0        2.056059   -0.917760   -0.041112
     13          1           0        3.254671    1.257378   -0.124963
     14          1           0        1.966729    3.385877   -0.094130
     15          1           0       -0.509674    3.334019    0.034743
 ---------------------------------------------------------------------
                    Distance matrix (angstroms):
                    1          2          3          4          5
     1  O    0.000000
     2  C    1.375983   0.000000
     3  C    2.411405   1.465949   0.000000
     4  C    2.799834   2.502553   1.406449   0.000000
     5  C    4.190958   3.777458   2.429972   1.391707   0.000000
     6  C    5.032774   4.266810   2.801011   2.411991   1.395705
     7  C    4.833251   3.759495   2.422796   2.788421   2.420365
     8  C    3.698397   2.482271   1.403949   2.422410   2.796180
     9  O    2.264272   1.224812   2.364508   3.622187   4.789956
    10  H    0.969538   1.939227   2.876703   3.169012   4.506119
    11  H    2.443702   2.714672   2.156386   1.085049   2.151766
    12  H    4.825437   4.650868   3.412764   2.150397   1.086080
    13  H    6.093161   5.353362   3.887611   3.396512   2.154570
    14  H    5.796909   4.625838   3.404208   3.874229   3.405176
    15  H    4.035681   2.676152   2.149875   3.401327   3.880479
                    6          7          8          9         10
     6  C    0.000000
     7  C    1.398371   0.000000
     8  C    2.416787   1.389558   0.000000
     9  O    5.030557   4.223458   2.836424   0.000000
    10  H    5.372683   5.212603   4.118748   2.734895   0.000000
    11  H    3.397009   3.873418   3.403865   3.928900   2.751072
    12  H    2.157447   3.406191   3.882245   5.739387   5.081941
    13  H    1.086615   2.157885   3.400248   6.097268   6.408578
    14  H    2.159071   1.085809   2.144988   4.885788   6.167798
    15  H    3.404311   2.155647   1.084373   2.531502   4.448662
                   11         12         13         14         15
    11  H    0.000000
    12  H    2.478046   0.000000
    13  H    4.294800   2.484940   0.000000
    14  H    4.959219   4.304890   2.488022   0.000000
    15  H    4.293689   4.966524   4.302120   2.480297   0.000000
 Stoichiometry    C7H6O2
 Framework group  C1[X(C7H6O2)]
 Deg. of freedom    39
 Full point group                 C1      NOp   1
 RotChk:  IX=0 Diff= 7.85D-03
 Largest Abelian subgroup         C1      NOp   1
 Largest concise Abelian subgroup C1      NOp   1
                         Standard orientation:                         
 ---------------------------------------------------------------------
 Center     Atomic      Atomic             Coordinates (Angstroms)
 Number     Number       Type             X           Y           Z
 ---------------------------------------------------------------------
      1          8           0       -2.372275   -1.070176    0.012638
      2          6           0       -1.702427    0.131641   -0.003743
      3          6           0       -0.238604    0.053096   -0.011474
      4          6           0        0.424097   -1.186322   -0.064095
      5          6           0        1.814475   -1.246099   -0.052963
      6          6           0        2.559681   -0.067869    0.013623
      7          6           0        1.910347    1.169750    0.059498
      8          6           0        0.522274    1.231741    0.042693
      9          8           0       -2.309480    1.189654   -0.114458
     10          1           0       -2.583815   -1.325632    0.923680
     11          1           0       -0.159821   -2.098986   -0.122538
     12          1           0        2.315666   -2.208622   -0.096877
     13          1           0        3.645230   -0.113127    0.029975
     14          1           0        2.487897    2.087981    0.107147
     15          1           0        0.009825    2.186940    0.071937
 ---------------------------------------------------------------------
 Rotational constants (GHZ):           3.8014375           1.2297231           0.9334298
 Leave Link  202 at Mon Oct 14 00:33:38 2019, MaxMem= 10737418240 cpu:               0.2 elap:               0.0
 (Enter /apps/cent7/gaussian/g16-A.03/g16-haswell/g16/l301.exe)
 Standard basis: 6-31G(d) (6D, 7F)
 Ernie: Thresh=  0.10000D-02 Tol=  0.10000D-05 Strict=F.
 There are   147 symmetry adapted cartesian basis functions of A   symmetry.
 There are   147 symmetry adapted basis functions of A   symmetry.
   147 basis functions,   276 primitive gaussians,   147 cartesian basis functions
    32 alpha electrons       32 beta electrons
       nuclear repulsion energy       404.0877942954 Hartrees.
 IExCor=  402 DFT=T Ex+Corr=B3LYP ExCW=0 ScaHFX=  0.200000
 ScaDFX=  0.800000  0.720000  1.000000  0.810000 ScalE2=  1.000000  1.000000
 IRadAn=      5 IRanWt=     -1 IRanGd=            0 ICorTp=0 IEmpDi=  4
 NAtoms=   15 NActive=   15 NUniq=   15 SFac= 1.00D+00 NAtFMM=   60 NAOKFM=F Big=F
 Integral buffers will be    131072 words long.
 Raffenetti 2 integral format.
 Two-electron integral symmetry is turned on.
 Leave Link  301 at Mon Oct 14 00:33:38 2019, MaxMem= 10737418240 cpu:               1.2 elap:               0.1
 (Enter /apps/cent7/gaussian/g16-A.03/g16-haswell/g16/l302.exe)
 NPDir=0 NMtPBC=     1 NCelOv=     1 NCel=       1 NClECP=     1 NCelD=      1
         NCelK=      1 NCelE2=     1 NClLst=     1 CellRange=     0.0.
 One-electron integrals computed using PRISM.
 One-electron integral symmetry used in STVInt
 NBasis=   147 RedAO= T EigKep=  4.69D-04  NBF=   147
 NBsUse=   147 1.00D-06 EigRej= -1.00D+00 NBFU=   147
 Precomputing XC quadrature grid using
 IXCGrd= 4 IRadAn=           5 IRanWt=          -1 IRanGd=           0 AccXCQ= 0.00D+00.
 Generated NRdTot=       0 NPtTot=           0 NUsed=           0 NTot=          32
 NSgBfM=   147   147   147   147   147 MxSgAt=    15 MxSgA2=    15.
 Leave Link  302 at Mon Oct 14 00:33:39 2019, MaxMem= 10737418240 cpu:               2.9 elap:               0.1
 (Enter /apps/cent7/gaussian/g16-A.03/g16-haswell/g16/l303.exe)
 DipDrv:  MaxL=1.
 Leave Link  303 at Mon Oct 14 00:33:39 2019, MaxMem= 10737418240 cpu:               0.6 elap:               0.0
 (Enter /apps/cent7/gaussian/g16-A.03/g16-haswell/g16/l401.exe)
 Initial guess from the checkpoint file:  "14.chk"
 B after Tr=    -0.000000    0.000000   -0.000000
         Rot=    0.999997   -0.001888   -0.000164   -0.001460 Ang=  -0.27 deg.
 Guess basis will be translated and rotated to current coordinates.
 JPrj=2 DoOrth=T DoCkMO=T.
 Generating alternative initial guess.
 ExpMin= 1.61D-01 ExpMax= 5.48D+03 ExpMxC= 8.25D+02 IAcc=2 IRadAn=         4 AccDes= 0.00D+00
 Harris functional with IExCor=  402 and IRadAn=       4 diagonalized for initial guess.
 HarFok:  IExCor=  402 AccDes= 0.00D+00 IRadAn=         4 IDoV= 1 UseB2=F ITyADJ=14
 ICtDFT=  3500011 ScaDFX=  1.000000  1.000000  1.000000  1.000000
 FoFCou: FMM=F IPFlag=           0 FMFlag=      100000 FMFlg1=           0
         NFxFlg=           0 DoJE=T BraDBF=F KetDBF=T FulRan=T
         wScrn=  0.000000 ICntrl=       500 IOpCl=  0 I1Cent=   200000004 NGrid=           0
         NMat0=    1 NMatS0=      1 NMatT0=    0 NMatD0=    1 NMtDS0=    0 NMtDT0=    0
 Petite list used in FoFCou.
 Harris En= -420.830967449579    
 Leave Link  401 at Mon Oct 14 00:33:39 2019, MaxMem= 10737418240 cpu:               5.6 elap:               0.3
 (Enter /apps/cent7/gaussian/g16-A.03/g16-haswell/g16/l502.exe)
 Integral symmetry usage will be decided dynamically.
 Closed shell SCF:
 Using DIIS extrapolation, IDIIS=  1040.
 NGot= 10737418240 LenX= 10737369810 LenY= 10737347760
 Requested convergence on RMS density matrix=1.00D-08 within 128 cycles.
 Requested convergence on MAX density matrix=1.00D-06.
 Requested convergence on             energy=1.00D-06.
 No special actions if energy rises.
 Fock matrices will be formed incrementally for  20 cycles.
 Integral accuracy reduced to 1.0D-05 until final iterations.

 Cycle   1  Pass 0  IDiag  1:
 FoFJK:  IHMeth= 1 ICntrl=       0 DoSepK=F KAlg= 0 I1Cent=           0 FoldK=F
 IRaf= 940000000 NMat=       1 IRICut=       1 DoRegI=T DoRafI=F ISym2E= 0 IDoP0=0 IntGTp=1.
 FoFCou: FMM=F IPFlag=           0 FMFlag=      100000 FMFlg1=           0
         NFxFlg=           0 DoJE=F BraDBF=F KetDBF=F FulRan=T
         wScrn=  0.000000 ICntrl=         0 IOpCl=  0 I1Cent=           0 NGrid=           0
         NMat0=    1 NMatS0=      1 NMatT0=    0 NMatD0=    1 NMtDS0=    0 NMtDT0=    0
 Symmetry not used in FoFCou.
 E= -420.791504235287    
 DIIS: error= 5.32D-03 at cycle   1 NSaved=   1.
 NSaved= 1 IEnMin= 1 EnMin= -420.791504235287     IErMin= 1 ErrMin= 5.32D-03
 ErrMax= 5.32D-03  0.00D+00 EMaxC= 1.00D-01 BMatC= 5.12D-03 BMatP= 5.12D-03
 IDIUse=3 WtCom= 9.47D-01 WtEn= 5.32D-02
 Coeff-Com:  0.100D+01
 Coeff-En:   0.100D+01
 Coeff:      0.100D+01
 Gap=     1.951 Goal=   None    Shift=    0.000
 GapD=    1.951 DampG=2.000 DampE=1.000 DampFc=2.0000 IDamp=-1.
 RMSDP=1.12D-03 MaxDP=1.47D-02              OVMax= 3.07D-02

 Cycle   2  Pass 0  IDiag  1:
 RMSU=  1.12D-03    CP:  9.98D-01
 E= -420.798468388147     Delta-E=       -0.006964152860 Rises=F Damp=F
 DIIS: error= 2.96D-03 at cycle   2 NSaved=   2.
 NSaved= 2 IEnMin= 2 EnMin= -420.798468388147     IErMin= 2 ErrMin= 2.96D-03
 ErrMax= 2.96D-03  0.00D+00 EMaxC= 1.00D-01 BMatC= 2.12D-03 BMatP= 5.12D-03
 IDIUse=3 WtCom= 9.70D-01 WtEn= 2.96D-02
 Coeff-Com:  0.326D+00 0.674D+00
 Coeff-En:   0.000D+00 0.100D+01
 Coeff:      0.316D+00 0.684D+00
 Gap=     0.202 Goal=   None    Shift=    0.000
 RMSDP=5.49D-04 MaxDP=2.13D-02 DE=-6.96D-03 OVMax= 2.85D-02

 Cycle   3  Pass 0  IDiag  1:
 RMSU=  5.32D-04    CP:  9.99D-01  8.80D-01
 E= -420.797714945077     Delta-E=        0.000753443070 Rises=F Damp=F
 DIIS: error= 4.61D-03 at cycle   3 NSaved=   3.
 NSaved= 3 IEnMin= 2 EnMin= -420.798468388147     IErMin= 2 ErrMin= 2.96D-03
 ErrMax= 4.61D-03  0.00D+00 EMaxC= 1.00D-01 BMatC= 3.07D-03 BMatP= 2.12D-03
 IDIUse=3 WtCom= 1.28D-01 WtEn= 8.72D-01
 Coeff-Com: -0.317D-01 0.558D+00 0.473D+00
 Coeff-En:   0.000D+00 0.570D+00 0.430D+00
 Coeff:     -0.407D-02 0.568D+00 0.436D+00
 Gap=     0.204 Goal=   None    Shift=    0.000
 RMSDP=3.22D-04 MaxDP=1.23D-02 DE= 7.53D-04 OVMax= 1.57D-02

 Cycle   4  Pass 0  IDiag  1:
 RMSU=  8.81D-05    CP:  9.98D-01  9.93D-01  4.70D-01
 E= -420.800099022044     Delta-E=       -0.002384076967 Rises=F Damp=F
 DIIS: error= 4.84D-04 at cycle   4 NSaved=   4.
 NSaved= 4 IEnMin= 4 EnMin= -420.800099022044     IErMin= 4 ErrMin= 4.84D-04
 ErrMax= 4.84D-04  0.00D+00 EMaxC= 1.00D-01 BMatC= 3.38D-05 BMatP= 2.12D-03
 IDIUse=3 WtCom= 9.95D-01 WtEn= 4.84D-03
 Coeff-Com: -0.237D-01 0.262D+00 0.209D+00 0.553D+00
 Coeff-En:   0.000D+00 0.000D+00 0.000D+00 0.100D+01
 Coeff:     -0.236D-01 0.260D+00 0.208D+00 0.555D+00
 Gap=     0.203 Goal=   None    Shift=    0.000
 RMSDP=5.23D-05 MaxDP=1.22D-03 DE=-2.38D-03 OVMax= 2.36D-03

 Cycle   5  Pass 0  IDiag  1:
 RMSU=  3.38D-05    CP:  9.98D-01  9.98D-01  4.55D-01  5.61D-01
 E= -420.800130817963     Delta-E=       -0.000031795919 Rises=F Damp=F
 DIIS: error= 1.40D-04 at cycle   5 NSaved=   5.
 NSaved= 5 IEnMin= 5 EnMin= -420.800130817963     IErMin= 5 ErrMin= 1.40D-04
 ErrMax= 1.40D-04  0.00D+00 EMaxC= 1.00D-01 BMatC= 3.57D-06 BMatP= 3.38D-05
 IDIUse=3 WtCom= 9.99D-01 WtEn= 1.40D-03
 Coeff-Com: -0.716D-02 0.579D-01 0.475D-01 0.271D+00 0.631D+00
 Coeff-En:   0.000D+00 0.000D+00 0.000D+00 0.218D-01 0.978D+00
 Coeff:     -0.715D-02 0.578D-01 0.474D-01 0.271D+00 0.631D+00
 Gap=     0.203 Goal=   None    Shift=    0.000
 RMSDP=1.52D-05 MaxDP=3.98D-04 DE=-3.18D-05 OVMax= 7.82D-04

 Cycle   6  Pass 0  IDiag  1:
 RMSU=  9.86D-06    CP:  9.98D-01  9.98D-01  4.63D-01  6.56D-01  7.95D-01
 E= -420.800134182714     Delta-E=       -0.000003364751 Rises=F Damp=F
 DIIS: error= 3.51D-05 at cycle   6 NSaved=   6.
 NSaved= 6 IEnMin= 6 EnMin= -420.800134182714     IErMin= 6 ErrMin= 3.51D-05
 ErrMax= 3.51D-05  0.00D+00 EMaxC= 1.00D-01 BMatC= 2.27D-07 BMatP= 3.57D-06
 IDIUse=1 WtCom= 1.00D+00 WtEn= 0.00D+00
 Coeff-Com: -0.187D-02 0.109D-01 0.883D-02 0.991D-01 0.295D+00 0.588D+00
 Coeff:     -0.187D-02 0.109D-01 0.883D-02 0.991D-01 0.295D+00 0.588D+00
 Gap=     0.203 Goal=   None    Shift=    0.000
 RMSDP=5.45D-06 MaxDP=1.06D-04 DE=-3.36D-06 OVMax= 3.35D-04

 Initial convergence to 1.0D-05 achieved.  Increase integral accuracy.
 Cycle   7  Pass 1  IDiag  1:
 E= -420.800135092452     Delta-E=       -0.000000909739 Rises=F Damp=F
 DIIS: error= 2.29D-05 at cycle   1 NSaved=   1.
 NSaved= 1 IEnMin= 1 EnMin= -420.800135092452     IErMin= 1 ErrMin= 2.29D-05
 ErrMax= 2.29D-05  0.00D+00 EMaxC= 1.00D-01 BMatC= 8.14D-08 BMatP= 8.14D-08
 IDIUse=1 WtCom= 1.00D+00 WtEn= 0.00D+00
 Coeff-Com:  0.100D+01
 Coeff:      0.100D+01
 Gap=     0.203 Goal=   None    Shift=    0.000
 RMSDP=5.45D-06 MaxDP=1.06D-04 DE=-9.10D-07 OVMax= 3.64D-04

 Cycle   8  Pass 1  IDiag  1:
 RMSU=  7.30D-06    CP:  1.00D+00
 E= -420.800134883083     Delta-E=        0.000000209369 Rises=F Damp=F
 DIIS: error= 4.52D-05 at cycle   2 NSaved=   2.
 NSaved= 2 IEnMin= 1 EnMin= -420.800135092452     IErMin= 1 ErrMin= 2.29D-05
 ErrMax= 4.52D-05  0.00D+00 EMaxC= 1.00D-01 BMatC= 2.64D-07 BMatP= 8.14D-08
 IDIUse=1 WtCom= 1.00D+00 WtEn= 0.00D+00
 Coeff-Com:  0.651D+00 0.349D+00
 Coeff:      0.651D+00 0.349D+00
 Gap=     0.203 Goal=   None    Shift=    0.000
 RMSDP=3.97D-06 MaxDP=8.88D-05 DE= 2.09D-07 OVMax= 2.58D-04

 Cycle   9  Pass 1  IDiag  1:
 RMSU=  2.39D-06    CP:  1.00D+00  5.66D-01
 E= -420.800135182221     Delta-E=       -0.000000299138 Rises=F Damp=F
 DIIS: error= 2.28D-06 at cycle   3 NSaved=   3.
 NSaved= 3 IEnMin= 3 EnMin= -420.800135182221     IErMin= 3 ErrMin= 2.28D-06
 ErrMax= 2.28D-06  0.00D+00 EMaxC= 1.00D-01 BMatC= 1.45D-09 BMatP= 8.14D-08
 IDIUse=1 WtCom= 1.00D+00 WtEn= 0.00D+00
 Coeff-Com:  0.699D-01 0.830D-01 0.847D+00
 Coeff:      0.699D-01 0.830D-01 0.847D+00
 Gap=     0.203 Goal=   None    Shift=    0.000
 RMSDP=4.52D-07 MaxDP=1.35D-05 DE=-2.99D-07 OVMax= 1.98D-05

 Cycle  10  Pass 1  IDiag  1:
 RMSU=  4.10D-07    CP:  1.00D+00  5.91D-01  9.88D-01
 E= -420.800135182850     Delta-E=       -0.000000000629 Rises=F Damp=F
 DIIS: error= 2.09D-06 at cycle   4 NSaved=   4.
 NSaved= 4 IEnMin= 4 EnMin= -420.800135182850     IErMin= 4 ErrMin= 2.09D-06
 ErrMax= 2.09D-06  0.00D+00 EMaxC= 1.00D-01 BMatC= 1.09D-09 BMatP= 1.45D-09
 IDIUse=1 WtCom= 1.00D+00 WtEn= 0.00D+00
 Coeff-Com:  0.130D-02 0.315D-01 0.551D+00 0.416D+00
 Coeff:      0.130D-02 0.315D-01 0.551D+00 0.416D+00
 Gap=     0.203 Goal=   None    Shift=    0.000
 RMSDP=2.52D-07 MaxDP=9.42D-06 DE=-6.29D-10 OVMax= 1.05D-05

 Cycle  11  Pass 1  IDiag  1:
 RMSU=  1.39D-07    CP:  1.00D+00  5.93D-01  9.90D-01  4.91D-01
 E= -420.800135183724     Delta-E=       -0.000000000874 Rises=F Damp=F
 DIIS: error= 9.20D-07 at cycle   5 NSaved=   5.
 NSaved= 5 IEnMin= 5 EnMin= -420.800135183724     IErMin= 5 ErrMin= 9.20D-07
 ErrMax= 9.20D-07  0.00D+00 EMaxC= 1.00D-01 BMatC= 7.93D-11 BMatP= 1.09D-09
 IDIUse=1 WtCom= 1.00D+00 WtEn= 0.00D+00
 Coeff-Com: -0.613D-02 0.113D-01 0.240D+00 0.258D+00 0.497D+00
 Coeff:     -0.613D-02 0.113D-01 0.240D+00 0.258D+00 0.497D+00
 Gap=     0.203 Goal=   None    Shift=    0.000
 RMSDP=6.40D-08 MaxDP=1.86D-06 DE=-8.74D-10 OVMax= 2.97D-06

 Cycle  12  Pass 1  IDiag  1:
 RMSU=  5.64D-08    CP:  1.00D+00  5.93D-01  9.90D-01  5.28D-01  8.11D-01
 E= -420.800135183788     Delta-E=       -0.000000000064 Rises=F Damp=F
 DIIS: error= 1.87D-07 at cycle   6 NSaved=   6.
 NSaved= 6 IEnMin= 6 EnMin= -420.800135183788     IErMin= 6 ErrMin= 1.87D-07
 ErrMax= 1.87D-07  0.00D+00 EMaxC= 1.00D-01 BMatC= 5.85D-12 BMatP= 7.93D-11
 IDIUse=1 WtCom= 1.00D+00 WtEn= 0.00D+00
 Coeff-Com: -0.352D-02 0.495D-03 0.240D-01 0.628D-01 0.242D+00 0.674D+00
 Coeff:     -0.352D-02 0.495D-03 0.240D-01 0.628D-01 0.242D+00 0.674D+00
 Gap=     0.203 Goal=   None    Shift=    0.000
 RMSDP=2.68D-08 MaxDP=4.60D-07 DE=-6.36D-11 OVMax= 1.72D-06

 Cycle  13  Pass 1  IDiag  1:
 RMSU=  1.80D-08    CP:  1.00D+00  5.94D-01  9.90D-01  5.57D-01  8.92D-01
                    CP:  8.96D-01
 E= -420.800135183794     Delta-E=       -0.000000000006 Rises=F Damp=F
 DIIS: error= 6.01D-08 at cycle   7 NSaved=   7.
 NSaved= 7 IEnMin= 7 EnMin= -420.800135183794     IErMin= 7 ErrMin= 6.01D-08
 ErrMax= 6.01D-08  0.00D+00 EMaxC= 1.00D-01 BMatC= 6.22D-13 BMatP= 5.85D-12
 IDIUse=1 WtCom= 1.00D+00 WtEn= 0.00D+00
 Coeff-Com: -0.624D-03-0.135D-02-0.213D-01-0.875D-02 0.311D-01 0.278D+00
 Coeff-Com:  0.723D+00
 Coeff:     -0.624D-03-0.135D-02-0.213D-01-0.875D-02 0.311D-01 0.278D+00
 Coeff:      0.723D+00
 Gap=     0.203 Goal=   None    Shift=    0.000
 RMSDP=1.09D-08 MaxDP=2.39D-07 DE=-5.91D-12 OVMax= 7.19D-07

 Cycle  14  Pass 1  IDiag  1:
 RMSU=  7.06D-09    CP:  1.00D+00  5.94D-01  9.91D-01  5.62D-01  9.21D-01
                    CP:  9.95D-01  7.97D-01
 E= -420.800135183794     Delta-E=       -0.000000000000 Rises=F Damp=F
 DIIS: error= 4.63D-08 at cycle   8 NSaved=   8.
 NSaved= 8 IEnMin= 8 EnMin= -420.800135183794     IErMin= 8 ErrMin= 4.63D-08
 ErrMax= 4.63D-08  0.00D+00 EMaxC= 1.00D-01 BMatC= 2.82D-13 BMatP= 6.22D-13
 IDIUse=1 WtCom= 1.00D+00 WtEn= 0.00D+00
 Coeff-Com:  0.165D-03-0.985D-03-0.179D-01-0.165D-01-0.172D-01 0.765D-01
 Coeff-Com:  0.468D+00 0.508D+00
 Coeff:      0.165D-03-0.985D-03-0.179D-01-0.165D-01-0.172D-01 0.765D-01
 Coeff:      0.468D+00 0.508D+00
 Gap=     0.203 Goal=   None    Shift=    0.000
 RMSDP=4.64D-09 MaxDP=9.05D-08 DE=-4.55D-13 OVMax= 2.53D-07

 SCF Done:  E(RB3LYP) =  -420.800135184     A.U. after   14 cycles
            NFock= 14  Conv=0.46D-08     -V/T= 2.0093
 KE= 4.169378726479D+02 PE=-1.789147691092D+03 EE= 5.473218889645D+02
 Leave Link  502 at Mon Oct 14 00:33:41 2019, MaxMem= 10737418240 cpu:              59.2 elap:               2.5
 (Enter /apps/cent7/gaussian/g16-A.03/g16-haswell/g16/l701.exe)
 ... and contract with generalized density number  0.
 Compute integral first derivatives.
 Leave Link  701 at Mon Oct 14 00:33:42 2019, MaxMem= 10737418240 cpu:               2.8 elap:               0.1
 (Enter /apps/cent7/gaussian/g16-A.03/g16-haswell/g16/l702.exe)
 L702 exits ... SP integral derivatives will be done elsewhere.
 Leave Link  702 at Mon Oct 14 00:33:42 2019, MaxMem= 10737418240 cpu:               0.5 elap:               0.0
 (Enter /apps/cent7/gaussian/g16-A.03/g16-haswell/g16/l703.exe)
 Integral derivatives from FoFJK, PRISM(SPDF).
 Compute integral first derivatives, UseDBF=F ICtDFT=           0.
 Calling FoFJK, ICntrl=      2127 FMM=F ISym2X=0 I1Cent= 0 IOpClX= 0 NMat=1 NMatS=1 NMatT=0.
 FoFJK:  IHMeth= 1 ICntrl=    2127 DoSepK=F KAlg= 0 I1Cent=           0 FoldK=F
 IRaf=         0 NMat=       1 IRICut=       1 DoRegI=T DoRafI=F ISym2E= 0 IDoP0=0 IntGTp=1.
 FoFCou: FMM=F IPFlag=           0 FMFlag=      100000 FMFlg1=         800
         NFxFlg=           0 DoJE=F BraDBF=F KetDBF=F FulRan=T
         wScrn=  0.000000 ICntrl=      2127 IOpCl=  0 I1Cent=           0 NGrid=           0
         NMat0=    1 NMatS0=      1 NMatT0=    0 NMatD0=    1 NMtDS0=    0 NMtDT0=    0
 Symmetry not used in FoFCou.
 Leave Link  703 at Mon Oct 14 00:33:42 2019, MaxMem= 10737418240 cpu:              14.0 elap:               0.6
 (Enter /apps/cent7/gaussian/g16-A.03/g16-haswell/g16/l716.exe)
 Dipole        = 1.06234874D+00-6.91940986D-01 6.91387768D-01
 ***** Axes restored to original set *****
 -------------------------------------------------------------------
 Center     Atomic                   Forces (Hartrees/Bohr)
 Number     Number              X              Y              Z
 -------------------------------------------------------------------
      1        8          -0.000061949   -0.007200886    0.001788759
      2        6          -0.021036422    0.029127507   -0.010754087
      3        6           0.014775440   -0.006746086    0.001151870
      4        6          -0.002125938   -0.000564928    0.000851593
      5        6           0.000645862    0.000735480   -0.000238010
      6        6           0.000617006    0.000442859    0.000100787
      7        6           0.001165123   -0.000042712   -0.000275275
      8        6          -0.001808699    0.001017051   -0.000111841
      9        8           0.010252147   -0.018133770    0.006412551
     10        1          -0.001751376    0.000498049    0.000917851
     11        1          -0.000510137    0.000694552    0.000110519
     12        1           0.000148239   -0.000151257   -0.000034557
     13        1           0.000158638    0.000206668   -0.000182444
     14        1           0.000556881    0.000187257   -0.000030388
     15        1          -0.001024816   -0.000069785    0.000292670
 -------------------------------------------------------------------
 Cartesian Forces:  Max     0.029127507 RMS     0.007025867
 Leave Link  716 at Mon Oct 14 00:33:42 2019, MaxMem= 10737418240 cpu:               0.5 elap:               0.0
 (Enter /apps/cent7/gaussian/g16-A.03/g16-haswell/g16/l103.exe)

 GradGradGradGradGradGradGradGradGradGradGradGradGradGradGradGradGradGrad
 Berny optimization.
 Using GEDIIS/GDIIS optimizer.
 FormGI is forming the generalized inverse of G from B-inverse, IUseBI=4.
 Internal  Forces:  Max     0.021329786 RMS     0.003341419
 Search for a local minimum.
 Step number   2 out of a maximum of   77
 All quantities printed in internal units (Hartrees-Bohrs-Radians)
 RMS Force = .33414D-02 SwitMx=.10000D-02 MixMth= 1
 Mixed Optimization -- RFO/linear search
 Update second derivatives using D2CorX and points    1    2
 DE= -8.25D-03 DEPred=-7.57D-03 R= 1.09D+00
 TightC=F SS=  1.41D+00  RLast= 2.53D-01 DXNew= 5.0454D-01 7.5917D-01
 Trust test= 1.09D+00 RLast= 2.53D-01 DXMaxT set to 5.05D-01
 ITU=  1  0
 Use linear search instead of GDIIS.
     Eigenvalues ---    0.01826   0.01847   0.01876   0.01920   0.01935
     Eigenvalues ---    0.01971   0.01998   0.02009   0.02010   0.02013
     Eigenvalues ---    0.02253   0.02396   0.15822   0.16000   0.16000
     Eigenvalues ---    0.16000   0.16000   0.16036   0.21863   0.22000
     Eigenvalues ---    0.22492   0.23702   0.24980   0.26589   0.34746
     Eigenvalues ---    0.34813   0.34813   0.34813   0.34903   0.36373
     Eigenvalues ---    0.39999   0.40177   0.43247   0.44047   0.44626
     Eigenvalues ---    0.46493   0.52551   0.55512   0.75018
 RFO step:  Lambda=-2.95636462D-03 EMin= 1.82583737D-02
 Quartic linear search produced a step of  0.19360.
 Iteration  1 RMS(Cart)=  0.02291802 RMS(Int)=  0.00175212
 Iteration  2 RMS(Cart)=  0.00209086 RMS(Int)=  0.00104858
 Iteration  3 RMS(Cart)=  0.00000385 RMS(Int)=  0.00104857
 Iteration  4 RMS(Cart)=  0.00000001 RMS(Int)=  0.00104857
 ITry= 1 IFail=0 DXMaxC= 1.04D-01 DCOld= 1.00D+10 DXMaxT= 5.05D-01 DXLimC= 3.00D+00 Rises=F
 Variable       Old X    -DE/DX   Delta X   Delta X   Delta X     New X
                                 (Linear)    (Quad)   (Total)
    R1        2.60023   0.00706   0.00734   0.01747   0.02481   2.62504
    R2        1.83216   0.00102   0.00350   0.00307   0.00657   1.83873
    R3        2.77024   0.01242   0.01705   0.03888   0.05593   2.82617
    R4        2.31456  -0.02133  -0.01026  -0.03366  -0.04392   2.27064
    R5        2.65780  -0.00171  -0.00410  -0.00585  -0.00994   2.64786
    R6        2.65308   0.00026  -0.00511  -0.00060  -0.00570   2.64737
    R7        2.62994   0.00179  -0.00577   0.00340  -0.00237   2.62757
    R8        2.05044  -0.00036  -0.00182  -0.00164  -0.00345   2.04699
    R9        2.63750   0.00110  -0.00383   0.00211  -0.00172   2.63579
   R10        2.05239   0.00021  -0.00143   0.00037  -0.00106   2.05134
   R11        2.64254  -0.00002  -0.00260  -0.00058  -0.00319   2.63935
   R12        2.05340   0.00017  -0.00124   0.00030  -0.00094   2.05247
   R13        2.62588   0.00156  -0.00606   0.00272  -0.00334   2.62255
   R14        2.05188   0.00043  -0.00153   0.00112  -0.00041   2.05147
   R15        2.04917   0.00048  -0.00206   0.00117  -0.00089   2.04828
    A1        1.92574   0.00007   0.00290   0.00104   0.00394   1.92968
    A2        2.02570  -0.00291  -0.01888  -0.01247  -0.03626   1.98944
    A3        2.11096  -0.00075   0.01527   0.00521   0.01559   2.12655
    A4        2.14209   0.00398   0.00280   0.02485   0.02271   2.16480
    A5        2.11521   0.00225   0.00122   0.01108   0.01229   2.12750
    A6        2.08977  -0.00364  -0.00396  -0.01801  -0.02197   2.06780
    A7        2.07819   0.00139   0.00274   0.00697   0.00970   2.08789
    A8        2.10399  -0.00118  -0.00079  -0.00661  -0.00743   2.09656
    A9        2.08252  -0.00022  -0.00218  -0.00314  -0.00533   2.07719
   A10        2.09663   0.00140   0.00296   0.00969   0.01263   2.10926
   A11        2.09156   0.00058  -0.00091   0.00324   0.00231   2.09387
   A12        2.09298  -0.00024  -0.00028  -0.00136  -0.00163   2.09135
   A13        2.09865  -0.00034   0.00118  -0.00188  -0.00068   2.09797
   A14        2.09529  -0.00009   0.00061   0.00017   0.00076   2.09605
   A15        2.09320   0.00026  -0.00053   0.00144   0.00091   2.09411
   A16        2.09470  -0.00017  -0.00007  -0.00161  -0.00167   2.09303
   A17        2.09779  -0.00056   0.00053  -0.00253  -0.00202   2.09577
   A18        2.09774  -0.00013   0.00078  -0.00155  -0.00076   2.09698
   A19        2.08765   0.00069  -0.00131   0.00408   0.00278   2.09043
   A20        2.09947  -0.00013  -0.00214  -0.00112  -0.00327   2.09620
   A21        2.07652  -0.00088  -0.00332  -0.00723  -0.01055   2.06597
   A22        2.10719   0.00101   0.00546   0.00835   0.01381   2.12101
[...]
 ! D29   D(14,7,8,3)           180.0            -DE/DX =    0.0                 !
 ! D30   D(14,7,8,15)            0.0009         -DE/DX =    0.0                 !
 --------------------------------------------------------------------------------
 GradGradGradGradGradGradGradGradGradGradGradGradGradGradGradGradGradGrad

 Leave Link  103 at Mon Oct 14 00:34:41 2019, MaxMem= 10737418240 cpu:               0.5 elap:               0.0
 (Enter /apps/cent7/gaussian/g16-A.03/g16-haswell/g16/l9999.exe)

 ----------------------------------------------------------------------

 Electric dipole moment (input orientation):
 (Debye = 10**-18 statcoulomb cm , SI units = C m)
                  (au)            (Debye)         (10**-30 SI)
   Tot        0.754577D+00      0.191794D+01      0.639757D+01
   x          0.570190D+00      0.144928D+01      0.483427D+01
   y         -0.492266D+00     -0.125121D+01     -0.417360D+01
   z         -0.440863D-01     -0.112056D+00     -0.373779D+00

 Dipole polarizability, Alpha (input orientation).
 (esu units = cm**3 , SI units = C**2 m**2 J**-1)
 Alpha(0;0):
               (au)            (10**-24 esu)      (10**-40 SI)
   iso        0.728306D+02      0.107924D+02      0.120082D+02
   aniso      0.705837D+02      0.104594D+02      0.116377D+02
   xx         0.105506D+03      0.156344D+02      0.173957D+02
   yx         0.346240D+00      0.513074D-01      0.570872D-01
   yy         0.841459D+02      0.124691D+02      0.138738D+02
   zx        -0.933715D+01     -0.138362D+01     -0.153949D+01
   zy        -0.281097D+01     -0.416543D+00     -0.463467D+00
   zz         0.288395D+02      0.427358D+01      0.475500D+01

 ----------------------------------------------------------------------

 Dipole orientation:
     8         -2.71666549         -2.05318746         -3.54424364
     6         -0.92014763         -0.39921147         -4.33922893
     6          0.43953618          0.85248834         -2.22409591
     6         -0.11878024          0.33843190          0.31420701
     6          1.21580624          1.56705492          2.22384687
     6          3.10502087          3.30625988          1.61112928
     6          3.66417255          3.82105016         -0.91838004
     6          2.33613989          2.59852751         -2.83228028
     8         -0.51671332         -0.02776004         -6.56916578
     1         -3.46567172         -2.74268427         -5.07986693
     1         -1.58767858         -1.01376950          0.77551251
     1          0.78264312          1.16826191          4.19068180
     1          4.14197808          4.26084856          3.10498951
     1          5.13345781          5.17369229         -1.39415325
     1          2.73549544          2.96620421         -4.80955784

 Electric dipole moment (dipole orientation):
 (Debye = 10**-18 statcoulomb cm , SI units = C m)
                  (au)            (Debye)         (10**-30 SI)
   Tot        0.754577D+00      0.191794D+01      0.639757D+01
   x          0.000000D+00      0.000000D+00      0.000000D+00
   y          0.000000D+00      0.000000D+00      0.000000D+00
   z          0.754577D+00      0.191794D+01      0.639757D+01

 Dipole polarizability, Alpha (dipole orientation).
 (esu units = cm**3 , SI units = C**2 m**2 J**-1)
 Alpha(0;0):
               (au)            (10**-24 esu)      (10**-40 SI)
   iso        0.728306D+02      0.107924D+02      0.120082D+02
   aniso      0.705837D+02      0.104594D+02      0.116377D+02
   xx         0.637956D+02      0.945353D+01      0.105185D+02
   yx         0.333354D+02      0.493980D+01      0.549627D+01
   yy         0.582736D+02      0.863526D+01      0.960803D+01
   zx         0.820548D+01      0.121593D+01      0.135290D+01
   zy         0.755277D+01      0.111921D+01      0.124528D+01
   zz         0.964227D+02      0.142884D+02      0.158980D+02

 ----------------------------------------------------------------------
 1\1\GINC-BROWN-A185\Freq\RB3LYP\6-31G(d)\C7H6O2\FINEJ\14-Oct-2019\0\\#
 P Geom=AllCheck Guess=TCheck SCRF=Check GenChk RB3LYP/6-31G(d) Freq\\T
 itle Card Required\\0,1\O,-2.5518697685,-0.1245084467,0.4870841749\C,-
 2.0373632389,1.1272991008,0.3642790844\C,-0.5616217727,1.1367913288,0.
 1873031619\C,0.1946658598,-0.043237307,0.1546159318\C,1.5766165694,0.0
 235502497,-0.0139376632\C,2.2069249691,1.2628323201,-0.1500216676\C,1.
 4545308983,2.4402694336,-0.1176869728\C,0.0739316748,2.3785374321,0.05
 04836565\O,-2.7421110604,2.1166091274,0.4001347308\H,-3.51293875,-0.00
 18381982,0.596036733\H,-0.301428549,-1.0015729246,0.2609116506\H,2.162
 3915312,-0.8910965878,-0.0392101868\H,3.2847096998,1.3112303798,-0.281
 3103039\H,1.9450428105,3.4038346129,-0.223537951\H,-0.5316808733,3.278
 3994791,0.0788556212\\Version=ES64L-G16RevA.03\State=1-A\HF=-420.82213
 2\RMSD=1.694e-09\RMSF=1.862e-05\ZeroPoint=0.1159148\Thermal=0.1159148\
 Dipole=0.5701901,-0.4922658,-0.0440863\DipoleDeriv=-0.7485609,-0.41094
 87,0.0642209,-0.5180281,-1.0105794,0.0928367,0.0694564,0.080022,-0.392
 0181,1.9774016,0.0711701,-0.202597,0.2303751,1.4725151,-0.0843242,-0.2
 103882,-0.0652849,0.3410296,-0.586006,-0.0291622,0.0726386,-0.0453268,
 -0.0637574,0.009002,0.073438,0.0070736,0.0002191,0.1150288,0.1354646,-
 0.0307833,-0.0692918,0.018656,0.0031189,-0.020765,-0.0213936,-0.083340
 8,-0.107039,-0.1868568,0.007796,-0.1844039,0.0499095,0.0138139,0.00767
 24,0.0141199,-0.1199871,0.1470555,0.00435,-0.0277049,0.0160895,0.04031
 78,-0.0079522,-0.0282837,-0.0065513,-0.0790811,-0.1153921,0.1810501,-0
 .0091642,0.1512362,0.0785012,-0.0277078,-0.0077005,-0.0312646,-0.11543
 35,0.0880853,-0.1324087,-0.0136895,0.0886411,0.0116212,-0.0151141,-0.0
 245069,0.0113189,-0.0781689,-1.0865125,0.2941044,0.0716159,0.1919933,-
 0.8339544,-0.0001287,0.0766101,-0.0123358,-0.3759552,0.2547428,0.05802
 91,0.0078829,0.1430909,0.2949689,-0.0146963,0.0037204,-0.0045204,0.344
 1703,0.0735262,-0.0486392,0.0072138,-0.0506691,-0.0116047,0.0122073,0.
 0073189,0.0119771,0.1124635,0.0033888,0.0735691,0.009731,0.0849985,-0.
 0584321,-0.0016791,0.0091735,-0.0003159,0.1137904,-0.1093671,-0.007741
 4,0.0266752,-0.0076128,0.0660265,0.0030879,0.0266702,0.0031025,0.10713
 42,0.0195148,-0.0652797,0.0146338,-0.0748513,-0.0692783,0.0179838,0.01
 51005,0.0168344,0.1124997,0.0741336,0.0632993,0.0015309,0.0437591,0.01
 50902,-0.0004481,0.0024841,-0.0027819,0.1126778\Polar=105.5064531,0.34
 62397,84.1459374,-9.3371493,-2.8109739,28.839524\Quadrupole=3.2543123,
 -0.1408604,-3.1134519,4.0723442,-0.9787971,-0.6400052\PG=C01 [X(C7H6O2
 )]\NImag=0\\0.61675554,0.00633201,0.39992112,-0.06955744,-0.01848070,0
 .04704332,-0.15611350,-0.03513593,0.01305016,0.75173146,-0.07640139,-0
 .23647187,0.01770775,-0.19147279,0.84072355,0.01506966,0.01277215,-0.0
 6381068,-0.05633466,-0.00835065,0.20948946,-0.02495784,-0.01559306,0.0
 0480844,-0.19808057,-0.01426828,0.01515215,0.63374658,-0.04177156,-0.0
 0505814,0.00567752,-0.00259648,-0.10062919,0.00145613,-0.00922564,0.71
 194450,0.00608961,0.00254638,0.00800985,0.01458205,0.00285174,-0.07911
 701,-0.05815358,-0.02671517,0.15204323,-0.00421649,0.00152883,0.000538
 11,-0.02160422,0.02687226,0.00117129,-0.17421786,0.05878323,0.01035617
 ,0.69017137,-0.00154567,-0.00449209,0.00044929,0.01466116,0.01091660,-
 0.00232809,0.11384740,-0.27264672,-0.00338145,0.03681966,0.72425197,0.
 00068865,0.00008179,0.00082260,0.00176841,-0.00378889,-0.00084136,0.00
 765984,0.00320580,-0.06465412,-0.06798425,-0.03317269,0.14664324,0.000
 34225,-0.00143592,-0.00006318,0.00544330,0.00515618,0.00003075,-0.0341
 4460,0.06908767,0.00172925,-0.34069484,-0.04230421,0.03551620,0.688545
 83,-0.00086844,0.00017792,0.00005725,0.00394749,-0.00535903,0.00017271
 ,0.02212250,0.03625637,-0.00400006,0.02430434,-0.13124441,0.00053001,-
 0.03749399,0.72336525,-0.00009097,0.00012507,-0.00076912,0.00009001,0.
 00002819,0.00779900,0.00402936,-0.00961808,0.00858654,0.03225395,0.008
 49695,-0.06533809,-0.06496529,-0.02457226,0.13901157,-0.00028009,-0.00
 011716,0.00004811,0.00051837,0.00092216,-0.00018732,-0.00116435,0.0028
 1178,-0.00099206,-0.02079563,-0.03209081,0.00488268,-0.17211317,-0.115
 90311,0.01896084,0.73602111,-0.00108265,0.00012050,0.00012720,0.000283
 22,-0.00422283,0.00014007,0.00307894,-0.06440355,0.00237825,-0.0802552
 0,0.02937393,0.00849799,-0.04863726,-0.29546111,0.01729801,0.00072914,
 0.67087890,0.00009540,0.00001174,0.00006222,-0.00015598,0.00006370,-0.
 00065464,-0.00100532,0.00241092,-0.00830533,0.00724064,0.00273663,0.00
 588263,0.01566701,0.02534356,-0.06416043,-0.07190194,-0.02632030,0.145
 08986,-0.00192808,-0.00059272,0.00022395,0.00589789,-0.00567271,0.0004
 3099,-0.02431778,-0.07390019,0.00751412,-0.05375833,0.02749488,0.00418
 123,0.06563905,0.02944955,-0.00837429,-0.18944635,0.05998481,0.0124290
 0,0.68497792,-0.00135607,0.00125633,0.00008611,-0.00320932,-0.00633166
 ,0.00104543,-0.02761764,0.02787794,0.00234265,0.02628755,-0.01448268,-
 0.00280479,-0.01751195,-0.05613066,0.00521955,0.12713473,-0.27882846,-
 0.00453831,0.02951458,0.72851044,0.00026144,-0.00000522,-0.00032896,0.
 00031019,0.00134005,0.00707583,0.00524771,0.00787819,0.00723614,0.0042
 4045,-0.00294908,-0.00790852,-0.00607480,-0.00039759,0.00842802,0.0091
 4076,0.00349338,-0.06224035,-0.06774853,-0.03280484,0.14038363,-0.0051
 8230,0.00110273,0.00076586,-0.02602893,-0.02754527,0.00461256,-0.15674
 333,-0.04645085,0.01316722,0.06147288,-0.01634489,-0.00550537,-0.04775
 802,-0.02899028,0.00623048,-0.03166699,0.07411679,0.00097065,-0.344967
 34,-0.04312554,0.03602379,0.71068269,0.00534153,0.00239998,-0.00067443
 ,-0.01958426,0.00908606,0.00195913,-0.10190895,-0.28614530,0.02298412,
 0.02782085,-0.05621223,-0.00014630,-0.03081889,-0.01987799,0.00429056,
 0.02671268,0.03954942,-0.00479974,0.02243688,-0.13196355,0.00076815,-0
 .04330537,0.71193156,0.00055827,-0.00016751,0.00161312,0.00422271,0.00
 291152,0.00061083,0.01588262,0.01635069,-0.06837715,-0.00766773,0.0051
 3644,0.00942507,0.00632036,0.00407194,-0.00849177,0.00329164,-0.010469
 62,0.00690898,0.03281322,0.00861038,-0.06581794,-0.06621039,-0.0228539
 1,0.14846189,0.03581605,0.00188318,-0.00092655,-0.33407634,0.28956002,
 0.01681245,-0.03730584,0.04292357,0.00462931,-0.00423005,-0.00787771,0
 .00125103,-0.00313487,0.00085537,0.00014693,-0.00038633,0.00137472,-0.
 00001025,0.00006879,0.00124541,-0.00013773,0.00009522,0.00443584,-0.00
 020945,0.34343020,0.02104141,-0.10320613,0.00394722,0.29062572,-0.5075
 5537,-0.01358232,0.02762673,-0.00258673,-0.00224893,-0.00129600,0.0024
 6054,0.00018174,0.00090056,0.00116360,-0.00024090,-0.00068565,0.000303
 68,0.00007161,0.00206839,0.00113795,-0.00033122,-0.00549505,-0.0072904
 8,0.00102206,-0.34299644,0.60887298,-0.00186437,0.00623817,0.02875743,
 0.01675999,-0.01345445,-0.07632732,0.00537857,-0.00407856,0.01852525,0
 .00092859,0.00096890,0.00284585,0.00014476,-0.00023548,-0.00156195,0.0
 0009068,-0.00017486,0.00008877,-0.00017807,-0.00023274,-0.00054031,0.0
 0027677,-0.00016577,0.00013477,-0.02039651,0.01280668,0.03431013,-0.45
 596523,0.04109406,0.05058743,-0.03171327,-0.00637489,0.00465597,0.0018
 5329,-0.00322440,0.00056017,0.00070634,-0.00007527,-0.00013667,0.00008
 064,0.00016491,0.00000170,0.00008930,0.00005447,-0.00000940,0.00017273
 ,-0.00057548,-0.00004309,-0.00092865,0.00035343,0.00015981,0.00279947,
 0.00825989,-0.00153063,0.48300688,0.09113481,-0.05767840,-0.00887204,-
 0.05826338,0.00591873,0.00690444,-0.00069912,-0.00686849,0.00067518,0.
 00080946,-0.00054551,-0.00009294,0.00011436,0.00041219,-0.00002590,0.0
 0021041,-0.00010277,-0.00001852,-0.00012253,-0.00056490,0.00002162,-0.
 00148936,0.00055059,0.00017821,0.00823135,0.00227821,-0.00141994,-0.03
 959604,0.05601203,0.04813861,-0.00288629,-0.02184083,0.00719510,0.0006
 9781,0.00370897,0.00043671,0.00097718,0.00511759,-0.00017995,0.0000128
 6,-0.00044627,0.00000415,-0.00003196,0.00016344,-0.00001703,0.00000017
 ,0.00003510,-0.00006524,0.00007572,-0.00041909,0.00024995,-0.00004220,
 0.00052454,-0.00152919,-0.00142338,-0.00636443,-0.05424496,0.00264601,
 0.01965862,-0.00332603,0.00009696,0.00044906,0.00157532,0.00125604,-0.
 00074113,0.01233318,0.01545141,-0.00189998,-0.11873709,-0.11619335,0.0
 1536674,-0.00897140,-0.02879745,0.00291876,-0.00532557,0.00121782,0.00
 146949,-0.00073003,0.00070944,0.00001695,-0.00194918,0.00342827,0.0007
 7871,0.00018112,-0.00087988,0.00009961,-0.00000133,-0.00017847,-0.0000
 2034,0.12367545,-0.00068819,0.00163749,0.00002511,-0.00257617,-0.00260
 949,0.00023468,-0.01344468,-0.01939758,0.00269436,-0.11387093,-0.28494
 677,0.02572612,0.00169131,0.00400646,-0.00022037,0.00050895,0.00139781
 ,0.00023606,0.00055473,0.00034091,-0.00009760,0.00438939,-0.00239993,-
 0.00011533,0.00035933,0.00100169,-0.00005998,0.00004257,0.00069410,-0.
 00005108,0.12415881,0.30039611,0.00048748,-0.00006890,0.00041359,-0.00
 055325,-0.00022337,-0.00402913,-0.00048475,-0.00076300,0.00287163,0.01
 525357,0.02600538,-0.04096078,0.00142488,0.00342602,0.00329857,0.00150
 394,0.00015116,0.00727102,0.00002444,-0.00011602,-0.00029496,0.0007319
 2,-0.00000046,0.00587660,0.00003894,0.00008811,0.00064486,-0.00003117,
 -0.00002466,-0.00023969,-0.01775108,-0.02828820,0.02963867,-0.00024748
 ,-0.00035983,0.00004379,0.00082096,0.00175410,-0.00009817,-0.00517052,
 -0.00217562,0.00160596,-0.01269822,0.02865932,0.00038374,-0.14116905,0
 .12703157,0.00637008,0.01198570,-0.01390056,-0.00046639,-0.00083954,-0
 .00279524,0.00106407,-0.00065175,-0.00092498,0.00008509,-0.00104384,0.
 00017600,0.00007373,0.00001280,0.00004776,-0.00000160,0.00106836,-0.00
 034945,-0.00059534,0.14658088,0.00019160,0.00015257,-0.00003178,-0.000
 62853,0.00009912,0.00010549,-0.00070784,0.00142162,0.00037577,-0.00274
 304,0.00541881,0.00017260,0.12702101,-0.25882924,-0.00427564,0.0176666
 4,-0.01900735,-0.00106500,-0.00405056,-0.00317524,0.00097852,-0.000963
 98,0.00008578,0.00009547,0.00011617,-0.00002235,-0.00003020,-0.0000179
 2,-0.00002600,0.00000435,0.00030484,0.00078605,-0.00027342,-0.13694939
 ,0.27310394,0.00001679,0.00003417,-0.00003232,0.00001848,-0.00017950,0
 .00072479,0.00153417,0.00055118,0.00715590,0.00192103,-0.00358306,0.00
 218879,0.00637116,-0.00427707,-0.03645202,-0.00201241,0.00271075,0.002
 50276,0.00112564,0.00082841,0.00673738,0.00008705,0.00009080,-0.000334
 10,0.00007666,-0.00003736,-0.00036275,0.00000162,-0.00000351,0.0000189
 7,-0.00062744,-0.00019524,-0.00396760,-0.00775259,0.00426425,0.0264109
 1,-0.00018117,-0.00011016,0.00004082,0.00021759,0.00006440,-0.00019768
 ,0.00075855,0.00009771,-0.00013420,0.00085077,-0.00280340,0.00089605,-
 0.00993337,0.00195196,0.00149548,-0.33452335,-0.01217501,0.03608006,-0
 .01253888,-0.00344304,0.00207307,0.00030093,0.00347647,0.00065673,-0.0
 0023149,-0.00002800,0.00005215,0.00002007,0.00004366,-0.00000638,-0.00
 054636,0.00019657,0.00005660,0.00080023,-0.00027069,-0.00054115,0.3548
 1383,-0.00004003,0.00018649,0.00000129,0.00004803,-0.00035756,-0.00005
 723,0.00008462,-0.00132624,0.00003898,-0.00183491,-0.00500607,0.000817
 06,-0.02940822,0.00383869,0.00349446,-0.01215046,-0.06169348,0.0026201
 4,0.02786197,0.00627002,-0.00347408,0.00251415,-0.00458302,0.00027705,
 0.00001202,0.00029332,-0.00000634,0.00000653,0.00003093,-0.00000305,-0
 .00142518,0.00009307,0.00016623,0.00045696,0.00102623,-0.00029272,0.01
 309783,0.05998845,0.00003738,0.00000969,0.00011005,-0.00019689,-0.0000
 5917,-0.00138227,-0.00013357,0.00003757,-0.00030924,0.00084872,0.00093
 269,0.00704656,0.00303107,-0.00025667,0.00301861,0.03607898,0.00262320
 ,-0.04231462,0.00054008,0.00027033,0.00330516,0.00070373,0.00016185,0.
 00712259,0.00005020,-0.00000156,0.00018712,-0.00000456,-0.00000749,-0.
 00001448,0.00013601,-0.00002769,-0.00000742,-0.00057673,-0.00020566,-0
 .00375551,-0.03999445,-0.00324030,0.03075612,-0.00084623,-0.00017191,0
 .00008654,0.00081125,-0.00169846,0.00006475,-0.00534414,0.00157014,0.0
 0144961,-0.00086815,0.00083481,0.00003064,-0.00153079,0.00307001,0.000
 86384,0.01206637,0.01691469,-0.00198226,-0.11695105,-0.11181238,0.0151
 3690,-0.00991315,-0.03008951,0.00294108,-0.00030851,0.00031441,0.00002
 143,-0.00007263,-0.00011880,0.00000538,0.00008972,-0.00012081,-0.00015
 793,0.00049987,0.00093375,-0.00006556,0.00082533,-0.00053193,-0.000527
 22,0.12045306,-0.00014414,-0.00007773,0.00001160,0.00063210,0.00003907
 ,-0.00004535,0.00016396,0.00162452,0.00026401,0.00084967,0.00026537,-0
 .00012785,0.00431569,-0.00249129,-0.00005401,-0.01456715,-0.01905297,0
 .00279379,-0.11174967,-0.28079212,0.02534420,0.00115527,0.00298149,-0.
 00016871,-0.00026911,0.00008939,0.00002778,0.00003568,0.00002030,-0.00
 000899,-0.00010621,-0.00000601,-0.00004968,-0.00077568,-0.00105010,0.0
 0016059,0.00019716,0.00100917,-0.00025908,0.12056454,0.29670177,0.0000
 8520,0.00001492,-0.00020386,-0.00004937,0.00023343,0.00065151,0.001518
 52,0.00009588,0.00723099,0.00002995,-0.00012613,-0.00026765,0.00080277
 ,0.00009504,0.00684734,-0.00044068,-0.00097158,0.00251879,0.01513359,0
 .02535120,-0.03922534,0.00141129,0.00356883,0.00201438,0.00004999,-0.0
 0004201,-0.00000454,-0.00000217,0.00000949,-0.00007639,-0.00015864,-0.
 00004797,-0.00125874,0.00001817,-0.00004390,0.00033420,-0.00056292,-0.
 00017189,-0.00372446,-0.01722818,-0.02768683,0.02919097,0.00033059,0.0
 0147892,-0.00009510,0.00060072,-0.00215135,-0.00044160,0.01275524,-0.0
 1138079,-0.00050363,-0.00138048,-0.00308194,0.00100109,-0.00060095,-0.
 00084445,0.00006912,-0.00497903,-0.00170393,0.00157929,-0.01127899,0.0
 2655494,0.00048884,-0.14676208,0.13262600,0.00637733,-0.00167357,0.000
 36790,0.00014331,-0.00006040,-0.00012410,0.00003480,0.00066384,-0.0008
 5143,0.00005177,0.00005160,0.00009794,-0.00015346,-0.00063268,0.001308
 63,0.00000725,0.00108905,-0.00030210,-0.00060751,0.15187713,-0.0001432
 3,0.00113197,-0.00003139,0.00326912,-0.00324613,-0.00042659,0.01654106
 ,-0.02006300,-0.00080583,-0.00407576,-0.00311073,0.00092034,-0.0006763
 5,0.00017327,0.00005436,-0.00118217,0.00114829,0.00045374,-0.00327740,
 0.00687567,0.00023550,0.13043224,-0.25811239,-0.00487869,0.00014630,0.
 00305971,-0.00018322,-0.00014755,-0.00013101,0.00003286,0.00095694,-0.
 00099390,-0.00002919,0.00010505,0.00001616,-0.00007169,-0.00029547,0.0
 0022999,0.00002230,0.00034143,0.00073914,-0.00027847,-0.14199424,0.272
 28297,-0.00001572,-0.00022547,0.00015361,-0.00070694,0.00022184,-0.003
 89800,-0.00187085,0.00253375,0.00398573,0.00104948,0.00080137,0.005562
 06,0.00006092,0.00007455,-0.00037972,0.00155382,0.00051619,0.00731521,
 0.00194988,-0.00333309,0.00360932,0.00648448,-0.00514062,-0.03967181,0
 .00015418,-0.00020974,-0.00033288,0.00003594,0.00003005,0.00017395,-0.
 00003672,0.00018712,0.00074338,-0.00015380,-0.00007084,-0.00116939,0.0
 0008582,-0.00016959,-0.00003822,-0.00063902,-0.00020147,-0.00402720,-0
 .00795149,0.00498595,0.02797396\\0.00002741,0.00005630,-0.00000723,-0.
 00006685,-0.00006715,0.00001365,0.00004278,0.00000429,-0.00000494,0.00
 000002,0.00000347,-0.00000451,-0.00000312,0.00000063,0.00000209,0.0000
 0356,0.00000439,-0.00000035,0.00000278,-0.00000436,-0.00000159,-0.0000
 0417,-0.00000677,0.00000250,0.00000228,0.00001596,-0.00000217,-0.00000
 415,-0.00000938,0.00000126,0.00000346,-0.00000226,0.00000139,-0.000002
 44,-0.00000096,0.00000022,-0.00000138,0.00000278,-0.00000018,-0.000002
 16,0.00000185,0.00000053,0.00000197,0.00000122,-0.00000068\\\@


 THE GREAT THING ABOUT BEING IMPERFECT IS THE JOY IT BRINGS OTHERS.
   -- SIGN OUTSIDE LAKE AGASSIZ JR. HIGH SCHOOL, FARGO, N.D.
 Job cpu time:       0 days  0 hours  6 minutes 50.4 seconds.
 Elapsed time:       0 days  0 hours  0 minutes 17.7 seconds.
 File lengths (MBytes):  RWF=     45 Int=      0 D2E=      0 Chk=      3 Scr=      1
 Normal termination of Gaussian 16 at Mon Oct 14 00:34:41 2019.
real 68.16
user 1485.25
sys 15.50
Machine:
brown-a185
brown-a185
brown-a185
brown-a185
brown-a185
brown-a185
brown-a185
brown-a185
brown-a185
brown-a185
brown-a185
brown-a185
brown-a185
brown-a185
brown-a185
brown-a185
brown-a185
brown-a185
brown-a185
brown-a185
brown-a185
brown-a185
brown-a185
brown-a185
