Title Card Required                                                     
Freq      RB3LYP                                                      6-31G(d)            
Number of atoms                            I               16
Info1-9                                    I   N=           9
          42          42        1002           0           0         100
           6          18        -502
Full Title                                 C   N=           2
Title Card Required     
Route                                      C   N=           6
#P opt freq b3lyp/6-31g(d) geom=connectivity temperature=0.0
01          
Charge                                     I                1
Multiplicity                               I                1
Number of electrons                        I               64
Number of alpha electrons                  I               32
Number of beta electrons                   I               32
Number of basis functions                  I              149
Number of independent functions            I              149
Number of point charges in /Mol/           I                0
Number of translation vectors              I                0
Atomic numbers                             I   N=          16
           8           6           6           6           6           6
           6           6           8           1           1           1
           1           1           1           1
Nuclear charges                            R   N=          16
  8.00000000E+00  6.00000000E+00  6.00000000E+00  6.00000000E+00  6.00000000E+00
  6.00000000E+00  6.00000000E+00  6.00000000E+00  8.00000000E+00  1.00000000E+00
  1.00000000E+00  1.00000000E+00  1.00000000E+00  1.00000000E+00  1.00000000E+00
  1.00000000E+00
Current cartesian coordinates              R   N=          48
 -4.25511173E+00 -2.14866575E+00 -1.56647077E-04 -3.06542588E+00 -3.24888331E-03
 -2.37369152E-05 -3.56821379E-01  1.87963790E-02 -2.90693951E-05  9.55739448E-01
 -2.31303205E+00  5.72654795E-05  3.57641452E+00 -2.32114544E+00  8.00341782E-05
  4.90487845E+00 -3.33671268E-02  2.99682487E-05  3.62072244E+00  2.28464189E+00
 -6.87548052E-05  1.00380406E+00  2.32232726E+00 -9.38060460E-05 -4.53321157E+00
  1.97915477E+00  1.62374213E-04 -6.09338342E+00 -1.92096170E+00 -5.14957957E-05
 -8.96987602E-02 -4.07483132E+00  1.06303311E-04  4.59078213E+00 -4.10261628E+00
  1.34772151E-04  6.95690844E+00 -5.02523618E-02  5.30011230E-05  4.66984049E+00
  4.04561628E+00 -1.44038408E-04  5.75216747E-02  4.14779799E+00 -2.46944364E-04
 -3.62125407E+00  3.58150304E+00  3.91180424E-04
Number of symbols in /Mol/                 I                0
Force Field                                I                0
Atom Types                                 C   N=          16
                                                            
                                                            
                                                            
            
Int Atom Types                             I   N=          16
           0           0           0           0           0           0
           0           0           0           0           0           0
           0           0           0           0
MM charges                                 R   N=          16
  0.00000000E+00  0.00000000E+00  0.00000000E+00  0.00000000E+00  0.00000000E+00
  0.00000000E+00  0.00000000E+00  0.00000000E+00  0.00000000E+00  0.00000000E+00
  0.00000000E+00  0.00000000E+00  0.00000000E+00  0.00000000E+00  0.00000000E+00
  0.00000000E+00
Integer atomic weights                     I   N=          16
          16          12          12          12          12          12
          12          12          16           1           1           1
           1           1           1           1
Real atomic weights                        R   N=          16
  1.59949146E+01  1.20000000E+01  1.20000000E+01  1.20000000E+01  1.20000000E+01
  1.20000000E+01  1.20000000E+01  1.20000000E+01  1.59949146E+01  1.00782504E+00
  1.00782504E+00  1.00782504E+00  1.00782504E+00  1.00782504E+00  1.00782504E+00
  1.00782504E+00
Atom fragment info                         I   N=          16
           0           0           0           0           0           0
           0           0           0           0           0           0
           0           0           0           0
Atom residue num                           I   N=          16
           0           0           0           0           0           0
           0           0           0           0           0           0
           0           0           0           0
Nuclear spins                              I   N=          16
           0           0           0           0           0           0
           0           0           0           1           1           1
           1           1           1           1
Nuclear ZEff                               R   N=          16
 -5.60000000E+00 -3.60000000E+00 -3.60000000E+00 -3.60000000E+00 -3.60000000E+00
 -3.60000000E+00 -3.60000000E+00 -3.60000000E+00 -5.60000000E+00 -1.00000000E+00
 -1.00000000E+00 -1.00000000E+00 -1.00000000E+00 -1.00000000E+00 -1.00000000E+00
 -1.00000000E+00
Nuclear ZNuc                               R   N=          16
  8.00000000E+00  6.00000000E+00  6.00000000E+00  6.00000000E+00  6.00000000E+00
  6.00000000E+00  6.00000000E+00  6.00000000E+00  8.00000000E+00  1.00000000E+00
  1.00000000E+00  1.00000000E+00  1.00000000E+00  1.00000000E+00  1.00000000E+00
  1.00000000E+00
Nuclear QMom                               R   N=          16
  0.00000000E+00  0.00000000E+00  0.00000000E+00  0.00000000E+00  0.00000000E+00
  0.00000000E+00  0.00000000E+00  0.00000000E+00  0.00000000E+00  0.00000000E+00
  0.00000000E+00  0.00000000E+00  0.00000000E+00  0.00000000E+00  0.00000000E+00
  0.00000000E+00
Nuclear GFac                               R   N=          16
  0.00000000E+00  0.00000000E+00  0.00000000E+00  0.00000000E+00  0.00000000E+00
  0.00000000E+00  0.00000000E+00  0.00000000E+00  0.00000000E+00  2.79284600E+00
  2.79284600E+00  2.79284600E+00  2.79284600E+00  2.79284600E+00  2.79284600E+00
  2.79284600E+00
MicOpt                                     I   N=          16
          -1          -1          -1          -1          -1          -1
          -1          -1          -1          -1          -1          -1
          -1          -1          -1          -1
Number of residues                         I                0
Number of secondary structures             I                0
Redundant internal dimensions              I   N=           4
          71          16          23          32
Redundant internal coordinate indices      I   N=         284
           1           2           0           0           1          10
           0           0           2           3           0           0
           2           9           0           0           3           4
           0           0           3           8           0           0
           4           5           0           0           4          11
           0           0           5           6           0           0
           5          12           0           0           6           7
           0           0           6          13           0           0
           7           8           0           0           7          14
           0           0           8          15           0           0
           9          16           0           0           2           1
          10           0           1           2           3           0
           1           2           9           0           3           2
           9           0           2           3           4           0
           2           3           8           0           4           3
           8           0           3           4           5           0
           3           4          11           0           5           4
          11           0           4           5           6           0
           4           5          12           0           6           5
          12           0           5           6           7           0
           5           6          13           0           7           6
          13           0           6           7           8           0
           6           7          14           0           8           7
          14           0           3           8           7           0
           3           8          15           0           7           8
          15           0           2           9          16           0
          10           1           2           3          10           1
           2           9           1           2           3           4
           1           2           3           8           9           2
           3           4           9           2           3           8
           1           2           9          16           3           2
           9          16           2           3           4           5
           2           3           4          11           8           3
           4           5           8           3           4          11
           2           3           8           7           2           3
           8          15           4           3           8           7
           4           3           8          15           3           4
           5           6           3           4           5          12
          11           4           5           6          11           4
           5          12           4           5           6           7
           4           5           6          13          12           5
           6           7          12           5           6          13
           5           6           7           8           5           6
           7          14          13           6           7           8
          13           6           7          14           6           7
           8           3           6           7           8          15
          14           7           8           3          14           7
           8          15
Redundant internal coordinates             R   N=          71
  2.45319506E+00  1.85232068E+00  2.70869421E+00  2.46664127E+00  2.67586243E+00
  2.67536093E+00  2.62068763E+00  2.04862825E+00  2.64551432E+00  2.05001952E+00
  2.64994763E+00  2.05209946E+00  2.61718972E+00  2.04979986E+00  2.05615996E+00
  1.84368829E+00  1.95386567E+00  2.08524527E+00  1.99794919E+00  2.19999085E+00
  2.07534253E+00  2.11246571E+00  2.09537707E+00  2.08657723E+00  2.09336089E+00
  2.10324719E+00  2.09379185E+00  2.09150698E+00  2.09788647E+00  2.10959911E+00
  2.08865939E+00  2.08492680E+00  2.09109811E+00  2.09839454E+00  2.09369265E+00
  2.08992724E+00  2.12982102E+00  2.06343704E+00  1.98684157E+00  3.14154250E+00
 -2.47968396E-05 -1.01290422E-04  3.14150225E+00  3.14146282E+00 -1.18944718E-04
  3.14151550E+00 -4.98545756E-05 -3.14158089E+00  1.10257517E-05  9.80763595E-07
 -3.14159241E+00  3.14158006E+00 -6.04514747E-05 -1.57607519E-06  3.14154321E+00
  5.30945750E-06 -3.14158629E+00 -3.14158661E+00  7.10415106E-06 -1.11510478E-05
  3.14158989E+00  3.14158044E+00 -3.82001955E-06  1.05363223E-05 -3.14157163E+00
 -3.14159049E+00  1.26486635E-05 -4.11374617E-06 -3.14155071E+00  3.14157808E+00
  3.14823029E-05
ZRed-IntVec                                I   N=          71
           0           0           0           0           0           0
           0           0           0           0           0           0
           0           0           0           0           0           0
           0           0           0           0           0           0
           0           0           0           0           0           0
           0           0           0           0           0           0
           0           0           0           0           0           0
           0           0           0           0           0           0
           0           0           0           0           0           0
           0           0           0           0           0           0
           0           0           0           0           0           0
           0           0           0           0           0
ZRed-FPVec                                 R   N=          71
  0.00000000E+00  0.00000000E+00  0.00000000E+00  0.00000000E+00  0.00000000E+00
  0.00000000E+00  0.00000000E+00  0.00000000E+00  0.00000000E+00  0.00000000E+00
  0.00000000E+00  0.00000000E+00  0.00000000E+00  0.00000000E+00  0.00000000E+00
  0.00000000E+00  0.00000000E+00  0.00000000E+00  0.00000000E+00  0.00000000E+00
  0.00000000E+00  0.00000000E+00  0.00000000E+00  0.00000000E+00  0.00000000E+00
  0.00000000E+00  0.00000000E+00  0.00000000E+00  0.00000000E+00  0.00000000E+00
  0.00000000E+00  0.00000000E+00  0.00000000E+00  0.00000000E+00  0.00000000E+00
  0.00000000E+00  0.00000000E+00  0.00000000E+00  0.00000000E+00  0.00000000E+00
  0.00000000E+00  0.00000000E+00  0.00000000E+00  0.00000000E+00  0.00000000E+00
  0.00000000E+00  0.00000000E+00  0.00000000E+00  0.00000000E+00  0.00000000E+00
  0.00000000E+00  0.00000000E+00  0.00000000E+00  0.00000000E+00  0.00000000E+00
  0.00000000E+00  0.00000000E+00  0.00000000E+00  0.00000000E+00  0.00000000E+00
  0.00000000E+00  0.00000000E+00  0.00000000E+00  0.00000000E+00  0.00000000E+00
  0.00000000E+00  0.00000000E+00  0.00000000E+00  0.00000000E+00  0.00000000E+00
  0.00000000E+00
ZRed-Constraint1                           R   N=          71
  2.45319506E+00  1.85232068E+00  2.70869421E+00  2.46664127E+00  2.67586243E+00
  2.67536093E+00  2.62068763E+00  2.04862825E+00  2.64551432E+00  2.05001952E+00
  2.64994763E+00  2.05209946E+00  2.61718972E+00  2.04979986E+00  2.05615996E+00
  1.84368829E+00  1.95386567E+00  2.08524527E+00  1.99794919E+00  2.19999085E+00
  2.07534253E+00  2.11246571E+00  2.09537707E+00  2.08657723E+00  2.09336089E+00
  2.10324719E+00  2.09379185E+00  2.09150698E+00  2.09788647E+00  2.10959911E+00
  2.08865939E+00  2.08492680E+00  2.09109811E+00  2.09839454E+00  2.09369265E+00
  2.08992724E+00  2.12982102E+00  2.06343704E+00  1.98684157E+00  3.14154250E+00
 -2.47968396E-05 -1.01290419E-04  3.14150225E+00  3.14146282E+00 -1.18944718E-04
  3.14151550E+00 -4.98545801E-05 -3.14158089E+00  1.10257517E-05  9.80650388E-07
 -3.14159241E+00  3.14158006E+00 -6.04514747E-05 -1.57607519E-06  3.14154321E+00
  5.30945750E-06 -3.14158629E+00 -3.14158661E+00  7.10411981E-06 -1.11510478E-05
  3.14158989E+00  3.14158044E+00 -3.82001955E-06  1.05363223E-05 -3.14157163E+00
 -3.14159049E+00  1.26486635E-05 -4.11377315E-06 -3.14155071E+00  3.14157808E+00
  3.14823029E-05
ZRed-Constraint2                           R   N=          71
  2.56231654E+00  1.81408100E+00  2.68216413E+00  2.36756909E+00  2.67897515E+00
  2.67945552E+00  2.65973477E+00  2.05982542E+00  2.65726068E+00  2.05979018E+00
  2.65598536E+00  2.05978839E+00  2.65716873E+00  2.05979403E+00  2.05979295E+00
  1.81413708E+00  1.91074124E+00  2.12320091E+00  2.03205648E+00  2.12759966E+00
  2.10891337E+00  2.11020227E+00  2.06402321E+00  2.10805284E+00  2.09377918E+00
  2.08135329E+00  2.09625631E+00  2.09439757E+00  2.09253143E+00  2.09215497E+00
  2.09594545E+00  2.09508488E+00  2.09506964E+00  2.09370754E+00  2.09440811E+00
  2.11051933E+00  2.09366309E+00  2.07900288E+00  2.09439511E+00  1.55232449E+00
 -1.56222923E+00  1.35407841E-01 -2.99564569E+00 -3.03470654E+00  1.17425234E-01
  3.03739844E+00 -7.70814834E-02 -3.10771062E+00  3.38613308E-02  2.36156791E-02
 -3.11799768E+00  3.10671737E+00 -3.49614842E-02 -2.46010150E-02  3.11690544E+00
 -6.73576901E-03  3.13484482E+00  3.13487744E+00 -6.72727921E-03 -9.80429239E-03
  3.13185890E+00  3.13180042E+00 -9.72169588E-03  8.85554764E-03 -3.13289467E+00
 -3.13280761E+00  8.62747535E-03  8.65475345E-03 -3.13285241E+00 -3.13278027E+00
  8.89787103E-03
SymInf integers                            I   N=          26
           1           1           1           1           1           0
           0           0           0           0           0           0
           0           0           0           0           0           0
           0           0           0           0           0           0
           0           0
RotTr to input orientation                 R   N=          12
  9.93044715E-01  4.62536097E-02 -1.08271866E-01 -5.33324922E-02  9.96560612E-01
 -6.34238990E-02  1.04965893E-01  6.87571761E-02  9.92096070E-01 -7.10198558E-01
  2.18451398E+00  2.70725839E-01
Number of contracted shells                I               50
Number of primitive shells                 I              127
Pure/Cartesian d shells                    I                1
Pure/Cartesian f shells                    I                0
Highest angular momentum                   I                2
Largest degree of contraction              I                6
Shell types                                I   N=          50
           0          -1          -1           2           0          -1
          -1           2           0          -1          -1           2
           0          -1          -1           2           0          -1
          -1           2           0          -1          -1           2
           0          -1          -1           2           0          -1
          -1           2           0          -1          -1           2
           0           0           0           0           0           0
           0           0           0           0           0           0
           0           0
Number of primitives per shell             I   N=          50
           6           3           1           1           6           3
           1           1           6           3           1           1
           6           3           1           1           6           3
           1           1           6           3           1           1
           6           3           1           1           6           3
           1           1           6           3           1           1
           3           1           3           1           3           1
           3           1           3           1           3           1
           3           1
Shell to atom map                          I   N=          50
           1           1           1           1           2           2
           2           2           3           3           3           3
           4           4           4           4           5           5
           5           5           6           6           6           6
           7           7           7           7           8           8
           8           8           9           9           9           9
          10          10          11          11          12          12
          13          13          14          14          15          15
          16          16
Primitive exponents                        R   N=         127
  5.48467166E+03  8.25234946E+02  1.88046958E+02  5.29645000E+01  1.68975704E+01
  5.79963534E+00  1.55396162E+01  3.59993359E+00  1.01376175E+00  2.70005823E-01
  8.00000000E-01  3.04752488E+03  4.57369518E+02  1.03948685E+02  2.92101553E+01
  9.28666296E+00  3.16392696E+00  7.86827235E+00  1.88128854E+00  5.44249258E-01
  1.68714478E-01  8.00000000E-01  3.04752488E+03  4.57369518E+02  1.03948685E+02
  2.92101553E+01  9.28666296E+00  3.16392696E+00  7.86827235E+00  1.88128854E+00
  5.44249258E-01  1.68714478E-01  8.00000000E-01  3.04752488E+03  4.57369518E+02
  1.03948685E+02  2.92101553E+01  9.28666296E+00  3.16392696E+00  7.86827235E+00
  1.88128854E+00  5.44249258E-01  1.68714478E-01  8.00000000E-01  3.04752488E+03
  4.57369518E+02  1.03948685E+02  2.92101553E+01  9.28666296E+00  3.16392696E+00
  7.86827235E+00  1.88128854E+00  5.44249258E-01  1.68714478E-01  8.00000000E-01
  3.04752488E+03  4.57369518E+02  1.03948685E+02  2.92101553E+01  9.28666296E+00
  3.16392696E+00  7.86827235E+00  1.88128854E+00  5.44249258E-01  1.68714478E-01
  8.00000000E-01  3.04752488E+03  4.57369518E+02  1.03948685E+02  2.92101553E+01
  9.28666296E+00  3.16392696E+00  7.86827235E+00  1.88128854E+00  5.44249258E-01
  1.68714478E-01  8.00000000E-01  3.04752488E+03  4.57369518E+02  1.03948685E+02
  2.92101553E+01  9.28666296E+00  3.16392696E+00  7.86827235E+00  1.88128854E+00
  5.44249258E-01  1.68714478E-01  8.00000000E-01  5.48467166E+03  8.25234946E+02
  1.88046958E+02  5.29645000E+01  1.68975704E+01  5.79963534E+00  1.55396162E+01
  3.59993359E+00  1.01376175E+00  2.70005823E-01  8.00000000E-01  1.87311370E+01
  2.82539436E+00  6.40121692E-01  1.61277759E-01  1.87311370E+01  2.82539436E+00
  6.40121692E-01  1.61277759E-01  1.87311370E+01  2.82539436E+00  6.40121692E-01
  1.61277759E-01  1.87311370E+01  2.82539436E+00  6.40121692E-01  1.61277759E-01
  1.87311370E+01  2.82539436E+00  6.40121692E-01  1.61277759E-01  1.87311370E+01
  2.82539436E+00  6.40121692E-01  1.61277759E-01  1.87311370E+01  2.82539436E+00
  6.40121692E-01  1.61277759E-01
Contraction coefficients                   R   N=         127
  1.83107443E-03  1.39501722E-02  6.84450781E-02  2.32714336E-01  4.70192898E-01
  3.58520853E-01 -1.10777550E-01 -1.48026263E-01  1.13076702E+00  1.00000000E+00
  1.00000000E+00  1.83473713E-03  1.40373228E-02  6.88426223E-02  2.32184443E-01
  4.67941348E-01  3.62311985E-01 -1.19332420E-01 -1.60854152E-01  1.14345644E+00
  1.00000000E+00  1.00000000E+00  1.83473713E-03  1.40373228E-02  6.88426223E-02
  2.32184443E-01  4.67941348E-01  3.62311985E-01 -1.19332420E-01 -1.60854152E-01
  1.14345644E+00  1.00000000E+00  1.00000000E+00  1.83473713E-03  1.40373228E-02
  6.88426223E-02  2.32184443E-01  4.67941348E-01  3.62311985E-01 -1.19332420E-01
 -1.60854152E-01  1.14345644E+00  1.00000000E+00  1.00000000E+00  1.83473713E-03
  1.40373228E-02  6.88426223E-02  2.32184443E-01  4.67941348E-01  3.62311985E-01
 -1.19332420E-01 -1.60854152E-01  1.14345644E+00  1.00000000E+00  1.00000000E+00
  1.83473713E-03  1.40373228E-02  6.88426223E-02  2.32184443E-01  4.67941348E-01
  3.62311985E-01 -1.19332420E-01 -1.60854152E-01  1.14345644E+00  1.00000000E+00
  1.00000000E+00  1.83473713E-03  1.40373228E-02  6.88426223E-02  2.32184443E-01
  4.67941348E-01  3.62311985E-01 -1.19332420E-01 -1.60854152E-01  1.14345644E+00
  1.00000000E+00  1.00000000E+00  1.83473713E-03  1.40373228E-02  6.88426223E-02
  2.32184443E-01  4.67941348E-01  3.62311985E-01 -1.19332420E-01 -1.60854152E-01
  1.14345644E+00  1.00000000E+00  1.00000000E+00  1.83107443E-03  1.39501722E-02
  6.84450781E-02  2.32714336E-01  4.70192898E-01  3.58520853E-01 -1.10777550E-01
 -1.48026263E-01  1.13076702E+00  1.00000000E+00  1.00000000E+00  3.34946043E-02
  2.34726953E-01  8.13757326E-01  1.00000000E+00  3.34946043E-02  2.34726953E-01
  8.13757326E-01  1.00000000E+00  3.34946043E-02  2.34726953E-01  8.13757326E-01
  1.00000000E+00  3.34946043E-02  2.34726953E-01  8.13757326E-01  1.00000000E+00
  3.34946043E-02  2.34726953E-01  8.13757326E-01  1.00000000E+00  3.34946043E-02
  2.34726953E-01  8.13757326E-01  1.00000000E+00  3.34946043E-02  2.34726953E-01
  8.13757326E-01  1.00000000E+00
P(S=P) Contraction coefficients            R   N=         127
  0.00000000E+00  0.00000000E+00  0.00000000E+00  0.00000000E+00  0.00000000E+00
  0.00000000E+00  7.08742682E-02  3.39752839E-01  7.27158577E-01  1.00000000E+00
  0.00000000E+00  0.00000000E+00  0.00000000E+00  0.00000000E+00  0.00000000E+00
  0.00000000E+00  0.00000000E+00  6.89990666E-02  3.16423961E-01  7.44308291E-01
  1.00000000E+00  0.00000000E+00  0.00000000E+00  0.00000000E+00  0.00000000E+00
  0.00000000E+00  0.00000000E+00  0.00000000E+00  6.89990666E-02  3.16423961E-01
  7.44308291E-01  1.00000000E+00  0.00000000E+00  0.00000000E+00  0.00000000E+00
  0.00000000E+00  0.00000000E+00  0.00000000E+00  0.00000000E+00  6.89990666E-02
  3.16423961E-01  7.44308291E-01  1.00000000E+00  0.00000000E+00  0.00000000E+00
  0.00000000E+00  0.00000000E+00  0.00000000E+00  0.00000000E+00  0.00000000E+00
  6.89990666E-02  3.16423961E-01  7.44308291E-01  1.00000000E+00  0.00000000E+00
  0.00000000E+00  0.00000000E+00  0.00000000E+00  0.00000000E+00  0.00000000E+00
  0.00000000E+00  6.89990666E-02  3.16423961E-01  7.44308291E-01  1.00000000E+00
  0.00000000E+00  0.00000000E+00  0.00000000E+00  0.00000000E+00  0.00000000E+00
  0.00000000E+00  0.00000000E+00  6.89990666E-02  3.16423961E-01  7.44308291E-01
  1.00000000E+00  0.00000000E+00  0.00000000E+00  0.00000000E+00  0.00000000E+00
  0.00000000E+00  0.00000000E+00  0.00000000E+00  6.89990666E-02  3.16423961E-01
  7.44308291E-01  1.00000000E+00  0.00000000E+00  0.00000000E+00  0.00000000E+00
  0.00000000E+00  0.00000000E+00  0.00000000E+00  0.00000000E+00  7.08742682E-02
  3.39752839E-01  7.27158577E-01  1.00000000E+00  0.00000000E+00  0.00000000E+00
  0.00000000E+00  0.00000000E+00  0.00000000E+00  0.00000000E+00  0.00000000E+00
  0.00000000E+00  0.00000000E+00  0.00000000E+00  0.00000000E+00  0.00000000E+00
  0.00000000E+00  0.00000000E+00  0.00000000E+00  0.00000000E+00  0.00000000E+00
  0.00000000E+00  0.00000000E+00  0.00000000E+00  0.00000000E+00  0.00000000E+00
  0.00000000E+00  0.00000000E+00  0.00000000E+00  0.00000000E+00  0.00000000E+00
  0.00000000E+00  0.00000000E+00
Coordinates of each shell                  R   N=         150
 -4.25511173E+00 -2.14866575E+00 -1.56647077E-04 -4.25511173E+00 -2.14866575E+00
 -1.56647077E-04 -4.25511173E+00 -2.14866575E+00 -1.56647077E-04 -4.25511173E+00
 -2.14866575E+00 -1.56647077E-04 -3.06542588E+00 -3.24888331E-03 -2.37369152E-05
 -3.06542588E+00 -3.24888331E-03 -2.37369152E-05 -3.06542588E+00 -3.24888331E-03
 -2.37369152E-05 -3.06542588E+00 -3.24888331E-03 -2.37369152E-05 -3.56821379E-01
  1.87963790E-02 -2.90693951E-05 -3.56821379E-01  1.87963790E-02 -2.90693951E-05
 -3.56821379E-01  1.87963790E-02 -2.90693951E-05 -3.56821379E-01  1.87963790E-02
 -2.90693951E-05  9.55739448E-01 -2.31303205E+00  5.72654795E-05  9.55739448E-01
 -2.31303205E+00  5.72654795E-05  9.55739448E-01 -2.31303205E+00  5.72654795E-05
  9.55739448E-01 -2.31303205E+00  5.72654795E-05  3.57641452E+00 -2.32114544E+00
  8.00341782E-05  3.57641452E+00 -2.32114544E+00  8.00341782E-05  3.57641452E+00
 -2.32114544E+00  8.00341782E-05  3.57641452E+00 -2.32114544E+00  8.00341782E-05
  4.90487845E+00 -3.33671268E-02  2.99682487E-05  4.90487845E+00 -3.33671268E-02
  2.99682487E-05  4.90487845E+00 -3.33671268E-02  2.99682487E-05  4.90487845E+00
 -3.33671268E-02  2.99682487E-05  3.62072244E+00  2.28464189E+00 -6.87548052E-05
  3.62072244E+00  2.28464189E+00 -6.87548052E-05  3.62072244E+00  2.28464189E+00
 -6.87548052E-05  3.62072244E+00  2.28464189E+00 -6.87548052E-05  1.00380406E+00
  2.32232726E+00 -9.38060460E-05  1.00380406E+00  2.32232726E+00 -9.38060460E-05
  1.00380406E+00  2.32232726E+00 -9.38060460E-05  1.00380406E+00  2.32232726E+00
 -9.38060460E-05 -4.53321157E+00  1.97915477E+00  1.62374213E-04 -4.53321157E+00
  1.97915477E+00  1.62374213E-04 -4.53321157E+00  1.97915477E+00  1.62374213E-04
 -4.53321157E+00  1.97915477E+00  1.62374213E-04 -6.09338342E+00 -1.92096170E+00
 -5.14957957E-05 -6.09338342E+00 -1.92096170E+00 -5.14957957E-05 -8.96987602E-02
 -4.07483132E+00  1.06303311E-04 -8.96987602E-02 -4.07483132E+00  1.06303311E-04
  4.59078213E+00 -4.10261628E+00  1.34772151E-04  4.59078213E+00 -4.10261628E+00
  1.34772151E-04  6.95690844E+00 -5.02523618E-02  5.30011230E-05  6.95690844E+00
 -5.02523618E-02  5.30011230E-05  4.66984049E+00  4.04561628E+00 -1.44038408E-04
  4.66984049E+00  4.04561628E+00 -1.44038408E-04  5.75216747E-02  4.14779799E+00
 -2.46944364E-04  5.75216747E-02  4.14779799E+00 -2.46944364E-04 -3.62125407E+00
  3.58150304E+00  3.91180424E-04 -3.62125407E+00  3.58150304E+00  3.91180424E-04
Num ILSW                                   I              100
ILSW                                       I   N=         100
           0           1           0           0           2           0
           0           0           0           0         402          -1
           5           0           0           0           2           0
           0           0           0           0           1           0
           1           0           0           0           0           0
           0           0      100000           0          -1           0
           0           0           0           0           0           0
           0           0           0           1           0           0
           0 -2000000000           1           0           0           0
           0           0           4          52           0           0
           0           0           5           0           0           0
           0           0           0          16           0           1
           0           0           0           0           0           0
           0           0           0           0           0           0
           0           0           0           0           0           0
           0           0           0           0           0           0
           0           0           0           0
Num RLSW                                   I               52
RLSW                                       R   N=          52
  8.00000000E-01  7.20000000E-01  1.00000000E+00  8.10000000E-01  2.00000000E-01
  0.00000000E+00  0.00000000E+00  1.00000000E+00  0.00000000E+00  0.00000000E+00
  0.00000000E+00  0.00000000E+00  1.00000000E+00  0.00000000E+00  0.00000000E+00
  0.00000000E+00  0.00000000E+00  1.00000000E+00  0.00000000E+00  0.00000000E+00
  0.00000000E+00  0.00000000E+00  1.00000000E+00  0.00000000E+00  0.00000000E+00
  0.00000000E+00  0.00000000E+00  1.00000000E+00  0.00000000E+00  0.00000000E+00
  0.00000000E+00  0.00000000E+00  1.00000000E+00  0.00000000E+00  0.00000000E+00
  0.00000000E+00  0.00000000E+00  0.00000000E+00  1.00000000E+00  1.00000000E+00