 Entering Gaussian System, Link 0=/apps/cent7/gaussian/g16-A.03/g16-haswell/g16/g16
 Initial command:
 /apps/cent7/gaussian/g16-A.03/g16-haswell/g16/l1.exe "/scratch/brown/finej/gaussian/Gau-438251.inp" -scrdir="/scratch/brown/finej/gaussian/"
 Entering Link 1 = /apps/cent7/gaussian/g16-A.03/g16-haswell/g16/l1.exe PID=    438252.
  
 Copyright (c) 1988,1990,1992,1993,1995,1998,2003,2009,2016,
            Gaussian, Inc.  All Rights Reserved.
  
 This is part of the Gaussian(R) 16 program.  It is based on
 the Gaussian(R) 09 system (copyright 2009, Gaussian, Inc.),
 the Gaussian(R) 03 system (copyright 2003, Gaussian, Inc.),
 the Gaussian(R) 98 system (copyright 1998, Gaussian, Inc.),
 the Gaussian(R) 94 system (copyright 1995, Gaussian, Inc.),
 the Gaussian 92(TM) system (copyright 1992, Gaussian, Inc.),
 the Gaussian 90(TM) system (copyright 1990, Gaussian, Inc.),
 the Gaussian 88(TM) system (copyright 1988, Gaussian, Inc.),
 the Gaussian 86(TM) system (copyright 1986, Carnegie Mellon
 University), and the Gaussian 82(TM) system (copyright 1983,
 Carnegie Mellon University). Gaussian is a federally registered
 trademark of Gaussian, Inc.
  
 This software contains proprietary and confidential information,
 including trade secrets, belonging to Gaussian, Inc.
  
 This software is provided under written license and may be
 used, copied, transmitted, or stored only in accord with that
 written license.
  
 The following legend is applicable only to US Government
 contracts under FAR:
  
                    RESTRICTED RIGHTS LEGEND
  
 Use, reproduction and disclosure by the US Government is
 subject to restrictions as set forth in subparagraphs (a)
 and (c) of the Commercial Computer Software - Restricted
 Rights clause in FAR 52.227-19.
  
 Gaussian, Inc.
 340 Quinnipiac St., Bldg. 40, Wallingford CT 06492
  
  
 ---------------------------------------------------------------
 Warning -- This program may not be used in any manner that
 competes with the business of Gaussian, Inc. or will provide
 assistance to any competitor of Gaussian, Inc.  The licensee
 of this program is prohibited from giving any competitor of
 Gaussian, Inc. access to this program.  By using this program,
 the user acknowledges that Gaussian, Inc. is engaged in the
 business of creating and licensing software in the field of
 computational chemistry and represents and warrants to the
 licensee that it is not a competitor of Gaussian, Inc. and that
 it will not use this program in any manner prohibited above.
 ---------------------------------------------------------------
  

 Cite this work as:
 Gaussian 16, Revision A.03,
 M. J. Frisch, G. W. Trucks, H. B. Schlegel, G. E. Scuseria, 
 M. A. Robb, J. R. Cheeseman, G. Scalmani, V. Barone, 
 G. A. Petersson, H. Nakatsuji, X. Li, M. Caricato, A. V. Marenich, 
 J. Bloino, B. G. Janesko, R. Gomperts, B. Mennucci, H. P. Hratchian, 
 J. V. Ortiz, A. F. Izmaylov, J. L. Sonnenberg, D. Williams-Young, 
 F. Ding, F. Lipparini, F. Egidi, J. Goings, B. Peng, A. Petrone, 
 T. Henderson, D. Ranasinghe, V. G. Zakrzewski, J. Gao, N. Rega, 
 G. Zheng, W. Liang, M. Hada, M. Ehara, K. Toyota, R. Fukuda, 
 J. Hasegawa, M. Ishida, T. Nakajima, Y. Honda, O. Kitao, H. Nakai, 
 T. Vreven, K. Throssell, J. A. Montgomery, Jr., J. E. Peralta, 
 F. Ogliaro, M. J. Bearpark, J. J. Heyd, E. N. Brothers, K. N. Kudin, 
 V. N. Staroverov, T. A. Keith, R. Kobayashi, J. Normand, 
 K. Raghavachari, A. P. Rendell, J. C. Burant, S. S. Iyengar, 
 J. Tomasi, M. Cossi, J. M. Millam, M. Klene, C. Adamo, R. Cammi, 
 J. W. Ochterski, R. L. Martin, K. Morokuma, O. Farkas, 
 J. B. Foresman, and D. J. Fox, Gaussian, Inc., Wallingford CT, 2016.
 
 ******************************************
 Gaussian 16:  ES64L-G16RevA.03 25-Dec-2016
                14-Oct-2019 
 ******************************************
 %chk=14_p.chk
 %nprocshared=24
 Will use up to   24 processors via shared memory.
 %mem=80GB
 --------------------------------------------------------------
 #P opt freq b3lyp/6-31g(d) geom=connectivity temperature=0.001
 --------------------------------------------------------------
 1/18=20,19=15,26=3,38=1,57=2,112=-1000/1,3;
 2/9=110,12=2,17=6,18=5,40=1/2;
 3/5=1,6=6,7=1,11=2,25=1,30=1,71=1,74=-5/1,2,3;
 4//1;
 5/5=2,38=5/2;
 6/7=2,8=2,9=2,10=2,28=1/1;
 7//1,2,3,16;
 1/18=20,19=15,26=3/3(2);
 2/9=110/2;
 99//99;
 2/9=110/2;
 3/5=1,6=6,7=1,11=2,25=1,30=1,71=1,74=-5/1,2,3;
 4/5=5,16=3,69=1/1;
 5/5=2,38=5/2;
 7//1,2,3,16;
 1/18=20,19=15,26=3/3(-5);
 2/9=110/2;
 6/7=2,8=2,9=2,10=2,19=2,28=1/1;
 99/9=1/99;
 Leave Link    1 at Mon Oct 14 00:38:09 2019, MaxMem= 10737418240 cpu:               0.8 elap:               0.0
 (Enter /apps/cent7/gaussian/g16-A.03/g16-haswell/g16/l101.exe)
 -------------------
 Title Card Required
 -------------------
 Symbolic Z-matrix:
 Charge =  1 Multiplicity = 1
 O                    -2.7352   -0.0303    0.3728 
 C                    -2.0671    1.1299    0.1581 
 C                    -0.6515    1.1674    0.0622 
 C                     0.1062   -0.0302    0.025 
 C                     1.5121    0.0083   -0.0292 
 C                     2.1834    1.2436   -0.0553 
 C                     1.4473    2.4408   -0.0391 
 C                     0.0427    2.4028    0.0139 
 O                    -2.7638    2.1682    0.0793 
 H                    -2.8214   -0.18      1.3171 
 H                    -0.4001   -0.9954    0.0383 
 H                     2.0823   -0.9204   -0.051 
 H                     3.2725    1.2731   -0.0881 
 H                     1.9659    3.3991   -0.0675 
 H                    -0.5135    3.3402    0.0175 
 H                    -2.33974   3.02699   0.01412 
 
 ITRead=  0  0  0  0  0  0  0  0  0  0  0  0  0  0  0  0
 MicOpt= -1 -1 -1 -1 -1 -1 -1 -1 -1 -1 -1 -1 -1 -1 -1 -1
 NAtoms=     16 NQM=       16 NQMF=       0 NMMI=      0 NMMIF=      0
                NMic=       0 NMicF=      0.
                    Isotopes and Nuclear Properties:
 (Nuclear quadrupole moments (NQMom) in fm**2, nuclear magnetic moments (NMagM)
  in nuclear magnetons)

  Atom         1           2           3           4           5           6           7           8           9          10
 IAtWgt=          16          12          12          12          12          12          12          12          16           1
 AtmWgt=  15.9949146  12.0000000  12.0000000  12.0000000  12.0000000  12.0000000  12.0000000  12.0000000  15.9949146   1.0078250
 NucSpn=           0           0           0           0           0           0           0           0           0           1
 AtZEff=  -0.0000000  -0.0000000  -0.0000000  -0.0000000  -0.0000000  -0.0000000  -0.0000000  -0.0000000  -0.0000000  -0.0000000
 NQMom=    0.0000000   0.0000000   0.0000000   0.0000000   0.0000000   0.0000000   0.0000000   0.0000000   0.0000000   0.0000000
 NMagM=    0.0000000   0.0000000   0.0000000   0.0000000   0.0000000   0.0000000   0.0000000   0.0000000   0.0000000   2.7928460
 AtZNuc=   8.0000000   6.0000000   6.0000000   6.0000000   6.0000000   6.0000000   6.0000000   6.0000000   8.0000000   1.0000000

  Atom        11          12          13          14          15          16
 IAtWgt=           1           1           1           1           1           1
 AtmWgt=   1.0078250   1.0078250   1.0078250   1.0078250   1.0078250   1.0078250
 NucSpn=           1           1           1           1           1           1
 AtZEff=  -0.0000000  -0.0000000  -0.0000000  -0.0000000  -0.0000000  -0.0000000
 NQMom=    0.0000000   0.0000000   0.0000000   0.0000000   0.0000000   0.0000000
 NMagM=    2.7928460   2.7928460   2.7928460   2.7928460   2.7928460   2.7928460
 AtZNuc=   1.0000000   1.0000000   1.0000000   1.0000000   1.0000000   1.0000000
 Leave Link  101 at Mon Oct 14 00:38:10 2019, MaxMem= 10737418240 cpu:               8.3 elap:               0.4
 (Enter /apps/cent7/gaussian/g16-A.03/g16-haswell/g16/l103.exe)

 GradGradGradGradGradGradGradGradGradGradGradGradGradGradGradGradGradGrad
 Berny optimization.
 Initialization pass.
                           ----------------------------
                           !    Initial Parameters    !
                           ! (Angstroms and Degrees)  !
 --------------------------                            --------------------------
 ! Name  Definition              Value          Derivative Info.                !
 --------------------------------------------------------------------------------
 ! R1    R(1,2)                  1.3559         estimate D2E/DX2                !
 ! R2    R(1,10)                 0.96           estimate D2E/DX2                !
 ! R3    R(2,3)                  1.4193         estimate D2E/DX2                !
 ! R4    R(2,9)                  1.2529         estimate D2E/DX2                !
 ! R5    R(3,4)                  1.4177         estimate D2E/DX2                !
 ! R6    R(3,8)                  1.4179         estimate D2E/DX2                !
 ! R7    R(4,5)                  1.4075         estimate D2E/DX2                !
 ! R8    R(4,11)                 1.09           estimate D2E/DX2                !
 ! R9    R(5,6)                  1.4062         estimate D2E/DX2                !
 ! R10   R(5,12)                 1.09           estimate D2E/DX2                !
 ! R11   R(6,7)                  1.4055         estimate D2E/DX2                !
 ! R12   R(6,13)                 1.09           estimate D2E/DX2                !
 ! R13   R(7,8)                  1.4061         estimate D2E/DX2                !
 ! R14   R(7,14)                 1.09           estimate D2E/DX2                !
 ! R15   R(8,15)                 1.09           estimate D2E/DX2                !
 ! R16   R(9,16)                 0.96           estimate D2E/DX2                !
 ! A1    A(2,1,10)             109.4774         estimate D2E/DX2                !
 ! A2    A(1,2,3)              121.6505         estimate D2E/DX2                !
 ! A3    A(1,2,9)              116.4283         estimate D2E/DX2                !
 ! A4    A(3,2,9)              121.9025         estimate D2E/DX2                !
 ! A5    A(2,3,4)              120.8318         estimate D2E/DX2                !
 ! A6    A(2,3,8)              120.9057         estimate D2E/DX2                !
 ! A7    A(4,3,8)              118.2598         estimate D2E/DX2                !
 ! A8    A(3,4,5)              120.7825         estimate D2E/DX2                !
 ! A9    A(3,4,11)             119.9647         estimate D2E/DX2                !
 ! A10   A(5,4,11)             119.2528         estimate D2E/DX2                !
 ! A11   A(4,5,6)              120.1066         estimate D2E/DX2                !
 ! A12   A(4,5,12)             120.0001         estimate D2E/DX2                !
 ! A13   A(6,5,12)             119.8932         estimate D2E/DX2                !
 ! A14   A(5,6,7)              119.8717         estimate D2E/DX2                !
 ! A15   A(5,6,13)             120.0888         estimate D2E/DX2                !
 ! A16   A(7,6,13)             120.0395         estimate D2E/DX2                !
 ! A17   A(6,7,8)              120.0386         estimate D2E/DX2                !
 ! A18   A(6,7,14)             119.9606         estimate D2E/DX2                !
 ! A19   A(8,7,14)             120.0007         estimate D2E/DX2                !
 ! A20   A(3,8,7)              120.9238         estimate D2E/DX2                !
 ! A21   A(3,8,15)             119.9581         estimate D2E/DX2                !
 ! A22   A(7,8,15)             119.1181         estimate D2E/DX2                !
 ! A23   A(2,9,16)             120.0            estimate D2E/DX2                !
 ! D1    D(10,1,2,3)            88.9416         estimate D2E/DX2                !
 ! D2    D(10,1,2,9)           -89.5091         estimate D2E/DX2                !
 ! D3    D(1,2,3,4)              7.7583         estimate D2E/DX2                !
 ! D4    D(1,2,3,8)           -171.6379         estimate D2E/DX2                !
 ! D5    D(9,2,3,4)           -173.8759         estimate D2E/DX2                !
 ! D6    D(9,2,3,8)              6.728          estimate D2E/DX2                !
 ! D7    D(1,2,9,16)           174.0301         estimate D2E/DX2                !
 ! D8    D(3,2,9,16)            -4.4164         estimate D2E/DX2                !
 ! D9    D(2,3,4,5)           -178.0587         estimate D2E/DX2                !
 ! D10   D(2,3,4,11)             1.9401         estimate D2E/DX2                !
 ! D11   D(8,3,4,5)              1.3531         estimate D2E/DX2                !
 ! D12   D(8,3,4,11)          -178.6481         estimate D2E/DX2                !
 ! D13   D(2,3,8,7)            178.0018         estimate D2E/DX2                !
 ! D14   D(2,3,8,15)            -2.0031         estimate D2E/DX2                !
 ! D15   D(4,3,8,7)             -1.4095         estimate D2E/DX2                !
 ! D16   D(4,3,8,15)           178.5855         estimate D2E/DX2                !
 ! D17   D(3,4,5,6)             -0.3859         estimate D2E/DX2                !
 ! D18   D(3,4,5,12)           179.6134         estimate D2E/DX2                !
 ! D19   D(11,4,5,6)           179.6152         estimate D2E/DX2                !
 ! D20   D(11,4,5,12)           -0.3854         estimate D2E/DX2                !
 ! D21   D(4,5,6,7)             -0.5617         estimate D2E/DX2                !
 ! D22   D(4,5,6,13)           179.4423         estimate D2E/DX2                !
 ! D23   D(12,5,6,7)           179.4389         estimate D2E/DX2                !
 ! D24   D(12,5,6,13)           -0.557          estimate D2E/DX2                !
 ! D25   D(5,6,7,8)              0.5074         estimate D2E/DX2                !
 ! D26   D(5,6,7,14)          -179.5016         estimate D2E/DX2                !
 ! D27   D(13,6,7,8)          -179.4967         estimate D2E/DX2                !
 ! D28   D(13,6,7,14)            0.4943         estimate D2E/DX2                !
 ! D29   D(6,7,8,3)              0.4959         estimate D2E/DX2                !
 ! D30   D(6,7,8,15)          -179.4992         estimate D2E/DX2                !
 ! D31   D(14,7,8,3)          -179.4951         estimate D2E/DX2                !
 ! D32   D(14,7,8,15)            0.5098         estimate D2E/DX2                !
 --------------------------------------------------------------------------------
 Trust Radius=3.00D-01 FncErr=1.00D-07 GrdErr=1.00D-06 EigMax=2.50D+02 EigMin=1.00D-04
 Number of steps in this run=     81 maximum allowed number of steps=    100.
 GradGradGradGradGradGradGradGradGradGradGradGradGradGradGradGradGradGrad

 Leave Link  103 at Mon Oct 14 00:38:10 2019, MaxMem= 10737418240 cpu:               0.9 elap:               0.1
 (Enter /apps/cent7/gaussian/g16-A.03/g16-haswell/g16/l202.exe)
                          Input orientation:                          
 ---------------------------------------------------------------------
 Center     Atomic      Atomic             Coordinates (Angstroms)
 Number     Number       Type             X           Y           Z
 ---------------------------------------------------------------------
      1          8           0       -2.735200   -0.030300    0.372800
      2          6           0       -2.067100    1.129900    0.158100
      3          6           0       -0.651500    1.167400    0.062200
      4          6           0        0.106200   -0.030200    0.025000
      5          6           0        1.512100    0.008300   -0.029200
      6          6           0        2.183400    1.243600   -0.055300
      7          6           0        1.447300    2.440800   -0.039100
      8          6           0        0.042700    2.402800    0.013900
      9          8           0       -2.763800    2.168200    0.079300
     10          1           0       -2.821400   -0.180000    1.317100
     11          1           0       -0.400100   -0.995400    0.038300
     12          1           0        2.082300   -0.920400   -0.051000
     13          1           0        3.272500    1.273100   -0.088100
     14          1           0        1.965900    3.399100   -0.067500
     15          1           0       -0.513500    3.340200    0.017500
     16          1           0       -2.339737    3.026991    0.014123
 ---------------------------------------------------------------------
                    Distance matrix (angstroms):
                    1          2          3          4          5
     1  O    0.000000
     2  C    1.355920   0.000000
     3  C    2.423378   1.419340   0.000000
     4  C    2.862607   2.467140   1.417653   0.000000
     5  C    4.266457   3.755495   2.456223   1.407471   0.000000
     6  C    5.098894   4.257372   2.838357   2.437986   1.406162
     7  C    4.875377   3.756109   2.456984   2.812205   2.433383
     8  C    3.710190   2.468263   1.417907   2.433854   2.809737
     9  O    2.218189   1.252864   2.337457   3.615634   4.791687
    10  H    0.959970   1.904754   2.845826   3.203561   4.541718
    11  H    2.548725   2.703727   2.177493   1.090013   2.160666
    12  H    4.917336   4.633031   3.441713   2.168687   1.089994
    13  H    6.164717   5.347191   3.928300   3.425907   2.168455
    14  H    5.835665   4.633061   3.442105   3.902197   3.421246
    15  H    4.052463   2.705341   2.177637   3.426905   3.899589
    16  H    3.103558   1.921982   2.512078   3.915245   4.893978
                    6          7          8          9         10
     6  C    0.000000
     7  C    1.405487   0.000000
     8  C    2.435391   1.406113   0.000000
     9  O    5.034659   4.221575   2.817047   0.000000
    10  H    5.381277   5.189381   4.070903   2.655091   0.000000
    11  H    3.419993   3.902095   3.427015   3.949319   2.857079
    12  H    2.166365   3.420677   3.899723   5.748140   5.144528
    13  H    1.089993   2.167321   3.423191   6.104600   6.420413
    14  H    2.166480   1.089996   2.167473   4.889451   6.135578
    15  H    3.416768   2.157976   1.089995   2.537962   4.405357
    16  H    4.862517   3.832506   2.462848   0.960000   3.494931
                   11         12         13         14         15
    11  H    0.000000
    12  H    2.485138   0.000000
    13  H    4.318572   2.495876   0.000000
    14  H    4.992072   4.321100   2.495497   0.000000
    15  H    4.337133   4.989547   4.314841   2.481556   0.000000
    16  H    4.465693   5.927947   5.880799   4.322458   1.852904
                   16
    16  H    0.000000
 Stoichiometry    C7H7O2(1+)
 Framework group  C1[X(C7H7O2)]
 Deg. of freedom    42
 Full point group                 C1      NOp   1
 Largest Abelian subgroup         C1      NOp   1
 Largest concise Abelian subgroup C1      NOp   1
                         Standard orientation:                         
 ---------------------------------------------------------------------
 Center     Atomic      Atomic             Coordinates (Angstroms)
 Number     Number       Type             X           Y           Z
 ---------------------------------------------------------------------
      1          8           0       -2.374098   -1.117604    0.058373
      2          6           0       -1.648422    0.023448   -0.041192
      3          6           0       -0.229190    0.006003   -0.039808
      4          6           0        0.482444   -1.218711   -0.098039
      5          6           0        1.889158   -1.237130   -0.055712
      6          6           0        2.607865   -0.032097    0.037279
      7          6           0        1.919201    1.192499    0.076015
      8          6           0        0.513886    1.211430    0.032610
      9          8           0       -2.297368    1.093305   -0.103970
     10          1           0       -2.531198   -1.317278    0.984112
     11          1           0       -0.060463   -2.160633   -0.176544
     12          1           0        2.423202   -2.186520   -0.095011
     13          1           0        3.696946   -0.047216    0.079198
     14          1           0        2.475149    2.127878    0.139889
     15          1           0       -0.004606    2.169942    0.055240
     16          1           0       -1.836957    1.935563   -0.089014
 ---------------------------------------------------------------------
 Rotational constants (GHZ):           3.7189130           1.2045283           0.9149627
 Leave Link  202 at Mon Oct 14 00:38:10 2019, MaxMem= 10737418240 cpu:               1.6 elap:               0.1
 (Enter /apps/cent7/gaussian/g16-A.03/g16-haswell/g16/l301.exe)
 Standard basis: 6-31G(d) (6D, 7F)
 Ernie: Thresh=  0.10000D-02 Tol=  0.10000D-05 Strict=F.
 There are   149 symmetry adapted cartesian basis functions of A   symmetry.
 There are   149 symmetry adapted basis functions of A   symmetry.
   149 basis functions,   280 primitive gaussians,   149 cartesian basis functions
    32 alpha electrons       32 beta electrons
       nuclear repulsion energy       416.7331125409 Hartrees.
 IExCor=  402 DFT=T Ex+Corr=B3LYP ExCW=0 ScaHFX=  0.200000
 ScaDFX=  0.800000  0.720000  1.000000  0.810000 ScalE2=  1.000000  1.000000
 IRadAn=      5 IRanWt=     -1 IRanGd=            0 ICorTp=0 IEmpDi=  4
 NAtoms=   16 NActive=   16 NUniq=   16 SFac= 1.00D+00 NAtFMM=   60 NAOKFM=F Big=F
 Integral buffers will be    131072 words long.
 Raffenetti 2 integral format.
 Two-electron integral symmetry is turned on.
 Leave Link  301 at Mon Oct 14 00:38:10 2019, MaxMem= 10737418240 cpu:               1.3 elap:               0.1
 (Enter /apps/cent7/gaussian/g16-A.03/g16-haswell/g16/l302.exe)
 NPDir=0 NMtPBC=     1 NCelOv=     1 NCel=       1 NClECP=     1 NCelD=      1
         NCelK=      1 NCelE2=     1 NClLst=     1 CellRange=     0.0.
 One-electron integrals computed using PRISM.
 One-electron integral symmetry used in STVInt
 NBasis=   149 RedAO= T EigKep=  5.03D-04  NBF=   149
 NBsUse=   149 1.00D-06 EigRej= -1.00D+00 NBFU=   149
 Precomputing XC quadrature grid using
 IXCGrd= 4 IRadAn=           5 IRanWt=          -1 IRanGd=           0 AccXCQ= 0.00D+00.
 Generated NRdTot=       0 NPtTot=           0 NUsed=           0 NTot=          32
 NSgBfM=   149   149   149   149   149 MxSgAt=    16 MxSgA2=    16.
 Leave Link  302 at Mon Oct 14 00:38:10 2019, MaxMem= 10737418240 cpu:               3.2 elap:               0.2
 (Enter /apps/cent7/gaussian/g16-A.03/g16-haswell/g16/l303.exe)
 DipDrv:  MaxL=1.
 Leave Link  303 at Mon Oct 14 00:38:10 2019, MaxMem= 10737418240 cpu:               0.7 elap:               0.1
 (Enter /apps/cent7/gaussian/g16-A.03/g16-haswell/g16/l401.exe)
 ExpMin= 1.61D-01 ExpMax= 5.48D+03 ExpMxC= 8.25D+02 IAcc=3 IRadAn=         5 AccDes= 0.00D+00
 Harris functional with IExCor=  402 and IRadAn=       5 diagonalized for initial guess.
 HarFok:  IExCor=  402 AccDes= 0.00D+00 IRadAn=         5 IDoV= 1 UseB2=F ITyADJ=14
 ICtDFT=  3500011 ScaDFX=  1.000000  1.000000  1.000000  1.000000
 FoFCou: FMM=F IPFlag=           0 FMFlag=      100000 FMFlg1=           0
         NFxFlg=           0 DoJE=T BraDBF=F KetDBF=T FulRan=T
         wScrn=  0.000000 ICntrl=       500 IOpCl=  0 I1Cent=   200000004 NGrid=           0
         NMat0=    1 NMatS0=      1 NMatT0=    0 NMatD0=    1 NMtDS0=    0 NMtDT0=    0
 Petite list used in FoFCou.
 Harris En= -421.172369934396    
 JPrj=0 DoOrth=F DoCkMO=F.
 Leave Link  401 at Mon Oct 14 00:38:11 2019, MaxMem= 10737418240 cpu:               6.6 elap:               0.3
 (Enter /apps/cent7/gaussian/g16-A.03/g16-haswell/g16/l502.exe)
 Integral symmetry usage will be decided dynamically.
 Closed shell SCF:
 Using DIIS extrapolation, IDIIS=  1040.
 NGot= 10737418240 LenX= 10737368533 LenY= 10737345891
 Requested convergence on RMS density matrix=1.00D-08 within 128 cycles.
 Requested convergence on MAX density matrix=1.00D-06.
 Requested convergence on             energy=1.00D-06.
 No special actions if energy rises.
 Fock matrices will be formed incrementally for  20 cycles.
 Integral accuracy reduced to 1.0D-05 until final iterations.

 Cycle   1  Pass 0  IDiag  1:
 FoFJK:  IHMeth= 1 ICntrl=       0 DoSepK=F KAlg= 0 I1Cent=           0 FoldK=F
 IRaf= 940000000 NMat=       1 IRICut=       1 DoRegI=T DoRafI=F ISym2E= 0 IDoP0=0 IntGTp=1.
 FoFCou: FMM=F IPFlag=           0 FMFlag=      100000 FMFlg1=           0
         NFxFlg=           0 DoJE=F BraDBF=F KetDBF=F FulRan=T
         wScrn=  0.000000 ICntrl=         0 IOpCl=  0 I1Cent=           0 NGrid=           0
         NMat0=    1 NMatS0=      1 NMatT0=    0 NMatD0=    1 NMtDS0=    0 NMtDT0=    0
 Symmetry not used in FoFCou.
 E= -420.925956738230    
 DIIS: error= 3.64D-02 at cycle   1 NSaved=   1.
 NSaved= 1 IEnMin= 1 EnMin= -420.925956738230     IErMin= 1 ErrMin= 3.64D-02
 ErrMax= 3.64D-02  0.00D+00 EMaxC= 1.00D-01 BMatC= 2.07D-01 BMatP= 2.07D-01
 IDIUse=3 WtCom= 6.36D-01 WtEn= 3.64D-01
 Coeff-Com:  0.100D+01
 Coeff-En:   0.100D+01
 Coeff:      0.100D+01
 Gap=     0.083 Goal=   None    Shift=    0.000
 GapD=    0.083 DampG=0.500 DampE=0.500 DampFc=0.2500 IDamp=-1.
 Damping current iteration by 2.50D-01
 RMSDP=7.64D-03 MaxDP=2.22D-01              OVMax= 5.03D-01

 Cycle   2  Pass 0  IDiag  1:
 RMSU=  1.88D-03    CP:  9.89D-01
 E= -420.988891082056     Delta-E=       -0.062934343826 Rises=F Damp=T
 DIIS: error= 1.87D-02 at cycle   2 NSaved=   2.
 NSaved= 2 IEnMin= 2 EnMin= -420.988891082056     IErMin= 2 ErrMin= 1.87D-02
 ErrMax= 1.87D-02  0.00D+00 EMaxC= 1.00D-01 BMatC= 4.49D-02 BMatP= 2.07D-01
 IDIUse=3 WtCom= 8.13D-01 WtEn= 1.87D-01
 Coeff-Com: -0.545D+00 0.155D+01
 Coeff-En:   0.000D+00 0.100D+01
 Coeff:     -0.443D+00 0.144D+01
 Gap=     0.143 Goal=   None    Shift=    0.000
 RMSDP=2.56D-03 MaxDP=4.96D-02 DE=-6.29D-02 OVMax= 4.80D-01

 Cycle   3  Pass 0  IDiag  1:
 RMSU=  2.45D-03    CP:  9.69D-01  1.24D+00
 E= -421.083905748993     Delta-E=       -0.095014666937 Rises=F Damp=F
 DIIS: error= 1.49D-02 at cycle   3 NSaved=   3.
 NSaved= 3 IEnMin= 3 EnMin= -421.083905748993     IErMin= 3 ErrMin= 1.49D-02
 ErrMax= 1.49D-02  0.00D+00 EMaxC= 1.00D-01 BMatC= 3.35D-02 BMatP= 4.49D-02
 IDIUse=3 WtCom= 8.51D-01 WtEn= 1.49D-01
 Coeff-Com: -0.368D+00 0.924D+00 0.444D+00
 Coeff-En:   0.000D+00 0.000D+00 0.100D+01
 Coeff:     -0.313D+00 0.787D+00 0.527D+00
 Gap=     0.145 Goal=   None    Shift=    0.000
 RMSDP=1.78D-03 MaxDP=4.15D-02 DE=-9.50D-02 OVMax= 1.50D-01

 Cycle   4  Pass 0  IDiag  1:
 RMSU=  1.17D-03    CP:  9.71D-01  1.61D+00  5.35D-01
 E= -421.115031359356     Delta-E=       -0.031125610364 Rises=F Damp=F
 DIIS: error= 7.12D-03 at cycle   4 NSaved=   4.
 NSaved= 4 IEnMin= 4 EnMin= -421.115031359356     IErMin= 4 ErrMin= 7.12D-03
 ErrMax= 7.12D-03  0.00D+00 EMaxC= 1.00D-01 BMatC= 6.38D-03 BMatP= 3.35D-02
 IDIUse=3 WtCom= 9.29D-01 WtEn= 7.12D-02
 Coeff-Com: -0.120D+00 0.258D+00 0.308D+00 0.553D+00
 Coeff-En:   0.000D+00 0.000D+00 0.167D+00 0.833D+00
 Coeff:     -0.111D+00 0.240D+00 0.298D+00 0.573D+00
 Gap=     0.148 Goal=   None    Shift=    0.000
 RMSDP=6.49D-04 MaxDP=1.88D-02 DE=-3.11D-02 OVMax= 4.98D-02

 Cycle   5  Pass 0  IDiag  1:
 RMSU=  3.02D-04    CP:  9.72D-01  1.47D+00  6.60D-01  6.45D-01
 E= -421.120908317466     Delta-E=       -0.005876958110 Rises=F Damp=F
 DIIS: error= 2.72D-03 at cycle   5 NSaved=   5.
 NSaved= 5 IEnMin= 5 EnMin= -421.120908317466     IErMin= 5 ErrMin= 2.72D-03
 ErrMax= 2.72D-03  0.00D+00 EMaxC= 1.00D-01 BMatC= 6.40D-04 BMatP= 6.38D-03
 IDIUse=3 WtCom= 9.73D-01 WtEn= 2.72D-02
 Coeff-Com: -0.394D-01 0.648D-01 0.101D+00 0.316D+00 0.557D+00
 Coeff-En:   0.000D+00 0.000D+00 0.000D+00 0.950D-01 0.905D+00
 Coeff:     -0.383D-01 0.630D-01 0.986D-01 0.310D+00 0.567D+00
 Gap=     0.150 Goal=   None    Shift=    0.000
 RMSDP=1.88D-04 MaxDP=5.11D-03 DE=-5.88D-03 OVMax= 1.22D-02

 Cycle   6  Pass 0  IDiag  1:
 RMSU=  9.34D-05    CP:  9.71D-01  1.51D+00  6.43D-01  7.17D-01  6.09D-01
 E= -421.121598077907     Delta-E=       -0.000689760441 Rises=F Damp=F
 DIIS: error= 4.34D-04 at cycle   6 NSaved=   6.
 NSaved= 6 IEnMin= 6 EnMin= -421.121598077907     IErMin= 6 ErrMin= 4.34D-04
 ErrMax= 4.34D-04  0.00D+00 EMaxC= 1.00D-01 BMatC= 4.15D-05 BMatP= 6.40D-04
 IDIUse=3 WtCom= 9.96D-01 WtEn= 4.34D-03
 Coeff-Com: -0.116D-01 0.135D-01 0.204D-01 0.108D+00 0.298D+00 0.571D+00
 Coeff-En:   0.000D+00 0.000D+00 0.000D+00 0.000D+00 0.000D+00 0.100D+01
 Coeff:     -0.116D-01 0.134D-01 0.203D-01 0.108D+00 0.297D+00 0.573D+00
 Gap=     0.149 Goal=   None    Shift=    0.000
 RMSDP=5.11D-05 MaxDP=1.44D-03 DE=-6.90D-04 OVMax= 2.92D-03

 Cycle   7  Pass 0  IDiag  1:
 RMSU=  3.76D-05    CP:  9.71D-01  1.51D+00  6.43D-01  7.15D-01  7.02D-01
                    CP:  8.05D-01
 E= -421.121634171538     Delta-E=       -0.000036093631 Rises=F Damp=F
 DIIS: error= 2.20D-04 at cycle   7 NSaved=   7.
 NSaved= 7 IEnMin= 7 EnMin= -421.121634171538     IErMin= 7 ErrMin= 2.20D-04
 ErrMax= 2.20D-04  0.00D+00 EMaxC= 1.00D-01 BMatC= 6.49D-06 BMatP= 4.15D-05
 IDIUse=3 WtCom= 9.98D-01 WtEn= 2.20D-03
 Coeff-Com: -0.398D-02 0.332D-02-0.283D-03 0.240D-01 0.109D+00 0.349D+00
 Coeff-Com:  0.519D+00
 Coeff-En:   0.000D+00 0.000D+00 0.000D+00 0.000D+00 0.000D+00 0.688D-01
 Coeff-En:   0.931D+00
 Coeff:     -0.397D-02 0.331D-02-0.282D-03 0.240D-01 0.109D+00 0.348D+00
 Coeff:      0.520D+00
 Gap=     0.150 Goal=   None    Shift=    0.000
 RMSDP=1.71D-05 MaxDP=4.73D-04 DE=-3.61D-05 OVMax= 7.82D-04

 Cycle   8  Pass 0  IDiag  1:
 RMSU=  8.26D-06    CP:  9.71D-01  1.51D+00  6.43D-01  7.18D-01  6.91D-01
                    CP:  8.18D-01  6.32D-01
 E= -421.121640045188     Delta-E=       -0.000005873650 Rises=F Damp=F
 DIIS: error= 2.52D-05 at cycle   8 NSaved=   8.
 NSaved= 8 IEnMin= 8 EnMin= -421.121640045188     IErMin= 8 ErrMin= 2.52D-05
 ErrMax= 2.52D-05  0.00D+00 EMaxC= 1.00D-01 BMatC= 1.89D-07 BMatP= 6.49D-06
 IDIUse=1 WtCom= 1.00D+00 WtEn= 0.00D+00
 Coeff-Com: -0.940D-03 0.710D-03-0.230D-02-0.515D-03 0.181D-01 0.893D-01
 Coeff-Com:  0.189D+00 0.707D+00
 Coeff:     -0.940D-03 0.710D-03-0.230D-02-0.515D-03 0.181D-01 0.893D-01
 Coeff:      0.189D+00 0.707D+00
 Gap=     0.150 Goal=   None    Shift=    0.000
 RMSDP=3.82D-06 MaxDP=9.61D-05 DE=-5.87D-06 OVMax= 1.30D-04

 Initial convergence to 1.0D-05 achieved.  Increase integral accuracy.
 Cycle   9  Pass 1  IDiag  1:
 E= -421.121647756284     Delta-E=       -0.000007711096 Rises=F Damp=F
 DIIS: error= 1.87D-05 at cycle   1 NSaved=   1.
 NSaved= 1 IEnMin= 1 EnMin= -421.121647756284     IErMin= 1 ErrMin= 1.87D-05
 ErrMax= 1.87D-05  0.00D+00 EMaxC= 1.00D-01 BMatC= 9.65D-08 BMatP= 9.65D-08
 IDIUse=1 WtCom= 1.00D+00 WtEn= 0.00D+00
 Coeff-Com:  0.100D+01
 Coeff:      0.100D+01
 Gap=     0.150 Goal=   None    Shift=    0.000
 RMSDP=3.82D-06 MaxDP=9.61D-05 DE=-7.71D-06 OVMax= 3.00D-04

 Cycle  10  Pass 1  IDiag  1:
 RMSU=  8.39D-06    CP:  1.00D+00
 E= -421.121647613433     Delta-E=        0.000000142851 Rises=F Damp=F
 DIIS: error= 3.25D-05 at cycle   2 NSaved=   2.
 NSaved= 2 IEnMin= 1 EnMin= -421.121647756284     IErMin= 1 ErrMin= 1.87D-05
 ErrMax= 3.25D-05  0.00D+00 EMaxC= 1.00D-01 BMatC= 2.50D-07 BMatP= 9.65D-08
 IDIUse=1 WtCom= 1.00D+00 WtEn= 0.00D+00
 Coeff-Com:  0.622D+00 0.378D+00
 Coeff:      0.622D+00 0.378D+00
 Gap=     0.150 Goal=   None    Shift=    0.000
 RMSDP=3.32D-06 MaxDP=6.93D-05 DE= 1.43D-07 OVMax= 2.12D-04

 Cycle  11  Pass 1  IDiag  1:
 RMSU=  2.57D-06    CP:  1.00D+00  7.49D-01
 E= -421.121647839898     Delta-E=       -0.000000226465 Rises=F Damp=F
 DIIS: error= 5.35D-06 at cycle   3 NSaved=   3.
 NSaved= 3 IEnMin= 3 EnMin= -421.121647839898     IErMin= 3 ErrMin= 5.35D-06
 ErrMax= 5.35D-06  0.00D+00 EMaxC= 1.00D-01 BMatC= 2.71D-09 BMatP= 9.65D-08
 IDIUse=1 WtCom= 1.00D+00 WtEn= 0.00D+00
 Coeff-Com:  0.175D+00 0.139D+00 0.686D+00
 Coeff:      0.175D+00 0.139D+00 0.686D+00
 Gap=     0.150 Goal=   None    Shift=    0.000
 RMSDP=6.14D-07 MaxDP=1.95D-05 DE=-2.26D-07 OVMax= 4.55D-05

 Cycle  12  Pass 1  IDiag  1:
 RMSU=  5.44D-07    CP:  1.00D+00  7.67D-01  9.07D-01
 E= -421.121647840754     Delta-E=       -0.000000000855 Rises=F Damp=F
 DIIS: error= 4.85D-06 at cycle   4 NSaved=   4.
 NSaved= 4 IEnMin= 4 EnMin= -421.121647840754     IErMin= 4 ErrMin= 4.85D-06
 ErrMax= 4.85D-06  0.00D+00 EMaxC= 1.00D-01 BMatC= 1.96D-09 BMatP= 2.71D-09
 IDIUse=1 WtCom= 1.00D+00 WtEn= 0.00D+00
 Coeff-Com:  0.187D-02 0.241D-01 0.483D+00 0.491D+00
 Coeff:      0.187D-02 0.241D-01 0.483D+00 0.491D+00
 Gap=     0.150 Goal=   None    Shift=    0.000
 RMSDP=3.17D-07 MaxDP=1.00D-05 DE=-8.55D-10 OVMax= 2.22D-05

 Cycle  13  Pass 1  IDiag  1:
 RMSU=  8.59D-08    CP:  1.00D+00  7.67D-01  9.47D-01  4.72D-01
 E= -421.121647842844     Delta-E=       -0.000000002090 Rises=F Damp=F
 DIIS: error= 4.81D-07 at cycle   5 NSaved=   5.
 NSaved= 5 IEnMin= 5 EnMin= -421.121647842844     IErMin= 5 ErrMin= 4.81D-07
 ErrMax= 4.81D-07  0.00D+00 EMaxC= 1.00D-01 BMatC= 3.98D-11 BMatP= 1.96D-09
 IDIUse=1 WtCom= 1.00D+00 WtEn= 0.00D+00
 Coeff-Com: -0.330D-02 0.926D-02 0.235D+00 0.265D+00 0.494D+00
 Coeff:     -0.330D-02 0.926D-02 0.235D+00 0.265D+00 0.494D+00
 Gap=     0.150 Goal=   None    Shift=    0.000
 RMSDP=4.96D-08 MaxDP=1.29D-06 DE=-2.09D-09 OVMax= 3.21D-06

 Cycle  14  Pass 1  IDiag  1:
 RMSU=  2.90D-08    CP:  1.00D+00  7.68D-01  9.44D-01  4.95D-01  5.83D-01
 E= -421.121647842881     Delta-E=       -0.000000000037 Rises=F Damp=F
 DIIS: error= 1.59D-07 at cycle   6 NSaved=   6.
 NSaved= 6 IEnMin= 6 EnMin= -421.121647842881     IErMin= 6 ErrMin= 1.59D-07
 ErrMax= 1.59D-07  0.00D+00 EMaxC= 1.00D-01 BMatC= 3.16D-12 BMatP= 3.98D-11
 IDIUse=1 WtCom= 1.00D+00 WtEn= 0.00D+00
 Coeff-Com: -0.212D-02 0.320D-02 0.917D-01 0.110D+00 0.274D+00 0.523D+00
 Coeff:     -0.212D-02 0.320D-02 0.917D-01 0.110D+00 0.274D+00 0.523D+00
 Gap=     0.150 Goal=   None    Shift=    0.000
 RMSDP=1.54D-08 MaxDP=3.25D-07 DE=-3.73D-11 OVMax= 1.12D-06

 Cycle  15  Pass 1  IDiag  1:
 RMSU=  1.14D-08    CP:  1.00D+00  7.68D-01  9.44D-01  4.97D-01  6.71D-01
                    CP:  7.59D-01
 E= -421.121647842884     Delta-E=       -0.000000000003 Rises=F Damp=F
 DIIS: error= 5.14D-08 at cycle   7 NSaved=   7.
 NSaved= 7 IEnMin= 7 EnMin= -421.121647842884     IErMin= 7 ErrMin= 5.14D-08
 ErrMax= 5.14D-08  0.00D+00 EMaxC= 1.00D-01 BMatC= 4.36D-13 BMatP= 3.16D-12
 IDIUse=1 WtCom= 1.00D+00 WtEn= 0.00D+00
 Coeff-Com: -0.606D-03-0.322D-04 0.653D-02 0.128D-01 0.683D-01 0.300D+00
 Coeff-Com:  0.613D+00
 Coeff:     -0.606D-03-0.322D-04 0.653D-02 0.128D-01 0.683D-01 0.300D+00
 Coeff:      0.613D+00
 Gap=     0.150 Goal=   None    Shift=    0.000
 RMSDP=5.99D-09 MaxDP=9.95D-08 DE=-2.84D-12 OVMax= 4.45D-07

 SCF Done:  E(RB3LYP) =  -421.121647843     A.U. after   15 cycles
            NFock= 15  Conv=0.60D-08     -V/T= 2.0095
 KE= 4.171592707196D+02 PE=-1.801822860817D+03 EE= 5.468088297140D+02
 Leave Link  502 at Mon Oct 14 00:38:13 2019, MaxMem= 10737418240 cpu:              62.0 elap:               2.6
 (Enter /apps/cent7/gaussian/g16-A.03/g16-haswell/g16/l601.exe)
 Copying SCF densities to generalized density rwf, IOpCl= 0 IROHF=0.

 **********************************************************************

            Population analysis using the SCF density.

 **********************************************************************

 Orbital symmetries:
       Occupied  (A) (A) (A) (A) (A) (A) (A) (A) (A) (A) (A) (A)
                 (A) (A) (A) (A) (A) (A) (A) (A) (A) (A) (A) (A)
                 (A) (A) (A) (A) (A) (A) (A) (A)
       Virtual   (A) (A) (A) (A) (A) (A) (A) (A) (A) (A) (A) (A)
                 (A) (A) (A) (A) (A) (A) (A) (A) (A) (A) (A) (A)
                 (A) (A) (A) (A) (A) (A) (A) (A) (A) (A) (A) (A)
                 (A) (A) (A) (A) (A) (A) (A) (A) (A) (A) (A) (A)
                 (A) (A) (A) (A) (A) (A) (A) (A) (A) (A) (A) (A)
                 (A) (A) (A) (A) (A) (A) (A) (A) (A) (A) (A) (A)
                 (A) (A) (A) (A) (A) (A) (A) (A) (A) (A) (A) (A)
                 (A) (A) (A) (A) (A) (A) (A) (A) (A) (A) (A) (A)
                 (A) (A) (A) (A) (A) (A) (A) (A) (A) (A) (A) (A)
                 (A) (A) (A) (A) (A) (A) (A) (A) (A)
 The electronic state is 1-A.
 Alpha  occ. eigenvalues --  -19.44010 -19.39127 -10.57035 -10.40357 -10.39978
 Alpha  occ. eigenvalues --  -10.39075 -10.38416 -10.37680 -10.37213  -1.36664
 Alpha  occ. eigenvalues --   -1.26613  -1.04719  -0.96672  -0.92968  -0.90891
 Alpha  occ. eigenvalues --   -0.83118  -0.80212  -0.77736  -0.73650  -0.69064
 Alpha  occ. eigenvalues --   -0.67536  -0.64395  -0.62786  -0.60612  -0.60368
 Alpha  occ. eigenvalues --   -0.58530  -0.55064  -0.54066  -0.52814  -0.52692
 Alpha  occ. eigenvalues --   -0.45242  -0.43314
 Alpha virt. eigenvalues --   -0.28356  -0.18539  -0.15551  -0.13888  -0.09541
 Alpha virt. eigenvalues --   -0.05197  -0.02078  -0.01100   0.00034   0.02340
 Alpha virt. eigenvalues --    0.03935   0.05793   0.06912   0.10289   0.12374
 Alpha virt. eigenvalues --    0.14838   0.19456   0.22745   0.28042   0.31653
 Alpha virt. eigenvalues --    0.33159   0.34913   0.36872   0.37603   0.38443
 Alpha virt. eigenvalues --    0.39701   0.41816   0.41994   0.43681   0.44146
 Alpha virt. eigenvalues --    0.44912   0.46327   0.48010   0.52145   0.53306
 Alpha virt. eigenvalues --    0.58244   0.59850   0.62937   0.66425   0.66947
 Alpha virt. eigenvalues --    0.67457   0.69407   0.71854   0.73616   0.74391
 Alpha virt. eigenvalues --    0.76079   0.77123   0.78822   0.84843   0.86038
 Alpha virt. eigenvalues --    0.87484   0.91297   0.92924   0.97631   1.00393
 Alpha virt. eigenvalues --    1.02685   1.06104   1.08331   1.10481   1.20747
 Alpha virt. eigenvalues --    1.21572   1.24672   1.25786   1.27712   1.29201
 Alpha virt. eigenvalues --    1.29941   1.30381   1.32417   1.46087   1.48574
 Alpha virt. eigenvalues --    1.52447   1.55378   1.59858   1.62278   1.64563
 Alpha virt. eigenvalues --    1.67264   1.70053   1.71974   1.76317   1.78252
 Alpha virt. eigenvalues --    1.82818   1.84855   1.90686   1.93587   1.94155
 Alpha virt. eigenvalues --    1.96532   2.05485   2.06559   2.07861   2.10802
 Alpha virt. eigenvalues --    2.16741   2.18629   2.27174   2.31927   2.34934
 Alpha virt. eigenvalues --    2.38805   2.40247   2.44752   2.46510   2.53269
 Alpha virt. eigenvalues --    2.53802   2.55452   2.60940   2.70812   2.72720
 Alpha virt. eigenvalues --    2.85753   2.99792   3.20521   3.65003   3.87723
 Alpha virt. eigenvalues --    3.91930   3.92392   4.01877   4.07379   4.14646
 Alpha virt. eigenvalues --    4.23821   4.52063
          Condensed to atoms (all electrons):
               1          2          3          4          5          6
     1  O    8.098426   0.343627  -0.081962   0.000552   0.000492  -0.000006
     2  C    0.343627   4.468389   0.370413  -0.036982   0.005010   0.000163
     3  C   -0.081962   0.370413   4.937264   0.485445  -0.020103  -0.029666
     4  C    0.000552  -0.036982   0.485445   4.957262   0.511942  -0.032562
     5  C    0.000492   0.005010  -0.020103   0.511942   4.866144   0.522777
     6  C   -0.000006   0.000163  -0.029666  -0.032562   0.522777   4.832946
     7  C   -0.000036   0.004264  -0.022864  -0.035129  -0.029207   0.525598
     8  C    0.003209  -0.038325   0.439878  -0.053866  -0.038257  -0.034924
     9  O   -0.073518   0.366848  -0.078588   0.003617  -0.000076  -0.000007
    10  H    0.246723  -0.008483  -0.000745  -0.000396   0.000006   0.000002
    11  H    0.008601  -0.009581  -0.043338   0.364160  -0.030808   0.003951
    12  H   -0.000002  -0.000126   0.002948  -0.031362   0.365916  -0.034851
    13  H   -0.000000   0.000007   0.000572   0.003829  -0.034852   0.363526
    14  H    0.000000  -0.000130   0.002980   0.000608   0.003692  -0.033483
    15  H    0.000023  -0.007003  -0.064780   0.004145   0.000283   0.003970
    16  H    0.003368  -0.013362  -0.008505  -0.000079  -0.000005   0.000012
               7          8          9         10         11         12
     1  O   -0.000036   0.003209  -0.073518   0.246723   0.008601  -0.000002
     2  C    0.004264  -0.038325   0.366848  -0.008483  -0.009581  -0.000126
     3  C   -0.022864   0.439878  -0.078588  -0.000745  -0.043338   0.002948
     4  C   -0.035129  -0.053866   0.003617  -0.000396   0.364160  -0.031362
     5  C   -0.029207  -0.038257  -0.000076   0.000006  -0.030808   0.365916
     6  C    0.525598  -0.034924  -0.000007   0.000002   0.003951  -0.034851
     7  C    4.822981   0.537559   0.000677   0.000005   0.000187   0.003770
     8  C    0.537559   5.023681  -0.003164  -0.000172   0.004428   0.000585
     9  O    0.000677  -0.003164   7.979190  -0.000258   0.000136   0.000000
    10  H    0.000005  -0.000172  -0.000258   0.285436  -0.000363  -0.000000
    11  H    0.000187   0.004428   0.000136  -0.000363   0.497871  -0.003951
    12  H    0.003770   0.000585   0.000000  -0.000000  -0.003951   0.492401
    13  H   -0.034945   0.004396  -0.000000  -0.000000  -0.000118  -0.003905
    14  H    0.364979  -0.032578   0.000001  -0.000000   0.000010  -0.000126
    15  H   -0.017362   0.348848   0.002052  -0.000002  -0.000117   0.000013
    16  H    0.000215   0.011216   0.239454  -0.000136  -0.000016   0.000000
              13         14         15         16
     1  O   -0.000000   0.000000   0.000023   0.003368
     2  C    0.000007  -0.000130  -0.007003  -0.013362
     3  C    0.000572   0.002980  -0.064780  -0.008505
     4  C    0.003829   0.000608   0.004145  -0.000079
     5  C   -0.034852   0.003692   0.000283  -0.000005
     6  C    0.363526  -0.033483   0.003970   0.000012
     7  C   -0.034945   0.364979  -0.017362   0.000215
     8  C    0.004396  -0.032578   0.348848   0.011216
     9  O   -0.000000   0.000001   0.002052   0.239454
    10  H   -0.000000  -0.000000  -0.000002  -0.000136
    11  H   -0.000118   0.000010  -0.000117  -0.000016
    12  H   -0.003905  -0.000126   0.000013   0.000000
    13  H    0.490074  -0.003931  -0.000139  -0.000000
    14  H   -0.003931   0.494776  -0.004277  -0.000006
    15  H   -0.000139  -0.004277   0.563039   0.014200
    16  H   -0.000000  -0.000006   0.014200   0.265418
 Mulliken charges:
               1
     1  O   -0.549497
     2  C    0.555272
     3  C    0.111051
     4  C   -0.141181
     5  C   -0.122955
     6  C   -0.087447
     7  C   -0.120692
     8  C   -0.172512
     9  O   -0.436366
    10  H    0.478383
    11  H    0.208948
    12  H    0.208689
    13  H    0.215487
    14  H    0.207485
    15  H    0.157110
    16  H    0.488226
 Sum of Mulliken charges =   1.00000
 Mulliken charges with hydrogens summed into heavy atoms:
               1
     1  O   -0.071114
     2  C    0.555272
     3  C    0.111051
     4  C    0.067767
     5  C    0.085734
     6  C    0.128041
     7  C    0.086792
     8  C   -0.015403
     9  O    0.051860
 Electronic spatial extent (au):  <R**2>=           1178.9620
 Charge=              1.0000 electrons
 Dipole moment (field-independent basis, Debye):
    X=             -0.2644    Y=              1.4041    Z=              1.6240  Tot=              2.1630
 Quadrupole moment (field-independent basis, Debye-Ang):
   XX=            -27.8987   YY=            -33.2642   ZZ=            -49.2544
   XY=             -1.8312   XZ=             -4.3635   YZ=             -2.2441
 Traceless Quadrupole moment (field-independent basis, Debye-Ang):
   XX=              8.9071   YY=              3.5416   ZZ=            -12.4486
   XY=             -1.8312   XZ=             -4.3635   YZ=             -2.2441
 Octapole moment (field-independent basis, Debye-Ang**2):
  XXX=             13.0964  YYY=             11.3424  ZZZ=              3.1114  XYY=            -10.0041
  XXY=             -1.1296  XXZ=             13.8861  XZZ=            -17.4055  YZZ=             -2.9635
  YYZ=              3.1485  XYZ=              8.1820
 Hexadecapole moment (field-independent basis, Debye-Ang**3):
 XXXX=           -854.2643 YYYY=           -302.1148 ZZZZ=            -49.0218 XXXY=             12.1606
 XXXZ=            -32.1525 YYYX=            -21.6733 YYYZ=             -5.4985 ZZZX=             -8.2344
 ZZZY=             -5.9321 XXYY=           -175.6776 XXZZ=           -169.4459 YYZZ=            -72.5559
 XXYZ=            -17.4676 YYXZ=             -9.3483 ZZXY=              7.6062
 N-N= 4.167331125409D+02 E-N=-1.801822865556D+03  KE= 4.171592707196D+02
 No NMR shielding tensors so no spin-rotation constants.
 Leave Link  601 at Mon Oct 14 00:38:13 2019, MaxMem= 10737418240 cpu:               2.2 elap:               0.1
 (Enter /apps/cent7/gaussian/g16-A.03/g16-haswell/g16/l701.exe)
 ... and contract with generalized density number  0.
 Compute integral first derivatives.
 Leave Link  701 at Mon Oct 14 00:38:14 2019, MaxMem= 10737418240 cpu:               2.9 elap:               0.2
 (Enter /apps/cent7/gaussian/g16-A.03/g16-haswell/g16/l702.exe)
 L702 exits ... SP integral derivatives will be done elsewhere.
 Leave Link  702 at Mon Oct 14 00:38:14 2019, MaxMem= 10737418240 cpu:               0.4 elap:               0.0
 (Enter /apps/cent7/gaussian/g16-A.03/g16-haswell/g16/l703.exe)
 Integral derivatives from FoFJK, PRISM(SPDF).
 Compute integral first derivatives, UseDBF=F ICtDFT=           0.
 Calling FoFJK, ICntrl=      2127 FMM=F ISym2X=0 I1Cent= 0 IOpClX= 0 NMat=1 NMatS=1 NMatT=0.
 FoFJK:  IHMeth= 1 ICntrl=    2127 DoSepK=F KAlg= 0 I1Cent=           0 FoldK=F
 IRaf=         0 NMat=       1 IRICut=       1 DoRegI=T DoRafI=F ISym2E= 0 IDoP0=0 IntGTp=1.
 FoFCou: FMM=F IPFlag=           0 FMFlag=      100000 FMFlg1=         800
         NFxFlg=           0 DoJE=F BraDBF=F KetDBF=F FulRan=T
         wScrn=  0.000000 ICntrl=      2127 IOpCl=  0 I1Cent=           0 NGrid=           0
         NMat0=    1 NMatS0=      1 NMatT0=    0 NMatD0=    1 NMtDS0=    0 NMtDT0=    0
 Symmetry not used in FoFCou.
 Leave Link  703 at Mon Oct 14 00:38:14 2019, MaxMem= 10737418240 cpu:              15.3 elap:               0.7
 (Enter /apps/cent7/gaussian/g16-A.03/g16-haswell/g16/l716.exe)
 Dipole        =-1.04017726D-01 5.52401144D-01 6.38919744D-01
 ***** Axes restored to original set *****
 -------------------------------------------------------------------
 Center     Atomic                   Forces (Hartrees/Bohr)
 Number     Number              X              Y              Z
 -------------------------------------------------------------------
      1        8           0.014357822    0.030264525   -0.023697401
      2        6           0.024625810   -0.042912772    0.012911020
      3        6           0.019210169   -0.006695510   -0.003911464
      4        6           0.013405928   -0.008832327    0.002042031
      5        6          -0.011220468    0.001865968    0.000156649
      6        6          -0.006849895   -0.003604493    0.000460756
      7        6          -0.015495650    0.002759643    0.000499923
      8        6           0.015822700    0.004362387   -0.002754391
      9        8          -0.057738886    0.014500780    0.003905258
     10        1          -0.005808354   -0.006036430    0.015688717
     11        1           0.000606384    0.003719357   -0.000189476
     12        1          -0.003067268    0.002513254   -0.000151216
     13        1          -0.003040982    0.000118586   -0.000170353
     14        1          -0.002789765   -0.002639762    0.000290770
     15        1           0.005753987    0.001319263    0.000901964
     16        1           0.012228465    0.009297530   -0.005982787
 -------------------------------------------------------------------
 Cartesian Forces:  Max     0.057738886 RMS     0.014391109
 Leave Link  716 at Mon Oct 14 00:38:14 2019, MaxMem= 10737418240 cpu:               0.5 elap:               0.0
 (Enter /apps/cent7/gaussian/g16-A.03/g16-haswell/g16/l103.exe)

 GradGradGradGradGradGradGradGradGradGradGradGradGradGradGradGradGradGrad
 Berny optimization.
 FormGI is forming the generalized inverse of G from B-inverse, IUseBI=4.
 Internal  Forces:  Max     0.045160868 RMS     0.009308077
 Search for a local minimum.
 Step number   1 out of a maximum of   81
 All quantities printed in internal units (Hartrees-Bohrs-Radians)
 RMS Force = .93081D-02 SwitMx=.10000D-02 MixMth= 1
 Mixed Optimization -- RFO/linear search
 Second derivative matrix not updated -- first step.
 ITU=  0
     Eigenvalues ---    0.01833   0.01849   0.01880   0.01918   0.01933
     Eigenvalues ---    0.01972   0.01998   0.02009   0.02011   0.02013
     Eigenvalues ---    0.02275   0.02368   0.03638   0.16000   0.16000
     Eigenvalues ---    0.16000   0.16000   0.16000   0.16000   0.16000
     Eigenvalues ---    0.21998   0.22000   0.23465   0.24996   0.24997
     Eigenvalues ---    0.24999   0.34811   0.34813   0.34813   0.34813
     Eigenvalues ---    0.34813   0.39993   0.40184   0.42560   0.43219
     Eigenvalues ---    0.43918   0.44502   0.44657   0.53781   0.55473
     Eigenvalues ---    0.55480   0.82188
 RFO step:  Lambda=-1.65762351D-02 EMin= 1.83292290D-02
 Linear search not attempted -- first point.
 Iteration  1 RMS(Cart)=  0.07101393 RMS(Int)=  0.00379644
 Iteration  2 RMS(Cart)=  0.00486709 RMS(Int)=  0.00113580
 Iteration  3 RMS(Cart)=  0.00002545 RMS(Int)=  0.00113554
 Iteration  4 RMS(Cart)=  0.00000001 RMS(Int)=  0.00113554
 ITry= 1 IFail=0 DXMaxC= 2.71D-01 DCOld= 1.00D+10 DXMaxT= 3.00D-01 DXLimC= 3.00D+00 Rises=F
 Variable       Old X    -DE/DX   Delta X   Delta X   Delta X     New X
                                 (Linear)    (Quad)   (Total)
    R1        2.56232  -0.02621   0.00000  -0.04728  -0.04728   2.51504
    R2        1.81408   0.01690   0.00000   0.02957   0.02957   1.84365
    R3        2.68216   0.01236   0.00000   0.02795   0.02795   2.71011
    R4        2.36757   0.04516   0.00000   0.05386   0.05386   2.42143
    R5        2.67898  -0.00035   0.00000  -0.00012  -0.00016   2.67882
    R6        2.67946   0.00406   0.00000   0.00990   0.00988   2.68933
    R7        2.65973  -0.02002   0.00000  -0.04357  -0.04359   2.61615
    R8        2.05983  -0.00358   0.00000  -0.00981  -0.00981   2.05002
    R9        2.65726  -0.00519   0.00000  -0.01196  -0.01194   2.64532
   R10        2.05979  -0.00374   0.00000  -0.01026  -0.01026   2.04953
   R11        2.65599  -0.00152   0.00000  -0.00393  -0.00389   2.65209
   R12        2.05979  -0.00303   0.00000  -0.00831  -0.00831   2.05148
   R13        2.65717  -0.02241   0.00000  -0.04831  -0.04830   2.60887
   R14        2.05979  -0.00366   0.00000  -0.01002  -0.01002   2.04977
   R15        2.05979  -0.00180   0.00000  -0.00493  -0.00493   2.05486
   R16        1.81414   0.01413   0.00000   0.02472   0.02472   1.83886
    A1        1.91074   0.00939   0.00000   0.05315   0.05315   1.96389
    A2        2.12320  -0.00616   0.00000  -0.02218  -0.02500   2.09820
    A3        2.03206  -0.01951   0.00000  -0.07218  -0.07483   1.95722
    A4        2.12760   0.02580   0.00000   0.09779   0.09454   2.22214
    A5        2.10891  -0.01140   0.00000  -0.04421  -0.04418   2.06473
    A6        2.11020   0.00733   0.00000   0.02605   0.02608   2.13629
    A7        2.06402   0.00408   0.00000   0.01817   0.01811   2.08214
    A8        2.10805  -0.00314   0.00000  -0.01177  -0.01186   2.09620
    A9        2.09378   0.00035   0.00000  -0.00102  -0.00104   2.09274
   A10        2.08135   0.00279   0.00000   0.01279   0.01278   2.09413
   A11        2.09626  -0.00100   0.00000  -0.00548  -0.00548   2.09078
   A12        2.09440  -0.00083   0.00000  -0.00479  -0.00479   2.08961
   A13        2.09253   0.00183   0.00000   0.01027   0.01027   2.10280
   A14        2.09215   0.00495   0.00000   0.01857   0.01862   2.11077
   A15        2.09595  -0.00227   0.00000  -0.00811  -0.00813   2.08781
   A16        2.09508  -0.00268   0.00000  -0.01047  -0.01049   2.08460
   A17        2.09507  -0.00094   0.00000  -0.00464  -0.00460   2.09047
   A18        2.09371   0.00171   0.00000   0.00933   0.00931   2.10302
   A19        2.09441  -0.00077   0.00000  -0.00470  -0.00471   2.08969
   A20        2.11052  -0.00395   0.00000  -0.01460  -0.01464   2.09588
   A21        2.09366   0.00772   0.00000   0.03984   0.03983   2.13349
   A22        2.07900  -0.00377   0.00000  -0.02524  -0.02525   2.05375
   A23        2.09440  -0.01211   0.00000  -0.06858  -0.06858   2.02581
    D1        1.55232   0.00481   0.00000   0.11535   0.11028   1.66260
    D2       -1.56223  -0.00136   0.00000  -0.02745  -0.02238  -1.58461
    D3        0.13541  -0.00347   0.00000  -0.09101  -0.09292   0.04249
    D4       -2.99565  -0.00357   0.00000  -0.09307  -0.09490  -3.09055
    D5       -3.03471   0.00230   0.00000   0.05686   0.05870  -2.97601
    D6        0.11743   0.00221   0.00000   0.05481   0.05672   0.17414
    D7        3.03740   0.00696   0.00000   0.14864   0.14901  -3.09677
    D8       -0.07708   0.00131   0.00000   0.00747   0.00710  -0.06998
    D9       -3.10771  -0.00064   0.00000  -0.01678  -0.01669  -3.12440
   D10        0.03386  -0.00004   0.00000  -0.00038  -0.00042   0.03344
   D11        0.02362  -0.00052   0.00000  -0.01472  -0.01471   0.00890
   D12       -3.11800   0.00008   0.00000   0.00168   0.00156  -3.11644
   D13        3.10672   0.00026   0.00000   0.00887   0.00882   3.11553
   D14       -0.03496   0.00069   0.00000   0.02086   0.02103  -0.01393
   D15       -0.02460   0.00026   0.00000   0.00723   0.00718  -0.01742
   D16        3.11691   0.00069   0.00000   0.01922   0.01940   3.13630
   D17       -0.00674   0.00041   0.00000   0.01145   0.01136   0.00463
   D18        3.13484   0.00047   0.00000   0.01303   0.01295  -3.13540
   D19        3.13488  -0.00018   0.00000  -0.00483  -0.00492   3.12996
   D20       -0.00673  -0.00012   0.00000  -0.00325  -0.00334  -0.01006
   D21       -0.00980  -0.00000   0.00000  -0.00015  -0.00025  -0.01006
   D22        3.13186  -0.00000   0.00000  -0.00004  -0.00007   3.13179
   D23        3.13180  -0.00006   0.00000  -0.00173  -0.00185   3.12995
   D24       -0.00972  -0.00006   0.00000  -0.00162  -0.00166  -0.01139
   D25        0.00886  -0.00027   0.00000  -0.00734  -0.00733   0.00152
   D26       -3.13289  -0.00026   0.00000  -0.00678  -0.00671  -3.13960
   D27       -3.13281  -0.00027   0.00000  -0.00744  -0.00752  -3.14032
   D28        0.00863  -0.00026   0.00000  -0.00689  -0.00689   0.00174
   D29        0.00865   0.00011   0.00000   0.00357   0.00356   0.01222
   D30       -3.13285  -0.00032   0.00000  -0.00832  -0.00811  -3.14096
   D31       -3.13278   0.00010   0.00000   0.00301   0.00294  -3.12984
   D32        0.00890  -0.00033   0.00000  -0.00888  -0.00873   0.00017
         Item               Value     Threshold  Converged?
 Maximum Force            0.045161     0.000450     NO 
 RMS     Force            0.009308     0.000300     NO 
 Maximum Displacement     0.270777     0.001800     NO 
 RMS     Displacement     0.071703     0.001200     NO 
 Predicted change in Energy=-9.137128D-03
 Lowest energy point so far.  Saving SCF results.
 GradGradGradGradGradGradGradGradGradGradGradGradGradGradGradGradGradGrad

 Leave Link  103 at Mon Oct 14 00:38:15 2019, MaxMem= 10737418240 cpu:               2.5 elap:               0.1
 (Enter /apps/cent7/gaussian/g16-A.03/g16-haswell/g16/l202.exe)
                          Input orientation:                          
 ---------------------------------------------------------------------
 Center     Atomic      Atomic             Coordinates (Angstroms)
 Number     Number       Type             X           Y           Z
 ---------------------------------------------------------------------
      1          8           0       -2.655178   -0.025452    0.328636
      2          6           0       -2.041404    1.149524    0.210286
      3          6           0       -0.612924    1.209611    0.098198
      4          6           0        0.110413   -0.009056    0.064469
      5          6           0        1.492008    0.005701   -0.022489
      6          6           0        2.172819    1.227856   -0.071395
      7          6           0        1.473951    2.444625   -0.045641
      8          6           0        0.095516    2.442036    0.030753
      9          8           0       -2.871607    2.117932    0.088433
     10          1           0       -2.832775   -0.262348    1.258244
     11          1           0       -0.421044   -0.954388    0.091650
     12          1           0        2.038917   -0.930351   -0.053699
     13          1           0        3.256782    1.236282   -0.130335
     14          1           0        2.008708    3.387484   -0.085749
     15          1           0       -0.411094    3.404043    0.047961
     16          1           0       -2.483026    3.000594   -0.041198
 ---------------------------------------------------------------------
                    Distance matrix (angstroms):
                    1          2          3          4          5
     1  O    0.000000
     2  C    1.330900   0.000000
     3  C    2.397766   1.434130   0.000000
     4  C    2.778228   2.448242   1.417569   0.000000
     5  C    4.162140   3.721224   2.427900   1.384407   0.000000
     6  C    5.004035   4.224353   2.790960   2.408719   1.399842
     7  C    4.826082   3.755064   2.429197   2.809254   2.439101
     8  C    3.707229   2.503846   1.423133   2.451369   2.808692
     9  O    2.167633   1.281366   2.434500   3.662936   4.849222
    10  H    0.975619   1.928177   2.905187   3.186160   4.518393
    11  H    2.431139   2.658211   2.172498   1.084822   2.143494
    12  H    4.795785   4.587438   3.410978   2.140531   1.084563
    13  H    6.062499   5.309832   3.876540   3.389462   2.154156
    14  H    5.794107   4.636756   3.413198   3.893914   3.421613
    15  H    4.108057   2.786955   2.204267   3.452751   3.895573
    16  H    3.053419   1.919566   2.593133   3.974304   4.977010
                    6          7          8          9         10
     6  C    0.000000
     7  C    1.403427   0.000000
     8  C    2.408289   1.380553   0.000000
     9  O    5.124843   4.359882   2.985329   0.000000
    10  H    5.389306   5.251258   4.170769   2.652490   0.000000
    11  H    3.393656   3.893988   3.436021   3.929938   2.767003
    12  H    2.162429   3.421946   3.893191   5.781477   5.089283
    13  H    1.085596   2.155401   3.387240   6.195346   6.423141
    14  H    2.165902   1.084692   2.137229   5.045748   6.210277
    15  H    3.380333   2.117225   1.087386   2.776660   4.557604
    16  H    4.982009   3.995847   2.639327   0.973083   3.529542
                   11         12         13         14         15
    11  H    0.000000
    12  H    2.464369   0.000000
    13  H    4.286574   2.486637   0.000000
    14  H    4.978656   4.318059   2.487438   0.000000
    15  H    4.358661   4.979946   4.264305   2.423550   0.000000
    16  H    4.462208   5.991699   6.005509   4.508585   2.112729
                   16
    16  H    0.000000
 Stoichiometry    C7H7O2(1+)
 Framework group  C1[X(C7H7O2)]
 Deg. of freedom    42
 Full point group                 C1      NOp   1
 RotChk:  IX=0 Diff= 2.32D-03
 Largest Abelian subgroup         C1      NOp   1
 Largest concise Abelian subgroup C1      NOp   1
                         Standard orientation:                         
 ---------------------------------------------------------------------
 Center     Atomic      Atomic             Coordinates (Angstroms)
 Number     Number       Type             X           Y           Z
 ---------------------------------------------------------------------
      1          8           0       -2.295769   -1.118502    0.016745
      2          6           0       -1.631401    0.034690    0.009126
      3          6           0       -0.197360    0.041445   -0.005297
      4          6           0        0.480014   -1.202424   -0.064111
      5          6           0        1.863892   -1.240361   -0.059279
      6          6           0        2.592164   -0.046857    0.009480
      7          6           0        1.939655    1.194552    0.061842
      8          6           0        0.560103    1.245097    0.047419
      9          8           0       -2.414218    1.042239   -0.108952
     10          1           0       -2.544881   -1.400338    0.916936
     11          1           0       -0.087417   -2.124785   -0.128220
     12          1           0        2.375883   -2.195106   -0.110305
     13          1           0        3.677169   -0.080295    0.022332
     14          1           0        2.511159    2.115045    0.113142
     15          1           0        0.090221    2.224850    0.088686
     16          1           0       -1.984647    1.913879   -0.159991
 ---------------------------------------------------------------------
 Rotational constants (GHZ):           3.7481881           1.1996768           0.9129650
 Leave Link  202 at Mon Oct 14 00:38:15 2019, MaxMem= 10737418240 cpu:               0.3 elap:               0.0
 (Enter /apps/cent7/gaussian/g16-A.03/g16-haswell/g16/l301.exe)
 Standard basis: 6-31G(d) (6D, 7F)
 Ernie: Thresh=  0.10000D-02 Tol=  0.10000D-05 Strict=F.
 There are   149 symmetry adapted cartesian basis functions of A   symmetry.
 There are   149 symmetry adapted basis functions of A   symmetry.
   149 basis functions,   280 primitive gaussians,   149 cartesian basis functions
    32 alpha electrons       32 beta electrons
       nuclear repulsion energy       416.8495943151 Hartrees.
 IExCor=  402 DFT=T Ex+Corr=B3LYP ExCW=0 ScaHFX=  0.200000
 ScaDFX=  0.800000  0.720000  1.000000  0.810000 ScalE2=  1.000000  1.000000
 IRadAn=      5 IRanWt=     -1 IRanGd=            0 ICorTp=0 IEmpDi=  4
 NAtoms=   16 NActive=   16 NUniq=   16 SFac= 1.00D+00 NAtFMM=   60 NAOKFM=F Big=F
 Integral buffers will be    131072 words long.
 Raffenetti 2 integral format.
 Two-electron integral symmetry is turned on.
 Leave Link  301 at Mon Oct 14 00:38:15 2019, MaxMem= 10737418240 cpu:               1.2 elap:               0.1
 (Enter /apps/cent7/gaussian/g16-A.03/g16-haswell/g16/l302.exe)
 NPDir=0 NMtPBC=     1 NCelOv=     1 NCel=       1 NClECP=     1 NCelD=      1
         NCelK=      1 NCelE2=     1 NClLst=     1 CellRange=     0.0.
 One-electron integrals computed using PRISM.
 One-electron integral symmetry used in STVInt
 NBasis=   149 RedAO= T EigKep=  4.84D-04  NBF=   149
 NBsUse=   149 1.00D-06 EigRej= -1.00D+00 NBFU=   149
 Precomputing XC quadrature grid using
 IXCGrd= 4 IRadAn=           5 IRanWt=          -1 IRanGd=           0 AccXCQ= 0.00D+00.
 Generated NRdTot=       0 NPtTot=           0 NUsed=           0 NTot=          32
 NSgBfM=   149   149   149   149   149 MxSgAt=    16 MxSgA2=    16.
 Leave Link  302 at Mon Oct 14 00:38:15 2019, MaxMem= 10737418240 cpu:               3.5 elap:               0.2
 (Enter /apps/cent7/gaussian/g16-A.03/g16-haswell/g16/l303.exe)
 DipDrv:  MaxL=1.
 Leave Link  303 at Mon Oct 14 00:38:15 2019, MaxMem= 10737418240 cpu:               0.6 elap:               0.0
 (Enter /apps/cent7/gaussian/g16-A.03/g16-haswell/g16/l401.exe)
 Initial guess from the checkpoint file:  "14_p.chk"
 B after Tr=     0.000000    0.000000    0.000000
         Rot=    0.999996   -0.000533   -0.000740   -0.002656 Ang=  -0.32 deg.
 Guess basis will be translated and rotated to current coordinates.
 JPrj=2 DoOrth=T DoCkMO=T.
 Generating alternative initial guess.
 ExpMin= 1.61D-01 ExpMax= 5.48D+03 ExpMxC= 8.25D+02 IAcc=2 IRadAn=         4 AccDes= 0.00D+00
 Harris functional with IExCor=  402 and IRadAn=       4 diagonalized for initial guess.
 HarFok:  IExCor=  402 AccDes= 0.00D+00 IRadAn=         4 IDoV= 1 UseB2=F ITyADJ=14
 ICtDFT=  3500011 ScaDFX=  1.000000  1.000000  1.000000  1.000000
 FoFCou: FMM=F IPFlag=           0 FMFlag=      100000 FMFlg1=           0
         NFxFlg=           0 DoJE=T BraDBF=F KetDBF=T FulRan=T
         wScrn=  0.000000 ICntrl=       500 IOpCl=  0 I1Cent=   200000004 NGrid=           0
         NMat0=    1 NMatS0=      1 NMatT0=    0 NMatD0=    1 NMtDS0=    0 NMtDT0=    0
 Petite list used in FoFCou.
 Harris En= -421.183854624013    
 Leave Link  401 at Mon Oct 14 00:38:15 2019, MaxMem= 10737418240 cpu:               5.9 elap:               0.3
 (Enter /apps/cent7/gaussian/g16-A.03/g16-haswell/g16/l502.exe)
 Integral symmetry usage will be decided dynamically.
 Closed shell SCF:
 Using DIIS extrapolation, IDIIS=  1040.
 NGot= 10737418240 LenX= 10737368533 LenY= 10737345891
 Requested convergence on RMS density matrix=1.00D-08 within 128 cycles.
 Requested convergence on MAX density matrix=1.00D-06.
 Requested convergence on             energy=1.00D-06.
 No special actions if energy rises.
 Fock matrices will be formed incrementally for  20 cycles.
 Integral accuracy reduced to 1.0D-05 until final iterations.

 Cycle   1  Pass 0  IDiag  1:
 FoFJK:  IHMeth= 1 ICntrl=       0 DoSepK=F KAlg= 0 I1Cent=           0 FoldK=F
 IRaf= 940000000 NMat=       1 IRICut=       1 DoRegI=T DoRafI=F ISym2E= 0 IDoP0=0 IntGTp=1.
 FoFCou: FMM=F IPFlag=           0 FMFlag=      100000 FMFlg1=           0
         NFxFlg=           0 DoJE=F BraDBF=F KetDBF=F FulRan=T
         wScrn=  0.000000 ICntrl=         0 IOpCl=  0 I1Cent=           0 NGrid=           0
         NMat0=    1 NMatS0=      1 NMatT0=    0 NMatD0=    1 NMtDS0=    0 NMtDT0=    0
 Symmetry not used in FoFCou.
 E= -421.115332913621    
 DIIS: error= 4.82D-03 at cycle   1 NSaved=   1.
 NSaved= 1 IEnMin= 1 EnMin= -421.115332913621     IErMin= 1 ErrMin= 4.82D-03
 ErrMax= 4.82D-03  0.00D+00 EMaxC= 1.00D-01 BMatC= 9.19D-03 BMatP= 9.19D-03
 IDIUse=3 WtCom= 9.52D-01 WtEn= 4.82D-02
 Coeff-Com:  0.100D+01
 Coeff-En:   0.100D+01
 Coeff:      0.100D+01
 Gap=     1.928 Goal=   None    Shift=    0.000
 GapD=    1.928 DampG=2.000 DampE=1.000 DampFc=2.0000 IDamp=-1.
 RMSDP=1.19D-03 MaxDP=2.28D-02              OVMax= 2.52D-02

 Cycle   2  Pass 0  IDiag  1:
 RMSU=  1.19D-03    CP:  9.99D-01
 E= -421.129183359259     Delta-E=       -0.013850445638 Rises=F Damp=F
 DIIS: error= 1.43D-03 at cycle   2 NSaved=   2.
 NSaved= 2 IEnMin= 2 EnMin= -421.129183359259     IErMin= 2 ErrMin= 1.43D-03
 ErrMax= 1.43D-03  0.00D+00 EMaxC= 1.00D-01 BMatC= 5.76D-04 BMatP= 9.19D-03
 IDIUse=3 WtCom= 9.86D-01 WtEn= 1.43D-02
 Coeff-Com:  0.448D-01 0.955D+00
 Coeff-En:   0.000D+00 0.100D+01
 Coeff:      0.442D-01 0.956D+00
 Gap=     0.149 Goal=   None    Shift=    0.000
 RMSDP=3.48D-04 MaxDP=1.26D-02 DE=-1.39D-02 OVMax= 2.38D-02

 Cycle   3  Pass 0  IDiag  1:
 RMSU=  3.46D-04    CP:  1.00D+00  1.03D+00
 E= -421.128600527975     Delta-E=        0.000582831284 Rises=F Damp=F
 DIIS: error= 2.02D-03 at cycle   3 NSaved=   3.
 NSaved= 3 IEnMin= 2 EnMin= -421.129183359259     IErMin= 2 ErrMin= 1.43D-03
 ErrMax= 2.02D-03  0.00D+00 EMaxC= 1.00D-01 BMatC= 1.21D-03 BMatP= 5.76D-04
 IDIUse=3 WtCom= 1.82D-01 WtEn= 8.18D-01
 Coeff-Com: -0.369D-01 0.613D+00 0.423D+00
 Coeff-En:   0.000D+00 0.658D+00 0.342D+00
 Coeff:     -0.672D-02 0.650D+00 0.357D+00
 Gap=     0.154 Goal=   None    Shift=    0.000
 RMSDP=2.13D-04 MaxDP=7.32D-03 DE= 5.83D-04 OVMax= 1.63D-02

 Cycle   4  Pass 0  IDiag  1:
 RMSU=  6.86D-05    CP:  9.99D-01  1.05D+00  4.23D-01
 E= -421.129718095868     Delta-E=       -0.001117567893 Rises=F Damp=F
 DIIS: error= 2.73D-04 at cycle   4 NSaved=   4.
 NSaved= 4 IEnMin= 4 EnMin= -421.129718095868     IErMin= 4 ErrMin= 2.73D-04
 ErrMax= 2.73D-04  0.00D+00 EMaxC= 1.00D-01 BMatC= 1.52D-05 BMatP= 5.76D-04
 IDIUse=3 WtCom= 9.97D-01 WtEn= 2.73D-03
 Coeff-Com: -0.184D-01 0.236D+00 0.128D+00 0.654D+00
 Coeff-En:   0.000D+00 0.000D+00 0.000D+00 0.100D+01
 Coeff:     -0.183D-01 0.236D+00 0.128D+00 0.654D+00
 Gap=     0.155 Goal=   None    Shift=    0.000
 RMSDP=3.30D-05 MaxDP=1.00D-03 DE=-1.12D-03 OVMax= 1.72D-03

 Cycle   5  Pass 0  IDiag  1:
 RMSU=  2.87D-05    CP:  9.99D-01  1.06D+00  4.02D-01  8.02D-01
 E= -421.129727968633     Delta-E=       -0.000009872765 Rises=F Damp=F
 DIIS: error= 1.64D-04 at cycle   5 NSaved=   5.
 NSaved= 5 IEnMin= 5 EnMin= -421.129727968633     IErMin= 5 ErrMin= 1.64D-04
 ErrMax= 1.64D-04  0.00D+00 EMaxC= 1.00D-01 BMatC= 4.16D-06 BMatP= 1.52D-05
 IDIUse=3 WtCom= 9.98D-01 WtEn= 1.64D-03
 Coeff-Com: -0.668D-02 0.687D-01 0.319D-01 0.383D+00 0.523D+00
 Coeff-En:   0.000D+00 0.000D+00 0.000D+00 0.214D+00 0.786D+00
 Coeff:     -0.667D-02 0.686D-01 0.318D-01 0.383D+00 0.523D+00
 Gap=     0.155 Goal=   None    Shift=    0.000
 RMSDP=1.48D-05 MaxDP=4.98D-04 DE=-9.87D-06 OVMax= 9.08D-04

 Cycle   6  Pass 0  IDiag  1:
 RMSU=  8.72D-06    CP:  9.99D-01  1.06D+00  4.00D-01  8.68D-01  6.12D-01
 E= -421.129731874043     Delta-E=       -0.000003905410 Rises=F Damp=F
 DIIS: error= 5.03D-05 at cycle   6 NSaved=   6.
 NSaved= 6 IEnMin= 6 EnMin= -421.129731874043     IErMin= 6 ErrMin= 5.03D-05
 ErrMax= 5.03D-05  0.00D+00 EMaxC= 1.00D-01 BMatC= 2.73D-07 BMatP= 4.16D-06
 IDIUse=1 WtCom= 1.00D+00 WtEn= 0.00D+00
 Coeff-Com: -0.185D-02 0.151D-01 0.555D-02 0.143D+00 0.271D+00 0.567D+00
 Coeff:     -0.185D-02 0.151D-01 0.555D-02 0.143D+00 0.271D+00 0.567D+00
 Gap=     0.154 Goal=   None    Shift=    0.000
 RMSDP=5.07D-06 MaxDP=1.21D-04 DE=-3.91D-06 OVMax= 3.08D-04

 Initial convergence to 1.0D-05 achieved.  Increase integral accuracy.
 Cycle   7  Pass 1  IDiag  1:
 E= -421.129726673191     Delta-E=        0.000005200852 Rises=F Damp=F
 DIIS: error= 2.20D-05 at cycle   1 NSaved=   1.
 NSaved= 1 IEnMin= 1 EnMin= -421.129726673191     IErMin= 1 ErrMin= 2.20D-05
 ErrMax= 2.20D-05  0.00D+00 EMaxC= 1.00D-01 BMatC= 7.71D-08 BMatP= 7.71D-08
 IDIUse=1 WtCom= 1.00D+00 WtEn= 0.00D+00
 Coeff-Com:  0.100D+01
 Coeff:      0.100D+01
 Gap=     0.155 Goal=   None    Shift=    0.000
 RMSDP=5.07D-06 MaxDP=1.21D-04 DE= 5.20D-06 OVMax= 2.94D-04

 Cycle   8  Pass 1  IDiag  1:
 RMSU=  6.69D-06    CP:  1.00D+00
 E= -421.129726494041     Delta-E=        0.000000179150 Rises=F Damp=F
 DIIS: error= 4.60D-05 at cycle   2 NSaved=   2.
 NSaved= 2 IEnMin= 1 EnMin= -421.129726673191     IErMin= 1 ErrMin= 2.20D-05
 ErrMax= 4.60D-05  0.00D+00 EMaxC= 1.00D-01 BMatC= 2.42D-07 BMatP= 7.71D-08
 IDIUse=1 WtCom= 1.00D+00 WtEn= 0.00D+00
 Coeff-Com:  0.646D+00 0.354D+00
 Coeff:      0.646D+00 0.354D+00
 Gap=     0.154 Goal=   None    Shift=    0.000
 RMSDP=3.51D-06 MaxDP=8.23D-05 DE= 1.79D-07 OVMax= 2.13D-04

 Cycle   9  Pass 1  IDiag  1:
 RMSU=  2.51D-06    CP:  1.00D+00  6.34D-01
 E= -421.129726748138     Delta-E=       -0.000000254097 Rises=F Damp=F
 DIIS: error= 5.60D-06 at cycle   3 NSaved=   3.
 NSaved= 3 IEnMin= 3 EnMin= -421.129726748138     IErMin= 3 ErrMin= 5.60D-06
 ErrMax= 5.60D-06  0.00D+00 EMaxC= 1.00D-01 BMatC= 3.07D-09 BMatP= 7.71D-08
 IDIUse=1 WtCom= 1.00D+00 WtEn= 0.00D+00
 Coeff-Com:  0.194D+00 0.145D+00 0.662D+00
 Coeff:      0.194D+00 0.145D+00 0.662D+00
 Gap=     0.154 Goal=   None    Shift=    0.000
 RMSDP=5.47D-07 MaxDP=1.94D-05 DE=-2.54D-07 OVMax= 4.18D-05

 Cycle  10  Pass 1  IDiag  1:
 RMSU=  4.43D-07    CP:  1.00D+00  6.64D-01  9.01D-01
 E= -421.129726750319     Delta-E=       -0.000000002181 Rises=F Damp=F
 DIIS: error= 2.30D-06 at cycle   4 NSaved=   4.
 NSaved= 4 IEnMin= 4 EnMin= -421.129726750319     IErMin= 4 ErrMin= 2.30D-06
 ErrMax= 2.30D-06  0.00D+00 EMaxC= 1.00D-01 BMatC= 1.15D-09 BMatP= 3.07D-09
 IDIUse=1 WtCom= 1.00D+00 WtEn= 0.00D+00
 Coeff-Com:  0.606D-02 0.270D-01 0.413D+00 0.554D+00
 Coeff:      0.606D-02 0.270D-01 0.413D+00 0.554D+00
 Gap=     0.154 Goal=   None    Shift=    0.000
 RMSDP=2.29D-07 MaxDP=8.45D-06 DE=-2.18D-09 OVMax= 1.88D-05

 Cycle  11  Pass 1  IDiag  1:
 RMSU=  8.53D-08    CP:  1.00D+00  6.63D-01  9.34D-01  5.57D-01
 E= -421.129726751447     Delta-E=       -0.000000001128 Rises=F Damp=F
 DIIS: error= 3.85D-07 at cycle   5 NSaved=   5.
 NSaved= 5 IEnMin= 5 EnMin= -421.129726751447     IErMin= 5 ErrMin= 3.85D-07
 ErrMax= 3.85D-07  0.00D+00 EMaxC= 1.00D-01 BMatC= 4.34D-11 BMatP= 1.15D-09
 IDIUse=1 WtCom= 1.00D+00 WtEn= 0.00D+00
 Coeff-Com: -0.265D-02 0.104D-01 0.209D+00 0.309D+00 0.474D+00
 Coeff:     -0.265D-02 0.104D-01 0.209D+00 0.309D+00 0.474D+00
 Gap=     0.154 Goal=   None    Shift=    0.000
 RMSDP=4.93D-08 MaxDP=1.83D-06 DE=-1.13D-09 OVMax= 3.64D-06

 Cycle  12  Pass 1  IDiag  1:
 RMSU=  3.12D-08    CP:  1.00D+00  6.64D-01  9.30D-01  5.86D-01  6.01D-01
 E= -421.129726751484     Delta-E=       -0.000000000036 Rises=F Damp=F
 DIIS: error= 1.26D-07 at cycle   6 NSaved=   6.
 NSaved= 6 IEnMin= 6 EnMin= -421.129726751484     IErMin= 6 ErrMin= 1.26D-07
 ErrMax= 1.26D-07  0.00D+00 EMaxC= 1.00D-01 BMatC= 4.12D-12 BMatP= 4.34D-11
 IDIUse=1 WtCom= 1.00D+00 WtEn= 0.00D+00
 Coeff-Com: -0.249D-02 0.186D-02 0.602D-01 0.966D-01 0.262D+00 0.581D+00
 Coeff:     -0.249D-02 0.186D-02 0.602D-01 0.966D-01 0.262D+00 0.581D+00
 Gap=     0.154 Goal=   None    Shift=    0.000
 RMSDP=1.42D-08 MaxDP=5.10D-07 DE=-3.62D-11 OVMax= 9.39D-07

 Cycle  13  Pass 1  IDiag  1:
 RMSU=  9.52D-09    CP:  1.00D+00  6.64D-01  9.32D-01  5.84D-01  6.79D-01
                    CP:  8.09D-01
 E= -421.129726751488     Delta-E=       -0.000000000004 Rises=F Damp=F
 DIIS: error= 1.78D-08 at cycle   7 NSaved=   7.
 NSaved= 7 IEnMin= 7 EnMin= -421.129726751488     IErMin= 7 ErrMin= 1.78D-08
 ErrMax= 1.78D-08  0.00D+00 EMaxC= 1.00D-01 BMatC= 9.12D-14 BMatP= 4.12D-12
 IDIUse=1 WtCom= 1.00D+00 WtEn= 0.00D+00
 Coeff-Com: -0.288D-03-0.446D-03-0.411D-02-0.410D-02 0.145D-01 0.129D+00
 Coeff-Com:  0.865D+00
 Coeff:     -0.288D-03-0.446D-03-0.411D-02-0.410D-02 0.145D-01 0.129D+00
 Coeff:      0.865D+00
 Gap=     0.154 Goal=   None    Shift=    0.000
 RMSDP=3.81D-09 MaxDP=7.68D-08 DE=-4.43D-12 OVMax= 2.06D-07

 SCF Done:  E(RB3LYP) =  -421.129726751     A.U. after   13 cycles
            NFock= 13  Conv=0.38D-08     -V/T= 2.0094
 KE= 4.172271501115D+02 PE=-1.802274206586D+03 EE= 5.470677354081D+02
 Leave Link  502 at Mon Oct 14 00:38:18 2019, MaxMem= 10737418240 cpu:              56.2 elap:               2.4
 (Enter /apps/cent7/gaussian/g16-A.03/g16-haswell/g16/l701.exe)
 ... and contract with generalized density number  0.
 Compute integral first derivatives.
 Leave Link  701 at Mon Oct 14 00:38:18 2019, MaxMem= 10737418240 cpu:               2.4 elap:               0.1
 (Enter /apps/cent7/gaussian/g16-A.03/g16-haswell/g16/l702.exe)
 L702 exits ... SP integral derivatives will be done elsewhere.
 Leave Link  702 at Mon Oct 14 00:38:18 2019, MaxMem= 10737418240 cpu:               0.9 elap:               0.1
 (Enter /apps/cent7/gaussian/g16-A.03/g16-haswell/g16/l703.exe)
 Integral derivatives from FoFJK, PRISM(SPDF).
 Compute integral first derivatives, UseDBF=F ICtDFT=           0.
 Calling FoFJK, ICntrl=      2127 FMM=F ISym2X=0 I1Cent= 0 IOpClX= 0 NMat=1 NMatS=1 NMatT=0.
 FoFJK:  IHMeth= 1 ICntrl=    2127 DoSepK=F KAlg= 0 I1Cent=           0 FoldK=F
 IRaf=         0 NMat=       1 IRICut=       1 DoRegI=T DoRafI=F ISym2E= 0 IDoP0=0 IntGTp=1.
 FoFCou: FMM=F IPFlag=           0 FMFlag=      100000 FMFlg1=         800
         NFxFlg=           0 DoJE=F BraDBF=F KetDBF=F FulRan=T
         wScrn=  0.000000 ICntrl=      2127 IOpCl=  0 I1Cent=           0 NGrid=           0
         NMat0=    1 NMatS0=      1 NMatT0=    0 NMatD0=    1 NMtDS0=    0 NMtDT0=    0
 Symmetry not used in FoFCou.
 Leave Link  703 at Mon Oct 14 00:38:18 2019, MaxMem= 10737418240 cpu:              14.6 elap:               0.6
 (Enter /apps/cent7/gaussian/g16-A.03/g16-haswell/g16/l716.exe)
 Dipole        =-1.84410295D-01 4.90836416D-01 6.22028703D-01
 ***** Axes restored to original set *****
 -------------------------------------------------------------------
 Center     Atomic                   Forces (Hartrees/Bohr)
 Number     Number              X              Y              Z
 -------------------------------------------------------------------
      1        8           0.006471719    0.005120114    0.003339457
      2        6           0.009777333   -0.020592614   -0.006185851
      3        6          -0.002114217    0.004727510    0.000814548
      4        6          -0.001203673   -0.003400559    0.001400110
      5        6           0.000812109    0.000824332   -0.000256329
      6        6           0.001325364   -0.000608083    0.000161377
      7        6           0.000832924   -0.000247710   -0.000364898
      8        6          -0.003798490    0.000795081   -0.000441434
      9        8          -0.011552256    0.012643179    0.003899423
     10        1          -0.003694335   -0.002204274   -0.000525921
     11        1          -0.000561877    0.001082701   -0.000002989
     12        1           0.000490742    0.000136120   -0.000112097
     13        1           0.000376715    0.000026091   -0.000192995
     14        1           0.000582031   -0.000314370   -0.000071702
     15        1          -0.002104415   -0.000560903    0.000856559
     16        1           0.004360326    0.002573384   -0.002317259
 -------------------------------------------------------------------
 Cartesian Forces:  Max     0.020592614 RMS     0.004711426
 Leave Link  716 at Mon Oct 14 00:38:18 2019, MaxMem= 10737418240 cpu:               1.2 elap:               0.1
 (Enter /apps/cent7/gaussian/g16-A.03/g16-haswell/g16/l103.exe)

 GradGradGradGradGradGradGradGradGradGradGradGradGradGradGradGradGradGrad
 Berny optimization.
 Using GEDIIS/GDIIS optimizer.
 FormGI is forming the generalized inverse of G from B-inverse, IUseBI=4.
 Internal  Forces:  Max     0.016008982 RMS     0.002950366
 Search for a local minimum.
 Step number   2 out of a maximum of   81
 All quantities printed in internal units (Hartrees-Bohrs-Radians)
 RMS Force = .29504D-02 SwitMx=.10000D-02 MixMth= 1
 Mixed Optimization -- RFO/linear search
 Update second derivatives using D2CorX and points    1    2
 DE= -8.08D-03 DEPred=-9.14D-03 R= 8.84D-01
 TightC=F SS=  1.41D+00  RLast= 3.21D-01 DXNew= 5.0454D-01 9.6216D-01
 Trust test= 8.84D-01 RLast= 3.21D-01 DXMaxT set to 5.05D-01
 ITU=  1  0
 Use linear search instead of GDIIS.
     Eigenvalues ---    0.01830   0.01848   0.01876   0.01917   0.01932
     Eigenvalues ---    0.01972   0.01998   0.02009   0.02010   0.02013
     Eigenvalues ---    0.02240   0.02696   0.03608   0.14483   0.15998
     Eigenvalues ---    0.16000   0.16000   0.16000   0.16000   0.16258
     Eigenvalues ---    0.21999   0.22017   0.23123   0.24920   0.24989
     Eigenvalues ---    0.30337   0.34766   0.34813   0.34813   0.34813
     Eigenvalues ---    0.34887   0.39969   0.40276   0.42867   0.43139
     Eigenvalues ---    0.43916   0.44622   0.47130   0.51398   0.54934
     Eigenvalues ---    0.55727   0.75566
 RFO step:  Lambda=-2.35752879D-03 EMin= 1.82976929D-02
 Quartic linear search produced a step of -0.01182.
 Iteration  1 RMS(Cart)=  0.03398848 RMS(Int)=  0.00116753
 Iteration  2 RMS(Cart)=  0.00115376 RMS(Int)=  0.00007488
 Iteration  3 RMS(Cart)=  0.00000167 RMS(Int)=  0.00007487
 Iteration  4 RMS(Cart)=  0.00000000 RMS(Int)=  0.00007487
 ITry= 1 IFail=0 DXMaxC= 1.63D-01 DCOld= 1.00D+10 DXMaxT= 5.05D-01 DXLimC= 3.00D+00 Rises=F
 Variable       Old X    -DE/DX   Delta X   Delta X   Delta X     New X
                                 (Linear)    (Quad)   (Total)
    R1        2.51504  -0.00360   0.00056  -0.01397  -0.01342   2.50162
    R2        1.84365   0.00071  -0.00035   0.00588   0.00553   1.84918
    R3        2.71011  -0.00538  -0.00033  -0.00803  -0.00836   2.70176
    R4        2.42143   0.01601  -0.00064   0.02759   0.02695   2.44838
    R5        2.67882   0.00104   0.00000   0.00230   0.00230   2.68112
    R6        2.68933  -0.00269  -0.00012  -0.00475  -0.00487   2.68447
    R7        2.61615   0.00198   0.00052  -0.00238  -0.00186   2.61429
    R8        2.05002  -0.00067   0.00012  -0.00341  -0.00330   2.04672
    R9        2.64532   0.00051   0.00014  -0.00063  -0.00048   2.64484
   R10        2.04953   0.00013   0.00012  -0.00123  -0.00111   2.04842
   R11        2.65209   0.00123   0.00005   0.00215   0.00219   2.65428
   R12        2.05148   0.00039   0.00010  -0.00021  -0.00011   2.05137
   R13        2.60887   0.00250   0.00057  -0.00212  -0.00156   2.60731
   R14        2.04977   0.00002   0.00012  -0.00152  -0.00140   2.04837
   R15        2.05486   0.00050   0.00006   0.00063   0.00069   2.05555
   R16        1.83886   0.00438  -0.00029   0.01163   0.01134   1.85020
[...]
     6          0.34423355         -0.06669915         -0.33573012
     6          0.84184139          1.17385643         -2.58992885
     6          1.82611395          3.62923978         -2.55758451
     6          2.32135681          4.86553636         -0.26661796
     6          1.83390983          3.65033635          1.99951672
     8          0.66774331          0.74200254          6.57750314
     1         -0.87601646         -3.10847765          5.91746313
     1         -0.41801197         -1.96823202         -0.34140703
     1          0.46644921          0.23678858         -4.37418349
     1          2.21238931          4.59221883         -4.32805758
     1          3.08401681          6.76817264         -0.26452338
     1          2.23625994          4.65490402          3.74787366
     1          1.35383838          2.45284311          6.61603358

 Electric dipole moment (dipole orientation):
 (Debye = 10**-18 statcoulomb cm , SI units = C m)
                  (au)            (Debye)         (10**-30 SI)
   Tot        0.103926D+01      0.264154D+01      0.881122D+01
   x          0.000000D+00      0.000000D+00      0.000000D+00
   y          0.000000D+00      0.000000D+00      0.000000D+00
   z          0.103926D+01      0.264154D+01      0.881122D+01

 Dipole polarizability, Alpha (dipole orientation).
 (esu units = cm**3 , SI units = C**2 m**2 J**-1)
 Alpha(0;0):
               (au)            (10**-24 esu)      (10**-40 SI)
   iso        0.761522D+02      0.112846D+02      0.125558D+02
   aniso      0.799777D+02      0.118515D+02      0.131865D+02
   xx         0.360371D+02      0.534014D+01      0.594171D+01
   yx         0.227345D+02      0.336891D+01      0.374842D+01
   yy         0.836303D+02      0.123927D+02      0.137888D+02
   zx        -0.589357D+01     -0.873337D+00     -0.971719D+00
   zy        -0.146762D+02     -0.217479D+01     -0.241978D+01
   zz         0.108789D+03      0.161209D+02      0.179369D+02

 ----------------------------------------------------------------------
 1\1\GINC-BROWN-A516\Freq\RB3LYP\6-31G(d)\C7H7O2(1+)\FINEJ\14-Oct-2019\
 0\\#P Geom=AllCheck Guess=TCheck SCRF=Check GenChk RB3LYP/6-31G(d) Fre
 q\\Title Card Required\\1,1\O,-2.5512361077,-0.0812745968,0.4590909058
 \C,-1.9866014954,1.079250374,0.3189921116\C,-0.5638614178,1.1571726754
 ,0.1630599123\C,0.1916993262,-0.0404039067,0.166164009\C,1.5690854934,
 0.0194628434,0.016296679\C,2.2026195801,1.2584532639,-0.1366274704\C,1
 .462374802,2.4494368761,-0.1409017114\C,0.0861280413,2.4052569906,0.00
 7756672\O,-2.8138556684,2.0887658736,0.3366522197\H,-3.5236621861,-0.0
 061835988,0.5568275801\H,-0.3079501113,-0.9950881104,0.2852184965\H,2.
 1524125761,-0.8951785551,0.0179978022\H,3.2814322525,1.2997757693,-0.2
 53619735\H,1.9639798067,3.4037751848,-0.2601531291\H,-0.4626677255,3.3
 447649442,0.0006261999\H,-2.3798343762,2.9561054326,0.2307429478\\Vers
 ion=ES64L-G16RevA.03\State=1-A\HF=-421.1525989\RMSD=1.918e-09\RMSF=1.4
 61e-06\ZeroPoint=0.127988\Thermal=0.127988\Dipole=-0.9144794,0.4897251
 ,0.0629262\DipoleDeriv=-1.0812093,-0.42126,0.1112352,-0.8659887,-0.824
 8179,0.1275747,0.1420449,0.0805317,-0.3261009,2.8582376,-0.0228094,-0.
 2544022,0.2613671,1.4975253,-0.100916,-0.2740873,-0.0708651,0.4728798,
 -1.4229451,-0.0330638,0.1495957,-0.0509108,-0.0754227,0.0084873,0.1508
 373,0.0066073,-0.0470554,0.4433937,0.2391868,-0.065693,-0.2951817,-0.0
 016197,0.0298973,-0.0286737,-0.0266347,-0.0159386,-0.2919528,-0.359682
 2,0.048077,-0.3449348,-0.0373255,0.0340022,0.0470474,0.0355624,-0.0806
 883,0.3201649,0.0069106,-0.0326537,-0.0487187,0.2296803,-0.0096594,-0.
 028794,-0.0155481,0.0201513,-0.4127199,0.2897484,0.0165114,0.3631877,0
 .0103421,-0.0437704,0.0114199,-0.0359991,-0.0654478,0.4614131,-0.18959
 8,-0.0424685,0.3014685,0.0351863,-0.038803,-0.0764816,0.0131312,-0.057
 181,-1.0352851,0.4009932,0.0499742,0.6741925,-0.8327528,-0.0345148,0.0
 310352,-0.0056018,-0.3036614,0.5575563,0.1280749,-0.0260121,0.1424116,
 0.3627812,-0.0128051,-0.0269938,-0.011287,0.3991461,0.0740629,-0.02844
 75,0.0075118,-0.0165236,0.0718387,0.0055337,0.0066913,0.0067923,0.1252
 404,0.0677911,0.0230573,0.0054,0.0305305,0.0366487,0.0035164,0.0048858
 ,0.0043084,0.1331274,0.0339409,-0.0019915,0.0092526,-0.0013869,0.08937
 71,0.0022777,0.0092128,0.0023405,0.1189647,0.0748369,-0.0156222,0.0074
 457,-0.0252808,0.029222,0.0100089,0.0081126,0.0089894,0.1335026,-0.009
 9996,0.1076761,0.00583,0.0742066,0.0035882,-0.0000832,0.0081412,-0.003
 6124,0.1150692,0.3627146,-0.1231729,0.0103959,-0.1984385,0.4057486,0.0
 192539,0.0156022,0.0112849,0.3779917\Polar=117.3390274,1.656437,82.889
 6694,-9.6807973,-4.0547626,28.2279198\Quadrupole=11.9662788,0.162166,-
 12.1284448,0.3057123,-2.6066598,-0.9075567\PG=C01 [X(C7H7O2)]\NImag=0\
 \0.67050968,0.09971695,0.50746171,-0.07329259,-0.04268612,0.05399408,-
 0.19953367,-0.09239446,0.02083652,0.76335079,-0.15767926,-0.36093843,0
 .03730801,0.01887707,0.81500635,0.02535601,0.03039753,-0.06787542,-0.0
 6145898,-0.04492832,0.20452568,-0.03599267,-0.03461402,0.00708983,-0.2
 4204910,-0.00583722,0.01871889,0.65142003,-0.04668254,-0.00510688,0.00
 587227,-0.00646624,-0.11393094,0.00380125,0.00341018,0.68854822,0.0079
 2560,0.00459521,0.00720483,0.01876088,0.00373351,-0.07121096,-0.055235
 17,-0.03897521,0.14011841,-0.00024618,0.00717672,-0.00040677,-0.044015
 17,0.02628905,0.00231710,-0.14851699,0.05877628,0.00523447,0.70470327,
 -0.00588169,-0.00811959,0.00122710,0.02526987,0.01435310,-0.00400805,0
 .09311813,-0.26144275,0.00408136,0.04848649,0.70900737,0.00049767,-0.0
 0015449,0.00056882,0.00238860,-0.00411525,-0.00485990,0.00285302,0.007
 71437,-0.06133499,-0.06308944,-0.04457392,0.14989446,-0.00000209,-0.00
 243350,0.00006585,0.01013891,0.00740097,-0.00079202,-0.03776440,0.0537
 8374,0.00117285,-0.35944064,-0.03528751,0.03381428,0.70459505,-0.00194
 031,-0.00186070,0.00026660,0.01119175,-0.00505908,-0.00031300,0.018013
 72,0.02725698,-0.00320097,0.02568531,-0.13081806,0.00198936,-0.0485232
 7,0.72569532,0.00003187,0.00031880,-0.00100134,-0.00105411,0.00008866,
 0.00761428,0.00365191,-0.00698674,0.00866125,0.02958682,0.00844004,-0.
 06665361,-0.05712125,-0.03596988,0.14139188,0.00063593,0.00124130,-0.0
 0014592,-0.00148355,0.00020369,0.00004549,0.00008079,0.00254886,-0.001
 11780,-0.02098105,-0.03469440,0.00519841,-0.17309783,-0.11066380,0.019
 19358,0.74148011,-0.00311129,-0.00203255,0.00047451,0.00208355,-0.0049
 9369,0.00006268,-0.00039105,-0.04805899,0.00276161,-0.07292068,0.02673
 129,0.00623649,-0.04668681,-0.29482331,0.02092877,0.00169922,0.6652148
 4,0.00015593,0.00001448,0.00005202,-0.00008505,0.00026101,-0.00092956,
 -0.00091374,0.00245154,-0.00888783,0.00784919,0.00219239,0.00443598,0.
 01475713,0.02769698,-0.06767639,-0.06290156,-0.03604216,0.15714828,-0.
 00587906,-0.00568958,0.00098095,0.01550092,-0.00423974,-0.00062099,-0.
 03505404,-0.05895787,0.00868641,-0.04390959,0.02593850,0.00217473,0.06
 372631,0.02119290,-0.00744876,-0.18562229,0.05535329,0.00899064,0.6986
 7702,0.00075425,0.00432584,-0.00040232,-0.00994187,-0.00784429,0.00207
 041,-0.02112815,0.02150130,0.00132825,0.01827824,-0.01144946,-0.001579
 95,-0.01171395,-0.05000238,0.00520612,0.11992089,-0.27776195,0.0021113
 2,0.04083615,0.72773850,0.00053493,0.00027909,-0.00040651,-0.00022577,
 0.00146754,0.00677170,0.00606391,0.00532920,0.00740405,0.00270588,-0.0
 0239029,-0.00647038,-0.00516674,0.00172477,0.00763627,0.00451308,0.008
 94282,-0.06545657,-0.06284017,-0.04567196,0.14126164,-0.00047949,0.007
 50709,-0.00011558,-0.03979939,-0.03039124,0.00573607,-0.13544150,-0.04
 918947,0.01173943,0.04836165,-0.01151724,-0.00345712,-0.04048900,-0.02
 135924,0.00508402,-0.03079350,0.07009140,-0.00100590,-0.36092649,-0.04
 411177,0.03477776,0.70121759,0.01049374,0.00670921,-0.00134319,-0.0308
 5642,0.00774362,0.00234669,-0.08123787,-0.27211951,0.02352958,0.020824
 45,-0.05389918,0.00209799,-0.02812258,-0.01523423,0.00358568,0.0287113
 6,0.03338671,-0.00496169,0.01785019,-0.12750761,0.00271706,-0.04199500
 ,0.69523395,-0.00032365,-0.00102751,0.00344436,0.00576837,0.00229683,-
 0.00626451,0.01396190,0.02014138,-0.05958934,-0.00569915,0.00551882,0.
 00834848,0.00555242,0.00286960,-0.00721704,0.00186300,-0.00933842,0.00
 609170,0.03048084,0.00927165,-0.06496982,-0.05724809,-0.03458883,0.140
 94818,0.02679658,-0.00866404,-0.00081145,-0.25630322,0.12232861,0.0128
 3638,-0.03379430,0.03920812,0.00256380,-0.00000408,-0.01033531,0.00139
 606,-0.00470371,-0.00063687,0.00034602,0.00047976,0.00187100,-0.000161
 19,-0.00117862,0.00207085,-0.00005782,0.00353670,0.00554493,-0.0008184
 2,0.40864260,0.02801430,-0.09495725,0.00453988,0.14764278,-0.29763153,
 0.00117525,0.03005471,0.00091525,-0.00212955,-0.00771736,0.00621307,0.
 00083018,0.00414774,0.00420154,-0.00085795,-0.00148478,-0.00102733,0.0
 0024089,0.00397086,-0.00058968,-0.00040460,-0.00742224,-0.01214012,0.0
 0158822,0.00248272,0.75861615,-0.00335134,0.00842024,0.01322372,0.0110
 8940,0.00385158,-0.05638866,0.00319588,-0.00309915,0.01596685,0.001214
 10,0.00110839,0.00620928,0.00001496,-0.00035214,-0.00182433,0.00007143
 ,-0.00011420,0.00018340,-0.00018926,-0.00020373,-0.00033280,0.00007978
 ,0.00021544,-0.00059016,-0.03949717,-0.05019507,0.04453613,-0.44996654
 ,0.02134106,0.04457068,-0.02728570,-0.00885982,0.00359493,0.00593397,-
 0.00129158,0.00003859,-0.00059171,0.00109678,-0.00009621,0.00045715,0.
 00064730,-0.00006980,-0.00011727,0.00030202,0.00000707,0.00107112,-0.0
 0108626,-0.00010454,-0.00150374,-0.00079687,0.00039548,0.00081661,0.00
 770467,-0.00103939,0.47177563,0.07373350,-0.04838197,-0.00549041,-0.05
 733507,-0.00119235,0.00621259,0.00083889,-0.00572601,0.00068512,0.0006
 0795,-0.00022557,-0.00010289,0.00017896,0.00041514,-0.00003229,0.00012
 860,-0.00007393,0.00000174,0.00004812,-0.00062678,-0.00000510,-0.00133
 766,0.00064186,0.00021549,0.00235512,0.00172810,-0.00064325,-0.0196285
 2,0.05341217,0.04094445,0.00005572,-0.01928657,0.00695010,0.00108147,0
 .00007593,-0.00010896,0.00091019,0.00539805,-0.00006246,-0.00015462,-0
 .00076656,-0.00003732,-0.00008184,0.00023161,0.00001912,-0.00001647,0.
 00014680,-0.00018300,0.00011454,-0.00061730,0.00043263,0.00015859,0.00
 165696,-0.00066894,-0.00120977,-0.00381164,-0.04718908,-0.00070983,0.0
 1818607,-0.00353348,0.00022837,0.00044025,0.00194887,0.00187702,-0.000
 70314,0.01149780,0.01630187,-0.00206878,-0.12121708,-0.11843386,0.0168
 5890,-0.00870257,-0.02848184,0.00359224,-0.00565379,0.00096073,0.00137
 499,-0.00072488,0.00059305,-0.00004767,-0.00221659,0.00334451,0.000485
 09,0.00015649,-0.00079355,0.00007621,-0.00015841,-0.00013041,0.0000052
 9,0.12707769,-0.00051250,0.00138957,0.00001198,-0.00217662,-0.00269069
 ,0.00017629,-0.01152508,-0.01791416,0.00264339,-0.11705092,-0.28740823
 ,0.02957352,0.00185083,0.00556838,-0.00012522,0.00086102,0.00056187,0.
 00042279,-0.00015899,0.00054282,-0.00007540,0.00427877,-0.00159768,-0.
 00002555,0.00009747,0.00058454,-0.00002605,0.00008153,0.00068050,-0.00
 006930,0.12496202,0.30016985,0.00049145,-0.00006634,0.00073205,-0.0004
 2253,-0.00025263,-0.00340592,-0.00013864,-0.00030017,0.00266209,0.0167
 6284,0.02971980,-0.04331940,0.00148887,0.00308361,0.00621545,0.0013818
 9,0.00041240,0.00779838,0.00000457,-0.00015493,-0.00077688,0.00042032,
 0.00007309,0.00451152,0.00001466,0.00006798,0.00035123,-0.00000942,-0.
 00004691,-0.00018996,-0.01939143,-0.03225225,0.02997096,-0.00009747,-0
 .00013713,0.00002210,-0.00005785,0.00170489,0.00000431,-0.00444526,-0.
 00172484,0.00138845,-0.01347805,0.02741651,-0.00011921,-0.14367941,0.1
 3164942,0.00185821,0.01282107,-0.01485931,0.00008678,-0.00119925,-0.00
 314936,0.00106165,-0.00057888,-0.00085191,0.00008987,-0.00073706,0.000
 02476,0.00000898,0.00003054,0.00003387,-0.00000408,0.00103495,-0.00006
 498,-0.00056765,0.14900339,0.00006213,0.00003561,-0.00000755,-0.000238
 30,0.00043183,0.00007152,-0.00130769,0.00116720,0.00058072,-0.00324602
 ,0.00678637,0.00010609,0.13202882,-0.26657225,0.00175212,0.01579077,-0
 .01843047,-0.00012206,-0.00347167,-0.00290517,0.00103818,-0.00096755,0
 .00002232,0.00008090,-0.00022819,0.00001107,-0.00002072,-0.00000227,0.
 00001241,0.00000037,0.00007911,0.00073420,-0.00036245,-0.13946572,0.27
 854691,0.00000825,0.00001356,0.00001962,0.00013899,-0.00013407,0.00109
 498,0.00135959,0.00062522,0.00736156,0.00200685,-0.00313772,0.00336922
 ,0.00183199,0.00179210,-0.04015667,-0.00203827,0.00312044,0.00390220,0
 .00108389,0.00100407,0.00658756,0.00009784,0.00006868,-0.00030243,0.00
 002641,-0.00004752,-0.00063622,-0.00000158,-0.00000346,0.00001464,-0.0
 0057763,-0.00034727,-0.00428815,-0.00321505,-0.00267087,0.02773928,0.0
 0008639,0.00014309,0.00000339,-0.00058708,-0.00004029,-0.00009424,0.00
 126107,0.00005701,-0.00016370,0.00028467,-0.00205464,0.00088114,-0.007
 80398,0.00137520,0.00148119,-0.34502844,-0.01066447,0.03248513,-0.0102
 7345,-0.00234314,0.00196675,-0.00005304,0.00248224,0.00057097,0.000083
 62,-0.00018464,0.00003130,-0.00002392,0.00001033,0.00000049,-0.0003870
 7,0.00021115,-0.00006451,0.00071150,0.00000713,-0.00046859,0.36143725,
 -0.00006472,0.00012188,0.00001310,0.00013316,-0.00041242,-0.00008980,-
 0.00000789,-0.00108389,0.00005870,-0.00242558,-0.00504681,0.00111036,-
 0.02884125,0.00395128,0.00326934,-0.01075822,-0.06219778,0.00233438,0.
 02792755,0.00562252,-0.00287420,0.00292191,-0.00435870,0.00047663,-0.0
 0000013,0.00030007,-0.00000287,0.00001091,0.00002076,-0.00000345,-0.00
 139475,0.00014583,0.00007794,0.00024928,0.00097225,-0.00035124,0.01123
 157,0.06107862,0.00001770,-0.00000888,0.00021092,-0.00010633,-0.000071
 51,-0.00148813,-0.00015911,0.00005197,-0.00023572,0.00090676,0.0010709
 9,0.00709703,0.00357627,0.00007290,0.00671492,0.03249170,0.00232438,-0
 .04854345,-0.00013210,0.00032839,0.00677284,0.00054056,0.00052301,0.00
 687822,0.00001860,0.00001663,0.00025535,0.00000047,-0.00000341,-0.0000
 1226,0.00004684,-0.00009197,-0.00085711,-0.00048541,-0.00032562,-0.003
 63931,-0.03616207,-0.00355324,0.03104059,-0.00070225,-0.00003295,0.000
 03114,0.00013288,-0.00153831,0.00024083,-0.00468506,0.00169536,0.00116
 968,-0.00067162,0.00075537,-0.00003151,-0.00191042,0.00329295,0.000665
 26,0.01278838,0.01737415,-0.00215719,-0.12158968,-0.11787277,0.0169253
 2,-0.01143655,-0.02842677,0.00348241,-0.00008838,0.00011929,-0.0000027
 1,-0.00002435,-0.00010224,-0.00000987,0.00008052,-0.00008449,-0.000108
 72,0.00056413,0.00086483,-0.00011982,0.00074805,-0.00032485,-0.0004379
 1,0.12585181,0.00012645,0.00000580,-0.00004356,0.00020662,0.00034694,0
 .00005122,0.00093909,0.00134983,0.00032591,0.00094908,0.00008734,-0.00
 013935,0.00373512,-0.00241985,0.00022591,-0.01330117,-0.01824097,0.002
 93479,-0.11848303,-0.28494836,0.02960034,0.00217572,0.00471365,-0.0003
 5960,-0.00008379,0.00001066,0.00000566,0.00003491,0.00002310,-0.000018
 07,-0.00009584,0.00001226,-0.00006023,-0.00076323,-0.00079284,0.000135
 56,-0.00009120,0.00095350,-0.00030644,0.12471388,0.29798589,0.00002002
 ,-0.00002676,-0.00042985,0.00011997,0.00023576,0.00137214,0.00122180,0
 .00024580,0.00733545,-0.00004504,-0.00011878,-0.00046127,0.00063462,0.
 00027265,0.00644946,-0.00002978,-0.00031091,0.00381148,0.01696738,0.02
 953621,-0.04271660,0.00136042,0.00287817,0.00250325,0.00001140,-0.0000
 1580,-0.00003586,-0.00001932,-0.00000355,-0.00018208,-0.00010793,-0.00
 006142,-0.00098675,-0.00000694,-0.00003663,0.00000139,-0.00045406,-0.0
 0028167,-0.00353645,-0.01911968,-0.03199543,0.03112078,0.00074482,0.00
 019695,-0.00010656,-0.00129343,0.00112536,-0.00027310,0.01225730,-0.01
 210336,-0.00035934,-0.00188739,-0.00260013,0.00087522,-0.00016252,-0.0
 0031068,-0.00003510,-0.00603412,-0.00216810,0.00162493,-0.01267007,0.0
 3101656,-0.00020973,-0.12836527,0.11573933,0.00191434,-0.00199583,-0.0
 0250540,0.00037215,-0.00007164,0.00008380,0.00002123,0.00059877,-0.000
 61053,0.00015831,0.00009556,0.00010525,-0.00013717,-0.00056946,0.00157
 687,-0.00011796,0.00100176,-0.00008153,-0.00055863,0.14019310,-0.00071
 032,0.00056988,0.00002647,0.00529291,-0.00339397,-0.00054284,0.0138829
 7,-0.01712840,-0.00021635,-0.00443809,-0.00255536,0.00097157,-0.000197
 40,0.00037207,-0.00005333,-0.00046019,0.00103785,0.00052526,-0.0018526
 1,0.00426314,0.00029475,0.12167618,-0.26606728,0.00320383,-0.00021591,
 0.00437630,-0.00028887,-0.00009278,-0.00021903,0.00003775,0.00096254,-
 0.00072595,0.00006613,0.00007439,0.00001429,-0.00008742,-0.00017561,0.
 00001176,-0.00002741,-0.00025156,0.00090040,-0.00033654,-0.12890141,0.
 27850583,-0.00004375,-0.00006972,-0.00012333,-0.00056243,-0.00010159,-
 0.00307411,-0.00216183,0.00253146,0.00097772,0.00100243,0.00077709,0.0
 0452284,-0.00004281,-0.00004118,-0.00069127,0.00150697,0.00070558,0.00
 769765,0.00207071,-0.00318288,0.00568826,0.00150143,0.00383433,-0.0347
 8401,0.00021372,-0.00004653,-0.00013859,0.00003349,0.00001905,0.000178
 93,0.00004927,0.00023246,0.00167439,-0.00013503,-0.00009063,-0.0011116
 1,0.00000354,-0.00021284,-0.00063689,-0.00054696,-0.00035437,-0.004251
 08,-0.00361445,-0.00419556,0.02216660,-0.00234053,0.00641415,0.0008381
 6,0.02133578,0.02877922,-0.00490752,-0.00470766,0.00063448,0.00026464,
 0.00160996,-0.00127688,-0.00014455,-0.00116087,-0.00113254,0.00023790,
 0.00052578,0.00106634,-0.00010716,0.00005202,-0.00212272,0.00010316,-0
 .00103251,0.00729669,-0.00047537,-0.14170716,-0.20405385,0.02792566,-0
 .00034173,0.00051476,-0.00010961,0.00019879,-0.00015868,-0.00002000,0.
 00001208,-0.00001065,0.00000429,0.00011390,-0.00023385,0.00000201,-0.0
 0005923,0.00001894,0.00000575,-0.00184159,-0.00459311,0.00072571,0.129
 34297,0.00368132,0.00077789,0.00023323,-0.01128874,-0.03979445,0.00351
 659,-0.00420871,0.00177275,0.00019873,0.00072508,-0.00221352,0.0000359
 2,-0.00131991,-0.00067085,0.00020997,0.00025685,0.00070841,-0.00006167
 ,-0.00026409,-0.00035842,0.00002779,-0.00035965,0.00447298,-0.00032344
 ,-0.15579458,-0.37061083,0.04134473,0.00053892,-0.00048839,-0.00009526
 ,0.00002103,-0.00005310,-0.00000504,-0.00013662,-0.00003373,0.00001994
 ,0.00003627,-0.00007888,0.00000021,-0.00018190,0.00001266,0.00001889,-
 0.00056297,0.00003850,0.00019532,0.16885770,0.40651898,0.00102745,-0.0
 0005481,0.00967260,-0.00213761,-0.00072100,-0.00595753,0.00060074,-0.0
 0031338,-0.00183142,-0.00028358,0.00024739,-0.00057999,0.00025089,0.00
 019045,0.00030554,-0.00005133,-0.00014752,0.00022591,-0.00002585,0.000
 22482,-0.00037545,0.00005644,-0.00113459,-0.00066539,0.02458793,0.0464
 4778,-0.01696769,-0.00011135,-0.00009291,-0.00102262,-0.00003250,0.000
 01397,-0.00009189,0.00001300,0.00000663,0.00004394,-0.00001674,0.00002
 885,-0.00002056,0.00001971,-0.00000234,0.00000600,0.00044587,0.0006225
 5,0.00190452,-0.02434307,-0.04531592,0.01535404\\0.00000183,0.00000200
 ,0.00000079,0.00000093,-0.00000275,-0.00000347,0.00000355,-0.00000209,
 -0.00000042,-0.00000162,0.00000037,0.00000116,0.00000091,0.00000085,-0
 .00000046,-0.00000027,0.00000046,0.00000037,0.00000060,-0.00000035,-0.
 00000020,0.00000021,0.00000107,0.00000149,-0.00000603,-0.00000061,0.00
 000155,-0.00000189,-0.00000037,0.00000048,0.00000025,0.00000021,-0.000
 00018,0.00000030,0.00000026,-0.00000042,0.00000005,0.00000023,0.000000
 06,-0.00000015,0.00000023,-0.00000026,-0.00000005,-0.00000028,-0.00000
 057,0.00000137,0.00000079,0.00000008\\\@


 BE CAREFUL NOT TO BECOME TOO GOOD OF A SONGBIRD OR 
 THEY'LL THROW YOU INTO A CAGE.

                                    -- SNOOPY TO WOODSTOCK
 Job cpu time:       0 days  0 hours  7 minutes  9.6 seconds.
 Elapsed time:       0 days  0 hours  0 minutes 18.4 seconds.
 File lengths (MBytes):  RWF=     47 Int=      0 D2E=      0 Chk=      3 Scr=      1
 Normal termination of Gaussian 16 at Mon Oct 14 00:39:46 2019.
real 97.25
user 2111.45
sys 22.57
Machine:
brown-a516
brown-a516
brown-a516
brown-a516
brown-a516
brown-a516
brown-a516
brown-a516
brown-a516
brown-a516
brown-a516
brown-a516
brown-a516
brown-a516
brown-a516
brown-a516
brown-a516
brown-a516
brown-a516
brown-a516
brown-a516
brown-a516
brown-a516
brown-a516
