Title Card Required                                                     
Freq      RB3LYP                                                      6-31G(d)            
Number of atoms                            I               24
Info1-9                                    I   N=           9
          58          58        1002           0           0         100
           6          18        -502
Full Title                                 C   N=           2
Title Card Required     
Route                                      C   N=           6
#p opt freq b3lyp/6-31g(d) geom=connectivity temperature=0.0
01          
Charge                                     I                0
Multiplicity                               I                1
Number of electrons                        I               96
Number of alpha electrons                  I               48
Number of beta electrons                   I               48
Number of basis functions                  I              230
Number of independent functions            I              230
Number of point charges in /Mol/           I                0
Number of translation vectors              I                0
Atomic numbers                             I   N=          24
           8           6           6           6           6           6
           6           6           6           6           6           6
           6           6           1           1           1           1
           1           1           1           1           1           1
Nuclear charges                            R   N=          24
  8.00000000E+00  6.00000000E+00  6.00000000E+00  6.00000000E+00  6.00000000E+00
  6.00000000E+00  6.00000000E+00  6.00000000E+00  6.00000000E+00  6.00000000E+00
  6.00000000E+00  6.00000000E+00  6.00000000E+00  6.00000000E+00  1.00000000E+00
  1.00000000E+00  1.00000000E+00  1.00000000E+00  1.00000000E+00  1.00000000E+00
  1.00000000E+00  1.00000000E+00  1.00000000E+00  1.00000000E+00
Current cartesian coordinates              R   N=          72
  2.39249053E-05  4.35797305E+00 -2.40206585E-04 -1.05990991E-05  2.04040578E+00
 -9.07021121E-05 -2.46422753E+00  6.36564061E-01  4.63269005E-02 -2.74933330E+00
 -1.75092370E+00  1.16543913E+00 -5.12070267E+00 -2.90031635E+00  1.26438243E+00
 -7.22165510E+00 -1.69011484E+00  2.26882630E-01 -6.95644245E+00  6.94646751E-01
 -8.80307255E-01 -4.60003118E+00  1.85925143E+00 -9.46686629E-01  2.46422500E+00
  6.36567579E-01 -4.63351689E-02  2.74940123E+00 -1.75080605E+00 -1.16563692E+00
  5.12080539E+00 -2.90016511E+00 -1.26456282E+00  7.22165585E+00 -1.69006198E+00
 -2.26774637E-01  6.95634448E+00  6.94590857E-01  8.80653253E-01  4.59993319E+00
  1.85917523E+00  9.46980280E-01 -1.12980499E+00 -2.68903821E+00  2.00400417E+00
 -5.32620033E+00 -4.73795788E+00  2.15736859E+00 -9.06431653E+00 -2.59491876E+00
  2.90858301E-01 -8.59211262E+00  1.64597103E+00 -1.67800321E+00 -4.36522621E+00
  3.72746476E+00 -1.75934283E+00  1.12994351E+00 -2.68884957E+00 -2.00441583E+00
  5.32635911E+00 -4.73770135E+00 -2.15775047E+00  9.06434962E+00 -2.59480437E+00
 -2.90702571E-01  8.59197129E+00  1.64582725E+00  1.67854640E+00  4.36507185E+00
  3.72734083E+00  1.75973619E+00
Number of symbols in /Mol/                 I                0
Force Field                                I                0
Atom Types                                 C   N=          24
                                                            
                                                            
                                                            
                                                            
                                                
Int Atom Types                             I   N=          24
           0           0           0           0           0           0
           0           0           0           0           0           0
           0           0           0           0           0           0
           0           0           0           0           0           0
MM charges                                 R   N=          24
  0.00000000E+00  0.00000000E+00  0.00000000E+00  0.00000000E+00  0.00000000E+00
  0.00000000E+00  0.00000000E+00  0.00000000E+00  0.00000000E+00  0.00000000E+00
  0.00000000E+00  0.00000000E+00  0.00000000E+00  0.00000000E+00  0.00000000E+00
  0.00000000E+00  0.00000000E+00  0.00000000E+00  0.00000000E+00  0.00000000E+00
  0.00000000E+00  0.00000000E+00  0.00000000E+00  0.00000000E+00
Integer atomic weights                     I   N=          24
          16          12          12          12          12          12
          12          12          12          12          12          12
          12          12           1           1           1           1
           1           1           1           1           1           1
Real atomic weights                        R   N=          24
  1.59949146E+01  1.20000000E+01  1.20000000E+01  1.20000000E+01  1.20000000E+01
  1.20000000E+01  1.20000000E+01  1.20000000E+01  1.20000000E+01  1.20000000E+01
  1.20000000E+01  1.20000000E+01  1.20000000E+01  1.20000000E+01  1.00782504E+00
  1.00782504E+00  1.00782504E+00  1.00782504E+00  1.00782504E+00  1.00782504E+00
  1.00782504E+00  1.00782504E+00  1.00782504E+00  1.00782504E+00
Atom fragment info                         I   N=          24
           0           0           0           0           0           0
           0           0           0           0           0           0
           0           0           0           0           0           0
           0           0           0           0           0           0
Atom residue num                           I   N=          24
           0           0           0           0           0           0
           0           0           0           0           0           0
           0           0           0           0           0           0
           0           0           0           0           0           0
Nuclear spins                              I   N=          24
           0           0           0           0           0           0
           0           0           0           0           0           0
           0           0           1           1           1           1
           1           1           1           1           1           1
Nuclear ZEff                               R   N=          24
 -5.60000000E+00 -3.60000000E+00 -3.60000000E+00 -3.60000000E+00 -3.60000000E+00
 -3.60000000E+00 -3.60000000E+00 -3.60000000E+00 -3.60000000E+00 -3.60000000E+00
 -3.60000000E+00 -3.60000000E+00 -3.60000000E+00 -3.60000000E+00 -1.00000000E+00
 -1.00000000E+00 -1.00000000E+00 -1.00000000E+00 -1.00000000E+00 -1.00000000E+00
 -1.00000000E+00 -1.00000000E+00 -1.00000000E+00 -1.00000000E+00
Nuclear ZNuc                               R   N=          24
  8.00000000E+00  6.00000000E+00  6.00000000E+00  6.00000000E+00  6.00000000E+00
  6.00000000E+00  6.00000000E+00  6.00000000E+00  6.00000000E+00  6.00000000E+00
  6.00000000E+00  6.00000000E+00  6.00000000E+00  6.00000000E+00  1.00000000E+00
  1.00000000E+00  1.00000000E+00  1.00000000E+00  1.00000000E+00  1.00000000E+00
  1.00000000E+00  1.00000000E+00  1.00000000E+00  1.00000000E+00
Nuclear QMom                               R   N=          24
  0.00000000E+00  0.00000000E+00  0.00000000E+00  0.00000000E+00  0.00000000E+00
  0.00000000E+00  0.00000000E+00  0.00000000E+00  0.00000000E+00  0.00000000E+00
  0.00000000E+00  0.00000000E+00  0.00000000E+00  0.00000000E+00  0.00000000E+00
  0.00000000E+00  0.00000000E+00  0.00000000E+00  0.00000000E+00  0.00000000E+00
  0.00000000E+00  0.00000000E+00  0.00000000E+00  0.00000000E+00
Nuclear GFac                               R   N=          24
  0.00000000E+00  0.00000000E+00  0.00000000E+00  0.00000000E+00  0.00000000E+00
  0.00000000E+00  0.00000000E+00  0.00000000E+00  0.00000000E+00  0.00000000E+00
  0.00000000E+00  0.00000000E+00  0.00000000E+00  0.00000000E+00  2.79284600E+00
  2.79284600E+00  2.79284600E+00  2.79284600E+00  2.79284600E+00  2.79284600E+00
  2.79284600E+00  2.79284600E+00  2.79284600E+00  2.79284600E+00
MicOpt                                     I   N=          24
          -1          -1          -1          -1          -1          -1
          -1          -1          -1          -1          -1          -1
          -1          -1          -1          -1          -1          -1
          -1          -1          -1          -1          -1          -1
Number of residues                         I                0
Number of secondary structures             I                0
Redundant internal dimensions              I   N=           4
         120          25          39          56
Redundant internal coordinate indices      I   N=         480
           1           2           0           0           2           3
           0           0           2           9           0           0
           3           4           0           0           3           8
           0           0           4           5           0           0
           4          15           0           0           5           6
           0           0           5          16           0           0
           6           7           0           0           6          17
           0           0           7           8           0           0
           7          18           0           0           8          19
           0           0           9          10           0           0
           9          14           0           0          10          11
           0           0          10          20           0           0
          11          12           0           0          11          21
           0           0          12          13           0           0
          12          22           0           0          13          14
           0           0          13          23           0           0
          14          24           0           0           1           2
           3           0           1           2           9           0
           3           2           9           0           2           3
           4           0           2           3           8           0
           4           3           8           0           3           4
           5           0           3           4          15           0
           5           4          15           0           4           5
           6           0           4           5          16           0
           6           5          16           0           5           6
           7           0           5           6          17           0
           7           6          17           0           6           7
           8           0           6           7          18           0
           8           7          18           0           3           8
           7           0           3           8          19           0
           7           8          19           0           2           9
          10           0           2           9          14           0
          10           9          14           0           9          10
          11           0           9          10          20           0
          11          10          20           0          10          11
          12           0          10          11          21           0
          12          11          21           0          11          12
          13           0          11          12          22           0
          13          12          22           0          12          13
          14           0          12          13          23           0
          14          13          23           0           9          14
          13           0           9          14          24           0
          13          14          24           0           1           2
           3           4           1           2           3           8
           9           2           3           4           9           2
           3           8           1           2           9          10
           1           2           9          14           3           2
           9          10           3           2           9          14
           2           3           4           5           2           3
           4          15           8           3           4           5
           8           3           4          15           2           3
           8           7           2           3           8          19
           4           3           8           7           4           3
           8          19           3           4           5           6
           3           4           5          16          15           4
           5           6          15           4           5          16
           4           5           6           7           4           5
           6          17          16           5           6           7
          16           5           6          17           5           6
           7           8           5           6           7          18
          17           6           7           8          17           6
           7          18           6           7           8           3
           6           7           8          19          18           7
           8           3          18           7           8          19
           2           9          10          11           2           9
          10          20          14           9          10          11
          14           9          10          20           2           9
          14          13           2           9          14          24
          10           9          14          13          10           9
          14          24           9          10          11          12
           9          10          11          21          20          10
          11          12          20          10          11          21
          10          11          12          13          10          11
          12          22          21          11          12          13
          21          11          12          22          11          12
          13          14          11          12          13          23
          22          12          13          14          22          12
          13          23          12          13          14           9
          12          13          14          24          23          13
          14           9          23          13          14          24
Redundant internal coordinates             R   N=         120
  2.31756727E+00  2.83642226E+00  2.83643391E+00  2.65213033E+00  2.65380812E+00
  2.63709801E+00  2.05088325E+00  2.63723238E+00  2.05343127E+00  2.64259248E+00
  2.05381698E+00  2.62933154E+00  2.05347355E+00  2.05079607E+00  2.65211514E+00
  2.65380755E+00  2.63711400E+00  2.05088250E+00  2.63721947E+00  2.05343028E+00
  2.64260398E+00  2.05381740E+00  2.62932125E+00  2.05347491E+00  2.05079856E+00
  2.08857127E+00  2.08853529E+00  2.10607875E+00  2.14819540E+00  2.05447996E+00
  2.07845417E+00  2.10002046E+00  2.09372515E+00  2.08908221E+00  2.09624965E+00
  2.09019680E+00  2.09673385E+00  2.09323352E+00  2.09477416E+00  2.09515508E+00
  2.09466489E+00  2.09542429E+00  2.09307243E+00  2.10337081E+00  2.06671545E+00
  2.11309737E+00  2.14816874E+00  2.05448974E+00  2.07846935E+00  2.10001445E+00
  2.09373456E+00  2.08907800E+00  2.09624473E+00  2.09018547E+00  2.09675013E+00
  2.09323710E+00  2.09479278E+00  2.09513280E+00  2.09466719E+00  2.09540973E+00
  2.09308461E+00  2.10336072E+00  2.06672308E+00  2.11309973E+00 -2.61679221E+00
  4.55208466E-01  5.24803249E-01 -2.68638138E+00 -2.61654209E+00  4.55430507E-01
  5.25047757E-01 -2.68616495E+00  3.08226284E+00 -3.05119996E-02  1.11716873E-02
 -3.10160315E+00 -3.10283044E+00  3.68129306E-02 -2.79585230E-02  3.11168485E+00
  1.09091899E-02 -3.12728668E+00  3.12376066E+00 -1.44352052E-02 -1.64998405E-02
  3.13230547E+00  3.12168321E+00 -1.26967826E-02 -2.04834742E-04 -3.13439348E+00
  3.13417357E+00 -1.50757486E-05  2.26002654E-02 -3.11699074E+00 -3.12638635E+00
  1.72079428E-02  3.08219347E+00 -3.05486380E-02  1.11310043E-02 -3.10161111E+00
 -3.10277996E+00  3.68100811E-02 -2.79366810E-02  3.11165336E+00  1.09495863E-02
 -3.12725588E+00  3.12376864E+00 -1.44368213E-02 -1.65203983E-02  3.13229761E+00
  3.12167223E+00 -1.26950709E-02 -2.03226786E-04 -3.13437875E+00  3.13416266E+00
 -1.28693247E-05  2.25976858E-02 -3.11693856E+00 -3.12640215E+00  1.72469093E-02
ZRed-IntVec                                I   N=         120
           0           0           0           0           0           0
           0           0           0           0           0           0
           0           0           0           0           0           0
           0           0           0           0           0           0
           0           0           0           0           0           0
           0           0           0           0           0           0
           0           0           0           0           0           0
           0           0           0           0           0           0
           0           0           0           0           0           0
           0           0           0           0           0           0
           0           0           0           0           0           0
           0           0           0           0           0           0
           0           0           0           0           0           0
           0           0           0           0           0           0
           0           0           0           0           0           0
           0           0           0           0           0           0
           0           0           0           0           0           0
           0           0           0           0           0           0
           0           0           0           0           0           0
           0           0           0           0           0           0
ZRed-FPVec                                 R   N=         120
  0.00000000E+00  0.00000000E+00  0.00000000E+00  0.00000000E+00  0.00000000E+00
  0.00000000E+00  0.00000000E+00  0.00000000E+00  0.00000000E+00  0.00000000E+00
  0.00000000E+00  0.00000000E+00  0.00000000E+00  0.00000000E+00  0.00000000E+00
  0.00000000E+00  0.00000000E+00  0.00000000E+00  0.00000000E+00  0.00000000E+00
  0.00000000E+00  0.00000000E+00  0.00000000E+00  0.00000000E+00  0.00000000E+00
  0.00000000E+00  0.00000000E+00  0.00000000E+00  0.00000000E+00  0.00000000E+00
  0.00000000E+00  0.00000000E+00  0.00000000E+00  0.00000000E+00  0.00000000E+00
  0.00000000E+00  0.00000000E+00  0.00000000E+00  0.00000000E+00  0.00000000E+00
  0.00000000E+00  0.00000000E+00  0.00000000E+00  0.00000000E+00  0.00000000E+00
  0.00000000E+00  0.00000000E+00  0.00000000E+00  0.00000000E+00  0.00000000E+00
  0.00000000E+00  0.00000000E+00  0.00000000E+00  0.00000000E+00  0.00000000E+00
  0.00000000E+00  0.00000000E+00  0.00000000E+00  0.00000000E+00  0.00000000E+00
  0.00000000E+00  0.00000000E+00  0.00000000E+00  0.00000000E+00  0.00000000E+00
  0.00000000E+00  0.00000000E+00  0.00000000E+00  0.00000000E+00  0.00000000E+00
  0.00000000E+00  0.00000000E+00  0.00000000E+00  0.00000000E+00  0.00000000E+00
  0.00000000E+00  0.00000000E+00  0.00000000E+00  0.00000000E+00  0.00000000E+00
  0.00000000E+00  0.00000000E+00  0.00000000E+00  0.00000000E+00  0.00000000E+00
  0.00000000E+00  0.00000000E+00  0.00000000E+00  0.00000000E+00  0.00000000E+00
  0.00000000E+00  0.00000000E+00  0.00000000E+00  0.00000000E+00  0.00000000E+00
  0.00000000E+00  0.00000000E+00  0.00000000E+00  0.00000000E+00  0.00000000E+00
  0.00000000E+00  0.00000000E+00  0.00000000E+00  0.00000000E+00  0.00000000E+00
  0.00000000E+00  0.00000000E+00  0.00000000E+00  0.00000000E+00  0.00000000E+00
  0.00000000E+00  0.00000000E+00  0.00000000E+00  0.00000000E+00  0.00000000E+00
  0.00000000E+00  0.00000000E+00  0.00000000E+00  0.00000000E+00  0.00000000E+00
ZRed-Constraint1                           R   N=         120
  2.31756727E+00  2.83642226E+00  2.83643391E+00  2.65213033E+00  2.65380812E+00
  2.63709801E+00  2.05088325E+00  2.63723238E+00  2.05343127E+00  2.64259248E+00
  2.05381698E+00  2.62933154E+00  2.05347355E+00  2.05079607E+00  2.65211514E+00
  2.65380755E+00  2.63711400E+00  2.05088250E+00  2.63721947E+00  2.05343028E+00
  2.64260398E+00  2.05381740E+00  2.62932125E+00  2.05347491E+00  2.05079856E+00
  2.08857127E+00  2.08853529E+00  2.10607875E+00  2.14819540E+00  2.05447996E+00
  2.07845417E+00  2.10002046E+00  2.09372515E+00  2.08908221E+00  2.09624965E+00
  2.09019680E+00  2.09673385E+00  2.09323352E+00  2.09477416E+00  2.09515508E+00
  2.09466489E+00  2.09542429E+00  2.09307243E+00  2.10337081E+00  2.06671545E+00
  2.11309737E+00  2.14816874E+00  2.05448974E+00  2.07846935E+00  2.10001445E+00
  2.09373456E+00  2.08907800E+00  2.09624473E+00  2.09018547E+00  2.09675013E+00
  2.09323710E+00  2.09479278E+00  2.09513280E+00  2.09466719E+00  2.09540973E+00
  2.09308461E+00  2.10336072E+00  2.06672308E+00  2.11309973E+00 -2.61679221E+00
  4.55208466E-01  5.24803249E-01 -2.68638138E+00 -2.61654209E+00  4.55430507E-01
  5.25047757E-01 -2.68616495E+00  3.08226284E+00 -3.05119996E-02  1.11716873E-02
 -3.10160315E+00 -3.10283044E+00  3.68129306E-02 -2.79585230E-02  3.11168485E+00
  1.09091899E-02 -3.12728668E+00  3.12376066E+00 -1.44352052E-02 -1.64998405E-02
  3.13230547E+00  3.12168321E+00 -1.26967826E-02 -2.04834742E-04 -3.13439348E+00
  3.13417357E+00 -1.50757412E-05  2.26002654E-02 -3.11699074E+00 -3.12638635E+00
  1.72079428E-02  3.08219347E+00 -3.05486380E-02  1.11310043E-02 -3.10161111E+00
 -3.10277996E+00  3.68100811E-02 -2.79366810E-02  3.11165336E+00  1.09495863E-02
 -3.12725588E+00  3.12376864E+00 -1.44368213E-02 -1.65203983E-02  3.13229761E+00
  3.12167223E+00 -1.26950709E-02 -2.03226787E-04 -3.13437875E+00  3.13416266E+00
 -1.28693247E-05  2.25976858E-02 -3.11693856E+00 -3.12640215E+00  1.72469093E-02
ZRed-Constraint2                           R   N=         120
  2.37750466E+00  2.76987695E+00  2.76975889E+00  2.69126258E+00  2.70617331E+00
  2.66038874E+00  2.05977477E+00  2.64361103E+00  2.05966659E+00  2.64534974E+00
  2.05979087E+00  2.65909799E+00  2.05962046E+00  2.05991803E+00  2.69157577E+00
  2.70614256E+00  2.66021923E+00  2.05985024E+00  2.64359278E+00  2.05988463E+00
  2.64542782E+00  2.05980531E+00  2.65903957E+00  2.05974885E+00  2.05978525E+00
  1.97033140E+00  1.97029104E+00  2.34256287E+00  2.21083490E+00  2.08039389E+00
  1.99195651E+00  2.14909356E+00  2.07784646E+00  2.05624529E+00  2.10092564E+00
  2.09667859E+00  2.08558108E+00  2.07773089E+00  2.10213603E+00  2.10331839E+00
  2.09394184E+00  2.09014705E+00  2.09909641E+00  2.15272218E+00  2.08156306E+00
  2.04890007E+00  2.21092468E+00  2.08047963E+00  1.99178099E+00  2.14915542E+00
  2.07767850E+00  2.05635139E+00  2.10101404E+00  2.09664995E+00  2.08552131E+00
  2.07759464E+00  2.10221221E+00  2.10337847E+00  2.09403088E+00  2.09001241E+00
  2.09914202E+00  2.15279464E+00  2.08147292E+00  2.04891774E+00 -2.37364778E+00
  7.67944877E-01  7.67944868E-01 -2.37364778E+00 -2.60752190E+00  5.34070749E-01
  5.34070755E-01 -2.60752190E+00  3.14159265E+00  0.00000000E+00  0.00000000E+00
  3.14159265E+00  3.14159264E+00 -0.00000000E+00  0.00000000E+00  3.14159265E+00
 -0.00000000E+00  3.14159265E+00  3.14159265E+00  0.00000000E+00  1.49011612E-08
  3.14159265E+00  3.14159265E+00 -0.00000000E+00  1.49011612E-08  3.14159265E+00
  3.14159265E+00 -0.00000000E+00 -0.00000000E+00  3.14159265E+00  3.14159265E+00
  0.00000000E+00  3.14159265E+00  0.00000000E+00  0.00000000E+00  3.14159265E+00
  3.14159265E+00  0.00000000E+00  0.00000000E+00  3.14159265E+00  0.00000000E+00
  3.14159265E+00  3.14159265E+00  0.00000000E+00  0.00000000E+00  3.14159265E+00
  3.14159265E+00  0.00000000E+00  0.00000000E+00  3.14159265E+00  3.14159265E+00
  0.00000000E+00  0.00000000E+00  3.14159265E+00  3.14159265E+00  0.00000000E+00
SymInf integers                            I   N=          26
           1           1           1           1           1           0
           0           0           0           0           0           0
           0           0           0           0           0           0
           0           0           0           0           0           0
           0           0
RotTr to input orientation                 R   N=          12
 -8.55322256E-01 -5.01933607E-01  1.28399735E-01 -3.63583720E-01  7.58068178E-01
  5.41423601E-01 -3.69094454E-01  4.16407602E-01 -8.30887473E-01 -2.95749968E+00
  5.29221123E-01 -6.62206933E-01
Number of contracted shells                I               76
Number of primitive shells                 I              194
Pure/Cartesian d shells                    I                1
Pure/Cartesian f shells                    I                0
Highest angular momentum                   I                2
Largest degree of contraction              I                6
Shell types                                I   N=          76
           0          -1          -1           2           0          -1
          -1           2           0          -1          -1           2
           0          -1          -1           2           0          -1
          -1           2           0          -1          -1           2
           0          -1          -1           2           0          -1
          -1           2           0          -1          -1           2
           0          -1          -1           2           0          -1
          -1           2           0          -1          -1           2
           0          -1          -1           2           0          -1
          -1           2           0           0           0           0
           0           0           0           0           0           0
           0           0           0           0           0           0
           0           0           0           0
Number of primitives per shell             I   N=          76
           6           3           1           1           6           3
           1           1           6           3           1           1
           6           3           1           1           6           3
           1           1           6           3           1           1
           6           3           1           1           6           3
           1           1           6           3           1           1
           6           3           1           1           6           3
           1           1           6           3           1           1
           6           3           1           1           6           3
           1           1           3           1           3           1
           3           1           3           1           3           1
           3           1           3           1           3           1
           3           1           3           1
Shell to atom map                          I   N=          76
           1           1           1           1           2           2
           2           2           3           3           3           3
           4           4           4           4           5           5
           5           5           6           6           6           6
           7           7           7           7           8           8
           8           8           9           9           9           9
          10          10          10          10          11          11
          11          11          12          12          12          12
          13          13          13          13          14          14
          14          14          15          15          16          16
          17          17          18          18          19          19
          20          20          21          21          22          22
          23          23          24          24
Primitive exponents                        R   N=         194
  5.48467166E+03  8.25234946E+02  1.88046958E+02  5.29645000E+01  1.68975704E+01
  5.79963534E+00  1.55396162E+01  3.59993359E+00  1.01376175E+00  2.70005823E-01
  8.00000000E-01  3.04752488E+03  4.57369518E+02  1.03948685E+02  2.92101553E+01
  9.28666296E+00  3.16392696E+00  7.86827235E+00  1.88128854E+00  5.44249258E-01
  1.68714478E-01  8.00000000E-01  3.04752488E+03  4.57369518E+02  1.03948685E+02
  2.92101553E+01  9.28666296E+00  3.16392696E+00  7.86827235E+00  1.88128854E+00
  5.44249258E-01  1.68714478E-01  8.00000000E-01  3.04752488E+03  4.57369518E+02
  1.03948685E+02  2.92101553E+01  9.28666296E+00  3.16392696E+00  7.86827235E+00
  1.88128854E+00  5.44249258E-01  1.68714478E-01  8.00000000E-01  3.04752488E+03
  4.57369518E+02  1.03948685E+02  2.92101553E+01  9.28666296E+00  3.16392696E+00
  7.86827235E+00  1.88128854E+00  5.44249258E-01  1.68714478E-01  8.00000000E-01
  3.04752488E+03  4.57369518E+02  1.03948685E+02  2.92101553E+01  9.28666296E+00
  3.16392696E+00  7.86827235E+00  1.88128854E+00  5.44249258E-01  1.68714478E-01
  8.00000000E-01  3.04752488E+03  4.57369518E+02  1.03948685E+02  2.92101553E+01
  9.28666296E+00  3.16392696E+00  7.86827235E+00  1.88128854E+00  5.44249258E-01
  1.68714478E-01  8.00000000E-01  3.04752488E+03  4.57369518E+02  1.03948685E+02
  2.92101553E+01  9.28666296E+00  3.16392696E+00  7.86827235E+00  1.88128854E+00
  5.44249258E-01  1.68714478E-01  8.00000000E-01  3.04752488E+03  4.57369518E+02
  1.03948685E+02  2.92101553E+01  9.28666296E+00  3.16392696E+00  7.86827235E+00
  1.88128854E+00  5.44249258E-01  1.68714478E-01  8.00000000E-01  3.04752488E+03
  4.57369518E+02  1.03948685E+02  2.92101553E+01  9.28666296E+00  3.16392696E+00