 Entering Gaussian System, Link 0=/apps/cent7/gaussian/g16-A.03/g16-haswell/g16/g16
 Initial command:
 /apps/cent7/gaussian/g16-A.03/g16-haswell/g16/l1.exe "/scratch/brown/finej/gaussian/Gau-43858.inp" -scrdir="/scratch/brown/finej/gaussian/"
 Entering Link 1 = /apps/cent7/gaussian/g16-A.03/g16-haswell/g16/l1.exe PID=     43859.
  
 Copyright (c) 1988,1990,1992,1993,1995,1998,2003,2009,2016,
            Gaussian, Inc.  All Rights Reserved.
  
 This is part of the Gaussian(R) 16 program.  It is based on
 the Gaussian(R) 09 system (copyright 2009, Gaussian, Inc.),
 the Gaussian(R) 03 system (copyright 2003, Gaussian, Inc.),
 the Gaussian(R) 98 system (copyright 1998, Gaussian, Inc.),
 the Gaussian(R) 94 system (copyright 1995, Gaussian, Inc.),
 the Gaussian 92(TM) system (copyright 1992, Gaussian, Inc.),
 the Gaussian 90(TM) system (copyright 1990, Gaussian, Inc.),
 the Gaussian 88(TM) system (copyright 1988, Gaussian, Inc.),
 the Gaussian 86(TM) system (copyright 1986, Carnegie Mellon
 University), and the Gaussian 82(TM) system (copyright 1983,
 Carnegie Mellon University). Gaussian is a federally registered
 trademark of Gaussian, Inc.
  
 This software contains proprietary and confidential information,
 including trade secrets, belonging to Gaussian, Inc.
  
 This software is provided under written license and may be
 used, copied, transmitted, or stored only in accord with that
 written license.
  
 The following legend is applicable only to US Government
 contracts under FAR:
  
                    RESTRICTED RIGHTS LEGEND
  
 Use, reproduction and disclosure by the US Government is
 subject to restrictions as set forth in subparagraphs (a)
 and (c) of the Commercial Computer Software - Restricted
 Rights clause in FAR 52.227-19.
  
 Gaussian, Inc.
 340 Quinnipiac St., Bldg. 40, Wallingford CT 06492
  
  
 ---------------------------------------------------------------
 Warning -- This program may not be used in any manner that
 competes with the business of Gaussian, Inc. or will provide
 assistance to any competitor of Gaussian, Inc.  The licensee
 of this program is prohibited from giving any competitor of
 Gaussian, Inc. access to this program.  By using this program,
 the user acknowledges that Gaussian, Inc. is engaged in the
 business of creating and licensing software in the field of
 computational chemistry and represents and warrants to the
 licensee that it is not a competitor of Gaussian, Inc. and that
 it will not use this program in any manner prohibited above.
 ---------------------------------------------------------------
  

 Cite this work as:
 Gaussian 16, Revision A.03,
 M. J. Frisch, G. W. Trucks, H. B. Schlegel, G. E. Scuseria, 
 M. A. Robb, J. R. Cheeseman, G. Scalmani, V. Barone, 
 G. A. Petersson, H. Nakatsuji, X. Li, M. Caricato, A. V. Marenich, 
 J. Bloino, B. G. Janesko, R. Gomperts, B. Mennucci, H. P. Hratchian, 
 J. V. Ortiz, A. F. Izmaylov, J. L. Sonnenberg, D. Williams-Young, 
 F. Ding, F. Lipparini, F. Egidi, J. Goings, B. Peng, A. Petrone, 
 T. Henderson, D. Ranasinghe, V. G. Zakrzewski, J. Gao, N. Rega, 
 G. Zheng, W. Liang, M. Hada, M. Ehara, K. Toyota, R. Fukuda, 
 J. Hasegawa, M. Ishida, T. Nakajima, Y. Honda, O. Kitao, H. Nakai, 
 T. Vreven, K. Throssell, J. A. Montgomery, Jr., J. E. Peralta, 
 F. Ogliaro, M. J. Bearpark, J. J. Heyd, E. N. Brothers, K. N. Kudin, 
 V. N. Staroverov, T. A. Keith, R. Kobayashi, J. Normand, 
 K. Raghavachari, A. P. Rendell, J. C. Burant, S. S. Iyengar, 
 J. Tomasi, M. Cossi, J. M. Millam, M. Klene, C. Adamo, R. Cammi, 
 J. W. Ochterski, R. L. Martin, K. Morokuma, O. Farkas, 
 J. B. Foresman, and D. J. Fox, Gaussian, Inc., Wallingford CT, 2016.
 
 ******************************************
 Gaussian 16:  ES64L-G16RevA.03 25-Dec-2016
                14-Oct-2019 
 ******************************************
 %chk=15.chk
 %nprocshared=24
 Will use up to   24 processors via shared memory.
 %mem=80GB
 --------------------------------------------------------------
 #p opt freq b3lyp/6-31g(d) geom=connectivity temperature=0.001
 --------------------------------------------------------------
 1/18=20,19=15,26=3,38=1,57=2,112=-1000/1,3;
 2/9=110,12=2,17=6,18=5,40=1/2;
 3/5=1,6=6,7=1,11=2,25=1,30=1,71=1,74=-5/1,2,3;
 4//1;
 5/5=2,38=5/2;
 6/7=2,8=2,9=2,10=2,28=1/1;
 7//1,2,3,16;
 1/18=20,19=15,26=3/3(2);
 2/9=110/2;
 99//99;
 2/9=110/2;
 3/5=1,6=6,7=1,11=2,25=1,30=1,71=1,74=-5/1,2,3;
 4/5=5,16=3,69=1/1;
 5/5=2,38=5/2;
 7//1,2,3,16;
 1/18=20,19=15,26=3/3(-5);
 2/9=110/2;
 6/7=2,8=2,9=2,10=2,19=2,28=1/1;
 99/9=1/99;
 Leave Link    1 at Mon Oct 14 11:07:53 2019, MaxMem= 10737418240 cpu:               2.9 elap:               0.1
 (Enter /apps/cent7/gaussian/g16-A.03/g16-haswell/g16/l101.exe)
 -------------------
 Title Card Required
 -------------------
 Symbolic Z-matrix:
 Charge =  0 Multiplicity = 1
 O                    -2.39109   1.91231   0.59001 
 C                    -1.8908    0.9201    0. 
 C                    -0.55296   1.18967  -0.53474 
 C                    -0.06074   0.8226   -1.81973 
 C                     1.24338   1.12083  -2.25823 
 C                     2.13028   1.80905  -1.42349 
 C                     1.70186   2.19577  -0.14814 
 C                     0.39559   1.89106   0.2771 
 C                    -2.7752   -0.2487    0. 
 C                    -2.3776   -1.6164    0. 
 C                    -3.2947   -2.6844    0. 
 C                    -4.6712   -2.4349    0. 
 C                    -5.1215   -1.1094    0. 
 C                    -4.1936   -0.0516    0. 
 H                    -0.7169    0.28482  -2.50407 
 H                     1.56928   0.81624  -3.25269 
 H                     3.14024   2.04054  -1.76184 
 H                     2.38329   2.7325    0.51176 
 H                     0.10625   2.21198   1.27786 
 H                    -1.3148   -1.8585    0. 
 H                    -2.9359   -3.7137    0. 
 H                    -5.3823   -3.261     0. 
 H                    -6.1915   -0.9017    0. 
 H                    -4.5904    0.9636    0. 
 
 ITRead=  0  0  0  0  0  0  0  0  0  0  0  0  0  0  0  0  0  0  0  0
 ITRead=  0  0  0  0
 MicOpt= -1 -1 -1 -1 -1 -1 -1 -1 -1 -1 -1 -1 -1 -1 -1 -1 -1 -1 -1 -1
 MicOpt= -1 -1 -1 -1
 NAtoms=     24 NQM=       24 NQMF=       0 NMMI=      0 NMMIF=      0
                NMic=       0 NMicF=      0.
                    Isotopes and Nuclear Properties:
 (Nuclear quadrupole moments (NQMom) in fm**2, nuclear magnetic moments (NMagM)
  in nuclear magnetons)

  Atom         1           2           3           4           5           6           7           8           9          10
 IAtWgt=          16          12          12          12          12          12          12          12          12          12
 AtmWgt=  15.9949146  12.0000000  12.0000000  12.0000000  12.0000000  12.0000000  12.0000000  12.0000000  12.0000000  12.0000000
 NucSpn=           0           0           0           0           0           0           0           0           0           0
 AtZEff=  -0.0000000  -0.0000000  -0.0000000  -0.0000000  -0.0000000  -0.0000000  -0.0000000  -0.0000000  -0.0000000  -0.0000000
 NQMom=    0.0000000   0.0000000   0.0000000   0.0000000   0.0000000   0.0000000   0.0000000   0.0000000   0.0000000   0.0000000
 NMagM=    0.0000000   0.0000000   0.0000000   0.0000000   0.0000000   0.0000000   0.0000000   0.0000000   0.0000000   0.0000000
 AtZNuc=   8.0000000   6.0000000   6.0000000   6.0000000   6.0000000   6.0000000   6.0000000   6.0000000   6.0000000   6.0000000

  Atom        11          12          13          14          15          16          17          18          19          20
 IAtWgt=          12          12          12          12           1           1           1           1           1           1
 AtmWgt=  12.0000000  12.0000000  12.0000000  12.0000000   1.0078250   1.0078250   1.0078250   1.0078250   1.0078250   1.0078250
 NucSpn=           0           0           0           0           1           1           1           1           1           1
 AtZEff=  -0.0000000  -0.0000000  -0.0000000  -0.0000000  -0.0000000  -0.0000000  -0.0000000  -0.0000000  -0.0000000  -0.0000000
 NQMom=    0.0000000   0.0000000   0.0000000   0.0000000   0.0000000   0.0000000   0.0000000   0.0000000   0.0000000   0.0000000
 NMagM=    0.0000000   0.0000000   0.0000000   0.0000000   2.7928460   2.7928460   2.7928460   2.7928460   2.7928460   2.7928460
 AtZNuc=   6.0000000   6.0000000   6.0000000   6.0000000   1.0000000   1.0000000   1.0000000   1.0000000   1.0000000   1.0000000

  Atom        21          22          23          24
 IAtWgt=           1           1           1           1
 AtmWgt=   1.0078250   1.0078250   1.0078250   1.0078250
 NucSpn=           1           1           1           1
 AtZEff=  -0.0000000  -0.0000000  -0.0000000  -0.0000000
 NQMom=    0.0000000   0.0000000   0.0000000   0.0000000
 NMagM=    2.7928460   2.7928460   2.7928460   2.7928460
 AtZNuc=   1.0000000   1.0000000   1.0000000   1.0000000
 Leave Link  101 at Mon Oct 14 11:07:53 2019, MaxMem= 10737418240 cpu:              10.8 elap:               0.5
 (Enter /apps/cent7/gaussian/g16-A.03/g16-haswell/g16/l103.exe)

 GradGradGradGradGradGradGradGradGradGradGradGradGradGradGradGradGradGrad
 Berny optimization.
 Initialization pass.
                           ----------------------------
                           !    Initial Parameters    !
                           ! (Angstroms and Degrees)  !
 --------------------------                            --------------------------
 ! Name  Definition              Value          Derivative Info.                !
 --------------------------------------------------------------------------------
 ! R1    R(1,2)                  1.2581         estimate D2E/DX2                !
 ! R2    R(2,3)                  1.4658         estimate D2E/DX2                !
 ! R3    R(2,9)                  1.4657         estimate D2E/DX2                !
 ! R4    R(3,4)                  1.4242         estimate D2E/DX2                !
 ! R5    R(3,8)                  1.432          estimate D2E/DX2                !
 ! R6    R(4,5)                  1.4078         estimate D2E/DX2                !
 ! R7    R(4,15)                 1.09           estimate D2E/DX2                !
 ! R8    R(5,6)                  1.3989         estimate D2E/DX2                !
 ! R9    R(5,16)                 1.0899         estimate D2E/DX2                !
 ! R10   R(6,7)                  1.3999         estimate D2E/DX2                !
 ! R11   R(6,17)                 1.09           estimate D2E/DX2                !
 ! R12   R(7,8)                  1.4071         estimate D2E/DX2                !
 ! R13   R(7,18)                 1.0899         estimate D2E/DX2                !
 ! R14   R(8,19)                 1.0901         estimate D2E/DX2                !
 ! R15   R(9,10)                 1.4243         estimate D2E/DX2                !
 ! R16   R(9,14)                 1.432          estimate D2E/DX2                !
 ! R17   R(10,11)                1.4077         estimate D2E/DX2                !
 ! R18   R(10,20)                1.09           estimate D2E/DX2                !
 ! R19   R(11,12)                1.3989         estimate D2E/DX2                !
 ! R20   R(11,21)                1.09           estimate D2E/DX2                !
 ! R21   R(12,13)                1.3999         estimate D2E/DX2                !
 ! R22   R(12,22)                1.09           estimate D2E/DX2                !
 ! R23   R(13,14)                1.4071         estimate D2E/DX2                !
 ! R24   R(13,23)                1.09           estimate D2E/DX2                !
 ! R25   R(14,24)                1.09           estimate D2E/DX2                !
 ! A1    A(1,2,3)              112.8917         estimate D2E/DX2                !
 ! A2    A(1,2,9)              112.8894         estimate D2E/DX2                !
 ! A3    A(3,2,9)              134.219          estimate D2E/DX2                !
 ! A4    A(2,3,4)              126.6715         estimate D2E/DX2                !
 ! A5    A(2,3,8)              119.1978         estimate D2E/DX2                !
 ! A6    A(4,3,8)              114.1307         estimate D2E/DX2                !
 ! A7    A(3,4,5)              123.134          estimate D2E/DX2                !
 ! A8    A(3,4,15)             119.0518         estimate D2E/DX2                !
 ! A9    A(5,4,15)             117.8142         estimate D2E/DX2                !
 ! A10   A(4,5,6)              120.3742         estimate D2E/DX2                !
 ! A11   A(4,5,16)             120.1308         estimate D2E/DX2                !
 ! A12   A(6,5,16)             119.495          estimate D2E/DX2                !
 ! A13   A(5,6,7)              119.0452         estimate D2E/DX2                !
 ! A14   A(5,6,17)             120.4435         estimate D2E/DX2                !
 ! A15   A(7,6,17)             120.5113         estimate D2E/DX2                !
 ! A16   A(6,7,8)              119.974          estimate D2E/DX2                !
 ! A17   A(6,7,18)             119.7566         estimate D2E/DX2                !
 ! A18   A(8,7,18)             120.2694         estimate D2E/DX2                !
 ! A19   A(3,8,7)              123.3419         estimate D2E/DX2                !
 ! A20   A(3,8,19)             119.2648         estimate D2E/DX2                !
 ! A21   A(7,8,19)             117.3933         estimate D2E/DX2                !
 ! A22   A(2,9,10)             126.6767         estimate D2E/DX2                !
 ! A23   A(2,9,14)             119.2027         estimate D2E/DX2                !
 ! A24   A(10,9,14)            114.1206         estimate D2E/DX2                !
 ! A25   A(9,10,11)            123.1375         estimate D2E/DX2                !
 ! A26   A(9,10,20)            119.0422         estimate D2E/DX2                !
 ! A27   A(11,10,20)           117.8203         estimate D2E/DX2                !
 ! A28   A(10,11,12)           120.3792         estimate D2E/DX2                !
 ! A29   A(10,11,21)           120.1292         estimate D2E/DX2                !
 ! A30   A(12,11,21)           119.4916         estimate D2E/DX2                !
 ! A31   A(11,12,13)           119.0374         estimate D2E/DX2                !
 ! A32   A(11,12,22)           120.4479         estimate D2E/DX2                !
 ! A33   A(13,12,22)           120.5147         estimate D2E/DX2                !
 ! A34   A(12,13,14)           119.9791         estimate D2E/DX2                !
 ! A35   A(12,13,23)           119.7489         estimate D2E/DX2                !
 ! A36   A(14,13,23)           120.272          estimate D2E/DX2                !
 ! A37   A(9,14,13)            123.346          estimate D2E/DX2                !
 ! A38   A(9,14,24)            119.2596         estimate D2E/DX2                !
 ! A39   A(13,14,24)           117.3943         estimate D2E/DX2                !
 ! D1    D(1,2,3,4)           -136.0            estimate D2E/DX2                !
 ! D2    D(1,2,3,8)             44.0            estimate D2E/DX2                !
 ! D3    D(9,2,3,4)             44.0            estimate D2E/DX2                !
 ! D4    D(9,2,3,8)           -136.0            estimate D2E/DX2                !
 ! D5    D(1,2,9,10)          -149.4            estimate D2E/DX2                !
 ! D6    D(1,2,9,14)            30.6            estimate D2E/DX2                !
 ! D7    D(3,2,9,10)            30.6            estimate D2E/DX2                !
 ! D8    D(3,2,9,14)          -149.4            estimate D2E/DX2                !
 ! D9    D(2,3,4,5)            180.0            estimate D2E/DX2                !
 ! D10   D(2,3,4,15)             0.0            estimate D2E/DX2                !
 ! D11   D(8,3,4,5)              0.0            estimate D2E/DX2                !
 ! D12   D(8,3,4,15)           180.0            estimate D2E/DX2                !
 ! D13   D(2,3,8,7)            180.0            estimate D2E/DX2                !
 ! D14   D(2,3,8,19)             0.0            estimate D2E/DX2                !
 ! D15   D(4,3,8,7)              0.0            estimate D2E/DX2                !
 ! D16   D(4,3,8,19)           180.0            estimate D2E/DX2                !
 ! D17   D(3,4,5,6)              0.0            estimate D2E/DX2                !
 ! D18   D(3,4,5,16)           180.0            estimate D2E/DX2                !
 ! D19   D(15,4,5,6)           180.0            estimate D2E/DX2                !
 ! D20   D(15,4,5,16)            0.0            estimate D2E/DX2                !
 ! D21   D(4,5,6,7)              0.0            estimate D2E/DX2                !
 ! D22   D(4,5,6,17)           180.0            estimate D2E/DX2                !
 ! D23   D(16,5,6,7)           180.0            estimate D2E/DX2                !
 ! D24   D(16,5,6,17)            0.0            estimate D2E/DX2                !
 ! D25   D(5,6,7,8)              0.0            estimate D2E/DX2                !
 ! D26   D(5,6,7,18)           180.0            estimate D2E/DX2                !
 ! D27   D(17,6,7,8)           180.0            estimate D2E/DX2                !
 ! D28   D(17,6,7,18)            0.0            estimate D2E/DX2                !
 ! D29   D(6,7,8,3)              0.0            estimate D2E/DX2                !
 ! D30   D(6,7,8,19)           180.0            estimate D2E/DX2                !
 ! D31   D(18,7,8,3)           180.0            estimate D2E/DX2                !
 ! D32   D(18,7,8,19)            0.0            estimate D2E/DX2                !
 ! D33   D(2,9,10,11)          180.0            estimate D2E/DX2                !
 ! D34   D(2,9,10,20)            0.0            estimate D2E/DX2                !
 ! D35   D(14,9,10,11)           0.0            estimate D2E/DX2                !
 ! D36   D(14,9,10,20)         180.0            estimate D2E/DX2                !
 ! D37   D(2,9,14,13)          180.0            estimate D2E/DX2                !
 ! D38   D(2,9,14,24)            0.0            estimate D2E/DX2                !
 ! D39   D(10,9,14,13)           0.0            estimate D2E/DX2                !
 ! D40   D(10,9,14,24)         180.0            estimate D2E/DX2                !
 ! D41   D(9,10,11,12)           0.0            estimate D2E/DX2                !
 ! D42   D(9,10,11,21)         180.0            estimate D2E/DX2                !
 ! D43   D(20,10,11,12)        180.0            estimate D2E/DX2                !
 ! D44   D(20,10,11,21)          0.0            estimate D2E/DX2                !
 ! D45   D(10,11,12,13)          0.0            estimate D2E/DX2                !
 ! D46   D(10,11,12,22)        180.0            estimate D2E/DX2                !
 ! D47   D(21,11,12,13)        180.0            estimate D2E/DX2                !
 ! D48   D(21,11,12,22)          0.0            estimate D2E/DX2                !
 ! D49   D(11,12,13,14)          0.0            estimate D2E/DX2                !
 ! D50   D(11,12,13,23)        180.0            estimate D2E/DX2                !
 ! D51   D(22,12,13,14)        180.0            estimate D2E/DX2                !
 ! D52   D(22,12,13,23)          0.0            estimate D2E/DX2                !
 ! D53   D(12,13,14,9)           0.0            estimate D2E/DX2                !
 ! D54   D(12,13,14,24)        180.0            estimate D2E/DX2                !
 ! D55   D(23,13,14,9)         180.0            estimate D2E/DX2                !
 ! D56   D(23,13,14,24)          0.0            estimate D2E/DX2                !
 --------------------------------------------------------------------------------
 Trust Radius=3.00D-01 FncErr=1.00D-07 GrdErr=1.00D-06 EigMax=2.50D+02 EigMin=1.00D-04
 Number of steps in this run=    130 maximum allowed number of steps=    144.
 GradGradGradGradGradGradGradGradGradGradGradGradGradGradGradGradGradGrad

 Leave Link  103 at Mon Oct 14 11:07:53 2019, MaxMem= 10737418240 cpu:               0.9 elap:               0.1
 (Enter /apps/cent7/gaussian/g16-A.03/g16-haswell/g16/l202.exe)
                          Input orientation:                          
 ---------------------------------------------------------------------
 Center     Atomic      Atomic             Coordinates (Angstroms)
 Number     Number       Type             X           Y           Z
 ---------------------------------------------------------------------
      1          8           0       -2.391087    1.912307    0.590006
      2          6           0       -1.890800    0.920100    0.000000
      3          6           0       -0.552955    1.189670   -0.534737
      4          6           0       -0.060739    0.822598   -1.819726
      5          6           0        1.243380    1.120828   -2.258226
      6          6           0        2.130281    1.809051   -1.423489
      7          6           0        1.701861    2.195771   -0.148142
      8          6           0        0.395589    1.891057    0.277097
      9          6           0       -2.775200   -0.248700    0.000000
     10          6           0       -2.377600   -1.616400    0.000000
     11          6           0       -3.294700   -2.684400    0.000000
     12          6           0       -4.671200   -2.434900    0.000000
     13          6           0       -5.121500   -1.109400    0.000000
     14          6           0       -4.193600   -0.051600    0.000000
     15          1           0       -0.716897    0.284820   -2.504066
     16          1           0        1.569278    0.816236   -3.252689
     17          1           0        3.140240    2.040543   -1.761841
     18          1           0        2.383286    2.732498    0.511763
     19          1           0        0.106255    2.211978    1.277862
     20          1           0       -1.314800   -1.858500    0.000000
     21          1           0       -2.935900   -3.713700    0.000000
     22          1           0       -5.382300   -3.261000    0.000000
     23          1           0       -6.191500   -0.901700    0.000000
     24          1           0       -4.590400    0.963600    0.000000
 ---------------------------------------------------------------------
                    Distance matrix (angstroms):
                    1          2          3          4          5
     1  O    0.000000
     2  C    1.258121   0.000000
     3  C    2.272879   1.465756   0.000000
     4  C    3.524883   2.582641   1.424155   0.000000
     5  C    4.684892   3.868198   2.490376   1.407817   0.000000
     6  C    4.950515   4.357252   2.893660   2.435295   1.398939
     7  C    4.168626   3.815298   2.499178   2.790440   2.412086
     8  C    2.804270   2.499423   1.432045   2.397188   2.782061
     9  C    2.272796   1.465693   2.700597   3.439096   4.808760
    10  C    3.577717   2.582790   3.389587   3.824651   5.069861
    11  C    4.721688   3.868250   4.776141   5.105775   6.338258
    12  C    4.944211   4.357367   5.512113   5.931192   7.261201
    13  C    4.115091   3.815271   5.142302   5.714483   7.112327
    14  C    2.730218   2.499418   3.883425   4.599583   6.002909
    15  H    3.876199   2.837601   2.173451   1.089986   2.145235
    16  H    5.626026   4.750043   3.468514   2.170341   1.089929
    17  H    6.011923   5.447095   3.983649   3.425348   2.165722
    18  H    4.844943   4.670599   3.478073   3.880312   3.401427
    19  H    2.607617   2.700020   2.182930   3.399017   3.871379
    20  H    3.965537   2.837674   3.187113   3.474530   4.529930
    21  H    5.683034   4.750193   5.477902   5.670622   6.777804
    22  H    6.004878   5.447217   6.589156   6.950265   8.258307
    23  H    4.765488   4.670650   6.037629   6.623506   8.029174
    24  H    2.466805   2.699950   4.078972   4.883555   6.257578
                    6          7          8          9         10
     6  C    0.000000
     7  C    1.399859   0.000000
     8  C    2.430612   1.407134   0.000000
     9  C    5.506760   5.103084   3.835263   0.000000
    10  C    5.837896   5.585392   4.479912   1.424321   0.000000
    11  C    7.186643   6.985960   5.884711   2.490485   1.407727
    12  C    8.142333   7.879148   6.668061   2.893836   2.435271
    13  C    7.945565   7.583163   6.286318   2.499186   2.790347
    14  C    6.743872   6.311029   4.991128   1.432029   2.397176
    15  H    3.405488   3.879755   3.398896   3.285058   3.555688
    16  H    2.155547   3.399839   3.871973   5.530693   5.663528
    17  H    1.089994   2.167268   3.422386   6.583095   6.850100
    18  H    2.159159   1.089904   2.171182   5.979918   6.468451
    19  H    3.399460   2.140026   1.090062   3.998831   4.739087
    20  H    5.229324   5.055621   4.130543   2.173528   1.090026
    21  H    7.628452   7.513496   6.526017   3.468724   2.170338
    22  H    9.174454   8.943357   7.746255   3.983833   3.425337
    23  H    8.867160   8.480650   7.160029   3.478148   3.880287
    24  H    6.921608   6.413481   5.079079   2.182801   3.398953
                   11         12         13         14         15
    11  C    0.000000
    12  C    1.398929   0.000000
    13  C    2.412016   1.399900   0.000000
    14  C    2.782024   2.430683   1.407103   0.000000
    15  H    4.661725   5.413293   5.254972   4.297789   0.000000
    16  H    6.818557   7.751995   7.684697   6.674121   2.463622
    17  H    8.175428   9.173454   9.015685   7.827283   4.302437
    18  H    7.864109   8.759548   8.446531   7.160205   4.969657
    19  H    6.097043   6.786050   6.324073   5.024487   4.323713
    20  H    2.145254   3.405533   3.879706   3.398879   3.349874
    21  H    1.090044   2.155596   3.399886   3.872052   5.213682
    22  H    2.165766   1.090002   2.167348   3.422463   6.372533
    23  H    3.401392   2.159170   1.089972   2.171238   6.135916
    24  H    3.871271   3.399460   2.139952   1.089991   4.662094
                   16         17         18         19         20
    16  H    0.000000
    17  H    2.487866   0.000000
    18  H    4.301834   2.494205   0.000000
    19  H    4.961293   4.298168   2.458194   0.000000
    20  H    5.104126   6.176892   5.917348   4.496790   0.000000
    21  H    7.169165   8.551893   8.373118   6.782425   2.463683
    22  H    8.690700  10.190394   9.822843   7.855613   4.302507
    23  H    8.588420   9.941944   9.327178   7.140703   4.969675
    24  H    6.967305   8.001668   7.212711   5.024932   4.323633
                   21         22         23         24
    21  H    0.000000
    22  H    2.487933   0.000000
    23  H    4.301892   2.494214   0.000000
    24  H    4.961301   4.298180   2.458224   0.000000
 Stoichiometry    C13H10O
 Framework group  C1[X(C13H10O)]
 Deg. of freedom    66
 Full point group                 C1      NOp   1
 Largest Abelian subgroup         C1      NOp   1
 Largest concise Abelian subgroup C1      NOp   1
                         Standard orientation:                         
 ---------------------------------------------------------------------
 Center     Atomic      Atomic             Coordinates (Angstroms)
 Number     Number       Type             X           Y           Z
 ---------------------------------------------------------------------
      1          8           0        0.016830    2.081994    0.089713
      2          6           0        0.005421    0.824884    0.040589
      3          6           0       -1.348435    0.264853    0.083959
      4          6           0       -1.783353   -0.850066    0.855982
      5          6           0       -3.107883   -1.326863    0.840763
      6          6           0       -4.074451   -0.704916    0.043293
      7          6           0       -3.705013    0.396540   -0.737678
      8          6           0       -2.377483    0.862445   -0.712719
      9          6           0        1.348902    0.245581   -0.047301
     10          6           0        1.710439   -0.970096   -0.695459
     11          6           0        3.030145   -1.458527   -0.734287
     12          6           0        4.066141   -0.747222   -0.119666
     13          6           0        3.770661    0.455336    0.533224
     14          6           0        2.447031    0.931760    0.564236
     15          1           0       -1.064379   -1.365971    1.492368
     16          1           0       -3.387502   -2.185041    1.451736
     17          1           0       -5.100290   -1.073131    0.030646
     18          1           0       -4.448724    0.889896   -1.363286
     19          1           0       -2.136080    1.722786   -1.337037
     20          1           0        0.935768   -1.557861   -1.187976
     21          1           0        3.251885   -2.395784   -1.244755
     22          1           0        5.088391   -1.124378   -0.149044
     23          1           0        4.568961    1.018983    1.015987
     24          1           0        2.264595    1.872289    1.084047
 ---------------------------------------------------------------------
 Rotational constants (GHZ):           1.8660878           0.3594184           0.3259087
 Leave Link  202 at Mon Oct 14 11:07:53 2019, MaxMem= 10737418240 cpu:               0.4 elap:               0.0
 (Enter /apps/cent7/gaussian/g16-A.03/g16-haswell/g16/l301.exe)
 Standard basis: 6-31G(d) (6D, 7F)
 Ernie: Thresh=  0.10000D-02 Tol=  0.10000D-05 Strict=F.
 There are   230 symmetry adapted cartesian basis functions of A   symmetry.
 There are   230 symmetry adapted basis functions of A   symmetry.
   230 basis functions,   432 primitive gaussians,   230 cartesian basis functions
    48 alpha electrons       48 beta electrons
       nuclear repulsion energy       759.9551373773 Hartrees.
 IExCor=  402 DFT=T Ex+Corr=B3LYP ExCW=0 ScaHFX=  0.200000
 ScaDFX=  0.800000  0.720000  1.000000  0.810000 ScalE2=  1.000000  1.000000
 IRadAn=      5 IRanWt=     -1 IRanGd=            0 ICorTp=0 IEmpDi=  4
 NAtoms=   24 NActive=   24 NUniq=   24 SFac= 1.00D+00 NAtFMM=   60 NAOKFM=F Big=F
 Integral buffers will be    131072 words long.
 Raffenetti 2 integral format.
 Two-electron integral symmetry is turned on.
 Leave Link  301 at Mon Oct 14 11:07:53 2019, MaxMem= 10737418240 cpu:               1.6 elap:               0.1
 (Enter /apps/cent7/gaussian/g16-A.03/g16-haswell/g16/l302.exe)
 NPDir=0 NMtPBC=     1 NCelOv=     1 NCel=       1 NClECP=     1 NCelD=      1
         NCelK=      1 NCelE2=     1 NClLst=     1 CellRange=     0.0.
 One-electron integrals computed using PRISM.
 One-electron integral symmetry used in STVInt
 NBasis=   230 RedAO= T EigKep=  4.73D-04  NBF=   230
 NBsUse=   230 1.00D-06 EigRej= -1.00D+00 NBFU=   230
 Precomputing XC quadrature grid using
 IXCGrd= 4 IRadAn=           5 IRanWt=          -1 IRanGd=           0 AccXCQ= 0.00D+00.
 Generated NRdTot=       0 NPtTot=           0 NUsed=           0 NTot=          32
 NSgBfM=   229   229   229   229   229 MxSgAt=    24 MxSgA2=    24.
 Leave Link  302 at Mon Oct 14 11:07:54 2019, MaxMem= 10737418240 cpu:               4.6 elap:               0.2
 (Enter /apps/cent7/gaussian/g16-A.03/g16-haswell/g16/l303.exe)
 DipDrv:  MaxL=1.
 Leave Link  303 at Mon Oct 14 11:07:54 2019, MaxMem= 10737418240 cpu:               0.8 elap:               0.1
 (Enter /apps/cent7/gaussian/g16-A.03/g16-haswell/g16/l401.exe)
 ExpMin= 1.61D-01 ExpMax= 5.48D+03 ExpMxC= 8.25D+02 IAcc=3 IRadAn=         5 AccDes= 0.00D+00
 Harris functional with IExCor=  402 and IRadAn=       5 diagonalized for initial guess.
 HarFok:  IExCor=  402 AccDes= 0.00D+00 IRadAn=         5 IDoV= 1 UseB2=F ITyADJ=14
 ICtDFT=  3500011 ScaDFX=  1.000000  1.000000  1.000000  1.000000
 FoFCou: FMM=F IPFlag=           0 FMFlag=      100000 FMFlg1=           0
         NFxFlg=           0 DoJE=T BraDBF=F KetDBF=T FulRan=T
         wScrn=  0.000000 ICntrl=       500 IOpCl=  0 I1Cent=   200000004 NGrid=           0
         NMat0=    1 NMatS0=      1 NMatT0=    0 NMatD0=    1 NMtDS0=    0 NMtDT0=    0
 Petite list used in FoFCou.
 Harris En= -576.622633268265    
 JPrj=0 DoOrth=F DoCkMO=F.
 Leave Link  401 at Mon Oct 14 11:07:54 2019, MaxMem= 10737418240 cpu:               9.7 elap:               0.4
 (Enter /apps/cent7/gaussian/g16-A.03/g16-haswell/g16/l502.exe)
 Integral symmetry usage will be decided dynamically.
 Closed shell SCF:
 Using DIIS extrapolation, IDIIS=  1040.
 NGot= 10737418240 LenX= 10737304366 LenY= 10737251025
 Requested convergence on RMS density matrix=1.00D-08 within 128 cycles.
 Requested convergence on MAX density matrix=1.00D-06.
 Requested convergence on             energy=1.00D-06.
 No special actions if energy rises.
 Fock matrices will be formed incrementally for  20 cycles.
 Integral accuracy reduced to 1.0D-05 until final iterations.

 Cycle   1  Pass 0  IDiag  1:
 FoFJK:  IHMeth= 1 ICntrl=       0 DoSepK=F KAlg= 0 I1Cent=           0 FoldK=F
 IRaf= 840000000 NMat=       1 IRICut=       1 DoRegI=T DoRafI=F ISym2E= 0 IDoP0=0 IntGTp=1.
 FoFCou: FMM=F IPFlag=           0 FMFlag=      100000 FMFlg1=           0
         NFxFlg=           0 DoJE=F BraDBF=F KetDBF=F FulRan=T
         wScrn=  0.000000 ICntrl=         0 IOpCl=  0 I1Cent=           0 NGrid=           0
         NMat0=    1 NMatS0=      1 NMatT0=    0 NMatD0=    1 NMtDS0=    0 NMtDT0=    0
 Symmetry not used in FoFCou.
 E= -576.314633494288    
 DIIS: error= 3.64D-02 at cycle   1 NSaved=   1.
 NSaved= 1 IEnMin= 1 EnMin= -576.314633494288     IErMin= 1 ErrMin= 3.64D-02
 ErrMax= 3.64D-02  0.00D+00 EMaxC= 1.00D-01 BMatC= 2.89D-01 BMatP= 2.89D-01
 IDIUse=3 WtCom= 6.36D-01 WtEn= 3.64D-01
 Coeff-Com:  0.100D+01
 Coeff-En:   0.100D+01
 Coeff:      0.100D+01
 Gap=     0.117 Goal=   None    Shift=    0.000
 GapD=    0.117 DampG=1.000 DampE=0.500 DampFc=0.5000 IDamp=-1.
 Damping current iteration by 5.00D-01
 RMSDP=5.62D-03 MaxDP=1.96D-01              OVMax= 1.83D-01

 Cycle   2  Pass 0  IDiag  1:
 RMSU=  2.76D-03    CP:  9.77D-01
 E= -576.421814355360     Delta-E=       -0.107180861072 Rises=F Damp=T
 DIIS: error= 1.30D-02 at cycle   2 NSaved=   2.
 NSaved= 2 IEnMin= 2 EnMin= -576.421814355360     IErMin= 2 ErrMin= 1.30D-02
 ErrMax= 1.30D-02  0.00D+00 EMaxC= 1.00D-01 BMatC= 4.31D-02 BMatP= 2.89D-01
 IDIUse=3 WtCom= 8.70D-01 WtEn= 1.30D-01
 Coeff-Com:  0.167D+00 0.833D+00
 Coeff-En:   0.229D+00 0.771D+00
 Coeff:      0.175D+00 0.825D+00
 Gap=     0.182 Goal=   None    Shift=    0.000
 RMSDP=1.88D-03 MaxDP=7.21D-02 DE=-1.07D-01 OVMax= 2.11D-01

 Cycle   3  Pass 0  IDiag  1:
 RMSU=  1.79D-03    CP:  9.64D-01  8.22D-01
 E= -576.556500169658     Delta-E=       -0.134685814297 Rises=F Damp=F
 DIIS: error= 1.97D-02 at cycle   3 NSaved=   3.
 NSaved= 3 IEnMin= 3 EnMin= -576.556500169658     IErMin= 2 ErrMin= 1.30D-02
 ErrMax= 1.97D-02  0.00D+00 EMaxC= 1.00D-01 BMatC= 5.99D-02 BMatP= 4.31D-02
 IDIUse=2 WtCom= 0.00D+00 WtEn= 1.00D+00
 Coeff-En:   0.000D+00 0.000D+00 0.100D+01
 Coeff:      0.000D+00 0.000D+00 0.100D+01
 Gap=     0.151 Goal=   None    Shift=    0.000
 RMSDP=3.68D-03 MaxDP=1.85D-01 DE=-1.35D-01 OVMax= 2.52D-01

 Cycle   4  Pass 0  IDiag  1:
 RMSU=  1.95D-03    CP:  9.73D-01  1.32D+00 -5.68D-01
 E= -576.246562686282     Delta-E=        0.309937483376 Rises=F Damp=F
 DIIS: error= 4.89D-02 at cycle   4 NSaved=   4.
 NSaved= 4 IEnMin= 3 EnMin= -576.556500169658     IErMin= 2 ErrMin= 1.30D-02
 ErrMax= 4.89D-02  0.00D+00 EMaxC= 1.00D-01 BMatC= 4.26D-01 BMatP= 4.31D-02
 IDIUse=2 WtCom= 0.00D+00 WtEn= 1.00D+00
 Coeff-En:   0.000D+00 0.000D+00 0.814D+00 0.186D+00
 Coeff:      0.000D+00 0.000D+00 0.814D+00 0.186D+00
 Gap=     0.147 Goal=   None    Shift=    0.000
 RMSDP=2.06D-03 MaxDP=9.59D-02 DE= 3.10D-01 OVMax= 1.17D-01

 Cycle   5  Pass 0  IDiag  1:
 RMSU=  4.10D-04    CP:  9.70D-01  9.84D-01  2.35D-01  4.46D-01
 E= -576.580387537603     Delta-E=       -0.333824851322 Rises=F Damp=F
 DIIS: error= 1.49D-02 at cycle   5 NSaved=   5.
 NSaved= 5 IEnMin= 5 EnMin= -576.580387537603     IErMin= 2 ErrMin= 1.30D-02
 ErrMax= 1.49D-02  0.00D+00 EMaxC= 1.00D-01 BMatC= 3.45D-02 BMatP= 4.31D-02
 IDIUse=3 WtCom= 8.51D-01 WtEn= 1.49D-01
 Coeff-Com:  0.642D-02 0.144D-01 0.356D+00-0.667D-01 0.690D+00
 Coeff-En:   0.000D+00 0.000D+00 0.394D+00 0.000D+00 0.606D+00
 Coeff:      0.546D-02 0.122D-01 0.362D+00-0.567D-01 0.677D+00
 Gap=     0.165 Goal=   None    Shift=    0.000
 RMSDP=7.85D-04 MaxDP=3.54D-02 DE=-3.34D-01 OVMax= 4.15D-02

 Cycle   6  Pass 0  IDiag  1:
 RMSU=  1.55D-04    CP:  9.68D-01  8.99D-01  5.72D-01  2.50D-01  6.03D-01
 E= -576.610010807694     Delta-E=       -0.029623270091 Rises=F Damp=F
 DIIS: error= 1.18D-03 at cycle   6 NSaved=   6.
 NSaved= 6 IEnMin= 6 EnMin= -576.610010807694     IErMin= 6 ErrMin= 1.18D-03
 ErrMax= 1.18D-03  0.00D+00 EMaxC= 1.00D-01 BMatC= 3.23D-04 BMatP= 3.45D-02
 IDIUse=3 WtCom= 9.88D-01 WtEn= 1.18D-02
 Coeff-Com:  0.170D-03 0.105D-01 0.194D+00-0.607D-01 0.459D+00 0.397D+00
 Coeff-En:   0.000D+00 0.000D+00 0.000D+00 0.000D+00 0.000D+00 0.100D+01
 Coeff:      0.168D-03 0.104D-01 0.191D+00-0.600D-01 0.454D+00 0.404D+00
 Gap=     0.166 Goal=   None    Shift=    0.000
 RMSDP=1.02D-04 MaxDP=2.38D-03 DE=-2.96D-02 OVMax= 7.47D-03

 Cycle   7  Pass 0  IDiag  1:
 RMSU=  3.54D-05    CP:  9.68D-01  9.06D-01  5.56D-01  2.53D-01  7.17D-01
                    CP:  5.09D-01
 E= -576.610383790791     Delta-E=       -0.000372983097 Rises=F Damp=F
 DIIS: error= 3.63D-04 at cycle   7 NSaved=   7.
 NSaved= 7 IEnMin= 7 EnMin= -576.610383790791     IErMin= 7 ErrMin= 3.63D-04
 ErrMax= 3.63D-04  0.00D+00 EMaxC= 1.00D-01 BMatC= 2.02D-05 BMatP= 3.23D-04
 IDIUse=3 WtCom= 9.96D-01 WtEn= 3.63D-03
 Coeff-Com:  0.689D-03 0.713D-03 0.534D-01-0.194D-01 0.126D+00 0.163D+00
 Coeff-Com:  0.675D+00
 Coeff-En:   0.000D+00 0.000D+00 0.000D+00 0.000D+00 0.000D+00 0.000D+00
 Coeff-En:   0.100D+01
 Coeff:      0.686D-03 0.711D-03 0.532D-01-0.193D-01 0.126D+00 0.163D+00
 Coeff:      0.676D+00
 Gap=     0.166 Goal=   None    Shift=    0.000
 RMSDP=2.15D-05 MaxDP=5.07D-04 DE=-3.73D-04 OVMax= 1.43D-03

 Cycle   8  Pass 0  IDiag  1:
 RMSU=  1.18D-05    CP:  9.68D-01  9.03D-01  5.62D-01  2.51D-01  7.13D-01
                    CP:  5.25D-01  7.01D-01
 E= -576.610401509344     Delta-E=       -0.000017718552 Rises=F Damp=F
 DIIS: error= 9.13D-05 at cycle   8 NSaved=   8.
 NSaved= 8 IEnMin= 8 EnMin= -576.610401509344     IErMin= 8 ErrMin= 9.13D-05
 ErrMax= 9.13D-05  0.00D+00 EMaxC= 1.00D-01 BMatC= 2.88D-06 BMatP= 2.02D-05
 IDIUse=1 WtCom= 1.00D+00 WtEn= 0.00D+00
 Coeff-Com:  0.844D-03-0.229D-02 0.121D-01-0.341D-02 0.214D-01 0.458D-01
 Coeff-Com:  0.387D+00 0.539D+00
 Coeff:      0.844D-03-0.229D-02 0.121D-01-0.341D-02 0.214D-01 0.458D-01
 Coeff:      0.387D+00 0.539D+00
 Gap=     0.166 Goal=   None    Shift=    0.000
 RMSDP=7.03D-06 MaxDP=2.12D-04 DE=-1.77D-05 OVMax= 3.99D-04

 Initial convergence to 1.0D-05 achieved.  Increase integral accuracy.
 Cycle   9  Pass 1  IDiag  1:
 E= -576.610414983935     Delta-E=       -0.000013474591 Rises=F Damp=F
 DIIS: error= 4.62D-05 at cycle   1 NSaved=   1.
 NSaved= 1 IEnMin= 1 EnMin= -576.610414983935     IErMin= 1 ErrMin= 4.62D-05
 ErrMax= 4.62D-05  0.00D+00 EMaxC= 1.00D-01 BMatC= 3.43D-07 BMatP= 3.43D-07
 IDIUse=1 WtCom= 1.00D+00 WtEn= 0.00D+00
 Coeff-Com:  0.100D+01
 Coeff:      0.100D+01
 Gap=     0.166 Goal=   None    Shift=    0.000
 RMSDP=7.03D-06 MaxDP=2.12D-04 DE=-1.35D-05 OVMax= 2.26D-04

 Cycle  10  Pass 1  IDiag  1:
 RMSU=  3.35D-05    CP:  1.00D+00
 E= -576.610415093112     Delta-E=       -0.000000109177 Rises=F Damp=F
 DIIS: error= 2.56D-05 at cycle   2 NSaved=   2.
 NSaved= 2 IEnMin= 2 EnMin= -576.610415093112     IErMin= 2 ErrMin= 2.56D-05
 ErrMax= 2.56D-05  0.00D+00 EMaxC= 1.00D-01 BMatC= 2.03D-07 BMatP= 3.43D-07
 IDIUse=1 WtCom= 1.00D+00 WtEn= 0.00D+00
 Coeff-Com:  0.408D+00 0.592D+00
 Coeff:      0.408D+00 0.592D+00
 Gap=     0.166 Goal=   None    Shift=    0.000
 RMSDP=3.47D-06 MaxDP=1.05D-04 DE=-1.09D-07 OVMax= 2.45D-04

 Cycle  11  Pass 1  IDiag  1:
 RMSU=  3.47D-06    CP:  1.00D+00  1.00D+00
 E= -576.610415152408     Delta-E=       -0.000000059296 Rises=F Damp=F
 DIIS: error= 2.60D-05 at cycle   3 NSaved=   3.
 NSaved= 3 IEnMin= 3 EnMin= -576.610415152408     IErMin= 2 ErrMin= 2.56D-05
 ErrMax= 2.60D-05  0.00D+00 EMaxC= 1.00D-01 BMatC= 1.48D-07 BMatP= 2.03D-07
 IDIUse=1 WtCom= 1.00D+00 WtEn= 0.00D+00
 Coeff-Com:  0.449D-01 0.450D+00 0.505D+00
 Coeff:      0.449D-01 0.450D+00 0.505D+00
 Gap=     0.166 Goal=   None    Shift=    0.000
 RMSDP=1.91D-06 MaxDP=7.91D-05 DE=-5.93D-08 OVMax= 1.10D-04

 Cycle  12  Pass 1  IDiag  1:
 RMSU=  8.13D-07    CP:  1.00D+00  1.01D+00  5.09D-01
 E= -576.610415289639     Delta-E=       -0.000000137230 Rises=F Damp=F
 DIIS: error= 6.88D-06 at cycle   4 NSaved=   4.
 NSaved= 4 IEnMin= 4 EnMin= -576.610415289639     IErMin= 4 ErrMin= 6.88D-06
 ErrMax= 6.88D-06  0.00D+00 EMaxC= 1.00D-01 BMatC= 1.33D-08 BMatP= 1.48D-07
 IDIUse=1 WtCom= 1.00D+00 WtEn= 0.00D+00
 Coeff-Com:  0.713D-03 0.254D+00 0.335D+00 0.409D+00
 Coeff:      0.713D-03 0.254D+00 0.335D+00 0.409D+00
 Gap=     0.166 Goal=   None    Shift=    0.000
 RMSDP=4.89D-07 MaxDP=2.47D-05 DE=-1.37D-07 OVMax= 2.57D-05

 Cycle  13  Pass 1  IDiag  1:
 RMSU=  1.70D-07    CP:  1.00D+00  1.01D+00  5.36D-01  4.50D-01
 E= -576.610415300735     Delta-E=       -0.000000011096 Rises=F Damp=F
 DIIS: error= 1.27D-06 at cycle   5 NSaved=   5.
 NSaved= 5 IEnMin= 5 EnMin= -576.610415300735     IErMin= 5 ErrMin= 1.27D-06
 ErrMax= 1.27D-06  0.00D+00 EMaxC= 1.00D-01 BMatC= 4.85D-10 BMatP= 1.33D-08
 IDIUse=1 WtCom= 1.00D+00 WtEn= 0.00D+00
 Coeff-Com: -0.178D-02 0.135D+00 0.184D+00 0.246D+00 0.437D+00
 Coeff:     -0.178D-02 0.135D+00 0.184D+00 0.246D+00 0.437D+00
 Gap=     0.166 Goal=   None    Shift=    0.000
 RMSDP=1.01D-07 MaxDP=4.37D-06 DE=-1.11D-08 OVMax= 6.03D-06

 Cycle  14  Pass 1  IDiag  1:
 RMSU=  5.04D-08    CP:  1.00D+00  1.01D+00  5.47D-01  4.67D-01  5.44D-01
 E= -576.610415301158     Delta-E=       -0.000000000423 Rises=F Damp=F
 DIIS: error= 2.81D-07 at cycle   6 NSaved=   6.
 NSaved= 6 IEnMin= 6 EnMin= -576.610415301158     IErMin= 6 ErrMin= 2.81D-07
 ErrMax= 2.81D-07  0.00D+00 EMaxC= 1.00D-01 BMatC= 2.58D-11 BMatP= 4.85D-10
 IDIUse=1 WtCom= 1.00D+00 WtEn= 0.00D+00
 Coeff-Com: -0.105D-02 0.605D-01 0.839D-01 0.114D+00 0.262D+00 0.480D+00
 Coeff:     -0.105D-02 0.605D-01 0.839D-01 0.114D+00 0.262D+00 0.480D+00
 Gap=     0.166 Goal=   None    Shift=    0.000
 RMSDP=2.95D-08 MaxDP=9.99D-07 DE=-4.23D-10 OVMax= 2.26D-06

 Cycle  15  Pass 1  IDiag  1:
 RMSU=  2.07D-08    CP:  1.00D+00  1.01D+00  5.45D-01  4.57D-01  5.63D-01
                    CP:  6.39D-01
 E= -576.610415301186     Delta-E=       -0.000000000028 Rises=F Damp=F
 DIIS: error= 1.05D-07 at cycle   7 NSaved=   7.
 NSaved= 7 IEnMin= 7 EnMin= -576.610415301186     IErMin= 7 ErrMin= 1.05D-07
 ErrMax= 1.05D-07  0.00D+00 EMaxC= 1.00D-01 BMatC= 1.77D-12 BMatP= 2.58D-11
 IDIUse=1 WtCom= 1.00D+00 WtEn= 0.00D+00
 Coeff-Com: -0.467D-03 0.245D-01 0.344D-01 0.469D-01 0.118D+00 0.266D+00
 Coeff-Com:  0.511D+00
 Coeff:     -0.467D-03 0.245D-01 0.344D-01 0.469D-01 0.118D+00 0.266D+00
 Coeff:      0.511D+00
 Gap=     0.166 Goal=   None    Shift=    0.000
 RMSDP=8.83D-09 MaxDP=2.08D-07 DE=-2.75D-11 OVMax= 6.00D-07

 SCF Done:  E(RB3LYP) =  -576.610415301     A.U. after   15 cycles
            NFock= 15  Conv=0.88D-08     -V/T= 2.0104
 KE= 5.706595806636D+02 PE=-2.857687409732D+03 EE= 9.504622763900D+02
 Leave Link  502 at Mon Oct 14 11:07:59 2019, MaxMem= 10737418240 cpu:             123.9 elap:               5.2
 (Enter /apps/cent7/gaussian/g16-A.03/g16-haswell/g16/l601.exe)
 Copying SCF densities to generalized density rwf, IOpCl= 0 IROHF=0.

 **********************************************************************

            Population analysis using the SCF density.

 **********************************************************************

 Orbital symmetries:
       Occupied  (A) (A) (A) (A) (A) (A) (A) (A) (A) (A) (A) (A)
                 (A) (A) (A) (A) (A) (A) (A) (A) (A) (A) (A) (A)
                 (A) (A) (A) (A) (A) (A) (A) (A) (A) (A) (A) (A)
                 (A) (A) (A) (A) (A) (A) (A) (A) (A) (A) (A) (A)
       Virtual   (A) (A) (A) (A) (A) (A) (A) (A) (A) (A) (A) (A)
                 (A) (A) (A) (A) (A) (A) (A) (A) (A) (A) (A) (A)
                 (A) (A) (A) (A) (A) (A) (A) (A) (A) (A) (A) (A)
                 (A) (A) (A) (A) (A) (A) (A) (A) (A) (A) (A) (A)
                 (A) (A) (A) (A) (A) (A) (A) (A) (A) (A) (A) (A)
                 (A) (A) (A) (A) (A) (A) (A) (A) (A) (A) (A) (A)
                 (A) (A) (A) (A) (A) (A) (A) (A) (A) (A) (A) (A)
                 (A) (A) (A) (A) (A) (A) (A) (A) (A) (A) (A) (A)
                 (A) (A) (A) (A) (A) (A) (A) (A) (A) (A) (A) (A)
                 (A) (A) (A) (A) (A) (A) (A) (A) (A) (A) (A) (A)
                 (A) (A) (A) (A) (A) (A) (A) (A) (A) (A) (A) (A)
                 (A) (A) (A) (A) (A) (A) (A) (A) (A) (A) (A) (A)
                 (A) (A) (A) (A) (A) (A) (A) (A) (A) (A) (A) (A)
                 (A) (A) (A) (A) (A) (A) (A) (A) (A) (A) (A) (A)
                 (A) (A) (A) (A) (A) (A) (A) (A) (A) (A) (A) (A)
                 (A) (A)
 The electronic state is 1-A.
 Alpha  occ. eigenvalues --  -19.12742 -10.27698 -10.21237 -10.21175 -10.20676
 Alpha  occ. eigenvalues --  -10.20580 -10.20355 -10.20239 -10.20203 -10.20173
 Alpha  occ. eigenvalues --  -10.20081 -10.20007 -10.19924 -10.19870  -1.01968
 Alpha  occ. eigenvalues --   -0.85530  -0.85362  -0.77118  -0.75565  -0.74623
 Alpha  occ. eigenvalues --   -0.74552  -0.65585  -0.62019  -0.60574  -0.60443
 Alpha  occ. eigenvalues --   -0.55907  -0.53188  -0.50294  -0.48196  -0.45709
 Alpha  occ. eigenvalues --   -0.45486  -0.44814  -0.43879  -0.42067  -0.42019
 Alpha  occ. eigenvalues --   -0.41174  -0.39184  -0.36968  -0.36398  -0.36057
 Alpha  occ. eigenvalues --   -0.35138  -0.34150  -0.33769  -0.26555  -0.25978
 Alpha  occ. eigenvalues --   -0.25474  -0.25382  -0.23327
 Alpha virt. eigenvalues --   -0.06748  -0.01894  -0.01046  -0.00499   0.04543
 Alpha virt. eigenvalues --    0.08788   0.09348   0.13710   0.13913   0.13976
 Alpha virt. eigenvalues --    0.15110   0.15652   0.16361   0.17199   0.18076
 Alpha virt. eigenvalues --    0.18208   0.19079   0.22605   0.26764   0.26923
 Alpha virt. eigenvalues --    0.28462   0.29923   0.29987   0.30556   0.32779
 Alpha virt. eigenvalues --    0.33586   0.36559   0.41471   0.46131   0.47978
 Alpha virt. eigenvalues --    0.50740   0.51893   0.51999   0.52574   0.53047
 Alpha virt. eigenvalues --    0.53966   0.54603   0.55802   0.56193   0.58592
 Alpha virt. eigenvalues --    0.58852   0.59049   0.59332   0.59908   0.60252
 Alpha virt. eigenvalues --    0.60444   0.60577   0.61095   0.61466   0.64005
 Alpha virt. eigenvalues --    0.64425   0.65742   0.66402   0.66775   0.67852
 Alpha virt. eigenvalues --    0.73678   0.74470   0.77774   0.78881   0.80571
 Alpha virt. eigenvalues --    0.82456   0.82915   0.82994   0.83402   0.83552
 Alpha virt. eigenvalues --    0.84142   0.84930   0.85665   0.88574   0.90361
 Alpha virt. eigenvalues --    0.90796   0.92530   0.93650   0.93874   0.96839
 Alpha virt. eigenvalues --    0.97810   1.00733   1.02769   1.05299   1.07742
 Alpha virt. eigenvalues --    1.08444   1.09477   1.09947   1.12350   1.13576
 Alpha virt. eigenvalues --    1.16256   1.16687   1.19742   1.22856   1.24268
 Alpha virt. eigenvalues --    1.25690   1.27892   1.28761   1.39082   1.41816
 Alpha virt. eigenvalues --    1.42189   1.43304   1.43872   1.45647   1.46221
 Alpha virt. eigenvalues --    1.48164   1.48395   1.48508   1.50666   1.51223
 Alpha virt. eigenvalues --    1.51602   1.54921   1.63089   1.70887   1.74930
 Alpha virt. eigenvalues --    1.76098   1.76515   1.79897   1.80399   1.82643
 Alpha virt. eigenvalues --    1.85094   1.88115   1.88871   1.90071   1.90597
 Alpha virt. eigenvalues --    1.96044   1.96569   1.97521   2.02279   2.02575
 Alpha virt. eigenvalues --    2.03629   2.04998   2.06818   2.10529   2.11044
 Alpha virt. eigenvalues --    2.11356   2.12028   2.14533   2.15597   2.16122
 Alpha virt. eigenvalues --    2.23822   2.24509   2.24856   2.26976   2.29005
 Alpha virt. eigenvalues --    2.29676   2.31094   2.35046   2.38509   2.45408
 Alpha virt. eigenvalues --    2.51165   2.53246   2.55377   2.57083   2.57235
 Alpha virt. eigenvalues --    2.59517   2.61837   2.62770   2.68573   2.69369
 Alpha virt. eigenvalues --    2.72320   2.72533   2.73175   2.74590   2.78737
 Alpha virt. eigenvalues --    2.81613   2.89995   2.92625   2.97297   3.12699
 Alpha virt. eigenvalues --    3.16461   3.36210   3.38006   3.94664   4.05417
 Alpha virt. eigenvalues --    4.06798   4.10198   4.10387   4.10886   4.12667
 Alpha virt. eigenvalues --    4.26415   4.32086   4.32787   4.34890   4.47565
 Alpha virt. eigenvalues --    4.65180   4.73966
          Condensed to atoms (all electrons):
               1          2          3          4          5          6
     1  O    8.131610   0.504488  -0.104271   0.001350  -0.000060  -0.000013
     2  C    0.504488   4.785551   0.291467  -0.046975   0.004560   0.000093
     3  C   -0.104271   0.291467   4.953467   0.507631  -0.017645  -0.030751
     4  C    0.001350  -0.046975   0.507631   4.992006   0.518974  -0.032476
     5  C   -0.000060   0.004560  -0.017645   0.518974   4.869836   0.547185
     6  C   -0.000013   0.000093  -0.030751  -0.032476   0.547185   4.852913
     7  C    0.000746   0.004893  -0.027283  -0.042597  -0.031942   0.535250
     8  C    0.000449  -0.024622   0.498565  -0.045037  -0.043337  -0.029071
     9  C   -0.099042   0.293930  -0.100646  -0.001952   0.000040  -0.000003
    10  C    0.002864  -0.047494  -0.003332   0.000186  -0.000002  -0.000000
    11  C   -0.000065   0.004650   0.000088   0.000013  -0.000001  -0.000000
    12  C   -0.000021   0.000051  -0.000007   0.000000  -0.000000  -0.000000
    13  C    0.001137   0.005185  -0.000025  -0.000005   0.000000   0.000000
    14  C   -0.001507  -0.023789   0.007014  -0.000053   0.000003   0.000000
    15  H    0.000005  -0.005960  -0.044035   0.353862  -0.043077   0.004759
    16  H    0.000001  -0.000109   0.003139  -0.037833   0.360113  -0.042985
    17  H    0.000000   0.000006   0.000619   0.004596  -0.041383   0.357381
    18  H   -0.000000  -0.000124   0.003568   0.000614   0.004495  -0.043606
    19  H    0.007996  -0.006573  -0.043597   0.006062   0.000419   0.004752
    20  H    0.000012  -0.006508   0.004038   0.001455   0.000015  -0.000004
    21  H    0.000001  -0.000106   0.000001  -0.000001   0.000000   0.000000
    22  H    0.000000   0.000007  -0.000000  -0.000000   0.000000  -0.000000
    23  H    0.000002  -0.000120   0.000001   0.000000   0.000000   0.000000
    24  H    0.011934  -0.008571   0.000319  -0.000021   0.000000   0.000000
               7          8          9         10         11         12
     1  O    0.000746   0.000449  -0.099042   0.002864  -0.000065  -0.000021
     2  C    0.004893  -0.024622   0.293930  -0.047494   0.004650   0.000051
     3  C   -0.027283   0.498565  -0.100646  -0.003332   0.000088  -0.000007
     4  C   -0.042597  -0.045037  -0.001952   0.000186   0.000013   0.000000
     5  C   -0.031942  -0.043337   0.000040  -0.000002  -0.000001  -0.000000
     6  C    0.535250  -0.029071  -0.000003  -0.000000  -0.000000  -0.000000
     7  C    4.892287   0.513575  -0.000029  -0.000006  -0.000000   0.000000
     8  C    0.513575   4.953275   0.005343  -0.000023   0.000004   0.000000
     9  C   -0.000029   0.005343   4.967029   0.498571  -0.016182  -0.030875
    10  C   -0.000006  -0.000023   0.498571   5.021452   0.515749  -0.032315
    11  C   -0.000000   0.000004  -0.016182   0.515749   4.871272   0.546295
    12  C    0.000000   0.000000  -0.030875  -0.032315   0.546295   4.855491
    13  C   -0.000000  -0.000000  -0.026740  -0.041174  -0.032164   0.530746
    14  C   -0.000000  -0.000113   0.489091  -0.056723  -0.042211  -0.027198
    15  H    0.000489   0.005556   0.002964   0.000960   0.000012  -0.000002
    16  H    0.004608   0.000614   0.000001  -0.000001   0.000000   0.000000
    17  H   -0.041710   0.004369  -0.000000  -0.000000   0.000000  -0.000000
    18  H    0.360734  -0.037697   0.000001  -0.000000   0.000000   0.000000
    19  H   -0.042583   0.355214   0.000324  -0.000033   0.000000   0.000000
    20  H   -0.000007  -0.000006  -0.042172   0.351833  -0.043227   0.004766
    21  H   -0.000000  -0.000000   0.003044  -0.037689   0.360414  -0.043080
    22  H   -0.000000   0.000000   0.000613   0.004574  -0.041298   0.357445
    23  H    0.000000  -0.000000   0.003413   0.000614   0.004512  -0.043811
    24  H   -0.000000  -0.000007  -0.040200   0.006190   0.000386   0.004662
              13         14         15         16         17         18
     1  O    0.001137  -0.001507   0.000005   0.000001   0.000000  -0.000000
     2  C    0.005185  -0.023789  -0.005960  -0.000109   0.000006  -0.000124
     3  C   -0.000025   0.007014  -0.044035   0.003139   0.000619   0.003568
     4  C   -0.000005  -0.000053   0.353862  -0.037833   0.004596   0.000614
     5  C    0.000000   0.000003  -0.043077   0.360113  -0.041383   0.004495
     6  C    0.000000   0.000000   0.004759  -0.042985   0.357381  -0.043606
     7  C   -0.000000  -0.000000   0.000489   0.004608  -0.041710   0.360734
     8  C   -0.000000  -0.000113   0.005556   0.000614   0.004369  -0.037697
     9  C   -0.026740   0.489091   0.002964   0.000001  -0.000000   0.000001
    10  C   -0.041174  -0.056723   0.000960  -0.000001  -0.000000  -0.000000
    11  C   -0.032164  -0.042211   0.000012   0.000000   0.000000   0.000000
    12  C    0.530746  -0.027198  -0.000002   0.000000  -0.000000   0.000000
    13  C    4.904302   0.503041  -0.000003  -0.000000  -0.000000   0.000000
    14  C    0.503041   4.983904  -0.000027  -0.000000   0.000000  -0.000000
    15  H   -0.000003  -0.000027   0.592597  -0.005548  -0.000171   0.000014
    16  H   -0.000000  -0.000000  -0.005548   0.585854  -0.005133  -0.000189
    17  H   -0.000000   0.000000  -0.000171  -0.005133   0.588798  -0.005025
    18  H    0.000000  -0.000000   0.000014  -0.000189  -0.005025   0.583183
    19  H   -0.000000  -0.000009  -0.000167   0.000014  -0.000166  -0.005741
    20  H    0.000437   0.005756   0.000034  -0.000001   0.000000  -0.000000
    21  H    0.004672   0.000572  -0.000001  -0.000000   0.000000  -0.000000
    22  H   -0.041568   0.004286   0.000000   0.000000  -0.000000   0.000000
    23  H    0.361744  -0.037885  -0.000000  -0.000000   0.000000  -0.000000
    24  H   -0.043293   0.354531  -0.000003  -0.000000   0.000000  -0.000000
              19         20         21         22         23         24
     1  O    0.007996   0.000012   0.000001   0.000000   0.000002   0.011934
     2  C   -0.006573  -0.006508  -0.000106   0.000007  -0.000120  -0.008571
     3  C   -0.043597   0.004038   0.000001  -0.000000   0.000001   0.000319
     4  C    0.006062   0.001455  -0.000001  -0.000000   0.000000  -0.000021
     5  C    0.000419   0.000015   0.000000   0.000000   0.000000   0.000000
     6  C    0.004752  -0.000004   0.000000  -0.000000   0.000000   0.000000
     7  C   -0.042583  -0.000007  -0.000000  -0.000000   0.000000  -0.000000
     8  C    0.355214  -0.000006  -0.000000   0.000000  -0.000000  -0.000007
     9  C    0.000324  -0.042172   0.003044   0.000613   0.003413  -0.040200
    10  C   -0.000033   0.351833  -0.037689   0.004574   0.000614   0.006190
    11  C    0.000000  -0.043227   0.360414  -0.041298   0.004512   0.000386
    12  C    0.000000   0.004766  -0.043080   0.357445  -0.043811   0.004662
    13  C   -0.000000   0.000437   0.004672  -0.041568   0.361744  -0.043293
    14  C   -0.000009   0.005756   0.000572   0.004286  -0.037885   0.354531
    15  H   -0.000167   0.000034  -0.000001   0.000000  -0.000000  -0.000003
    16  H    0.000014  -0.000001  -0.000000   0.000000  -0.000000  -0.000000
    17  H   -0.000166   0.000000   0.000000  -0.000000   0.000000   0.000000
    18  H   -0.005741  -0.000000  -0.000000   0.000000  -0.000000  -0.000000
    19  H    0.571321  -0.000003  -0.000000  -0.000000  -0.000000  -0.000003
    20  H   -0.000003   0.590261  -0.005544  -0.000169   0.000014  -0.000164
    21  H   -0.000000  -0.005544   0.585352  -0.005104  -0.000187   0.000014
    22  H   -0.000000  -0.000169  -0.005104   0.587463  -0.004980  -0.000162
    23  H   -0.000000   0.000014  -0.000187  -0.004980   0.581939  -0.005576
    24  H   -0.000003  -0.000164   0.000014  -0.000162  -0.005576   0.560710
 Mulliken charges:
               1
     1  O   -0.457616
     2  C    0.276071
     3  C    0.101676
     4  C   -0.179799
     5  C   -0.128193
     6  C   -0.123421
     7  C   -0.126423
     8  C   -0.157051
     9  C    0.093476
    10  C   -0.184202
    11  C   -0.128248
    12  C   -0.122149
    13  C   -0.126291
    14  C   -0.158683
    15  H    0.137741
    16  H    0.137455
    17  H    0.137820
    18  H    0.139774
    19  H    0.152774
    20  H    0.139182
    21  H    0.137641
    22  H    0.138893
    23  H    0.140319
    24  H    0.159254
 Sum of Mulliken charges =  -0.00000
 Mulliken charges with hydrogens summed into heavy atoms:
               1
     1  O   -0.457616
     2  C    0.276071
     3  C    0.101676
     4  C   -0.042058
     5  C    0.009262
     6  C    0.014399
     7  C    0.013351
     8  C   -0.004277
     9  C    0.093476
    10  C   -0.045020
    11  C    0.009393
    12  C    0.016744
    13  C    0.014028
    14  C    0.000570
 Electronic spatial extent (au):  <R**2>=           3341.2098
 Charge=             -0.0000 electrons
 Dipole moment (field-independent basis, Debye):
    X=              0.1115    Y=             -2.8504    Z=             -0.1418  Tot=              2.8561
 Quadrupole moment (field-independent basis, Debye-Ang):
   XX=            -63.1546   YY=            -82.3990   ZZ=            -79.2888
   XY=              0.4078   XZ=              2.5210   YZ=             -0.6106
 Traceless Quadrupole moment (field-independent basis, Debye-Ang):
   XX=             11.7929   YY=             -7.4515   ZZ=             -4.3414
   XY=              0.4078   XZ=              2.5210   YZ=             -0.6106
 Octapole moment (field-independent basis, Debye-Ang**2):
  XXX=              3.5466  YYY=            -11.7413  ZZZ=              0.6921  XYY=              2.7545
  XXY=             -8.2504  XXZ=             -1.7199  XZZ=             -3.1049  YZZ=              3.1847
  YYZ=             -0.8407  XYZ=             19.0449
 Hexadecapole moment (field-independent basis, Debye-Ang**3):
 XXXX=          -3227.4314 YYYY=           -639.1279 ZZZZ=           -271.1447 XXXY=             11.3862
 XXXZ=             65.5685 YYYX=             -0.7882 YYYZ=              1.1926 ZZZX=              6.1160
 ZZZY=             -3.4067 XXYY=           -675.6218 XXZZ=           -673.9275 YYZZ=           -131.5438
 XXYZ=             -1.7786 YYXZ=             -9.0479 ZZXY=              0.3478
 N-N= 7.599551373773D+02 E-N=-2.857687419397D+03  KE= 5.706595806636D+02
 No NMR shielding tensors so no spin-rotation constants.
 Leave Link  601 at Mon Oct 14 11:07:59 2019, MaxMem= 10737418240 cpu:               2.4 elap:               0.1
 (Enter /apps/cent7/gaussian/g16-A.03/g16-haswell/g16/l701.exe)
 ... and contract with generalized density number  0.
 Compute integral first derivatives.
 Leave Link  701 at Mon Oct 14 11:08:00 2019, MaxMem= 10737418240 cpu:               4.8 elap:               0.2
 (Enter /apps/cent7/gaussian/g16-A.03/g16-haswell/g16/l702.exe)
 L702 exits ... SP integral derivatives will be done elsewhere.
 Leave Link  702 at Mon Oct 14 11:08:00 2019, MaxMem= 10737418240 cpu:               0.5 elap:               0.0
 (Enter /apps/cent7/gaussian/g16-A.03/g16-haswell/g16/l703.exe)
 Integral derivatives from FoFJK, PRISM(SPDF).
 Compute integral first derivatives, UseDBF=F ICtDFT=           0.
 Calling FoFJK, ICntrl=      2127 FMM=F ISym2X=0 I1Cent= 0 IOpClX= 0 NMat=1 NMatS=1 NMatT=0.
 FoFJK:  IHMeth= 1 ICntrl=    2127 DoSepK=F KAlg= 0 I1Cent=           0 FoldK=F
 IRaf=         0 NMat=       1 IRICut=       1 DoRegI=T DoRafI=F ISym2E= 0 IDoP0=0 IntGTp=1.
 FoFCou: FMM=F IPFlag=           0 FMFlag=      100000 FMFlg1=         800
         NFxFlg=           0 DoJE=F BraDBF=F KetDBF=F FulRan=T
         wScrn=  0.000000 ICntrl=      2127 IOpCl=  0 I1Cent=           0 NGrid=           0
         NMat0=    1 NMatS0=      1 NMatT0=    0 NMatD0=    1 NMtDS0=    0 NMtDT0=    0
 Symmetry not used in FoFCou.
 Leave Link  703 at Mon Oct 14 11:08:01 2019, MaxMem= 10737418240 cpu:              33.2 elap:               1.4
 (Enter /apps/cent7/gaussian/g16-A.03/g16-haswell/g16/l716.exe)
 Dipole        = 4.38734325D-02-1.12142106D+00-5.57857335D-02
 ***** Axes restored to original set *****
 -------------------------------------------------------------------
 Center     Atomic                   Forces (Hartrees/Bohr)
 Number     Number              X              Y              Z
 -------------------------------------------------------------------
      1        8           0.010473093   -0.014772946   -0.008695196
      2        6          -0.032099883    0.056648723    0.033477975
      3        6           0.056592332   -0.009414972   -0.017360986
      4        6          -0.006976241   -0.006768072    0.003044749
      5        6          -0.005726498    0.002315524    0.005881642
      6        6          -0.003950285   -0.001258964    0.000353322
      7        6          -0.011388480   -0.005129295   -0.003125921
      8        6          -0.004179923    0.001898871    0.002227809
      9        6          -0.025574660   -0.049194125   -0.015759921
     10        6           0.006886777    0.005048037   -0.003987491
     11        6           0.001043112    0.007842224    0.001268248
     12        6           0.003596013    0.002298690    0.000150376
     13        6           0.012700263    0.003910289    0.000449866
     14        6          -0.000565447    0.004276287    0.001511342
     15        1          -0.000111717    0.000164345    0.001515701
     16        1          -0.003056172    0.000213288    0.001794279
     17        1          -0.002082947   -0.000780806    0.000670656
     18        1          -0.003350521   -0.001474536    0.000054114
     19        1          -0.002746099   -0.002248918   -0.003034103
     20        1          -0.000667789    0.001346049   -0.000251562
     21        1           0.001278547    0.003281782    0.000428345
     22        1           0.001639989    0.001588197   -0.000239851
     23        1           0.003246323    0.001785372   -0.000259810
     24        1           0.005020214   -0.001575046   -0.000113583
 -------------------------------------------------------------------
 Cartesian Forces:  Max     0.056648723 RMS     0.013718800
 Leave Link  716 at Mon Oct 14 11:08:01 2019, MaxMem= 10737418240 cpu:               0.8 elap:               0.1
 (Enter /apps/cent7/gaussian/g16-A.03/g16-haswell/g16/l103.exe)

 GradGradGradGradGradGradGradGradGradGradGradGradGradGradGradGradGradGrad
 Berny optimization.
 FormGI is forming the generalized inverse of G from B-inverse, IUseBI=4.
 GSVD:  received Info=                   1 from GESDD.
 Internal  Forces:  Max     0.050674388 RMS     0.008642489
 Search for a local minimum.
 Step number   1 out of a maximum of  130
 All quantities printed in internal units (Hartrees-Bohrs-Radians)
 RMS Force = .86425D-02 SwitMx=.10000D-02 MixMth= 1
 Mixed Optimization -- RFO/linear search
 Second derivative matrix not updated -- first step.
 ITU=  0
     Eigenvalues ---    0.01219   0.01219   0.01220   0.01566   0.01566
     Eigenvalues ---    0.01756   0.01756   0.01830   0.01830   0.01877
     Eigenvalues ---    0.01877   0.01957   0.01957   0.02035   0.02035
     Eigenvalues ---    0.02045   0.02045   0.02070   0.02070   0.02097
     Eigenvalues ---    0.02097   0.16000   0.16000   0.16000   0.16000
     Eigenvalues ---    0.16000   0.16000   0.16000   0.16000   0.16000
     Eigenvalues ---    0.16000   0.22000   0.22000   0.22000   0.22000
     Eigenvalues ---    0.23435   0.23435   0.25000   0.25000   0.25000
     Eigenvalues ---    0.25000   0.34806   0.34808   0.34810   0.34812
     Eigenvalues ---    0.34813   0.34814   0.34814   0.34816   0.34821
     Eigenvalues ---    0.34824   0.36253   0.36261   0.38887   0.38889
     Eigenvalues ---    0.39655   0.39668   0.42466   0.42466   0.44402
     Eigenvalues ---    0.44409   0.44425   0.44428   0.45519   0.45520
     Eigenvalues ---    0.80307
 RFO step:  Lambda=-2.93262634D-02 EMin= 1.21893320D-02
 Linear search not attempted -- first point.
 Maximum step size (   0.300) exceeded in Quadratic search.
    -- Step size scaled by   0.985
 Iteration  1 RMS(Cart)=  0.20367759 RMS(Int)=  0.00584756
 Iteration  2 RMS(Cart)=  0.01704257 RMS(Int)=  0.00017708
 Iteration  3 RMS(Cart)=  0.00005983 RMS(Int)=  0.00017516
 Iteration  4 RMS(Cart)=  0.00000001 RMS(Int)=  0.00017516
 ITry= 1 IFail=0 DXMaxC= 6.32D-01 DCOld= 1.00D+10 DXMaxT= 3.00D-01 DXLimC= 3.00D+00 Rises=F
 Variable       Old X    -DE/DX   Delta X   Delta X   Delta X     New X
                                 (Linear)    (Quad)   (Total)
    R1        2.37750  -0.01989   0.00000  -0.02354  -0.02354   2.35396
    R2        2.76988   0.01066   0.00000   0.02681   0.02681   2.79668
    R3        2.76976   0.01027   0.00000   0.02582   0.02582   2.79558
    R4        2.69126  -0.01689   0.00000  -0.03780  -0.03760   2.65366
    R5        2.70617  -0.02094   0.00000  -0.04812  -0.04793   2.65824
    R6        2.66039  -0.01443   0.00000  -0.02994  -0.02993   2.63046
    R7        2.05977  -0.00097   0.00000  -0.00252  -0.00252   2.05725
    R8        2.64361  -0.00330   0.00000  -0.00591  -0.00610   2.63751
    R9        2.05967  -0.00261   0.00000  -0.00681  -0.00681   2.05285
   R10        2.64535  -0.00100   0.00000  -0.00141  -0.00161   2.64374
   R11        2.05979  -0.00230   0.00000  -0.00601  -0.00601   2.05378
   R12        2.65910  -0.01608   0.00000  -0.03358  -0.03358   2.62551
   R13        2.05962  -0.00279   0.00000  -0.00727  -0.00727   2.05235
   R14        2.05992  -0.00272   0.00000  -0.00710  -0.00710   2.05282
   R15        2.69158  -0.01617   0.00000  -0.03621  -0.03602   2.65555
   R16        2.70614  -0.02027   0.00000  -0.04657  -0.04639   2.65975
   R17        2.66022  -0.01469   0.00000  -0.03047  -0.03046   2.62976
   R18        2.05985  -0.00095   0.00000  -0.00248  -0.00248   2.05737
   R19        2.64359  -0.00329   0.00000  -0.00592  -0.00610   2.63749
   R20        2.05988  -0.00268   0.00000  -0.00699  -0.00699   2.05289
   R21        2.64543  -0.00047   0.00000  -0.00036  -0.00055   2.64488
   R22        2.05981  -0.00227   0.00000  -0.00593  -0.00593   2.05387
   R23        2.65904  -0.01642   0.00000  -0.03428  -0.03428   2.62476
   R24        2.05975  -0.00285   0.00000  -0.00743  -0.00743   2.05232
   R25        2.05979  -0.00329   0.00000  -0.00860  -0.00860   2.05119
    A1        1.97033   0.02240   0.00000   0.07900   0.07898   2.04931
    A2        1.97029   0.02827   0.00000   0.09972   0.09970   2.06999
    A3        2.34256  -0.05067   0.00000  -0.17873  -0.17875   2.16381
    A4        2.21083  -0.01535   0.00000  -0.05345  -0.05366   2.15717
    A5        2.08039  -0.00420   0.00000  -0.01413  -0.01435   2.06605
    A6        1.99196   0.01954   0.00000   0.06758   0.06795   2.05990
    A7        2.14909  -0.00877   0.00000  -0.03423  -0.03407   2.11503
    A8        2.07785   0.00323   0.00000   0.01111   0.01098   2.08882
    A9        2.05625   0.00554   0.00000   0.02312   0.02298   2.07923
   A10        2.10093  -0.00239   0.00000  -0.00630  -0.00650   2.09443
   A11        2.09668  -0.00123   0.00000  -0.00946  -0.00936   2.08732
   A12        2.08558   0.00362   0.00000   0.01575   0.01585   2.10143
   A13        2.07773   0.00156   0.00000   0.01028   0.00987   2.08760
   A14        2.10214  -0.00094   0.00000  -0.00599  -0.00579   2.09635
   A15        2.10332  -0.00061   0.00000  -0.00429  -0.00408   2.09923
   A16        2.09394   0.00023   0.00000   0.00324   0.00301   2.09695
   A17        2.09015   0.00232   0.00000   0.01104   0.01115   2.10130
   A18        2.09910  -0.00255   0.00000  -0.01428  -0.01417   2.08493
   A19        2.15272  -0.01017   0.00000  -0.04057  -0.04040   2.11232
   A20        2.08156   0.00117   0.00000  -0.00006  -0.00015   2.08142
   A21        2.04890   0.00899   0.00000   0.04063   0.04054   2.08944
   A22        2.21092  -0.01682   0.00000  -0.05870  -0.05889   2.15204
   A23        2.08048  -0.00249   0.00000  -0.00816  -0.00835   2.07213
   A24        1.99178   0.01932   0.00000   0.06686   0.06722   2.05900
   A25        2.14916  -0.00833   0.00000  -0.03249  -0.03232   2.11683
   A26        2.07768   0.00297   0.00000   0.01001   0.00989   2.08756
   A27        2.05635   0.00536   0.00000   0.02248   0.02236   2.07871
   A28        2.10101  -0.00280   0.00000  -0.00798  -0.00817   2.09285
   A29        2.09665  -0.00096   0.00000  -0.00827  -0.00818   2.08847
   A30        2.08552   0.00375   0.00000   0.01625   0.01634   2.10186
   A31        2.07759   0.00178   0.00000   0.01105   0.01066   2.08825
   A32        2.10221  -0.00110   0.00000  -0.00663  -0.00644   2.09577
   A33        2.10338  -0.00068   0.00000  -0.00442  -0.00422   2.09916
   A34        2.09403   0.00044   0.00000   0.00403   0.00381   2.09784
   A35        2.09001   0.00222   0.00000   0.01070   0.01080   2.10081
   A36        2.09914  -0.00266   0.00000  -0.01472  -0.01461   2.08453
   A37        2.15279  -0.01041   0.00000  -0.04147  -0.04131   2.11149
   A38        2.08147   0.00098   0.00000  -0.00125  -0.00133   2.08014
   A39        2.04892   0.00943   0.00000   0.04272   0.04264   2.09155
    D1       -2.37365  -0.00299   0.00000  -0.07136  -0.07161  -2.44526
    D2        0.76794  -0.00357   0.00000  -0.08421  -0.08387   0.68407
    D3        0.76794  -0.00240   0.00000  -0.05753  -0.05786   0.71008
    D4       -2.37365  -0.00299   0.00000  -0.07038  -0.07012  -2.44377
    D5       -2.60752  -0.00170   0.00000  -0.04056  -0.04070  -2.64822
    D6        0.53407  -0.00200   0.00000  -0.04715  -0.04694   0.48713
    D7        0.53407  -0.00228   0.00000  -0.05439  -0.05460   0.47947
    D8       -2.60752  -0.00258   0.00000  -0.06098  -0.06084  -2.66836
    D9        3.14159  -0.00141   0.00000  -0.02954  -0.02947   3.11212
   D10        0.00000  -0.00062   0.00000  -0.01338  -0.01352  -0.01352
   D11        0.00000  -0.00085   0.00000  -0.01724  -0.01725  -0.01725
   D12        3.14159  -0.00006   0.00000  -0.00108  -0.00131   3.14029
   D13        3.14159   0.00081   0.00000   0.01757   0.01779  -3.12380
   D14       -0.00000   0.00057   0.00000   0.01239   0.01271   0.01271
   D15        0.00000   0.00030   0.00000   0.00627   0.00623   0.00623
   D16        3.14159   0.00005   0.00000   0.00110   0.00115  -3.14045
   D17       -0.00000   0.00089   0.00000   0.01804   0.01771   0.01771
   D18        3.14159   0.00069   0.00000   0.01396   0.01370  -3.12789
   D19        3.14159   0.00011   0.00000   0.00207   0.00185  -3.13974
   D20        0.00000  -0.00009   0.00000  -0.00201  -0.00216  -0.00216
   D21        0.00000  -0.00032   0.00000  -0.00645  -0.00675  -0.00675
   D22        3.14159  -0.00039   0.00000  -0.00773  -0.00782   3.13377
   D23        3.14159  -0.00012   0.00000  -0.00240  -0.00271   3.13888
   D24       -0.00000  -0.00019   0.00000  -0.00367  -0.00377  -0.00377
   D25        0.00000  -0.00020   0.00000  -0.00412  -0.00411  -0.00411
   D26        3.14159  -0.00005   0.00000  -0.00101  -0.00081   3.14078
   D27        3.14159  -0.00014   0.00000  -0.00285  -0.00304   3.13855
   D28       -0.00000   0.00001   0.00000   0.00026   0.00026   0.00026
   D29       -0.00000   0.00021   0.00000   0.00406   0.00429   0.00429
   D30        3.14159   0.00045   0.00000   0.00914   0.00940  -3.13220
   D31        3.14159   0.00005   0.00000   0.00093   0.00102  -3.14057
   D32        0.00000   0.00030   0.00000   0.00602   0.00613   0.00613
   D33        3.14159  -0.00107   0.00000  -0.02230  -0.02225   3.11934
   D34       -0.00000  -0.00038   0.00000  -0.00820  -0.00832  -0.00832
   D35       -0.00000  -0.00078   0.00000  -0.01599  -0.01605  -0.01605
   D36        3.14159  -0.00009   0.00000  -0.00189  -0.00213   3.13947
   D37        3.14159   0.00060   0.00000   0.01298   0.01309  -3.12850
   D38        0.00000   0.00047   0.00000   0.01011   0.01030   0.01030
   D39        0.00000   0.00034   0.00000   0.00719   0.00718   0.00718
   D40        3.14159   0.00021   0.00000   0.00431   0.00439  -3.13720
   D41        0.00000   0.00075   0.00000   0.01523   0.01494   0.01494
   D42        3.14159   0.00060   0.00000   0.01209   0.01186  -3.12973
   D43        3.14159   0.00007   0.00000   0.00129   0.00108  -3.14051
   D44       -0.00000  -0.00009   0.00000  -0.00185  -0.00199  -0.00199
   D45       -0.00000  -0.00022   0.00000  -0.00434  -0.00459  -0.00459
   D46        3.14159  -0.00034   0.00000  -0.00683  -0.00690   3.13469
   D47        3.14159  -0.00006   0.00000  -0.00122  -0.00150   3.14010
   D48        0.00000  -0.00019   0.00000  -0.00371  -0.00380  -0.00380
   D49       -0.00000  -0.00021   0.00000  -0.00415  -0.00412  -0.00412
   D50        3.14159  -0.00015   0.00000  -0.00303  -0.00286   3.13873
   D51        3.14159  -0.00008   0.00000  -0.00166  -0.00181   3.13978
   D52        0.00000  -0.00002   0.00000  -0.00054  -0.00055  -0.00055
   D53        0.00000   0.00013   0.00000   0.00252   0.00272   0.00272
   D54        3.14159   0.00027   0.00000   0.00534   0.00554  -3.13606
   D55        3.14159   0.00008   0.00000   0.00139   0.00148  -3.14011
   D56       -0.00000   0.00021   0.00000   0.00422   0.00429   0.00429
         Item               Value     Threshold  Converged?
 Maximum Force            0.050674     0.000450     NO 
 RMS     Force            0.008642     0.000300     NO 
 Maximum Displacement     0.632352     0.001800     NO 
 RMS     Displacement     0.213780     0.001200     NO 
 Predicted change in Energy=-1.649522D-02
 Lowest energy point so far.  Saving SCF results.
 GradGradGradGradGradGradGradGradGradGradGradGradGradGradGradGradGradGrad

 Leave Link  103 at Mon Oct 14 11:08:01 2019, MaxMem= 10737418240 cpu:               2.0 elap:               0.1
 (Enter /apps/cent7/gaussian/g16-A.03/g16-haswell/g16/l202.exe)
                          Input orientation:                          
 ---------------------------------------------------------------------
 Center     Atomic      Atomic             Coordinates (Angstroms)
 Number     Number       Type             X           Y           Z
 ---------------------------------------------------------------------
      1          8           0       -2.452629    2.094496    0.705234
      2          6           0       -1.980627    1.106206    0.111794
      3          6           0       -0.613233    1.231799   -0.440191
      4          6           0       -0.226586    0.708763   -1.684728
      5          6           0        1.065506    0.886308   -2.171128
      6          6           0        2.009362    1.576573   -1.409106
      7          6           0        1.645769    2.093670   -0.161057
      8          6           0        0.351087    1.924744    0.313908
      9          6           0       -2.802411   -0.119986    0.013695
     10          6           0       -2.254429   -1.410368   -0.083164
     11          6           0       -3.067569   -2.537884   -0.147091
     12          6           0       -4.456007   -2.396351   -0.133290
     13          6           0       -5.020886   -1.118544   -0.049486
     14          6           0       -4.204490    0.002719    0.024538
     15          1           0       -0.950940    0.166621   -2.290168
     16          1           0        1.333202    0.481609   -3.143063
     17          1           0        3.020733    1.709930   -1.783948
     18          1           0        2.370195    2.632234    0.442822
     19          1           0        0.073919    2.336741    1.280084
     20          1           0       -1.173061   -1.535985   -0.095856
     21          1           0       -2.615631   -3.523729   -0.210399
     22          1           0       -5.093679   -3.274688   -0.189574
     23          1           0       -6.099806   -0.994704   -0.040562
     24          1           0       -4.648798    0.990582    0.094547
 ---------------------------------------------------------------------
                    Distance matrix (angstroms):
                    1          2          3          4          5
     1  O    0.000000
     2  C    1.245662   0.000000
     3  C    2.332300   1.479941   0.000000
     4  C    3.547878   2.542068   1.404256   0.000000
     5  C    4.702175   3.813006   2.435913   1.391981   0.000000
     6  C    4.964679   4.295858   2.817032   2.414234   1.395711
     7  C    4.188953   3.768326   2.433892   2.783030   2.415536
     8  C    2.835979   2.479465   1.406681   2.409743   2.786422
     9  C    2.346169   1.479358   2.612630   3.194736   4.554872
    10  C    3.597906   2.538922   3.130821   3.341837   4.544919
    11  C    4.750112   3.811543   4.507791   4.579981   5.736212
    12  C    4.988422   4.295984   5.293824   5.471443   6.739120
    13  C    4.182006   3.770769   5.010406   5.385014   6.750183
    14  C    2.812098   2.484123   3.824100   4.386777   5.777070
    15  H    3.865774   2.777138   2.161265   1.088652   2.144335
    16  H    5.634120   4.686755   3.414222   2.147389   1.086324
    17  H    6.025081   5.382557   3.903844   3.399597   2.156658
    18  H    4.859799   4.622552   3.412004   3.869042   3.403411
    19  H    2.602418   2.664635   2.156947   3.395693   3.872708
    20  H    3.931849   2.770642   2.844750   2.908475   3.896851
    21  H    5.694682   4.684372   5.165022   5.078895   6.069898
    22  H    6.050121   5.382764   6.359687   6.464670   7.692594
    23  H    4.837486   4.626518   5.934602   6.332440   7.708386
    24  H    2.532731   2.670731   4.077979   4.775060   6.147961
                    6          7          8          9         10
     6  C    0.000000
     7  C    1.399005   0.000000
     8  C    2.416583   1.389362   0.000000
     9  C    5.296776   4.971631   3.770358   0.000000
    10  C    5.372137   5.243653   4.250806   1.405258   0.000000
    11  C    6.655574   6.608104   5.640459   2.437702   1.391609
    12  C    7.694987   7.575799   6.479198   2.817414   2.412803
    13  C    7.650922   7.401017   6.184800   2.433668   2.782010
    14  C    6.568433   6.215469   4.952898   1.407480   2.410634
    15  H    3.395236   3.871631   3.401100   2.969490   3.009459
    16  H    2.159339   3.404232   3.872704   5.237397   5.080714
    17  H    1.086812   2.161378   3.402080   6.363105   6.360523
    18  H    2.162003   1.086054   2.143351   5.874922   6.164936
    19  H    3.399344   2.146319   1.086306   3.989050   4.617410
    20  H    4.641171   4.596135   3.803628   2.161443   1.088713
    21  H    6.988601   7.051038   6.225928   3.416221   2.147778
    22  H    8.687646   8.616277   7.545400   3.904276   3.398286
    23  H    8.616437   8.339455   7.089630   3.411875   3.868012
    24  H    6.850946   6.395601   5.091133   2.156164   3.395459
                   11         12         13         14         15
    11  C    0.000000
    12  C    1.395701   0.000000
    13  C    2.416506   1.399608   0.000000
    14  C    2.788676   2.417377   1.388961   0.000000
    15  H    4.048116   4.848344   4.820453   3.996288   0.000000
    16  H    6.120455   7.131362   7.246043   6.397583   2.458445
    17  H    7.602015   8.688374   8.699210   7.641272   4.290949
    18  H    7.526446   8.497976   8.302938   7.093363   4.957663
    19  H    5.972248   6.702240   6.297919   5.032777   4.301913
    20  H    2.143731   3.394018   3.870680   3.401715   2.786254
    21  H    1.086345   2.159608   3.405298   3.874984   4.551408
[...]
 0.00000677,0.00002724,-0.00006712,-0.00002715,0.00055614,0.00116795,-0
 .00111794,0.07451211,-0.00012069,-0.00013563,0.00016801,-0.00032934,0.
 00044595,0.00005190,-0.00256704,0.00472036,-0.00223002,-0.00185361,0.0
 0475580,0.00542239,0.02509930,-0.10026705,-0.11718720,0.00645383,-0.00
 518396,-0.01592345,-0.00491244,0.00279112,-0.00339291,-0.00026608,-0.0
 0033927,0.00028372,0.00000088,0.00001015,0.00000618,-0.00003465,0.0000
 0509,-0.00000192,0.00002159,0.00000203,0.00000353,-0.00000370,0.000002
 66,-0.00000088,0.00000016,-0.00000062,0.00000189,-0.00000915,0.0000039
 1,0.00000473,0.00146749,-0.00216543,0.00178199,-0.02473155,0.09828089,
 0.00056170,-0.00002081,-0.00038559,-0.00089722,-0.00067368,0.00015890,
 0.00337527,-0.00135242,0.00267501,0.00117960,-0.00535895,-0.00710070,0
 .06373905,-0.11748409,-0.25965340,0.00559707,-0.00496271,-0.00901959,-
 0.00154821,-0.00383554,0.00199246,-0.00051069,0.00036191,0.00051104,0.
 00014077,0.00005110,-0.00001969,0.00010362,-0.00000900,-0.00003560,0.0
 0001014,-0.00001804,0.00000451,0.00002268,0.00001255,0.00000470,0.0000
 0178,0.00002915,0.00000787,-0.00004616,0.00006696,0.00002132,-0.000661
 64,0.00203272,-0.00032878,-0.07034985,0.12926792,0.27239939,-0.0002180
 7,0.00000362,0.00013096,0.00010554,0.00039613,-0.00027743,0.00043715,0
 .00000783,-0.00065560,-0.00012416,-0.00425530,-0.00180515,-0.01465984,
 -0.00089541,0.00990477,-0.29197381,-0.03911694,0.10066268,-0.00352250,
 -0.00211588,0.00102575,0.00207280,-0.00060586,0.00233372,-0.00000486,-
 0.00003586,0.00003655,-0.00000578,-0.00002278,0.00004053,-0.00002431,0
 .00002423,0.00001229,-0.00000310,-0.00000724,-0.00000330,0.00000042,-0
 .00000716,-0.00000780,0.00002254,-0.00002904,0.00000513,-0.00078301,-0
 .00001394,0.00052493,0.00043780,0.00112612,-0.00096939,0.30819062,0.00
 010408,0.00015101,-0.00007940,0.00041109,-0.00085643,0.00046689,0.0000
 2740,-0.00070667,-0.00018381,-0.00381457,0.00247443,-0.00517105,-0.017
 34789,0.00148212,0.00852088,-0.03913754,-0.05085397,0.00395831,0.01442
 633,0.00572595,-0.00519506,-0.00109972,0.00299707,-0.00552122,-0.00012
 743,-0.00001883,-0.00001552,-0.00004593,0.00000844,0.00005052,0.000040
 73,0.00004364,0.00001498,-0.00004240,0.00002925,0.00000186,-0.00001484
 ,-0.00005398,0.00000385,0.00007404,-0.00000031,-0.00002583,-0.00090390
 ,-0.00002647,0.00044026,0.00151204,-0.00204887,0.00183945,0.04434209,0
 .04342820,0.00009709,0.00011959,0.00021198,-0.00029149,0.00039175,-0.0
 0037678,-0.00059303,-0.00049066,-0.00092833,-0.00094477,-0.00469715,0.
 00083728,-0.01504432,-0.00190294,0.00977804,0.10077920,0.00392663,-0.0
 9488343,0.02588130,0.00514608,-0.00537316,0.00139525,-0.00577585,-0.00
 224996,0.00013855,0.00002346,0.00000865,0.00004160,-0.00004024,-0.0000
 1218,-0.00000752,-0.00000208,0.00000584,0.00001691,-0.00000484,-0.0000
 0285,0.00000334,0.00002562,-0.00000226,-0.00002689,0.00003130,0.000032
 33,-0.00077671,-0.00013842,0.00035437,-0.00040840,0.00213084,-0.000354
 43,-0.11032061,-0.00094778,0.09351204,-0.00020790,0.00034381,0.0003211
 9,0.00032384,-0.00131139,-0.00132339,-0.00355485,-0.00130364,0.0044148
 3,-0.00034239,0.00058476,0.00086016,0.00106262,-0.00053176,0.00288898,
 0.00937006,0.00627067,0.00503333,-0.17773970,-0.11396359,-0.08218928,-
 0.01490842,-0.01788258,-0.01568819,-0.00047948,0.00005434,0.00022916,-
 0.00008388,0.00006621,0.00000346,-0.00001233,-0.00000189,-0.00000453,-
 0.00001220,-0.00000663,0.00000482,-0.00003578,-0.00000248,-0.00001973,
 0.00001605,-0.00018092,-0.00000489,-0.00010472,0.00026736,-0.00032816,
 0.00042176,0.00027693,0.00039476,0.00032158,0.00094626,-0.00114795,0.1
 8531933,-0.00000794,0.00012105,0.00008417,0.00022495,-0.00002286,-0.00
 049050,-0.00206046,0.00550866,-0.00193488,0.00058704,-0.00002284,0.000
 06048,0.00013341,0.00373175,-0.00488226,-0.01046950,-0.00536677,-0.005
 12968,-0.11388896,-0.14266985,-0.08778610,-0.00153981,0.00070360,-0.00
 184399,0.00004155,0.00004852,0.00014757,0.00003255,-0.00003557,0.00003
 214,-0.00003648,-0.00000689,-0.00002208,0.00000935,-0.00001748,-0.0000
 0349,0.00000496,0.00000573,-0.00001282,0.00000445,-0.00003844,-0.00002
 196,0.00029705,-0.00082714,0.00050594,-0.00065630,-0.00017336,-0.00038
 569,0.00133925,-0.00194011,0.00186649,0.12495647,0.14320189,-0.0002174
 7,-0.00010197,0.00000083,0.00047371,0.00049689,0.00057540,0.00363094,-
 0.00271361,0.00155860,0.00080909,0.00012226,-0.00051083,0.00383766,-0.
 00435413,-0.00199443,-0.01983552,-0.01559587,-0.00850440,-0.08210889,-
 0.08752779,-0.11586434,0.00907257,0.00842998,0.00945863,0.00003687,-0.
 00004257,-0.00018519,-0.00002405,0.00002055,0.00000674,0.00001484,0.00
 001682,0.00002521,-0.00001114,0.00001321,0.00000154,0.00000344,-0.0000
 1932,0.00001761,0.00002846,0.00003739,0.00000134,-0.00034837,0.0005734
 9,-0.00024787,-0.00098336,-0.00091085,-0.00046286,-0.00055084,0.002097
 59,-0.00021607,0.08730280,0.09755844,0.11702875,-0.00111214,0.00045898
 ,0.00138450,0.00033148,-0.00050052,-0.00214916,0.01085903,-0.00907926,
 -0.01755700,-0.00263188,-0.00396241,-0.00066351,-0.00086598,-0.0004313
 2,-0.00030564,-0.00410288,-0.00312329,0.00222860,-0.00311470,0.0143927
 2,0.02450222,-0.07854441,0.03097071,0.07137228,0.00018987,0.00050490,0
 .00005350,0.00026723,-0.00003058,-0.00004346,0.00002237,0.00008020,0.0
 0001614,0.00000081,0.00004874,0.00000354,-0.00003611,0.00002364,-0.000
 01755,-0.00003140,0.00009494,0.00010543,0.00039335,-0.00068995,-0.0010
 9186,-0.00001356,0.00037215,-0.00014924,-0.00022580,0.00064549,0.00124
 327,0.00064480,0.00106523,-0.00115366,0.07805310,0.00093196,0.00142973
 ,0.00114938,0.00287642,-0.00419358,-0.00052871,0.00380128,-0.00569323,
 -0.01595022,-0.00437820,0.00175304,-0.00308810,-0.00040512,-0.00022966
 ,0.00046398,-0.00287742,0.00479376,-0.00211074,-0.00202992,0.00609829,
 0.00497258,0.03135080,-0.10970534,-0.12036455,-0.00022270,0.00022705,-
 0.00007378,0.00000916,0.00000913,0.00000923,0.00001114,-0.00000499,0.0
 0002460,0.00001070,0.00000923,-0.00000365,-0.00004229,0.00003302,0.000
 03215,-0.00000598,-0.00007406,-0.00004248,0.00024494,0.00006357,-0.001
 05815,0.00039527,-0.00070174,0.00045541,-0.00015510,0.00014577,0.00033
 855,0.00142554,-0.00218123,0.00186732,-0.03092037,0.10819077,0.0007485
 8,0.00193689,0.00116831,0.00125491,0.00058728,-0.00212244,0.00471564,-
 0.00723137,-0.00931250,-0.00150030,-0.00362333,0.00185295,-0.00016524,
 0.00044066,0.00030139,0.00298318,-0.00223978,0.00288566,0.00115131,-0.
 00533023,-0.00458056,0.06908295,-0.12064627,-0.25377197,0.00002009,-0.
 00001807,0.00022625,0.00005005,-0.00003407,0.00001072,0.00001272,0.000
 04105,-0.00001125,-0.00000921,0.00001846,0.00000492,-0.00001467,0.0000
 0386,-0.00003620,0.00003439,0.00003741,0.00007612,0.00041826,-0.000466
 13,-0.00031099,-0.00019338,0.00050988,-0.00038360,-0.00005865,-0.00022
 820,-0.00033907,-0.00074867,0.00223633,-0.00064475,-0.07773123,0.13396
 891,0.26499653,0.00030145,0.00052618,0.00030484,-0.00074276,-0.0015630
 8,-0.00043145,0.00013494,-0.00072184,0.00011384,-0.00031787,-0.0010367
 5,0.00152034,0.00029145,-0.00021088,0.00003602,-0.00017368,-0.00012846
 ,-0.00030398,-0.00028316,-0.00000393,0.00023254,0.00046231,0.00031237,
 -0.00004172,-0.00873910,0.00105962,0.00023558,-0.33744304,0.03502280,0
 .00232445,-0.01403745,0.00437575,0.00044226,0.00006689,-0.00349764,-0.
 00037529,0.00064976,-0.00022061,-0.00008806,0.00108517,0.00232155,0.00
 041907,-0.00040855,-0.00048276,-0.00018636,0.00002020,0.00000160,0.000
 00745,-0.00003198,0.00001419,-0.00003063,0.00002111,-0.00003348,0.0000
 1893,-0.00004190,0.00000332,-0.00002380,0.35957110,-0.00045440,0.00001
 588,0.00009835,0.00160798,0.00136064,0.00047542,-0.00038342,-0.0007610
 8,-0.00024741,-0.00055335,-0.00058084,0.00078227,-0.00034879,-0.000065
 16,0.00016644,0.00005979,0.00011701,0.00016126,0.00016589,-0.00009220,
 -0.00008416,-0.00039659,0.00002446,-0.00012926,0.02913521,0.00160761,-
 0.00023662,0.03432517,-0.06441385,-0.00379495,-0.02678174,0.00754595,0
 .00057677,-0.00254951,-0.00396578,-0.00131835,-0.00017485,-0.00113059,
 -0.00003215,0.00118761,-0.00546119,-0.00144666,-0.00004530,-0.00033702
 ,0.00055655,0.00002678,0.00000094,-0.00005194,0.00003682,0.00002616,-0
 .00000974,0.00002450,-0.00000192,0.00002460,0.00004176,0.00002095,0.00
 002292,-0.03566495,0.06466743,0.00023789,-0.00115183,-0.00005227,0.000
 51131,0.00140743,-0.00356536,0.00044332,0.00076828,0.00053531,0.000357
 62,0.00077467,-0.00012189,-0.00003430,-0.00008101,-0.00012210,0.000116
 83,0.00009257,0.00014511,0.00012845,-0.00003046,-0.00026006,-0.0002436
 2,-0.00041894,-0.00009313,0.00324456,-0.00131848,0.00199775,0.00250918
 ,-0.00315838,-0.03684466,-0.00311709,0.00050965,0.00333133,-0.00001641
 ,-0.00133213,0.00723547,-0.00006493,0.00018267,-0.00036825,0.00012792,
 -0.00159475,0.00615346,-0.00001910,0.00085896,-0.00076514,0.00002031,0
 .00001323,-0.00001151,-0.00002881,-0.00002078,-0.00000032,-0.00000368,
 0.00001681,-0.00003327,-0.00002353,-0.00003999,-0.00001769,-0.00412223
 ,0.00385797,0.02732166,-0.00018705,-0.00039596,-0.00027064,0.00087693,
 -0.00049082,0.00011702,-0.00004949,0.00000541,-0.00007243,-0.00000491,
 0.00000508,-0.00003180,-0.00001224,0.00000446,0.00001034,-0.00000888,-
 0.00000214,0.00000446,-0.00000187,0.00000019,0.00000012,-0.00001736,0.
 00000873,0.00001216,-0.00211884,-0.00309691,-0.00026806,0.01170551,-0.
 01907222,-0.00222297,-0.10518530,0.10175437,0.01236597,-0.00761825,0.0
 3083439,0.00370902,-0.00578146,-0.00095605,-0.00000398,-0.00103740,-0.
 00071059,-0.00002183,0.00002057,-0.00000420,0.00001487,-0.00000370,-0.
 00000489,0.00000794,0.00000076,0.00000027,0.00000067,-0.00000253,-0.00
 000101,0.00000245,0.00001180,0.00000065,0.00000280,0.00097314,0.000433
 19,0.00000778,0.10770917,-0.00036427,-0.00089526,-0.00036573,0.0017247
 7,0.00038087,0.00005837,-0.00018035,-0.00008863,-0.00005718,-0.0000543
 7,-0.00008376,-0.00005069,-0.00001873,-0.00000668,-0.00001998,-0.00003
 415,-0.00000820,0.00000496,-0.00002454,0.00001189,0.00002161,-0.000024
 15,0.00007098,0.00008362,-0.00460924,-0.00200940,-0.00089008,0.0123110
 5,-0.01893721,-0.00246935,0.10184916,-0.29069562,-0.03101775,-0.000825
 27,0.00078546,-0.00017622,0.00034097,0.00161274,-0.00058878,-0.0006529
 0,0.00049504,0.00013968,0.00004244,-0.00002124,-0.00003740,-0.00002268
 ,-0.00000487,0.00002932,-0.00001063,-0.00000469,0.00000673,-0.00001927
 ,-0.00000919,0.00000318,0.00004247,0.00000177,0.00001008,-0.00016403,0
 .00095516,0.00057018,-0.10959073,0.30782638,0.00005942,0.00012148,-0.0
 0027748,0.00024570,-0.00004478,0.00064562,-0.00001097,0.00002720,-0.00
 003163,0.00003514,0.00004096,0.00001056,-0.00002721,-0.00000640,0.0000
 0048,0.00000221,0.00000214,0.00000697,0.00000257,-0.00000037,-0.000005
 51,-0.00000395,0.00000454,-0.00000115,-0.00038465,-0.00136124,0.007057
 88,0.00148760,-0.00183017,0.00186764,0.01186549,-0.03104037,-0.0392724
 6,0.00036737,-0.00063395,0.00227157,0.00020927,-0.00052186,0.00696308,
 -0.00024753,-0.00016688,-0.00039489,-0.00000232,0.00001337,0.00001029,
 0.00000620,0.00000645,-0.00000578,-0.00000255,-0.00000190,0.00000102,-
 0.00000384,-0.00000650,0.00000044,0.00000042,-0.00000335,-0.00000276,-
 0.00003174,0.00051945,-0.00386616,-0.01354959,0.03413125,0.02965723,0.
 00007915,-0.00016723,-0.00007844,0.00008744,0.00018642,0.00005718,-0.0
 0002083,-0.00002436,0.00002398,-0.00000429,-0.00004649,0.00003961,0.00
 003153,-0.00002134,-0.00002497,-0.00001006,-0.00000973,-0.00001583,-0.
 00002034,0.00000381,0.00001603,0.00003025,0.00002533,0.00002692,-0.000
 61572,0.00092209,0.00012152,-0.00539577,0.00228518,0.00036377,-0.01341
 704,-0.02738885,-0.00330677,-0.15984613,-0.13207825,-0.01599036,0.0117
 7451,0.01149819,0.00139811,-0.00037969,0.00278491,0.00053789,-0.000012
 55,0.00000597,-0.00005541,-0.00000455,0.00000377,0.00000571,-0.0000092
 4,-0.00000274,0.00000052,-0.00000707,-0.00000405,-0.00000171,0.0000020
 1,-0.00000057,-0.00000275,-0.00075646,-0.00137962,-0.00016029,0.001091
 82,0.00033556,0.00001738,0.16612146,-0.00025931,-0.00002716,-0.0000245
 8,0.00022134,0.00005536,0.00010840,-0.00008556,-0.00006089,-0.00000225
 ,-0.00000206,-0.00004002,-0.00001750,-0.00000519,-0.00000841,-0.000012
 36,-0.00000914,-0.00000464,0.00000006,-0.00001073,0.00000485,0.0000125
 2,-0.00001353,0.00003543,0.00003521,0.00098353,-0.00002911,0.00004132,
 0.00120997,0.00128039,-0.00080957,0.00400180,0.00680701,0.00041707,-0.
 13215198,-0.23752409,-0.02458454,-0.01982109,-0.01775902,-0.00247096,0
 .00385995,-0.00375170,-0.00154832,0.00001248,0.00000960,-0.00002307,-0
 .00000679,0.00000311,0.00000790,-0.00000744,-0.00000103,0.00000235,-0.
 00000966,-0.00000559,-0.00000023,0.00001542,0.00000309,0.00000304,0.00
 028493,0.00022682,0.00001619,-0.00039945,0.00074153,0.00059847,0.14293
 923,0.24992582,-0.00005624,-0.00022925,0.00009284,0.00000136,0.0001501
 4,-0.00127031,0.00013591,0.00006133,0.00006665,0.00000876,0.00005895,0
 .00003480,-0.00005087,-0.00001724,0.00000204,0.00001236,0.00002997,0.0
 0003800,0.00003599,0.00000567,-0.00004033,-0.00003097,-0.00006506,-0.0
 0001111,-0.00005449,0.00029397,-0.00055312,0.00039182,-0.00085746,0.00
 730330,0.00072449,0.00080593,0.00321053,-0.01597329,-0.02448863,-0.040
 33963,-0.00276630,-0.00288613,0.00281361,0.00066248,-0.00168401,0.0069
 5109,-0.00003102,-0.00002328,-0.00000319,0.00000200,-0.00000097,-0.000
 00147,-0.00000060,-0.00000231,0.00000137,-0.00000061,0.00000391,-0.000
 00493,0.00000380,-0.00000365,0.00000500,0.00005676,0.00007456,0.000074
 62,-0.00005499,0.00054147,-0.00379904,0.01710472,0.02769075,0.02908308
 ,0.00008679,-0.00040792,-0.00020803,-0.00042768,0.00125434,0.00043674,
 -0.00013473,-0.00032658,-0.00009191,-0.00000962,-0.00005371,-0.0000419
 9,-0.00001858,-0.00000851,-0.00001267,-0.00001029,-0.00000496,0.000005
 33,-0.00002558,0.00000071,-0.00000966,-0.00006417,0.00004735,0.0001183
 1,-0.00005114,-0.00372437,-0.00058682,0.00072688,-0.00023608,-0.000036
 16,0.00118186,0.00242088,0.00041144,-0.00836608,-0.00098624,0.00002490
 ,-0.33551698,0.03171240,0.00880321,-0.01474989,0.00411811,0.00085350,0
 .00001544,0.00000387,-0.00002280,-0.00001344,0.00000701,0.00001162,-0.
 00001172,-0.00000274,0.00000515,-0.00002503,-0.00000778,0.00000074,0.0
 0002392,-0.00000198,0.00000211,-0.00007922,0.00002652,-0.00001710,-0.0
 0050187,-0.00011866,-0.00001041,0.00084616,0.00026860,-0.00003146,0.35
 618915,0.00025300,-0.00013669,-0.00011604,-0.00124510,0.00096032,0.000
 36237,-0.00008859,-0.00038478,-0.00005972,-0.00001263,-0.00001410,-0.0
 0003631,-0.00002541,0.00001093,-0.00000221,-0.00000505,0.00000077,0.00
 001095,-0.00001883,0.00000434,-0.00003005,-0.00008010,0.00001068,0.000
 09617,-0.00246134,-0.00384073,-0.00178976,-0.00021948,-0.00127813,-0.0
 0018939,0.00115898,-0.00508142,-0.00161459,0.03047480,0.00149893,-0.00
 058865,0.03151336,-0.06365499,-0.00420858,-0.02701370,0.00725968,0.001
 10216,0.00000624,-0.00001713,0.00001511,-0.00000952,0.00000121,0.00000
 783,-0.00000253,-0.00000297,0.00000408,-0.00001646,-0.00000408,0.00000
 281,0.00001102,-0.00000723,0.00000189,0.00000423,0.00017473,0.00021443
 ,0.00160546,-0.00004902,-0.00004111,-0.00047500,0.00097544,0.00061234,
 -0.03387659,0.06270254,-0.00010232,-0.00013759,-0.00003626,-0.00001171
 ,0.00002197,0.00034390,-0.00021492,-0.00002083,-0.00009656,-0.00002489
 ,-0.00002971,-0.00008897,0.00004006,-0.00000653,0.00001362,-0.00000096
 ,-0.00001642,-0.00001861,-0.00001590,-0.00001542,0.00000880,0.00000385
 ,-0.00000209,0.00003244,-0.00051219,-0.00135114,0.00740420,-0.00001154
 ,-0.00026397,-0.00032483,0.00029836,-0.00174183,0.00669924,0.00428104,
 -0.00001068,0.00236554,0.00889642,-0.00438409,-0.03710045,-0.00319848,
 0.00076278,0.00274453,0.00003246,0.00004466,-0.00001240,0.00000290,-0.
 00000301,0.00000095,-0.00000191,0.00000431,-0.00000291,-0.00000618,0.0
 0000431,-0.00000253,0.00000253,-0.00000266,-0.00000306,-0.00000726,0.0
 0014191,-0.00127520,0.00026025,-0.00004727,0.00033642,-0.00013739,0.00
 061687,-0.00365605,-0.00954352,0.00554042,0.02665694,0.00186517,-0.002
 02089,-0.00068000,-0.00070650,0.00386922,0.00180510,0.00032249,-0.0001
 3131,-0.00035577,0.00013682,0.00014522,0.00010310,0.00006848,-0.000012
 85,-0.00003985,0.00002968,-0.00000769,-0.00003739,-0.00002418,-0.00002
 850,-0.00005630,0.00004773,-0.00008263,-0.00000617,-0.00818753,0.02930
 188,0.00459660,-0.00606958,-0.00101967,0.00021989,-0.00077090,-0.00059
 255,-0.00008051,-0.00218440,-0.00313352,-0.00024351,0.01182287,-0.0189
 6561,-0.00304560,-0.10152720,0.09876973,0.01762126,-0.00001817,0.00000
 922,-0.00007637,0.00002637,0.00000233,-0.00002679,0.00000899,-0.000004
 34,-0.00001052,0.00001511,0.00000949,0.00000249,-0.00007899,-0.0000215
 2,-0.00002907,-0.00052233,0.00166128,0.00014591,0.00014144,0.00006755,
 -0.00002400,0.00043542,-0.00101533,-0.00008960,0.00093582,0.00052321,-
 0.00002869,0.10423338,-0.00200421,-0.00021953,0.00058267,-0.00076166,-
 0.00120652,-0.00013169,0.00017503,0.00014754,-0.00022500,0.00006900,0.
 00008435,0.00001914,0.00001207,-0.00001342,-0.00000316,0.00000980,0.00
 000325,-0.00000660,0.00000759,-0.00001411,0.00000166,-0.00001405,-0.00
 003110,-0.00004359,0.00225695,0.00029965,-0.00070892,0.00004999,0.0013
 3095,-0.00085232,-0.00070934,0.00032773,0.00015236,-0.00380407,-0.0015
 9286,-0.00153517,0.01105364,-0.01656736,-0.00344739,0.10060248,-0.2955
 4961,-0.04006000,0.00000058,-0.00000857,0.00000064,0.00001240,-0.00000
 242,-0.00000934,0.00000502,0.00000228,-0.00000380,0.00001342,0.0000021
 1,0.00000180,-0.00003066,0.00001190,-0.00000118,-0.00019812,0.00006587
 ,-0.00013631,0.00007278,-0.00006805,0.00019358,0.00060777,-0.00085680,
 -0.00007101,-0.00010366,0.00087170,0.00089600,-0.10732273,0.31298301,-
 0.00072890,-0.00053378,-0.00015929,0.00015622,-0.00040496,-0.00407081,
 0.00026746,0.00000207,0.00017308,0.00006058,0.00008700,0.00006585,0.00
 002537,0.00001000,-0.00004893,0.00000412,-0.00001490,-0.00001797,-0.00
 001731,0.00004999,-0.00000103,0.00011012,-0.00010181,-0.00004601,0.002
 15674,0.00008724,0.00374006,0.00014094,-0.00075603,0.00571297,-0.00009
 400,0.00023653,-0.00035101,-0.00040362,-0.00112073,0.00735395,0.001267
 88,-0.00227679,0.00314685,0.01681202,-0.04126640,-0.04494137,-0.000010
 19,-0.00003066,-0.00001189,0.00001529,-0.00000146,-0.00001315,0.000005
 31,-0.00000603,-0.00000117,0.00001561,0.00000335,-0.00000359,-0.000030
 40,-0.00001208,0.00000900,-0.00006958,-0.00010722,0.00060232,-0.000019
 54,0.00011999,-0.00117233,0.00006059,-0.00005677,0.00000226,-0.0000605
 1,0.00070583,-0.00398874,-0.01966420,0.04538764,0.03402094\\-0.0000032
 0,0.00000030,0.00000276,0.00000692,-0.00000250,-0.00000351,-0.00002628
 ,-0.00001239,-0.00000997,0.00000293,0.00000597,0.00000685,0.00000560,0
 .00000296,0.00000453,0.00000138,-0.00000437,-0.00000471,-0.00000730,-0
 .00000367,0.00000549,0.00001993,0.00001188,-0.00000280,0.00002431,-0.0
 0000085,0.00000636,-0.00000309,0.00001384,-0.00000014,-0.00001441,-0.0
 0000296,0.00000013,0.00000953,-0.00000826,-0.00000357,0.00000647,0.000
 01385,-0.00000082,-0.00002155,-0.00001281,-0.00000174,0.00000065,0.000
 00032,-0.00000280,-0.00000265,-0.00000037,-0.00000115,-0.00000098,0.00
 000123,-0.00000131,-0.00000013,0.00000246,-0.00000126,-0.00000261,-0.0
 0000270,-0.00000068,-0.00000002,-0.00000327,0.00000113,0.00000376,0.00
 000133,0.00000167,-0.00000113,0.00000077,0.00000207,-0.00000133,-0.000
 00173,0.00000286,0.00000321,0.00000096,0.00000063\\\@


 The cat could very well be man's best friend
 but would never stoop to admitting it.
                               -- Doug Larson
 Job cpu time:       0 days  0 hours 20 minutes 54.6 seconds.
 Elapsed time:       0 days  0 hours  0 minutes 52.9 seconds.
 File lengths (MBytes):  RWF=    155 Int=      0 D2E=      0 Chk=      6 Scr=      1
 Normal termination of Gaussian 16 at Mon Oct 14 11:10:00 2019.
real 127.37
user 2917.51
sys 18.39
Machine:
brown-a292
brown-a292
brown-a292
brown-a292
brown-a292
brown-a292
brown-a292
brown-a292
brown-a292
brown-a292
brown-a292
brown-a292
brown-a292
brown-a292
brown-a292
brown-a292
brown-a292
brown-a292
brown-a292
brown-a292
brown-a292
brown-a292
brown-a292
brown-a292
