 Entering Gaussian System, Link 0=/apps/cent7/gaussian/g16-A.03/g16-haswell/g16/g16
 Initial command:
 /apps/cent7/gaussian/g16-A.03/g16-haswell/g16/l1.exe "/scratch/brown/finej/gaussian/Gau-431227.inp" -scrdir="/scratch/brown/finej/gaussian/"
 Entering Link 1 = /apps/cent7/gaussian/g16-A.03/g16-haswell/g16/l1.exe PID=    431228.
  
 Copyright (c) 1988,1990,1992,1993,1995,1998,2003,2009,2016,
            Gaussian, Inc.  All Rights Reserved.
  
 This is part of the Gaussian(R) 16 program.  It is based on
 the Gaussian(R) 09 system (copyright 2009, Gaussian, Inc.),
 the Gaussian(R) 03 system (copyright 2003, Gaussian, Inc.),
 the Gaussian(R) 98 system (copyright 1998, Gaussian, Inc.),
 the Gaussian(R) 94 system (copyright 1995, Gaussian, Inc.),
 the Gaussian 92(TM) system (copyright 1992, Gaussian, Inc.),
 the Gaussian 90(TM) system (copyright 1990, Gaussian, Inc.),
 the Gaussian 88(TM) system (copyright 1988, Gaussian, Inc.),
 the Gaussian 86(TM) system (copyright 1986, Carnegie Mellon
 University), and the Gaussian 82(TM) system (copyright 1983,
 Carnegie Mellon University). Gaussian is a federally registered
 trademark of Gaussian, Inc.
  
 This software contains proprietary and confidential information,
 including trade secrets, belonging to Gaussian, Inc.
  
 This software is provided under written license and may be
 used, copied, transmitted, or stored only in accord with that
 written license.
  
 The following legend is applicable only to US Government
 contracts under FAR:
  
                    RESTRICTED RIGHTS LEGEND
  
 Use, reproduction and disclosure by the US Government is
 subject to restrictions as set forth in subparagraphs (a)
 and (c) of the Commercial Computer Software - Restricted
 Rights clause in FAR 52.227-19.
  
 Gaussian, Inc.
 340 Quinnipiac St., Bldg. 40, Wallingford CT 06492
  
  
 ---------------------------------------------------------------
 Warning -- This program may not be used in any manner that
 competes with the business of Gaussian, Inc. or will provide
 assistance to any competitor of Gaussian, Inc.  The licensee
 of this program is prohibited from giving any competitor of
 Gaussian, Inc. access to this program.  By using this program,
 the user acknowledges that Gaussian, Inc. is engaged in the
 business of creating and licensing software in the field of
 computational chemistry and represents and warrants to the
 licensee that it is not a competitor of Gaussian, Inc. and that
 it will not use this program in any manner prohibited above.
 ---------------------------------------------------------------
  

 Cite this work as:
 Gaussian 16, Revision A.03,
 M. J. Frisch, G. W. Trucks, H. B. Schlegel, G. E. Scuseria, 
 M. A. Robb, J. R. Cheeseman, G. Scalmani, V. Barone, 
 G. A. Petersson, H. Nakatsuji, X. Li, M. Caricato, A. V. Marenich, 
 J. Bloino, B. G. Janesko, R. Gomperts, B. Mennucci, H. P. Hratchian, 
 J. V. Ortiz, A. F. Izmaylov, J. L. Sonnenberg, D. Williams-Young, 
 F. Ding, F. Lipparini, F. Egidi, J. Goings, B. Peng, A. Petrone, 
 T. Henderson, D. Ranasinghe, V. G. Zakrzewski, J. Gao, N. Rega, 
 G. Zheng, W. Liang, M. Hada, M. Ehara, K. Toyota, R. Fukuda, 
 J. Hasegawa, M. Ishida, T. Nakajima, Y. Honda, O. Kitao, H. Nakai, 
 T. Vreven, K. Throssell, J. A. Montgomery, Jr., J. E. Peralta, 
 F. Ogliaro, M. J. Bearpark, J. J. Heyd, E. N. Brothers, K. N. Kudin, 
 V. N. Staroverov, T. A. Keith, R. Kobayashi, J. Normand, 
 K. Raghavachari, A. P. Rendell, J. C. Burant, S. S. Iyengar, 
 J. Tomasi, M. Cossi, J. M. Millam, M. Klene, C. Adamo, R. Cammi, 
 J. W. Ochterski, R. L. Martin, K. Morokuma, O. Farkas, 
 J. B. Foresman, and D. J. Fox, Gaussian, Inc., Wallingford CT, 2016.
 
 ******************************************
 Gaussian 16:  ES64L-G16RevA.03 25-Dec-2016
                14-Oct-2019 
 ******************************************
 %chk=15_p.chk
 %nprocshared=24
 Will use up to   24 processors via shared memory.
 %mem=80GB
 --------------------------------------------------------------
 #p opt freq b3lyp/6-31g(d) geom=connectivity temperature=0.001
 --------------------------------------------------------------
 1/18=20,19=15,26=3,38=1,57=2,112=-1000/1,3;
 2/9=110,12=2,17=6,18=5,40=1/2;
 3/5=1,6=6,7=1,11=2,25=1,30=1,71=1,74=-5/1,2,3;
 4//1;
 5/5=2,38=5/2;
 6/7=2,8=2,9=2,10=2,28=1/1;
 7//1,2,3,16;
 1/18=20,19=15,26=3/3(2);
 2/9=110/2;
 99//99;
 2/9=110/2;
 3/5=1,6=6,7=1,11=2,25=1,30=1,71=1,74=-5/1,2,3;
 4/5=5,16=3,69=1/1;
 5/5=2,38=5/2;
 7//1,2,3,16;
 1/18=20,19=15,26=3/3(-5);
 2/9=110/2;
 6/7=2,8=2,9=2,10=2,19=2,28=1/1;
 99/9=1/99;
 Leave Link    1 at Mon Oct 14 11:06:02 2019, MaxMem= 10737418240 cpu:               2.4 elap:               0.1
 (Enter /apps/cent7/gaussian/g16-A.03/g16-haswell/g16/l101.exe)
 -------------------
 Title Card Required
 -------------------
 Symbolic Z-matrix:
 Charge =  1 Multiplicity = 1
 O                    -2.39109   1.91231   0.59001 
 C                    -1.8908    0.9201    0. 
 C                    -0.55296   1.18967  -0.53474 
 C                    -0.06074   0.8226   -1.81973 
 C                     1.24338   1.12083  -2.25823 
 C                     2.13028   1.80905  -1.42349 
 C                     1.70186   2.19577  -0.14814 
 C                     0.39559   1.89106   0.2771 
 C                    -2.7752   -0.2487    0. 
 C                    -2.3776   -1.6164    0. 
 C                    -3.2947   -2.6844    0. 
 C                    -4.6712   -2.4349    0. 
 C                    -5.1215   -1.1094    0. 
 C                    -4.1936   -0.0516    0. 
 H                    -0.7169    0.28482  -2.50407 
 H                     1.56928   0.81624  -3.25269 
 H                     3.14024   2.04054  -1.76184 
 H                     2.38329   2.7325    0.51176 
 H                     0.10625   2.21198   1.27786 
 H                    -1.3148   -1.8585    0. 
 H                    -2.9359   -3.7137    0. 
 H                    -5.3823   -3.261     0. 
 H                    -6.1915   -0.9017    0. 
 H                    -4.5904    0.9636    0. 
 H                    -1.81913   2.57501   0.98408 
 
 ITRead=  0  0  0  0  0  0  0  0  0  0  0  0  0  0  0  0  0  0  0  0
 ITRead=  0  0  0  0  0
 MicOpt= -1 -1 -1 -1 -1 -1 -1 -1 -1 -1 -1 -1 -1 -1 -1 -1 -1 -1 -1 -1
 MicOpt= -1 -1 -1 -1 -1
 NAtoms=     25 NQM=       25 NQMF=       0 NMMI=      0 NMMIF=      0
                NMic=       0 NMicF=      0.
                    Isotopes and Nuclear Properties:
 (Nuclear quadrupole moments (NQMom) in fm**2, nuclear magnetic moments (NMagM)
  in nuclear magnetons)

  Atom         1           2           3           4           5           6           7           8           9          10
 IAtWgt=          16          12          12          12          12          12          12          12          12          12
 AtmWgt=  15.9949146  12.0000000  12.0000000  12.0000000  12.0000000  12.0000000  12.0000000  12.0000000  12.0000000  12.0000000
 NucSpn=           0           0           0           0           0           0           0           0           0           0
 AtZEff=  -0.0000000  -0.0000000  -0.0000000  -0.0000000  -0.0000000  -0.0000000  -0.0000000  -0.0000000  -0.0000000  -0.0000000
 NQMom=    0.0000000   0.0000000   0.0000000   0.0000000   0.0000000   0.0000000   0.0000000   0.0000000   0.0000000   0.0000000
 NMagM=    0.0000000   0.0000000   0.0000000   0.0000000   0.0000000   0.0000000   0.0000000   0.0000000   0.0000000   0.0000000
 AtZNuc=   8.0000000   6.0000000   6.0000000   6.0000000   6.0000000   6.0000000   6.0000000   6.0000000   6.0000000   6.0000000

  Atom        11          12          13          14          15          16          17          18          19          20
 IAtWgt=          12          12          12          12           1           1           1           1           1           1
 AtmWgt=  12.0000000  12.0000000  12.0000000  12.0000000   1.0078250   1.0078250   1.0078250   1.0078250   1.0078250   1.0078250
 NucSpn=           0           0           0           0           1           1           1           1           1           1
 AtZEff=  -0.0000000  -0.0000000  -0.0000000  -0.0000000  -0.0000000  -0.0000000  -0.0000000  -0.0000000  -0.0000000  -0.0000000
 NQMom=    0.0000000   0.0000000   0.0000000   0.0000000   0.0000000   0.0000000   0.0000000   0.0000000   0.0000000   0.0000000
 NMagM=    0.0000000   0.0000000   0.0000000   0.0000000   2.7928460   2.7928460   2.7928460   2.7928460   2.7928460   2.7928460
 AtZNuc=   6.0000000   6.0000000   6.0000000   6.0000000   1.0000000   1.0000000   1.0000000   1.0000000   1.0000000   1.0000000

  Atom        21          22          23          24          25
 IAtWgt=           1           1           1           1           1
 AtmWgt=   1.0078250   1.0078250   1.0078250   1.0078250   1.0078250
 NucSpn=           1           1           1           1           1
 AtZEff=  -0.0000000  -0.0000000  -0.0000000  -0.0000000  -0.0000000
 NQMom=    0.0000000   0.0000000   0.0000000   0.0000000   0.0000000
 NMagM=    2.7928460   2.7928460   2.7928460   2.7928460   2.7928460
 AtZNuc=   1.0000000   1.0000000   1.0000000   1.0000000   1.0000000
 Leave Link  101 at Mon Oct 14 11:06:03 2019, MaxMem= 10737418240 cpu:               8.5 elap:               0.4
 (Enter /apps/cent7/gaussian/g16-A.03/g16-haswell/g16/l103.exe)

 GradGradGradGradGradGradGradGradGradGradGradGradGradGradGradGradGradGrad
 Berny optimization.
 Initialization pass.
                           ----------------------------
                           !    Initial Parameters    !
                           ! (Angstroms and Degrees)  !
 --------------------------                            --------------------------
 ! Name  Definition              Value          Derivative Info.                !
 --------------------------------------------------------------------------------
 ! R1    R(1,2)                  1.2581         estimate D2E/DX2                !
 ! R2    R(1,25)                 0.96           estimate D2E/DX2                !
 ! R3    R(2,3)                  1.4658         estimate D2E/DX2                !
 ! R4    R(2,9)                  1.4657         estimate D2E/DX2                !
 ! R5    R(3,4)                  1.4242         estimate D2E/DX2                !
 ! R6    R(3,8)                  1.432          estimate D2E/DX2                !
 ! R7    R(4,5)                  1.4078         estimate D2E/DX2                !
 ! R8    R(4,15)                 1.09           estimate D2E/DX2                !
 ! R9    R(5,6)                  1.3989         estimate D2E/DX2                !
 ! R10   R(5,16)                 1.0899         estimate D2E/DX2                !
 ! R11   R(6,7)                  1.3999         estimate D2E/DX2                !
 ! R12   R(6,17)                 1.09           estimate D2E/DX2                !
 ! R13   R(7,8)                  1.4071         estimate D2E/DX2                !
 ! R14   R(7,18)                 1.0899         estimate D2E/DX2                !
 ! R15   R(8,19)                 1.0901         estimate D2E/DX2                !
 ! R16   R(9,10)                 1.4243         estimate D2E/DX2                !
 ! R17   R(9,14)                 1.432          estimate D2E/DX2                !
 ! R18   R(10,11)                1.4077         estimate D2E/DX2                !
 ! R19   R(10,20)                1.09           estimate D2E/DX2                !
 ! R20   R(11,12)                1.3989         estimate D2E/DX2                !
 ! R21   R(11,21)                1.09           estimate D2E/DX2                !
 ! R22   R(12,13)                1.3999         estimate D2E/DX2                !
 ! R23   R(12,22)                1.09           estimate D2E/DX2                !
 ! R24   R(13,14)                1.4071         estimate D2E/DX2                !
 ! R25   R(13,23)                1.09           estimate D2E/DX2                !
 ! R26   R(14,24)                1.09           estimate D2E/DX2                !
 ! A1    A(2,1,25)             120.0            estimate D2E/DX2                !
 ! A2    A(1,2,3)              112.8917         estimate D2E/DX2                !
 ! A3    A(1,2,9)              112.8894         estimate D2E/DX2                !
 ! A4    A(3,2,9)              134.219          estimate D2E/DX2                !
 ! A5    A(2,3,4)              126.6715         estimate D2E/DX2                !
 ! A6    A(2,3,8)              119.1978         estimate D2E/DX2                !
 ! A7    A(4,3,8)              114.1307         estimate D2E/DX2                !
 ! A8    A(3,4,5)              123.134          estimate D2E/DX2                !
 ! A9    A(3,4,15)             119.0518         estimate D2E/DX2                !
 ! A10   A(5,4,15)             117.8142         estimate D2E/DX2                !
 ! A11   A(4,5,6)              120.3742         estimate D2E/DX2                !
 ! A12   A(4,5,16)             120.1308         estimate D2E/DX2                !
 ! A13   A(6,5,16)             119.495          estimate D2E/DX2                !
 ! A14   A(5,6,7)              119.0452         estimate D2E/DX2                !
 ! A15   A(5,6,17)             120.4435         estimate D2E/DX2                !
 ! A16   A(7,6,17)             120.5113         estimate D2E/DX2                !
 ! A17   A(6,7,8)              119.974          estimate D2E/DX2                !
 ! A18   A(6,7,18)             119.7566         estimate D2E/DX2                !
 ! A19   A(8,7,18)             120.2694         estimate D2E/DX2                !
 ! A20   A(3,8,7)              123.3419         estimate D2E/DX2                !
 ! A21   A(3,8,19)             119.2648         estimate D2E/DX2                !
 ! A22   A(7,8,19)             117.3933         estimate D2E/DX2                !
 ! A23   A(2,9,10)             126.6767         estimate D2E/DX2                !
 ! A24   A(2,9,14)             119.2027         estimate D2E/DX2                !
 ! A25   A(10,9,14)            114.1206         estimate D2E/DX2                !
 ! A26   A(9,10,11)            123.1375         estimate D2E/DX2                !
 ! A27   A(9,10,20)            119.0422         estimate D2E/DX2                !
 ! A28   A(11,10,20)           117.8203         estimate D2E/DX2                !
 ! A29   A(10,11,12)           120.3792         estimate D2E/DX2                !
 ! A30   A(10,11,21)           120.1292         estimate D2E/DX2                !
 ! A31   A(12,11,21)           119.4916         estimate D2E/DX2                !
 ! A32   A(11,12,13)           119.0374         estimate D2E/DX2                !
 ! A33   A(11,12,22)           120.4479         estimate D2E/DX2                !
 ! A34   A(13,12,22)           120.5147         estimate D2E/DX2                !
 ! A35   A(12,13,14)           119.9791         estimate D2E/DX2                !
 ! A36   A(12,13,23)           119.7489         estimate D2E/DX2                !
 ! A37   A(14,13,23)           120.272          estimate D2E/DX2                !
 ! A38   A(9,14,13)            123.346          estimate D2E/DX2                !
 ! A39   A(9,14,24)            119.2596         estimate D2E/DX2                !
 ! A40   A(13,14,24)           117.3943         estimate D2E/DX2                !
 ! D1    D(25,1,2,3)           -26.2578         estimate D2E/DX2                !
 ! D2    D(25,1,2,9)           153.7422         estimate D2E/DX2                !
 ! D3    D(1,2,3,4)           -136.0            estimate D2E/DX2                !
 ! D4    D(1,2,3,8)             44.0            estimate D2E/DX2                !
 ! D5    D(9,2,3,4)             44.0            estimate D2E/DX2                !
 ! D6    D(9,2,3,8)           -136.0            estimate D2E/DX2                !
 ! D7    D(1,2,9,10)          -149.4            estimate D2E/DX2                !
 ! D8    D(1,2,9,14)            30.6            estimate D2E/DX2                !
 ! D9    D(3,2,9,10)            30.6            estimate D2E/DX2                !
 ! D10   D(3,2,9,14)          -149.4            estimate D2E/DX2                !
 ! D11   D(2,3,4,5)            180.0            estimate D2E/DX2                !
 ! D12   D(2,3,4,15)             0.0            estimate D2E/DX2                !
 ! D13   D(8,3,4,5)              0.0            estimate D2E/DX2                !
 ! D14   D(8,3,4,15)           180.0            estimate D2E/DX2                !
 ! D15   D(2,3,8,7)            180.0            estimate D2E/DX2                !
 ! D16   D(2,3,8,19)             0.0            estimate D2E/DX2                !
 ! D17   D(4,3,8,7)              0.0            estimate D2E/DX2                !
 ! D18   D(4,3,8,19)           180.0            estimate D2E/DX2                !
 ! D19   D(3,4,5,6)              0.0            estimate D2E/DX2                !
 ! D20   D(3,4,5,16)           180.0            estimate D2E/DX2                !
 ! D21   D(15,4,5,6)           180.0            estimate D2E/DX2                !
 ! D22   D(15,4,5,16)            0.0            estimate D2E/DX2                !
 ! D23   D(4,5,6,7)              0.0            estimate D2E/DX2                !
 ! D24   D(4,5,6,17)           180.0            estimate D2E/DX2                !
 ! D25   D(16,5,6,7)           180.0            estimate D2E/DX2                !
 ! D26   D(16,5,6,17)            0.0            estimate D2E/DX2                !
 ! D27   D(5,6,7,8)              0.0            estimate D2E/DX2                !
 ! D28   D(5,6,7,18)           180.0            estimate D2E/DX2                !
 ! D29   D(17,6,7,8)           180.0            estimate D2E/DX2                !
 ! D30   D(17,6,7,18)            0.0            estimate D2E/DX2                !
 ! D31   D(6,7,8,3)              0.0            estimate D2E/DX2                !
 ! D32   D(6,7,8,19)           180.0            estimate D2E/DX2                !
 ! D33   D(18,7,8,3)           180.0            estimate D2E/DX2                !
 ! D34   D(18,7,8,19)            0.0            estimate D2E/DX2                !
 ! D35   D(2,9,10,11)          180.0            estimate D2E/DX2                !
 ! D36   D(2,9,10,20)            0.0            estimate D2E/DX2                !
 ! D37   D(14,9,10,11)           0.0            estimate D2E/DX2                !
 ! D38   D(14,9,10,20)         180.0            estimate D2E/DX2                !
 ! D39   D(2,9,14,13)          180.0            estimate D2E/DX2                !
 ! D40   D(2,9,14,24)            0.0            estimate D2E/DX2                !
 ! D41   D(10,9,14,13)           0.0            estimate D2E/DX2                !
 ! D42   D(10,9,14,24)         180.0            estimate D2E/DX2                !
 ! D43   D(9,10,11,12)           0.0            estimate D2E/DX2                !
 ! D44   D(9,10,11,21)         180.0            estimate D2E/DX2                !
 ! D45   D(20,10,11,12)        180.0            estimate D2E/DX2                !
 ! D46   D(20,10,11,21)          0.0            estimate D2E/DX2                !
 ! D47   D(10,11,12,13)          0.0            estimate D2E/DX2                !
 ! D48   D(10,11,12,22)        180.0            estimate D2E/DX2                !
 ! D49   D(21,11,12,13)        180.0            estimate D2E/DX2                !
 ! D50   D(21,11,12,22)          0.0            estimate D2E/DX2                !
 ! D51   D(11,12,13,14)          0.0            estimate D2E/DX2                !
 ! D52   D(11,12,13,23)        180.0            estimate D2E/DX2                !
 ! D53   D(22,12,13,14)        180.0            estimate D2E/DX2                !
 ! D54   D(22,12,13,23)          0.0            estimate D2E/DX2                !
 ! D55   D(12,13,14,9)           0.0            estimate D2E/DX2                !
 ! D56   D(12,13,14,24)        180.0            estimate D2E/DX2                !
 ! D57   D(23,13,14,9)         180.0            estimate D2E/DX2                !
 ! D58   D(23,13,14,24)          0.0            estimate D2E/DX2                !
 --------------------------------------------------------------------------------
 Trust Radius=3.00D-01 FncErr=1.00D-07 GrdErr=1.00D-06 EigMax=2.50D+02 EigMin=1.00D-04
 Number of steps in this run=    134 maximum allowed number of steps=    150.
 GradGradGradGradGradGradGradGradGradGradGradGradGradGradGradGradGradGrad

 Leave Link  103 at Mon Oct 14 11:06:03 2019, MaxMem= 10737418240 cpu:               0.3 elap:               0.0
 (Enter /apps/cent7/gaussian/g16-A.03/g16-haswell/g16/l202.exe)
                          Input orientation:                          
 ---------------------------------------------------------------------
 Center     Atomic      Atomic             Coordinates (Angstroms)
 Number     Number       Type             X           Y           Z
 ---------------------------------------------------------------------
      1          8           0       -2.391087    1.912307    0.590006
      2          6           0       -1.890800    0.920100    0.000000
      3          6           0       -0.552955    1.189670   -0.534737
      4          6           0       -0.060739    0.822598   -1.819726
      5          6           0        1.243380    1.120828   -2.258226
      6          6           0        2.130281    1.809051   -1.423489
      7          6           0        1.701861    2.195771   -0.148142
      8          6           0        0.395589    1.891057    0.277097
      9          6           0       -2.775200   -0.248700    0.000000
     10          6           0       -2.377600   -1.616400    0.000000
     11          6           0       -3.294700   -2.684400    0.000000
     12          6           0       -4.671200   -2.434900    0.000000
     13          6           0       -5.121500   -1.109400    0.000000
     14          6           0       -4.193600   -0.051600    0.000000
     15          1           0       -0.716897    0.284820   -2.504066
     16          1           0        1.569278    0.816236   -3.252689
     17          1           0        3.140240    2.040543   -1.761841
     18          1           0        2.383286    2.732498    0.511763
     19          1           0        0.106255    2.211978    1.277862
     20          1           0       -1.314800   -1.858500    0.000000
     21          1           0       -2.935900   -3.713700    0.000000
     22          1           0       -5.382300   -3.261000    0.000000
     23          1           0       -6.191500   -0.901700    0.000000
     24          1           0       -4.590400    0.963600    0.000000
     25          1           0       -1.819130    2.575009    0.984076
 ---------------------------------------------------------------------
                    Distance matrix (angstroms):
                    1          2          3          4          5
     1  O    0.000000
     2  C    1.258121   0.000000
     3  C    2.272879   1.465756   0.000000
     4  C    3.524883   2.582641   1.424155   0.000000
     5  C    4.684892   3.868198   2.490376   1.407817   0.000000
     6  C    4.950515   4.357252   2.893660   2.435295   1.398939
     7  C    4.168626   3.815298   2.499178   2.790440   2.412086
     8  C    2.804270   2.499423   1.432045   2.397188   2.782061
     9  C    2.272796   1.465693   2.700597   3.439096   4.808760
    10  C    3.577717   2.582790   3.389587   3.824651   5.069861
    11  C    4.721688   3.868250   4.776141   5.105775   6.338258
    12  C    4.944211   4.357367   5.512113   5.931192   7.261201
    13  C    4.115091   3.815271   5.142302   5.714483   7.112327
    14  C    2.730218   2.499418   3.883425   4.599583   6.002909
    15  H    3.876199   2.837601   2.173451   1.089986   2.145235
    16  H    5.626026   4.750043   3.468514   2.170341   1.089929
    17  H    6.011923   5.447095   3.983649   3.425348   2.165722
    18  H    4.844943   4.670599   3.478073   3.880312   3.401427
    19  H    2.607617   2.700020   2.182930   3.399017   3.871379
    20  H    3.965537   2.837674   3.187113   3.474530   4.529930
    21  H    5.683034   4.750193   5.477902   5.670622   6.777804
    22  H    6.004878   5.447217   6.589156   6.950265   8.258307
    23  H    4.765488   4.670650   6.037629   6.623506   8.029174
    24  H    2.466805   2.699950   4.078972   4.883555   6.257578
    25  H    0.960000   1.926724   2.414364   3.744889   4.691069
                    6          7          8          9         10
     6  C    0.000000
     7  C    1.399859   0.000000
     8  C    2.430612   1.407134   0.000000
     9  C    5.506760   5.103084   3.835263   0.000000
    10  C    5.837896   5.585392   4.479912   1.424321   0.000000
    11  C    7.186643   6.985960   5.884711   2.490485   1.407727
    12  C    8.142333   7.879148   6.668061   2.893836   2.435271
    13  C    7.945565   7.583163   6.286318   2.499186   2.790347
    14  C    6.743872   6.311029   4.991128   1.432029   2.397176
    15  H    3.405488   3.879755   3.398896   3.285058   3.555688
    16  H    2.155547   3.399839   3.871973   5.530693   5.663528
    17  H    1.089994   2.167268   3.422386   6.583095   6.850100
    18  H    2.159159   1.089904   2.171182   5.979918   6.468451
    19  H    3.399460   2.140026   1.090062   3.998831   4.739087
    20  H    5.229324   5.055621   4.130543   2.173528   1.090026
    21  H    7.628452   7.513496   6.526017   3.468724   2.170338
    22  H    9.174454   8.943357   7.746255   3.983833   3.425337
    23  H    8.867160   8.480650   7.160029   3.478148   3.880287
    24  H    6.921608   6.413481   5.079079   2.182801   3.398953
    25  H    4.688380   3.717946   2.423343   3.139396   4.341452
                   11         12         13         14         15
    11  C    0.000000
    12  C    1.398929   0.000000
    13  C    2.412016   1.399900   0.000000
    14  C    2.782024   2.430683   1.407103   0.000000
    15  H    4.661725   5.413293   5.254972   4.297789   0.000000
    16  H    6.818557   7.751995   7.684697   6.674121   2.463622
    17  H    8.175428   9.173454   9.015685   7.827283   4.302437
    18  H    7.864109   8.759548   8.446531   7.160205   4.969657
    19  H    6.097043   6.786050   6.324073   5.024487   4.323713
    20  H    2.145254   3.405533   3.879706   3.398879   3.349874
    21  H    1.090044   2.155596   3.399886   3.872052   5.213682
    22  H    2.165766   1.090002   2.167348   3.422463   6.372533
    23  H    3.401392   2.159170   1.089972   2.171238   6.135916
    24  H    3.871271   3.399460   2.139952   1.089991   4.662094
    25  H    5.550414   5.848238   5.044692   3.674995   4.315904
                   16         17         18         19         20
    16  H    0.000000
    17  H    2.487866   0.000000
    18  H    4.301834   2.494205   0.000000
    19  H    4.961293   4.298168   2.458194   0.000000
    20  H    5.104126   6.176892   5.917348   4.496790   0.000000
    21  H    7.169165   8.551893   8.373118   6.782425   2.463683
    22  H    8.690700  10.190394   9.822843   7.855613   4.302507
    23  H    8.588420   9.941944   9.327178   7.140703   4.969675
    24  H    6.967305   8.001668   7.212711   5.024932   4.323633
    25  H    5.703049   5.693950   4.231806   1.981214   4.569328
                   21         22         23         24         25
    21  H    0.000000
    22  H    2.487933   0.000000
    23  H    4.301892   2.494214   0.000000
    24  H    4.961301   4.298180   2.458224   0.000000
    25  H    6.462464   6.908226   5.672171   3.353353   0.000000
 Stoichiometry    C13H11O(1+)
 Framework group  C1[X(C13H11O)]
 Deg. of freedom    69
 Full point group                 C1      NOp   1
 Largest Abelian subgroup         C1      NOp   1
 Largest concise Abelian subgroup C1      NOp   1
                         Standard orientation:                         
 ---------------------------------------------------------------------
 Center     Atomic      Atomic             Coordinates (Angstroms)
 Number     Number       Type             X           Y           Z
 ---------------------------------------------------------------------
      1          8           0        0.018128    2.054787    0.105725
      2          6           0        0.010601    0.798003    0.048209
      3          6           0       -1.341504    0.233503    0.088131
      4          6           0       -1.772784   -0.887889    0.852784
      5          6           0       -3.095835   -1.368675    0.834668
      6          6           0       -4.064513   -0.744415    0.041578
      7          6           0       -3.698673    0.363371   -0.732099
      8          6           0       -2.372587    0.833210   -0.704316
      9          6           0        1.355848    0.223466   -0.043838
     10          6           0        1.720996   -0.986729   -0.700179
     11          6           0        3.042199   -1.470799   -0.742553
     12          6           0        4.076132   -0.760407   -0.123419
     13          6           0        3.777084    0.436843    0.537552
     14          6           0        2.451992    0.908945    0.572031
     15          1           0       -1.052065   -1.405801    1.485556
     16          1           0       -3.372650   -2.231777    1.439956
     17          1           0       -5.089209   -1.115714    0.026694
     18          1           0       -4.444057    0.858587   -1.354238
     19          1           0       -2.133997    1.698445   -1.322927
     20          1           0        0.948032   -1.573590   -1.196443
     21          1           0        3.266719   -2.403935   -1.259316
     22          1           0        5.099538   -1.134190   -0.155536
     23          1           0        4.573749    0.999724    1.023895
     24          1           0        2.266767    1.845412    1.098151
     25          1           0       -0.741593    2.553971   -0.202885
 ---------------------------------------------------------------------
 Rotational constants (GHZ):           1.8216455           0.3592627           0.3244215
 Leave Link  202 at Mon Oct 14 11:06:03 2019, MaxMem= 10737418240 cpu:               1.5 elap:               0.1
 (Enter /apps/cent7/gaussian/g16-A.03/g16-haswell/g16/l301.exe)
 Standard basis: 6-31G(d) (6D, 7F)
 Ernie: Thresh=  0.10000D-02 Tol=  0.10000D-05 Strict=F.
 There are   232 symmetry adapted cartesian basis functions of A   symmetry.
 There are   232 symmetry adapted basis functions of A   symmetry.
   232 basis functions,   436 primitive gaussians,   232 cartesian basis functions
    48 alpha electrons       48 beta electrons
       nuclear repulsion energy       777.2708759966 Hartrees.
 IExCor=  402 DFT=T Ex+Corr=B3LYP ExCW=0 ScaHFX=  0.200000
 ScaDFX=  0.800000  0.720000  1.000000  0.810000 ScalE2=  1.000000  1.000000
 IRadAn=      5 IRanWt=     -1 IRanGd=            0 ICorTp=0 IEmpDi=  4
 NAtoms=   25 NActive=   25 NUniq=   25 SFac= 1.00D+00 NAtFMM=   60 NAOKFM=F Big=F
 Integral buffers will be    131072 words long.
 Raffenetti 2 integral format.
 Two-electron integral symmetry is turned on.
 Leave Link  301 at Mon Oct 14 11:06:03 2019, MaxMem= 10737418240 cpu:               1.4 elap:               0.1
 (Enter /apps/cent7/gaussian/g16-A.03/g16-haswell/g16/l302.exe)
 NPDir=0 NMtPBC=     1 NCelOv=     1 NCel=       1 NClECP=     1 NCelD=      1
         NCelK=      1 NCelE2=     1 NClLst=     1 CellRange=     0.0.
 One-electron integrals computed using PRISM.
 One-electron integral symmetry used in STVInt
 NBasis=   232 RedAO= T EigKep=  4.72D-04  NBF=   232
 NBsUse=   232 1.00D-06 EigRej= -1.00D+00 NBFU=   232
 Precomputing XC quadrature grid using
 IXCGrd= 4 IRadAn=           5 IRanWt=          -1 IRanGd=           0 AccXCQ= 0.00D+00.
 Generated NRdTot=       0 NPtTot=           0 NUsed=           0 NTot=          32
 NSgBfM=   231   231   231   231   231 MxSgAt=    25 MxSgA2=    25.
 Leave Link  302 at Mon Oct 14 11:06:04 2019, MaxMem= 10737418240 cpu:               4.8 elap:               0.2
 (Enter /apps/cent7/gaussian/g16-A.03/g16-haswell/g16/l303.exe)
 DipDrv:  MaxL=1.
 Leave Link  303 at Mon Oct 14 11:06:04 2019, MaxMem= 10737418240 cpu:               0.9 elap:               0.1
 (Enter /apps/cent7/gaussian/g16-A.03/g16-haswell/g16/l401.exe)
 ExpMin= 1.61D-01 ExpMax= 5.48D+03 ExpMxC= 8.25D+02 IAcc=3 IRadAn=         5 AccDes= 0.00D+00
 Harris functional with IExCor=  402 and IRadAn=       5 diagonalized for initial guess.
 HarFok:  IExCor=  402 AccDes= 0.00D+00 IRadAn=         5 IDoV= 1 UseB2=F ITyADJ=14
 ICtDFT=  3500011 ScaDFX=  1.000000  1.000000  1.000000  1.000000
 FoFCou: FMM=F IPFlag=           0 FMFlag=      100000 FMFlg1=           0
         NFxFlg=           0 DoJE=T BraDBF=F KetDBF=T FulRan=T
         wScrn=  0.000000 ICntrl=       500 IOpCl=  0 I1Cent=   200000004 NGrid=           0
         NMat0=    1 NMatS0=      1 NMatT0=    0 NMatD0=    1 NMtDS0=    0 NMtDT0=    0
 Petite list used in FoFCou.
 Harris En= -576.973207445305    
 JPrj=0 DoOrth=F DoCkMO=F.
 Leave Link  401 at Mon Oct 14 11:06:04 2019, MaxMem= 10737418240 cpu:              11.3 elap:               0.5
 (Enter /apps/cent7/gaussian/g16-A.03/g16-haswell/g16/l502.exe)
 Integral symmetry usage will be decided dynamically.
 Closed shell SCF:
 Using DIIS extrapolation, IDIIS=  1040.
 NGot= 10737418240 LenX= 10737302425 LenY= 10737248160
 Requested convergence on RMS density matrix=1.00D-08 within 128 cycles.
 Requested convergence on MAX density matrix=1.00D-06.
 Requested convergence on             energy=1.00D-06.
 No special actions if energy rises.
 Fock matrices will be formed incrementally for  20 cycles.
 Integral accuracy reduced to 1.0D-05 until final iterations.

 Cycle   1  Pass 0  IDiag  1:
 FoFJK:  IHMeth= 1 ICntrl=       0 DoSepK=F KAlg= 0 I1Cent=           0 FoldK=F
 IRaf= 840000000 NMat=       1 IRICut=       1 DoRegI=T DoRafI=F ISym2E= 0 IDoP0=0 IntGTp=1.
 FoFCou: FMM=F IPFlag=           0 FMFlag=      100000 FMFlg1=           0
         NFxFlg=           0 DoJE=F BraDBF=F KetDBF=F FulRan=T
         wScrn=  0.000000 ICntrl=         0 IOpCl=  0 I1Cent=           0 NGrid=           0
         NMat0=    1 NMatS0=      1 NMatT0=    0 NMatD0=    1 NMtDS0=    0 NMtDT0=    0
 Symmetry not used in FoFCou.
 E= -576.668850380930    
 DIIS: error= 3.13D-02 at cycle   1 NSaved=   1.
 NSaved= 1 IEnMin= 1 EnMin= -576.668850380930     IErMin= 1 ErrMin= 3.13D-02
 ErrMax= 3.13D-02  0.00D+00 EMaxC= 1.00D-01 BMatC= 2.67D-01 BMatP= 2.67D-01
 IDIUse=3 WtCom= 6.87D-01 WtEn= 3.13D-01
 Coeff-Com:  0.100D+01
 Coeff-En:   0.100D+01
 Coeff:      0.100D+01
 Gap=     0.043 Goal=   None    Shift=    0.000
 GapD=    0.043 DampG=0.250 DampE=0.500 DampFc=0.2500 IDamp=-1.
 Damping current iteration by 2.50D-01
 RMSDP=6.59D-03 MaxDP=2.40D-01              OVMax= 5.32D-01

 Cycle   2  Pass 0  IDiag  1:
 RMSU=  1.63D-03    CP:  9.87D-01
 E= -576.757945141539     Delta-E=       -0.089094760609 Rises=F Damp=T
 DIIS: error= 1.69D-02 at cycle   2 NSaved=   2.
 NSaved= 2 IEnMin= 2 EnMin= -576.757945141539     IErMin= 2 ErrMin= 1.69D-02
 ErrMax= 1.69D-02  0.00D+00 EMaxC= 1.00D-01 BMatC= 6.56D-02 BMatP= 2.67D-01
 IDIUse=3 WtCom= 8.31D-01 WtEn= 1.69D-01
 Coeff-Com: -0.490D+00 0.149D+01
 Coeff-En:   0.000D+00 0.100D+01
 Coeff:     -0.408D+00 0.141D+01
 Gap=     0.118 Goal=   None    Shift=    0.000
 RMSDP=2.30D-03 MaxDP=5.95D-02 DE=-8.91D-02 OVMax= 4.78D-01

 Cycle   3  Pass 0  IDiag  1:
 RMSU=  2.23D-03    CP:  9.62D-01  1.03D+00
 E= -576.873530410339     Delta-E=       -0.115585268800 Rises=F Damp=F
 DIIS: error= 1.76D-02 at cycle   3 NSaved=   3.
 NSaved= 3 IEnMin= 3 EnMin= -576.873530410339     IErMin= 2 ErrMin= 1.69D-02
 ErrMax= 1.76D-02  0.00D+00 EMaxC= 1.00D-01 BMatC= 7.01D-02 BMatP= 6.56D-02
 IDIUse=3 WtCom= 8.24D-01 WtEn= 1.76D-01
 Coeff-Com: -0.413D+00 0.966D+00 0.447D+00
 Coeff-En:   0.000D+00 0.000D+00 0.100D+01
 Coeff:     -0.341D+00 0.797D+00 0.544D+00
 Gap=     0.129 Goal=   None    Shift=    0.000
 RMSDP=1.87D-03 MaxDP=4.90D-02 DE=-1.16D-01 OVMax= 1.90D-01

 Cycle   4  Pass 0  IDiag  1:
 RMSU=  1.11D-03    CP:  9.66D-01  1.56D+00  4.50D-01
 E= -576.939573216060     Delta-E=       -0.066042805721 Rises=F Damp=F
 DIIS: error= 7.97D-03 at cycle   4 NSaved=   4.
 NSaved= 4 IEnMin= 4 EnMin= -576.939573216060     IErMin= 4 ErrMin= 7.97D-03
 ErrMax= 7.97D-03  0.00D+00 EMaxC= 1.00D-01 BMatC= 1.56D-02 BMatP= 6.56D-02
 IDIUse=3 WtCom= 9.20D-01 WtEn= 7.97D-02
 Coeff-Com: -0.116D+00 0.262D+00 0.332D+00 0.522D+00
 Coeff-En:   0.000D+00 0.000D+00 0.216D+00 0.784D+00
 Coeff:     -0.107D+00 0.241D+00 0.323D+00 0.543D+00
 Gap=     0.129 Goal=   None    Shift=    0.000
 RMSDP=6.96D-04 MaxDP=1.86D-02 DE=-6.60D-02 OVMax= 6.58D-02

 Cycle   5  Pass 0  IDiag  1:
 RMSU=  2.89D-04    CP:  9.66D-01  1.37D+00  6.20D-01  6.36D-01
 E= -576.956210734350     Delta-E=       -0.016637518290 Rises=F Damp=F
 DIIS: error= 2.13D-03 at cycle   5 NSaved=   5.
 NSaved= 5 IEnMin= 5 EnMin= -576.956210734350     IErMin= 5 ErrMin= 2.13D-03
 ErrMax= 2.13D-03  0.00D+00 EMaxC= 1.00D-01 BMatC= 1.18D-03 BMatP= 1.56D-02
 IDIUse=3 WtCom= 9.79D-01 WtEn= 2.13D-02
 Coeff-Com: -0.249D-01 0.417D-01 0.112D+00 0.306D+00 0.566D+00
 Coeff-En:   0.000D+00 0.000D+00 0.000D+00 0.470D-01 0.953D+00
 Coeff:     -0.244D-01 0.408D-01 0.109D+00 0.300D+00 0.574D+00
 Gap=     0.133 Goal=   None    Shift=    0.000
 RMSDP=1.66D-04 MaxDP=4.25D-03 DE=-1.66D-02 OVMax= 1.39D-02

 Cycle   6  Pass 0  IDiag  1:
 RMSU=  9.46D-05    CP:  9.65D-01  1.40D+00  6.08D-01  6.91D-01  6.32D-01
 E= -576.957463338990     Delta-E=       -0.001252604640 Rises=F Damp=F
 DIIS: error= 3.79D-04 at cycle   6 NSaved=   6.
 NSaved= 6 IEnMin= 6 EnMin= -576.957463338990     IErMin= 6 ErrMin= 3.79D-04
 ErrMax= 3.79D-04  0.00D+00 EMaxC= 1.00D-01 BMatC= 6.74D-05 BMatP= 1.18D-03
 IDIUse=3 WtCom= 9.96D-01 WtEn= 3.79D-03
 Coeff-Com: -0.590D-02 0.526D-02 0.199D-01 0.873D-01 0.278D+00 0.616D+00
 Coeff-En:   0.000D+00 0.000D+00 0.000D+00 0.000D+00 0.000D+00 0.100D+01
 Coeff:     -0.587D-02 0.524D-02 0.198D-01 0.869D-01 0.277D+00 0.617D+00
 Gap=     0.132 Goal=   None    Shift=    0.000
 RMSDP=4.23D-05 MaxDP=1.45D-03 DE=-1.25D-03 OVMax= 3.58D-03

 Cycle   7  Pass 0  IDiag  1:
 RMSU=  2.80D-05    CP:  9.65D-01  1.41D+00  6.08D-01  6.90D-01  7.06D-01
                    CP:  7.61D-01
 E= -576.957522070341     Delta-E=       -0.000058731350 Rises=F Damp=F
 DIIS: error= 1.55D-04 at cycle   7 NSaved=   7.
 NSaved= 7 IEnMin= 7 EnMin= -576.957522070341     IErMin= 7 ErrMin= 1.55D-04
 ErrMax= 1.55D-04  0.00D+00 EMaxC= 1.00D-01 BMatC= 1.29D-05 BMatP= 6.74D-05
 IDIUse=3 WtCom= 9.98D-01 WtEn= 1.55D-03
 Coeff-Com: -0.209D-02 0.609D-03-0.473D-04 0.197D-01 0.114D+00 0.386D+00
 Coeff-Com:  0.482D+00
 Coeff-En:   0.000D+00 0.000D+00 0.000D+00 0.000D+00 0.000D+00 0.861D-01
 Coeff-En:   0.914D+00
 Coeff:     -0.208D-02 0.608D-03-0.473D-04 0.196D-01 0.114D+00 0.386D+00
 Coeff:      0.483D+00
 Gap=     0.132 Goal=   None    Shift=    0.000
 RMSDP=1.56D-05 MaxDP=6.61D-04 DE=-5.87D-05 OVMax= 1.17D-03

 Cycle   8  Pass 0  IDiag  1:
 RMSU=  8.51D-06    CP:  9.65D-01  1.41D+00  6.08D-01  6.94D-01  6.99D-01
                    CP:  7.88D-01  5.76D-01
 E= -576.957533695089     Delta-E=       -0.000011624748 Rises=F Damp=F
 DIIS: error= 2.73D-05 at cycle   8 NSaved=   8.
 NSaved= 8 IEnMin= 8 EnMin= -576.957533695089     IErMin= 8 ErrMin= 2.73D-05
 ErrMax= 2.73D-05  0.00D+00 EMaxC= 1.00D-01 BMatC= 3.80D-07 BMatP= 1.29D-05
 IDIUse=1 WtCom= 1.00D+00 WtEn= 0.00D+00
 Coeff-Com: -0.422D-03-0.445D-04-0.261D-02-0.163D-02 0.205D-01 0.103D+00
 Coeff-Com:  0.191D+00 0.691D+00
 Coeff:     -0.422D-03-0.445D-04-0.261D-02-0.163D-02 0.205D-01 0.103D+00
 Coeff:      0.191D+00 0.691D+00
 Gap=     0.132 Goal=   None    Shift=    0.000
 RMSDP=4.20D-06 MaxDP=9.91D-05 DE=-1.16D-05 OVMax= 2.71D-04

 Initial convergence to 1.0D-05 achieved.  Increase integral accuracy.
 Cycle   9  Pass 1  IDiag  1:
 E= -576.957548795917     Delta-E=       -0.000015100828 Rises=F Damp=F
 DIIS: error= 4.29D-05 at cycle   1 NSaved=   1.
 NSaved= 1 IEnMin= 1 EnMin= -576.957548795917     IErMin= 1 ErrMin= 4.29D-05
 ErrMax= 4.29D-05  0.00D+00 EMaxC= 1.00D-01 BMatC= 4.08D-07 BMatP= 4.08D-07
 IDIUse=1 WtCom= 1.00D+00 WtEn= 0.00D+00
 Coeff-Com:  0.100D+01
 Coeff:      0.100D+01
 Gap=     0.132 Goal=   None    Shift=    0.000
 RMSDP=4.20D-06 MaxDP=9.91D-05 DE=-1.51D-05 OVMax= 3.44D-04

 Cycle  10  Pass 1  IDiag  1:
 RMSU=  3.35D-05    CP:  1.00D+00
 E= -576.957548751166     Delta-E=        0.000000044751 Rises=F Damp=F
 DIIS: error= 2.75D-05 at cycle   2 NSaved=   2.
 NSaved= 2 IEnMin= 1 EnMin= -576.957548795917     IErMin= 2 ErrMin= 2.75D-05
 ErrMax= 2.75D-05  0.00D+00 EMaxC= 1.00D-01 BMatC= 4.06D-07 BMatP= 4.08D-07
 IDIUse=1 WtCom= 1.00D+00 WtEn= 0.00D+00
 Coeff-Com:  0.499D+00 0.501D+00
 Coeff:      0.499D+00 0.501D+00
 Gap=     0.132 Goal=   None    Shift=    0.000
 RMSDP=3.94D-06 MaxDP=1.23D-04 DE= 4.48D-08 OVMax= 3.14D-04

 Cycle  11  Pass 1  IDiag  1:
 RMSU=  3.92D-06    CP:  1.00D+00  9.89D-01
 E= -576.957549093967     Delta-E=       -0.000000342801 Rises=F Damp=F
 DIIS: error= 1.31D-05 at cycle   3 NSaved=   3.
 NSaved= 3 IEnMin= 3 EnMin= -576.957549093967     IErMin= 3 ErrMin= 1.31D-05
 ErrMax= 1.31D-05  0.00D+00 EMaxC= 1.00D-01 BMatC= 8.17D-08 BMatP= 4.06D-07
 IDIUse=1 WtCom= 1.00D+00 WtEn= 0.00D+00
 Coeff-Com:  0.271D-01 0.307D+00 0.666D+00
 Coeff:      0.271D-01 0.307D+00 0.666D+00
 Gap=     0.132 Goal=   None    Shift=    0.000
 RMSDP=1.53D-06 MaxDP=3.79D-05 DE=-3.43D-07 OVMax= 1.12D-04

 Cycle  12  Pass 1  IDiag  1:
 RMSU=  6.70D-07    CP:  1.00D+00  1.00D+00  6.62D-01
 E= -576.957549174879     Delta-E=       -0.000000080912 Rises=F Damp=F
 DIIS: error= 5.39D-06 at cycle   4 NSaved=   4.
 NSaved= 4 IEnMin= 4 EnMin= -576.957549174879     IErMin= 4 ErrMin= 5.39D-06
 ErrMax= 5.39D-06  0.00D+00 EMaxC= 1.00D-01 BMatC= 9.20D-09 BMatP= 8.17D-08
 IDIUse=1 WtCom= 1.00D+00 WtEn= 0.00D+00
 Coeff-Com: -0.309D-02 0.175D+00 0.423D+00 0.405D+00
 Coeff:     -0.309D-02 0.175D+00 0.423D+00 0.405D+00
 Gap=     0.132 Goal=   None    Shift=    0.000
 RMSDP=4.47D-07 MaxDP=1.30D-05 DE=-8.09D-08 OVMax= 4.13D-05

 Cycle  13  Pass 1  IDiag  1:
 RMSU=  1.19D-07    CP:  1.00D+00  1.00D+00  6.95D-01  3.87D-01
 E= -576.957549184664     Delta-E=       -0.000000009785 Rises=F Damp=F
 DIIS: error= 1.14D-06 at cycle   5 NSaved=   5.
 NSaved= 5 IEnMin= 5 EnMin= -576.957549184664     IErMin= 5 ErrMin= 1.14D-06
 ErrMax= 1.14D-06  0.00D+00 EMaxC= 1.00D-01 BMatC= 2.17D-10 BMatP= 9.20D-09
 IDIUse=1 WtCom= 1.00D+00 WtEn= 0.00D+00
 Coeff-Com: -0.240D-02 0.105D+00 0.256D+00 0.261D+00 0.381D+00
 Coeff:     -0.240D-02 0.105D+00 0.256D+00 0.261D+00 0.381D+00
 Gap=     0.132 Goal=   None    Shift=    0.000
 RMSDP=7.53D-08 MaxDP=1.80D-06 DE=-9.79D-09 OVMax= 6.88D-06

 Cycle  14  Pass 1  IDiag  1:
 RMSU=  4.52D-08    CP:  1.00D+00  1.00D+00  6.94D-01  4.19D-01  5.31D-01
 E= -576.957549184909     Delta-E=       -0.000000000246 Rises=F Damp=F
 DIIS: error= 1.66D-07 at cycle   6 NSaved=   6.
 NSaved= 6 IEnMin= 6 EnMin= -576.957549184909     IErMin= 6 ErrMin= 1.66D-07
 ErrMax= 1.66D-07  0.00D+00 EMaxC= 1.00D-01 BMatC= 8.04D-12 BMatP= 2.17D-10
 IDIUse=1 WtCom= 1.00D+00 WtEn= 0.00D+00
 Coeff-Com: -0.952D-03 0.375D-01 0.927D-01 0.100D+00 0.204D+00 0.566D+00
 Coeff:     -0.952D-03 0.375D-01 0.927D-01 0.100D+00 0.204D+00 0.566D+00
 Gap=     0.132 Goal=   None    Shift=    0.000
 RMSDP=1.77D-08 MaxDP=6.23D-07 DE=-2.46D-10 OVMax= 1.82D-06

 Cycle  15  Pass 1  IDiag  1:
 RMSU=  1.19D-08    CP:  1.00D+00  1.00D+00  6.94D-01  4.19D-01  6.06D-01
                    CP:  7.91D-01
 E= -576.957549184916     Delta-E=       -0.000000000007 Rises=F Damp=F
 DIIS: error= 5.69D-08 at cycle   7 NSaved=   7.
 NSaved= 7 IEnMin= 7 EnMin= -576.957549184916     IErMin= 7 ErrMin= 5.69D-08
 ErrMax= 5.69D-08  0.00D+00 EMaxC= 1.00D-01 BMatC= 1.67D-12 BMatP= 8.04D-12
 IDIUse=1 WtCom= 1.00D+00 WtEn= 0.00D+00
 Coeff-Com: -0.196D-03 0.550D-02 0.144D-01 0.202D-01 0.676D-01 0.354D+00
 Coeff-Com:  0.539D+00
 Coeff:     -0.196D-03 0.550D-02 0.144D-01 0.202D-01 0.676D-01 0.354D+00
 Coeff:      0.539D+00
 Gap=     0.132 Goal=   None    Shift=    0.000
 RMSDP=6.92D-09 MaxDP=2.59D-07 DE=-7.28D-12 OVMax= 5.63D-07

 SCF Done:  E(RB3LYP) =  -576.957549185     A.U. after   15 cycles
            NFock= 15  Conv=0.69D-08     -V/T= 2.0103
 KE= 5.710860304483D+02 PE=-2.877211861854D+03 EE= 9.518974062243D+02
 Leave Link  502 at Mon Oct 14 11:06:10 2019, MaxMem= 10737418240 cpu:             130.2 elap:               5.5
 (Enter /apps/cent7/gaussian/g16-A.03/g16-haswell/g16/l601.exe)
 Copying SCF densities to generalized density rwf, IOpCl= 0 IROHF=0.

 **********************************************************************

            Population analysis using the SCF density.

 **********************************************************************

 Orbital symmetries:
       Occupied  (A) (A) (A) (A) (A) (A) (A) (A) (A) (A) (A) (A)
                 (A) (A) (A) (A) (A) (A) (A) (A) (A) (A) (A) (A)
                 (A) (A) (A) (A) (A) (A) (A) (A) (A) (A) (A) (A)
                 (A) (A) (A) (A) (A) (A) (A) (A) (A) (A) (A) (A)
       Virtual   (A) (A) (A) (A) (A) (A) (A) (A) (A) (A) (A) (A)
                 (A) (A) (A) (A) (A) (A) (A) (A) (A) (A) (A) (A)
                 (A) (A) (A) (A) (A) (A) (A) (A) (A) (A) (A) (A)
                 (A) (A) (A) (A) (A) (A) (A) (A) (A) (A) (A) (A)
                 (A) (A) (A) (A) (A) (A) (A) (A) (A) (A) (A) (A)
                 (A) (A) (A) (A) (A) (A) (A) (A) (A) (A) (A) (A)
                 (A) (A) (A) (A) (A) (A) (A) (A) (A) (A) (A) (A)
                 (A) (A) (A) (A) (A) (A) (A) (A) (A) (A) (A) (A)
                 (A) (A) (A) (A) (A) (A) (A) (A) (A) (A) (A) (A)
                 (A) (A) (A) (A) (A) (A) (A) (A) (A) (A) (A) (A)
                 (A) (A) (A) (A) (A) (A) (A) (A) (A) (A) (A) (A)
                 (A) (A) (A) (A) (A) (A) (A) (A) (A) (A) (A) (A)
                 (A) (A) (A) (A) (A) (A) (A) (A) (A) (A) (A) (A)
                 (A) (A) (A) (A) (A) (A) (A) (A) (A) (A) (A) (A)
                 (A) (A) (A) (A) (A) (A) (A) (A) (A) (A) (A) (A)
                 (A) (A) (A) (A)
 The electronic state is 1-A.
 Alpha  occ. eigenvalues --  -19.39810 -10.49615 -10.37899 -10.37482 -10.36659
 Alpha  occ. eigenvalues --  -10.36039 -10.35854 -10.35501 -10.34864 -10.34670
 Alpha  occ. eigenvalues --  -10.34656 -10.34372 -10.33934 -10.33843  -1.31564
 Alpha  occ. eigenvalues --   -1.01592  -1.00573  -0.94907  -0.91449  -0.89645
 Alpha  occ. eigenvalues --   -0.89018  -0.86155  -0.79218  -0.76744  -0.75786
 Alpha  occ. eigenvalues --   -0.74684  -0.70500  -0.68618  -0.64703  -0.64115
 Alpha  occ. eigenvalues --   -0.63384  -0.59922  -0.59775  -0.58871  -0.58596
 Alpha  occ. eigenvalues --   -0.56819  -0.56116  -0.54775  -0.51774  -0.51207
 Alpha  occ. eigenvalues --   -0.51024  -0.50108  -0.49322  -0.48620  -0.42106
 Alpha  occ. eigenvalues --   -0.40918  -0.40298  -0.39572
 Alpha virt. eigenvalues --   -0.26349  -0.17161  -0.15922  -0.14815  -0.12438
 Alpha virt. eigenvalues --   -0.09234  -0.03937  -0.03284  -0.01038   0.00912
 Alpha virt. eigenvalues --    0.01207   0.01500   0.01925   0.02637   0.04514
 Alpha virt. eigenvalues --    0.05736   0.06359   0.06568   0.07005   0.10944
 Alpha virt. eigenvalues --    0.11774   0.14046   0.15247   0.15836   0.16437
 Alpha virt. eigenvalues --    0.17521   0.18446   0.21828   0.25247   0.30082
 Alpha virt. eigenvalues --    0.31606   0.34447   0.36905   0.37588   0.38471
 Alpha virt. eigenvalues --    0.38847   0.39272   0.40111   0.40844   0.41606
 Alpha virt. eigenvalues --    0.43343   0.44669   0.44938   0.45293   0.45521
 Alpha virt. eigenvalues --    0.46094   0.46162   0.46717   0.46822   0.47326
 Alpha virt. eigenvalues --    0.48289   0.49023   0.50256   0.51041   0.52163
 Alpha virt. eigenvalues --    0.52607   0.56471   0.58946   0.61523   0.62717
 Alpha virt. eigenvalues --    0.63330   0.66040   0.67271   0.68327   0.69477
 Alpha virt. eigenvalues --    0.69983   0.70222   0.70503   0.71872   0.72856
 Alpha virt. eigenvalues --    0.74315   0.77204   0.77499   0.79387   0.80326
 Alpha virt. eigenvalues --    0.81816   0.82157   0.85049   0.85350   0.86404
 Alpha virt. eigenvalues --    0.89396   0.91129   0.94236   0.94863   0.95984
 Alpha virt. eigenvalues --    0.98676   1.00488   1.02385   1.02862   1.04958
 Alpha virt. eigenvalues --    1.07032   1.07716   1.11466   1.13136   1.20674
 Alpha virt. eigenvalues --    1.22647   1.26754   1.27264   1.28103   1.29390
 Alpha virt. eigenvalues --    1.30923   1.32063   1.32787   1.33528   1.34052
 Alpha virt. eigenvalues --    1.35126   1.36056   1.36681   1.37912   1.46825
 Alpha virt. eigenvalues --    1.52908   1.57257   1.58170   1.60859   1.61854
 Alpha virt. eigenvalues --    1.64304   1.66382   1.69879   1.73728   1.74593
 Alpha virt. eigenvalues --    1.75499   1.75624   1.81060   1.81644   1.82520
 Alpha virt. eigenvalues --    1.86619   1.87236   1.88104   1.90016   1.94476
 Alpha virt. eigenvalues --    1.95800   1.95913   1.96779   1.97624   1.98915
 Alpha virt. eigenvalues --    2.00924   2.07645   2.08099   2.09460   2.10741
 Alpha virt. eigenvalues --    2.12401   2.13757   2.15373   2.16785   2.18912
 Alpha virt. eigenvalues --    2.22674   2.25842   2.32763   2.39339   2.40887
 Alpha virt. eigenvalues --    2.41259   2.42217   2.45417   2.46778   2.47665
 Alpha virt. eigenvalues --    2.53079   2.53868   2.56717   2.57438   2.57896
 Alpha virt. eigenvalues --    2.59817   2.63942   2.66284   2.70517   2.77094
 Alpha virt. eigenvalues --    2.79062   2.95417   3.01126   3.21031   3.22796
 Alpha virt. eigenvalues --    3.77897   3.89096   3.91974   3.95166   3.95666
 Alpha virt. eigenvalues --    3.96073   3.97532   4.09277   4.17324   4.17977
 Alpha virt. eigenvalues --    4.19647   4.31363   4.50170   4.57850
          Condensed to atoms (all electrons):
               1          2          3          4          5          6
     1  O    8.016127   0.370717  -0.084482   0.001364  -0.000070  -0.000007
     2  C    0.370717   4.823514   0.324400  -0.041870   0.005315   0.000103
     3  C   -0.084482   0.324400   4.961377   0.518227  -0.021356  -0.027630
     4  C    0.001364  -0.041870   0.518227   4.930125   0.522489  -0.032398
     5  C   -0.000070   0.005315  -0.021356   0.522489   4.852578   0.533773
     6  C   -0.000007   0.000103  -0.027630  -0.032398   0.533773   4.825943
     7  C    0.000609   0.004395  -0.030178  -0.040007  -0.031041   0.536388
     8  C   -0.005479  -0.022806   0.444274  -0.038144  -0.043487  -0.032383
     9  C   -0.074145   0.362301  -0.068903  -0.002606   0.000136   0.000006
    10  C    0.001426  -0.050413  -0.004272   0.000415  -0.000012  -0.000002
    11  C   -0.000047   0.005810   0.000181   0.000002  -0.000001  -0.000000
    12  C   -0.000002  -0.000046   0.000004  -0.000001  -0.000000   0.000000
    13  C    0.000334   0.004031  -0.000084  -0.000002  -0.000000  -0.000000
    14  C   -0.003831  -0.029961   0.005739   0.000035   0.000002   0.000000
    15  H    0.000035  -0.005612  -0.047136   0.362245  -0.033481   0.004419
    16  H    0.000000  -0.000107   0.002997  -0.032835   0.365474  -0.036703
    17  H    0.000000   0.000003   0.000579   0.004148  -0.036138   0.362341
    18  H    0.000002  -0.000130   0.003160   0.000625   0.003924  -0.035055
    19  H    0.000240  -0.001629  -0.066829   0.004185   0.000530   0.004095
    20  H    0.000027  -0.006346   0.003099   0.001187   0.000017  -0.000002
    21  H    0.000000  -0.000116  -0.000001  -0.000001   0.000000   0.000000
    22  H    0.000000   0.000006  -0.000000  -0.000000   0.000000  -0.000000
    23  H   -0.000001  -0.000119   0.000001   0.000000   0.000000   0.000000
    24  H    0.004910  -0.009240   0.000122  -0.000009   0.000000   0.000000
    25  H    0.241384  -0.023594  -0.008039   0.000143  -0.000024  -0.000000
               7          8          9         10         11         12
     1  O    0.000609  -0.005479  -0.074145   0.001426  -0.000047  -0.000002
     2  C    0.004395  -0.022806   0.362301  -0.050413   0.005810  -0.000046
     3  C   -0.030178   0.444274  -0.068903  -0.004272   0.000181   0.000004
     4  C   -0.040007  -0.038144  -0.002606   0.000415   0.000002  -0.000001
     5  C   -0.031041  -0.043487   0.000136  -0.000012  -0.000001  -0.000000
     6  C    0.536388  -0.032383   0.000006  -0.000002  -0.000000   0.000000
     7  C    4.824995   0.536533  -0.000045  -0.000002  -0.000000   0.000000
     8  C    0.536533   5.020453   0.004520   0.000187   0.000001   0.000000
     9  C   -0.000045   0.004520   4.871884   0.509679  -0.019448  -0.029132
    10  C   -0.000002   0.000187   0.509679   4.962557   0.523255  -0.029844
    11  C   -0.000000   0.000001  -0.019448   0.523255   4.856097   0.529400
    12  C    0.000000   0.000000  -0.029132  -0.029844   0.529400   4.834414
    13  C   -0.000000   0.000001  -0.021745  -0.042094  -0.031359   0.524760
    14  C    0.000000  -0.000137   0.455082  -0.047122  -0.042204  -0.028855
    15  H    0.000373   0.004743   0.002351   0.000836   0.000008  -0.000001
    16  H    0.004118   0.000557  -0.000001  -0.000001   0.000000   0.000000
    17  H   -0.036402   0.004601  -0.000000  -0.000000   0.000000  -0.000000
    18  H    0.364266  -0.034233   0.000001  -0.000000   0.000000   0.000000
    19  H   -0.020944   0.349063   0.000150  -0.000003  -0.000000   0.000000
    20  H   -0.000005  -0.000032  -0.045326   0.359338  -0.034101   0.004444
    21  H    0.000000  -0.000000   0.002916  -0.032978   0.365789  -0.036764
    22  H   -0.000000   0.000000   0.000600   0.004135  -0.036057   0.362007
    23  H    0.000000  -0.000000   0.003067   0.000552   0.004015  -0.036941
    24  H    0.000000   0.000002  -0.046561   0.004970   0.000305   0.004417
    25  H   -0.000117   0.016851   0.007333  -0.000161   0.000003   0.000000
              13         14         15         16         17         18
     1  O    0.000334  -0.003831   0.000035   0.000000   0.000000   0.000002
     2  C    0.004031  -0.029961  -0.005612  -0.000107   0.000003  -0.000130
     3  C   -0.000084   0.005739  -0.047136   0.002997   0.000579   0.003160
     4  C   -0.000002   0.000035   0.362245  -0.032835   0.004148   0.000625
     5  C   -0.000000   0.000002  -0.033481   0.365474  -0.036138   0.003924
     6  C   -0.000000   0.000000   0.004419  -0.036703   0.362341  -0.035055
     7  C   -0.000000   0.000000   0.000373   0.004118  -0.036402   0.364266
     8  C    0.000001  -0.000137   0.004743   0.000557   0.004601  -0.034233
     9  C   -0.021745   0.455082   0.002351  -0.000001  -0.000000   0.000001
    10  C   -0.042094  -0.047122   0.000836  -0.000001  -0.000000  -0.000000
    11  C   -0.031359  -0.042204   0.000008   0.000000   0.000000   0.000000
    12  C    0.524760  -0.028855  -0.000001   0.000000  -0.000000   0.000000
    13  C    4.848630   0.532617  -0.000003   0.000000  -0.000000   0.000000
    14  C    0.532617   4.971904  -0.000034  -0.000000   0.000000  -0.000000
    15  H   -0.000003  -0.000034   0.534729  -0.004772  -0.000137   0.000011
    16  H    0.000000  -0.000000  -0.004772   0.511903  -0.004170  -0.000151
    17  H   -0.000000   0.000000  -0.000137  -0.004170   0.511807  -0.004123
    18  H    0.000000  -0.000000   0.000011  -0.000151  -0.004123   0.513600
    19  H   -0.000000  -0.000002  -0.000160   0.000013  -0.000153  -0.004948
    20  H    0.000298   0.004966   0.000046  -0.000001  -0.000000  -0.000000
    21  H    0.004054   0.000577  -0.000000   0.000000   0.000000  -0.000000
    22  H   -0.035956   0.004090  -0.000000   0.000000  -0.000000   0.000000
    23  H    0.366216  -0.033590  -0.000000  -0.000000   0.000000  -0.000000
    24  H   -0.033361   0.362776  -0.000000  -0.000000  -0.000000  -0.000000
    25  H    0.000010  -0.000103  -0.000007   0.000000  -0.000000   0.000001
              19         20         21         22         23         24
     1  O    0.000240   0.000027   0.000000   0.000000  -0.000001   0.004910
     2  C   -0.001629  -0.006346  -0.000116   0.000006  -0.000119  -0.009240
     3  C   -0.066829   0.003099  -0.000001  -0.000000   0.000001   0.000122
     4  C    0.004185   0.001187  -0.000001  -0.000000   0.000000  -0.000009
     5  C    0.000530   0.000017   0.000000   0.000000   0.000000   0.000000
     6  C    0.004095  -0.000002   0.000000  -0.000000   0.000000   0.000000
     7  C   -0.020944  -0.000005   0.000000  -0.000000   0.000000   0.000000
     8  C    0.349063  -0.000032  -0.000000   0.000000  -0.000000   0.000002
     9  C    0.000150  -0.045326   0.002916   0.000600   0.003067  -0.046561
    10  C   -0.000003   0.359338  -0.032978   0.004135   0.000552   0.004970
    11  C   -0.000000  -0.034101   0.365789  -0.036057   0.004015   0.000305
    12  C    0.000000   0.004444  -0.036764   0.362007  -0.036941   0.004417
    13  C   -0.000000   0.000298   0.004054  -0.035956   0.366216  -0.033361
    14  C   -0.000002   0.004966   0.000577   0.004090  -0.033590   0.362776
    15  H   -0.000160   0.000046  -0.000000  -0.000000  -0.000000  -0.000000
    16  H    0.000013  -0.000001   0.000000   0.000000  -0.000000  -0.000000
    17  H   -0.000153  -0.000000   0.000000  -0.000000   0.000000  -0.000000
    18  H   -0.004948  -0.000000  -0.000000   0.000000  -0.000000  -0.000000
    19  H    0.568203   0.000004   0.000000  -0.000000   0.000000   0.000000
    20  H    0.000004   0.539619  -0.004808  -0.000138   0.000011  -0.000142
    21  H    0.000000  -0.004808   0.514531  -0.004143  -0.000152   0.000011
    22  H   -0.000000  -0.000138  -0.004143   0.512309  -0.004061  -0.000138
    23  H    0.000000   0.000011  -0.000152  -0.004061   0.513922  -0.004863
    24  H    0.000000  -0.000142   0.000011  -0.000138  -0.004863   0.529960
    25  H    0.009122  -0.000003  -0.000000   0.000000  -0.000000  -0.000204
              25
     1  O    0.241384
     2  C   -0.023594
     3  C   -0.008039
     4  C    0.000143
     5  C   -0.000024
     6  C   -0.000000
     7  C   -0.000117
     8  C    0.016851
     9  C    0.007333
    10  C   -0.000161
    11  C    0.000003
    12  C    0.000000
    13  C    0.000010
    14  C   -0.000103
    15  H   -0.000007
    16  H    0.000000
    17  H   -0.000000
    18  H    0.000001
    19  H    0.009122
    20  H   -0.000003
    21  H   -0.000000
    22  H    0.000000
    23  H   -0.000000
    24  H   -0.000204
    25  H    0.287470
 Mulliken charges:
               1
     1  O   -0.469110
     2  C    0.291394
     3  C    0.094751
     4  C   -0.157318
     5  C   -0.118628
     6  C   -0.102889
     7  C   -0.112938
     8  C   -0.205085
     9  C    0.087888
    10  C   -0.160447
    11  C   -0.121649
    12  C   -0.097862
    13  C   -0.116348
    14  C   -0.151950
    15  H    0.181548
    16  H    0.193677
    17  H    0.197645
    18  H    0.193051
    19  H    0.159063
    20  H    0.177850
    21  H    0.191086
    22  H    0.197347
    23  H    0.191943
    24  H    0.187045
    25  H    0.469937
 Sum of Mulliken charges =   1.00000
 Mulliken charges with hydrogens summed into heavy atoms:
               1
     1  O    0.000827
     2  C    0.291394
     3  C    0.094751
     4  C    0.024231
     5  C    0.075049
     6  C    0.094756
     7  C    0.080113
     8  C   -0.046022
     9  C    0.087888
    10  C    0.017403
    11  C    0.069437
    12  C    0.099485
    13  C    0.075595
    14  C    0.035094
 Electronic spatial extent (au):  <R**2>=           3321.2918
 Charge=              1.0000 electrons
 Dipole moment (field-independent basis, Debye):
    X=             -0.9623    Y=              0.9322    Z=             -0.3489  Tot=              1.3845
 Quadrupole moment (field-independent basis, Debye-Ang):
   XX=            -26.1718   YY=            -61.6135   ZZ=            -75.7413
   XY=             -2.8154   XZ=              2.4600   YZ=             -1.4789
 Traceless Quadrupole moment (field-independent basis, Debye-Ang):
   XX=             28.3371   YY=             -7.1046   ZZ=            -21.2325
   XY=             -2.8154   XZ=              2.4600   YZ=             -1.4789
 Octapole moment (field-independent basis, Debye-Ang**2):
  XXX=              5.2501  YYY=             21.9421  ZZZ=              1.0276  XYY=             -7.2504
  XXY=            -27.1181  XXZ=             -2.9235  XZZ=             -4.0699  YZZ=              1.6454
  YYZ=             -2.9385  XYZ=             26.9662
 Hexadecapole moment (field-independent basis, Debye-Ang**3):
 XXXX=          -2485.8211 YYYY=           -518.1901 ZZZZ=           -259.1362 XXXY=             15.4990
 XXXZ=             78.1252 YYYX=            -29.9462 YYYZ=             -5.8958 ZZZX=              4.5694
 ZZZY=             -4.2384 XXYY=           -596.4090 XXZZ=           -628.5801 YYZZ=           -123.5789
 XXYZ=             -1.4878 YYXZ=            -15.7732 ZZXY=              0.5652
 N-N= 7.772708759966D+02 E-N=-2.877211864776D+03  KE= 5.710860304483D+02
 No NMR shielding tensors so no spin-rotation constants.
 Leave Link  601 at Mon Oct 14 11:06:10 2019, MaxMem= 10737418240 cpu:               2.4 elap:               0.1
 (Enter /apps/cent7/gaussian/g16-A.03/g16-haswell/g16/l701.exe)
 ... and contract with generalized density number  0.
 Compute integral first derivatives.
 Leave Link  701 at Mon Oct 14 11:06:10 2019, MaxMem= 10737418240 cpu:               2.7 elap:               0.1
 (Enter /apps/cent7/gaussian/g16-A.03/g16-haswell/g16/l702.exe)
 L702 exits ... SP integral derivatives will be done elsewhere.
 Leave Link  702 at Mon Oct 14 11:06:10 2019, MaxMem= 10737418240 cpu:               0.7 elap:               0.0
 (Enter /apps/cent7/gaussian/g16-A.03/g16-haswell/g16/l703.exe)
 Integral derivatives from FoFJK, PRISM(SPDF).
 Compute integral first derivatives, UseDBF=F ICtDFT=           0.
 Calling FoFJK, ICntrl=      2127 FMM=F ISym2X=0 I1Cent= 0 IOpClX= 0 NMat=1 NMatS=1 NMatT=0.
 FoFJK:  IHMeth= 1 ICntrl=    2127 DoSepK=F KAlg= 0 I1Cent=           0 FoldK=F
 IRaf=         0 NMat=       1 IRICut=       1 DoRegI=T DoRafI=F ISym2E= 0 IDoP0=0 IntGTp=1.
 FoFCou: FMM=F IPFlag=           0 FMFlag=      100000 FMFlg1=         800
         NFxFlg=           0 DoJE=F BraDBF=F KetDBF=F FulRan=T
         wScrn=  0.000000 ICntrl=      2127 IOpCl=  0 I1Cent=           0 NGrid=           0
         NMat0=    1 NMatS0=      1 NMatT0=    0 NMatD0=    1 NMtDS0=    0 NMtDT0=    0
 Symmetry not used in FoFCou.
 Leave Link  703 at Mon Oct 14 11:06:12 2019, MaxMem= 10737418240 cpu:              34.5 elap:               1.5
 (Enter /apps/cent7/gaussian/g16-A.03/g16-haswell/g16/l716.exe)
 Dipole        =-3.78587584D-01 3.66761688D-01-1.37266640D-01
 ***** Axes restored to original set *****
 -------------------------------------------------------------------
 Center     Atomic                   Forces (Hartrees/Bohr)
 Number     Number              X              Y              Z
 -------------------------------------------------------------------
      1        8          -0.056190817    0.029322114    0.045032730
      2        6           0.025763359   -0.034531705   -0.023035198
      3        6           0.040520808   -0.012316314   -0.007418110
      4        6          -0.005905160   -0.013962827   -0.003979651
      5        6          -0.009445094    0.000635092    0.005510473
      6        6          -0.004022041   -0.001420227    0.000640214
      7        6          -0.012582313   -0.002753520    0.002322997
      8        6          -0.001046160    0.007910368    0.001029594
      9        6          -0.018153211   -0.015418096   -0.015336501
     10        6           0.014717921   -0.005038438   -0.008327773
     11        6           0.007351347    0.010291124    0.001220315
     12        6           0.002590583    0.002812263    0.000086739
     13        6           0.011260073    0.009407585    0.000222572
     14        6          -0.010574179    0.006367929    0.005373724
     15        1           0.000270465    0.001135404    0.001694770
     16        1          -0.003996647    0.000483130    0.002465796
     17        1          -0.002784210   -0.000847634    0.001263135
     18        1          -0.003905389   -0.002136283   -0.000056670
     19        1           0.002884305   -0.002355939    0.001951667
     20        1          -0.001443594    0.000890534    0.000416420
     21        1           0.001689436    0.004532482    0.000750660
     22        1           0.002005465    0.002202758   -0.000217552
     23        1           0.004143415    0.002022396   -0.000518591
     24        1           0.002222294   -0.002132994   -0.000831435
     25        1           0.014629345    0.014900797   -0.010260325
 -------------------------------------------------------------------
 Cartesian Forces:  Max     0.056190817 RMS     0.013301828
 Leave Link  716 at Mon Oct 14 11:06:12 2019, MaxMem= 10737418240 cpu:               0.6 elap:               0.0
 (Enter /apps/cent7/gaussian/g16-A.03/g16-haswell/g16/l103.exe)

 GradGradGradGradGradGradGradGradGradGradGradGradGradGradGradGradGradGrad
 Berny optimization.
 FormGI is forming the generalized inverse of G from B-inverse, IUseBI=4.
 Internal  Forces:  Max     0.067709539 RMS     0.010851171
 Search for a local minimum.
 Step number   1 out of a maximum of  134
 All quantities printed in internal units (Hartrees-Bohrs-Radians)
 RMS Force = .10851D-01 SwitMx=.10000D-02 MixMth= 1
 Mixed Optimization -- RFO/linear search
 Second derivative matrix not updated -- first step.
 ITU=  0
     Eigenvalues ---    0.01219   0.01220   0.01528   0.01566   0.01566
     Eigenvalues ---    0.01756   0.01756   0.01830   0.01830   0.01877
     Eigenvalues ---    0.01877   0.01957   0.01957   0.02035   0.02035
     Eigenvalues ---    0.02045   0.02045   0.02070   0.02070   0.02097
     Eigenvalues ---    0.02097   0.03569   0.16000   0.16000   0.16000
     Eigenvalues ---    0.16000   0.16000   0.16000   0.16000   0.16000
     Eigenvalues ---    0.16000   0.16000   0.16000   0.22000   0.22000
     Eigenvalues ---    0.22000   0.22000   0.23435   0.23435   0.25000
     Eigenvalues ---    0.25000   0.25000   0.25000   0.34806   0.34808
     Eigenvalues ---    0.34810   0.34812   0.34813   0.34814   0.34814
     Eigenvalues ---    0.34816   0.34821   0.34824   0.36253   0.36261
     Eigenvalues ---    0.38887   0.38889   0.39655   0.39668   0.42466
     Eigenvalues ---    0.42466   0.44402   0.44409   0.44425   0.44428
     Eigenvalues ---    0.45519   0.45520   0.55473   0.80307
 RFO step:  Lambda=-4.21142546D-02 EMin= 1.21893320D-02
 Linear search not attempted -- first point.
 Maximum step size (   0.300) exceeded in Quadratic search.
    -- Step size scaled by   0.931
 Iteration  1 RMS(Cart)=  0.21086354 RMS(Int)=  0.00568871
 Iteration  2 RMS(Cart)=  0.01310637 RMS(Int)=  0.00030771
 Iteration  3 RMS(Cart)=  0.00004196 RMS(Int)=  0.00030703
 Iteration  4 RMS(Cart)=  0.00000000 RMS(Int)=  0.00030703
 ITry= 1 IFail=0 DXMaxC= 6.34D-01 DCOld= 1.00D+10 DXMaxT= 3.00D-01 DXLimC= 3.00D+00 Rises=F
 Variable       Old X    -DE/DX   Delta X   Delta X   Delta X     New X
                                 (Linear)    (Quad)   (Total)
    R1        2.37750   0.06771   0.00000   0.07462   0.07462   2.45213
    R2        1.81414   0.01479   0.00000   0.02308   0.02308   1.83722
    R3        2.76988  -0.00670   0.00000  -0.01543  -0.01543   2.75445
    R4        2.76976  -0.02225   0.00000  -0.05121  -0.05121   2.71855
    R5        2.69126  -0.01285   0.00000  -0.02627  -0.02613   2.66513
    R6        2.70617  -0.01080   0.00000  -0.02270  -0.02253   2.68364
    R7        2.66039  -0.01865   0.00000  -0.03576  -0.03578   2.62461
    R8        2.05977  -0.00179   0.00000  -0.00427  -0.00427   2.05551
    R9        2.64361   0.00005   0.00000   0.00036   0.00019   2.64380
   R10        2.05967  -0.00358   0.00000  -0.00854  -0.00854   2.05112
   R11        2.64535   0.00086   0.00000   0.00186   0.00172   2.64707
   R12        2.05979  -0.00315   0.00000  -0.00752  -0.00752   2.05227
   R13        2.65910  -0.02051   0.00000  -0.03927  -0.03925   2.61985
   R14        2.05962  -0.00353   0.00000  -0.00842  -0.00842   2.05120
   R15        2.05992   0.00033   0.00000   0.00079   0.00079   2.06071
   R16        2.69158  -0.01008   0.00000  -0.02064  -0.02046   2.67111
   R17        2.70614  -0.01044   0.00000  -0.02191  -0.02173   2.68442
   R18        2.66022  -0.02112   0.00000  -0.04048  -0.04049   2.61973
   R19        2.05985  -0.00161   0.00000  -0.00383  -0.00383   2.05602
   R20        2.64359   0.00199   0.00000   0.00394   0.00376   2.64735
   R21        2.05988  -0.00372   0.00000  -0.00889  -0.00889   2.05099
   R22        2.64543   0.00275   0.00000   0.00536   0.00518   2.65061
   R23        2.05981  -0.00298   0.00000  -0.00711  -0.00711   2.05270
   R24        2.65904  -0.02162   0.00000  -0.04139  -0.04138   2.61766
   R25        2.05975  -0.00368   0.00000  -0.00879  -0.00879   2.05096
   R26        2.05979  -0.00280   0.00000  -0.00667  -0.00667   2.05311
    A1        2.09440  -0.01314   0.00000  -0.06056  -0.06056   2.03383
    A2        1.97033   0.03301   0.00000   0.10527   0.10509   2.07542
    A3        1.97029   0.00971   0.00000   0.03098   0.03083   2.00112
    A4        2.34256  -0.04273   0.00000  -0.13624  -0.13635   2.20621
    A5        2.21083  -0.02233   0.00000  -0.07130  -0.07145   2.13938
    A6        2.08039   0.00063   0.00000   0.00191   0.00176   2.08215
    A7        1.99196   0.02169   0.00000   0.06939   0.06968   2.06164
    A8        2.14909  -0.01172   0.00000  -0.04078  -0.04074   2.10836
    A9        2.07785   0.00484   0.00000   0.01572   0.01560   2.09344
   A10        2.05625   0.00687   0.00000   0.02506   0.02493   2.08117
   A11        2.10093  -0.00156   0.00000  -0.00364  -0.00384   2.09708
   A12        2.09668  -0.00228   0.00000  -0.01229  -0.01219   2.08449
   A13        2.08558   0.00384   0.00000   0.01593   0.01603   2.10161
   A14        2.07773   0.00465   0.00000   0.01891   0.01858   2.09631
   A15        2.10214  -0.00212   0.00000  -0.00852  -0.00837   2.09377
   A16        2.10332  -0.00253   0.00000  -0.01038  -0.01022   2.09310
   A17        2.09394  -0.00131   0.00000  -0.00284  -0.00298   2.09096
   A18        2.09015   0.00339   0.00000   0.01402   0.01408   2.10423
   A19        2.09910  -0.00208   0.00000  -0.01118  -0.01111   2.08798
   A20        2.15272  -0.01176   0.00000  -0.04103  -0.04094   2.11178
   A21        2.08156   0.00789   0.00000   0.02977   0.02958   2.11114
   A22        2.04890   0.00387   0.00000   0.01126   0.01109   2.05999
   A23        2.21092  -0.02456   0.00000  -0.07855  -0.07873   2.13219
   A24        2.08048   0.00013   0.00000   0.00015  -0.00003   2.08045
   A25        1.99178   0.02443   0.00000   0.07840   0.07876   2.07054
   A26        2.14916  -0.01295   0.00000  -0.04492  -0.04480   2.10436
   A27        2.07768   0.00591   0.00000   0.01986   0.01973   2.09741
   A28        2.05635   0.00704   0.00000   0.02506   0.02492   2.08127
   A29        2.10101  -0.00225   0.00000  -0.00601  -0.00621   2.09480
   A30        2.09665  -0.00205   0.00000  -0.01165  -0.01155   2.08510
   A31        2.08552   0.00430   0.00000   0.01766   0.01776   2.10328
   A32        2.07759   0.00576   0.00000   0.02288   0.02250   2.10009
   A33        2.10221  -0.00297   0.00000  -0.01183  -0.01164   2.09057
   A34        2.10338  -0.00279   0.00000  -0.01104  -0.01086   2.09252
   A35        2.09403  -0.00103   0.00000  -0.00175  -0.00194   2.09209
   A36        2.09001   0.00337   0.00000   0.01404   0.01414   2.10415
   A37        2.09914  -0.00234   0.00000  -0.01230  -0.01220   2.08694
   A38        2.15279  -0.01396   0.00000  -0.04860  -0.04844   2.10436
   A39        2.08147   0.00565   0.00000   0.01816   0.01807   2.09954
   A40        2.04892   0.00831   0.00000   0.03044   0.03035   2.07926
    D1       -0.45829   0.01210   0.00000   0.14143   0.13969  -0.31860
    D2        2.68331   0.01372   0.00000   0.16770   0.16944   2.85275
    D3       -2.37365  -0.00211   0.00000  -0.03698  -0.03706  -2.41070
    D4        0.76794  -0.00177   0.00000  -0.03166  -0.03176   0.73618
    D5        0.76794  -0.00420   0.00000  -0.07076  -0.07066   0.69729
    D6       -2.37365  -0.00386   0.00000  -0.06544  -0.06536  -2.43901
    D7       -2.60752  -0.00568   0.00000  -0.09648  -0.09582  -2.70335
    D8        0.53407  -0.00568   0.00000  -0.09653  -0.09577   0.43830
    D9        0.53407  -0.00360   0.00000  -0.06270  -0.06346   0.47061
   D10       -2.60752  -0.00360   0.00000  -0.06275  -0.06341  -2.67093
   D11        3.14159  -0.00122   0.00000  -0.01890  -0.01889   3.12270
   D12        0.00000   0.00025   0.00000   0.00367   0.00345   0.00345
   D13        0.00000  -0.00155   0.00000  -0.02398  -0.02413  -0.02413
   D14        3.14159  -0.00008   0.00000  -0.00142  -0.00179   3.13981
   D15        3.14159   0.00040   0.00000   0.00649   0.00627  -3.13533
   D16       -0.00000   0.00206   0.00000   0.03190   0.03188   0.03188
   D17        0.00000   0.00070   0.00000   0.01116   0.01132   0.01132
   D18        3.14159   0.00236   0.00000   0.03658   0.03694  -3.10465
   D19       -0.00000   0.00140   0.00000   0.02144   0.02099   0.02099
   D20        3.14159   0.00118   0.00000   0.01799   0.01763  -3.12397
   D21        3.14159  -0.00005   0.00000  -0.00086  -0.00120   3.14040
   D22        0.00000  -0.00027   0.00000  -0.00431  -0.00456  -0.00456
   D23        0.00000  -0.00028   0.00000  -0.00412  -0.00450  -0.00450
   D24       -3.14159  -0.00068   0.00000  -0.01034  -0.01048   3.13112
   D25        3.14159  -0.00006   0.00000  -0.00069  -0.00111   3.14049
   D26       -0.00000  -0.00046   0.00000  -0.00690  -0.00708  -0.00708
   D27        0.00000  -0.00053   0.00000  -0.00824  -0.00822  -0.00822
   D28        3.14159  -0.00088   0.00000  -0.01346  -0.01331   3.12829
   D29        3.14159  -0.00013   0.00000  -0.00202  -0.00224   3.13935
   D30       -0.00000  -0.00047   0.00000  -0.00724  -0.00733  -0.00733
   D31       -0.00000   0.00031   0.00000   0.00440   0.00460   0.00460
   D32        3.14159  -0.00132   0.00000  -0.02057  -0.02028   3.12131
   D33        3.14159   0.00065   0.00000   0.00965   0.00964  -3.13195
   D34        0.00000  -0.00098   0.00000  -0.01532  -0.01524  -0.01524
   D35        3.14159  -0.00097   0.00000  -0.01495  -0.01496   3.12664
   D36       -0.00000   0.00022   0.00000   0.00324   0.00309   0.00309
   D37        0.00000  -0.00097   0.00000  -0.01491  -0.01501  -0.01501
   D38        3.14159   0.00022   0.00000   0.00329   0.00304  -3.13855
   D39        3.14159   0.00021   0.00000   0.00352   0.00350  -3.13810
   D40       -0.00000   0.00070   0.00000   0.01093   0.01090   0.01090
   D41        0.00000   0.00021   0.00000   0.00348   0.00355   0.00355
   D42        3.14159   0.00070   0.00000   0.01089   0.01095  -3.13065
   D43       -0.00000   0.00108   0.00000   0.01642   0.01611   0.01611
   D44        3.14159   0.00096   0.00000   0.01453   0.01424  -3.12735
   D45        3.14159  -0.00010   0.00000  -0.00156  -0.00177   3.13982
   D46        0.00000  -0.00022   0.00000  -0.00345  -0.00364  -0.00364
   D47        0.00000  -0.00036   0.00000  -0.00534  -0.00565  -0.00565
   D48        3.14159  -0.00049   0.00000  -0.00731  -0.00748   3.13412
   D49        3.14159  -0.00024   0.00000  -0.00346  -0.00376   3.13783
   D50       -0.00000  -0.00036   0.00000  -0.00543  -0.00559  -0.00559
   D51        0.00000  -0.00037   0.00000  -0.00567  -0.00577  -0.00577
   D52        3.14159  -0.00035   0.00000  -0.00530  -0.00526   3.13633
   D53        3.14159  -0.00024   0.00000  -0.00370  -0.00393   3.13766
   D54       -0.00000  -0.00022   0.00000  -0.00333  -0.00343  -0.00343
   D55       -0.00000   0.00044   0.00000   0.00658   0.00669   0.00669
   D56        3.14159  -0.00004   0.00000  -0.00070  -0.00063   3.14096
   D57        3.14159   0.00042   0.00000   0.00621   0.00619  -3.13540
   D58        0.00000  -0.00006   0.00000  -0.00108  -0.00113  -0.00113
         Item               Value     Threshold  Converged?
 Maximum Force            0.067710     0.000450     NO 
 RMS     Force            0.010851     0.000300     NO 
 Maximum Displacement     0.634265     0.001800     NO 
 RMS     Displacement     0.216656     0.001200     NO 
 Predicted change in Energy=-2.479633D-02
 Lowest energy point so far.  Saving SCF results.
 GradGradGradGradGradGradGradGradGradGradGradGradGradGradGradGradGradGrad

 Leave Link  103 at Mon Oct 14 11:06:12 2019, MaxMem= 10737418240 cpu:               1.7 elap:               0.1
 (Enter /apps/cent7/gaussian/g16-A.03/g16-haswell/g16/l202.exe)
                          Input orientation:                          
 ---------------------------------------------------------------------
 Center     Atomic      Atomic             Coordinates (Angstroms)
 Number     Number       Type             X           Y           Z
 ---------------------------------------------------------------------
      1          8           0       -2.523872    2.062870    0.687097
      2          6           0       -1.961200    1.052726    0.098200
      3          6           0       -0.614490    1.209568   -0.436909
      4          6           0       -0.229359    0.687488   -1.689160
      5          6           0        1.058341    0.877937   -2.173466
      6          6           0        2.001278    1.572883   -1.408461
      7          6           0        1.648489    2.084128   -0.152947
      8          6           0        0.359202    1.907947    0.325287
      9          6           0       -2.782228   -0.125450    0.012322
     10          6           0       -2.229234   -1.421650   -0.097326
     11          6           0       -3.051483   -2.536009   -0.160168
     12          6           0       -4.443696   -2.382194   -0.134630
     13          6           0       -5.013379   -1.104042   -0.038758
     14          6           0       -4.195902    0.011590    0.037963
     15          1           0       -0.950928    0.145974   -2.296823
     16          1           0        1.326082    0.480597   -3.147399
     17          1           0        3.010094    1.711567   -1.785929
     18          1           0        2.377635    2.613744    0.452077
     19          1           0        0.121360    2.300864    1.314326
     20          1           0       -1.149707   -1.555803   -0.116403
     21          1           0       -2.607473   -3.523851   -0.230777
     22          1           0       -5.084338   -3.257582   -0.191119
     23          1           0       -6.091501   -0.980158   -0.023577
     24          1           0       -4.649873    0.995932    0.111280
     25          1           0       -1.933958    2.776686    0.983190
 ---------------------------------------------------------------------
                    Distance matrix (angstroms):
                    1          2          3          4          5
     1  O    0.000000
     2  C    1.297610   0.000000
     3  C    2.374291   1.457590   0.000000
     4  C    3.578137   2.515418   1.410328   0.000000
     5  C    4.734886   3.782677   2.433922   1.388883   0.000000
     6  C    5.010832   4.271044   2.813921   2.416290   1.399040
     7  C    4.256140   3.762542   2.442655   2.799441   2.426040
     8  C    2.909815   2.483392   1.420124   2.427740   2.791681
     9  C    2.304520   1.438596   2.585183   3.173807   4.531493
    10  C    3.583854   2.496519   3.105805   3.313895   4.517368
    11  C    4.705945   3.759586   4.477149   4.548970   5.709558
    12  C    4.911166   4.244487   5.258797   5.440602   6.712505
    13  C    4.093146   3.739813   4.986135   5.368450   6.734316
    14  C    2.724850   2.466067   3.806201   4.378727   5.766112
    15  H    3.879746   2.752996   2.168802   1.087729   2.141996
    16  H    5.659426   4.654833   3.412327   2.142117   1.085408
[...]
 439,0.00007129,-0.00001232,-0.00005385,-0.00007289,-0.00003167,-0.0000
 2032,0.00007630,-0.00005020,-0.00001340,0.00001706,0.00009123,-0.00000
 424,-0.00007628,-0.00000472,0.00004523,-0.00097129,0.00009069,0.000260
 55,-0.00040254,0.00197934,-0.00021071,-0.10482763,-0.00086497,0.090482
 02,-0.00008830,0.00006495,0.00005622,-0.00024292,-0.00112180,-0.000771
 63,-0.00300291,-0.00109892,0.00375370,-0.00022590,0.00057182,0.0006755
 1,0.00042430,-0.00033449,0.00307343,0.01073182,0.00617279,0.00632483,-
 0.18473713,-0.10822579,-0.09657778,-0.01555588,-0.01600311,-0.01605933
 ,-0.00041533,0.00007949,0.00015822,-0.00005301,0.00009638,-0.00000131,
 -0.00001850,-0.00001261,0.00000964,-0.00000681,0.00002219,0.00000946,-
 0.00003955,-0.00003758,-0.00002124,0.00005207,-0.00011691,0.00002820,-
 0.00003935,0.00020779,-0.00022621,0.00044043,0.00038535,0.00034444,0.0
 0031768,0.00092219,-0.00082780,0.19192600,0.00001532,-0.00005703,0.000
 12871,0.00019838,0.00054925,-0.00065246,-0.00210675,0.00571008,-0.0019
 2993,0.00065367,-0.00019926,0.00006741,-0.00000785,0.00416509,-0.00442
 444,-0.00898338,-0.00303782,-0.00631553,-0.10858814,-0.12903509,-0.088
 63692,-0.00075316,0.00210965,-0.00128896,0.00004308,-0.00020947,0.0001
 8116,0.00001548,0.00008627,0.00003331,-0.00009484,-0.00002725,-0.00004
 871,0.00002399,-0.00001940,-0.00000761,0.00003027,-0.00004316,-0.00004
 188,0.00008878,0.00001622,0.00000168,0.00022823,-0.00075944,0.00043254
 ,-0.00045534,-0.00027823,-0.00014994,0.00116934,-0.00221453,0.00184879
 ,0.11725117,0.12599291,-0.00007822,0.00003948,-0.00008363,0.00034056,0
 .00017666,0.00089962,0.00398264,-0.00250264,0.00128148,0.00078870,0.00
 013121,-0.00060973,0.00337276,-0.00406627,-0.00229092,-0.01942340,-0.0
 1461012,-0.00942175,-0.09649797,-0.08922426,-0.13373890,0.00934869,0.0
 0713100,0.00963849,0.00008399,0.00012671,-0.00028686,-0.00000128,-0.00
 007206,-0.00000495,0.00007753,0.00002697,0.00004306,-0.00002305,0.0000
 2066,0.00000332,-0.00000978,0.00001770,0.00004874,-0.00004225,0.000039
 90,-0.00003621,-0.00025492,0.00045785,-0.00016404,-0.00100580,-0.00066
 577,-0.00046165,-0.00059193,0.00185093,0.00001300,0.10086020,0.0990168
 0,0.13525206,-0.00153253,0.00098561,0.00072713,0.00056663,-0.00021496,
 -0.00184755,0.00951685,-0.00708027,-0.01806779,-0.00254650,-0.00366046
 ,-0.00084185,-0.00072666,-0.00016138,-0.00032645,-0.00500790,-0.003320
 22,0.00207157,-0.00262538,0.01293828,0.02819947,-0.07377632,0.01793154
 ,0.06054764,0.00052802,0.00038605,0.00009909,0.00010133,-0.00022704,-0
 .00007299,0.00010085,0.00005039,-0.00000715,0.00000241,-0.00002680,-0.
 00000599,-0.00000306,0.00014659,0.00001784,-0.00020001,0.00000845,0.00
 008300,0.00052696,-0.00075752,-0.00074187,0.00001949,0.00034712,-0.000
 11338,-0.00019718,0.00083704,0.00127974,0.00052809,0.00125505,-0.00093
 163,0.07724506,0.00094406,0.00078193,0.00095267,0.00251881,-0.00343068
 ,-0.00063422,0.00265687,-0.00506117,-0.01406880,-0.00460293,0.00216372
 ,-0.00238932,0.00017781,-0.00017960,0.00071119,-0.00231108,0.00573507,
 -0.00256905,-0.00150161,0.00594128,0.00306622,0.02013190,-0.08372099,-
 0.10242239,-0.00033773,0.00007268,0.00002193,-0.00003630,0.00000485,0.
 00005728,-0.00000631,-0.00001173,-0.00000115,-0.00000357,-0.00000657,-
 0.00000007,-0.00002877,-0.00001016,0.00004281,0.00001926,-0.00006839,-
 0.00012561,0.00006040,0.00056566,-0.00116413,0.00038815,-0.00077418,0.
 00043346,0.00001100,-0.00021999,0.00034159,0.00131918,-0.00273720,0.00
 209028,-0.01989148,0.08012670,0.00060899,0.00246490,0.00226480,0.00187
 865,-0.00076730,-0.00219207,0.00474892,-0.00416424,-0.00931208,-0.0018
 6577,-0.00285722,0.00128090,-0.00012225,0.00050040,0.00012973,0.002572
 67,-0.00194284,0.00223615,0.00100663,-0.00484618,-0.00505372,0.0633133
 6,-0.10654208,-0.27667980,0.00007684,0.00033253,0.00014922,0.00010315,
 -0.00009744,-0.00001518,0.00001057,0.00005154,-0.00002705,0.00001186,-
 0.00001899,-0.00001079,-0.00001894,0.00009304,-0.00001856,-0.00008530,
 -0.00003370,0.00009596,0.00053742,-0.00061258,-0.00014710,-0.00014980,
 0.00039993,-0.00026076,-0.00014854,-0.00008326,-0.00044194,-0.00073407
 ,0.00182004,-0.00014813,-0.06880803,0.11596147,0.28872025,0.00015890,0
 .00017202,0.00009976,-0.00066289,-0.00100709,-0.00022486,0.00053318,-0
 .00113677,0.00003442,-0.00034734,-0.00099647,0.00143657,0.00010087,-0.
 00019993,0.00004709,-0.00013401,-0.00003753,-0.00020064,-0.00020525,-0
 .00002927,0.00008068,0.00029787,0.00017321,0.00001003,-0.00760295,-0.0
 0002816,0.00053683,-0.34480386,0.03323183,0.01499376,-0.01251470,0.003
 70768,0.00160128,-0.00044843,-0.00301534,0.00003068,0.00037685,-0.0006
 2493,-0.00021610,0.00151121,0.00202697,0.00027165,-0.00031777,-0.00045
 834,-0.00020793,0.00001362,-0.00000966,0.00001950,-0.00002072,-0.00000
 321,-0.00001675,0.00000977,-0.00001609,0.00001079,-0.00001246,-0.00000
 007,-0.00001747,0.36419528,-0.00023354,0.00012119,-0.00003170,0.001940
 27,0.00115713,0.00050845,-0.00048425,-0.00115532,-0.00016754,-0.000604
 01,-0.00084439,0.00083351,-0.00025328,0.00001827,0.00011397,-0.0000214
 8,0.00000763,0.00002896,0.00000460,-0.00001923,0.00007674,-0.00018705,
 0.00021505,-0.00011905,0.02801885,0.00087004,-0.00159231,0.03238422,-0
 .06319463,-0.00540985,-0.02713193,0.00775360,0.00169083,-0.00261474,-0
 .00444857,-0.00130069,-0.00007962,-0.00060815,0.00001768,0.00068551,-0
 .00537906,-0.00145357,-0.00005315,-0.00042790,0.00062566,0.00002119,0.
 00002586,-0.00002522,0.00001750,0.00002022,0.00000443,0.00000796,-0.00
 002435,0.00001799,0.00002577,0.00001320,0.00003212,-0.03196394,0.06447
 415,0.00011110,-0.00094134,-0.00059244,0.00034039,0.00114114,-0.002811
 63,0.00112383,0.00116365,0.00036102,0.00056279,0.00128982,-0.00017693,
 -0.00057753,-0.00012364,-0.00013688,0.00027053,0.00040616,0.00066235,0
 .00058530,-0.00008680,-0.00066578,-0.00071326,-0.00077173,-0.00018150,
 0.00364465,-0.00202985,0.00162085,0.01410682,-0.00496329,-0.03871444,-
 0.00157039,0.00043916,0.00600137,0.00018698,-0.00107284,0.00785927,-0.
 00029954,0.00009006,-0.00071925,0.00045298,-0.00147641,0.00475245,0.00
 010983,0.00080203,-0.00069281,0.00001246,0.00003689,-0.00003945,-0.000
 00498,-0.00004805,0.00002628,-0.00000787,0.00004667,-0.00004925,-0.000
 01397,-0.00004001,0.00000469,-0.01820322,0.00540378,0.02792847,-0.0002
 5696,-0.00038236,-0.00010515,0.00094478,-0.00072788,-0.00005454,-0.000
 07198,-0.00001986,-0.00002599,0.00000913,-0.00000984,-0.00004020,-0.00
 000824,-0.00000508,0.00000066,-0.00000923,-0.00001589,-0.00001566,-0.0
 0003377,0.00000823,0.00002657,0.00002431,0.00004504,0.00001688,-0.0022
 4103,-0.00310132,0.00041804,0.01171254,-0.01987630,-0.00299448,-0.1056
 4231,0.10412604,0.01740819,-0.00823233,0.03007225,0.00456523,-0.005553
 31,-0.00092708,0.00082733,-0.00099943,-0.00067576,0.00000204,0.0000238
 5,-0.00000627,-0.00000246,-0.00000474,-0.00000808,0.00000987,-0.000001
 38,-0.00000133,-0.00000010,-0.00000250,-0.00000410,0.00000372,0.000006
 92,-0.00000368,0.00000771,0.00091288,0.00028210,-0.00031555,0.10857702
 ,-0.00024828,-0.00044647,0.00003726,0.00103387,-0.00029327,-0.00033371
 ,-0.00014278,-0.00005789,0.00000310,-0.00001161,-0.00008283,-0.0000719
 9,-0.00002161,0.00000192,-0.00000996,-0.00000997,-0.00001932,-0.000024
 64,-0.00005661,0.00002050,0.00005498,0.00005284,0.00008010,0.00004904,
 -0.00383435,-0.00127295,-0.00075219,0.01088863,-0.01846146,-0.00335101
 ,0.10400000,-0.29660351,-0.03970739,-0.00091166,0.00262434,-0.00003039
 ,-0.00032283,0.00136686,-0.00052939,-0.00049827,0.00041871,0.00016649,
 0.00002151,-0.00003942,-0.00001232,-0.00001367,-0.00000785,0.00000889,
 0.00000113,-0.00000278,0.00000233,-0.00000472,-0.00000483,0.00000535,0
 .00001212,-0.00000335,0.00001055,0.00006283,0.00087145,0.00068627,-0.1
 1009028,0.31129545,0.00002183,-0.00012428,-0.00046301,0.00045253,0.000
 05231,0.00106033,-0.00008252,0.00004450,-0.00000243,0.00007260,0.00003
 431,-0.00007163,-0.00005265,-0.00002497,0.00000695,0.00001199,0.000005
 84,0.00001608,0.00000003,-0.00000207,0.00000128,0.00001012,0.00003533,
 0.00000632,-0.00025844,-0.00126709,0.00744759,0.00102212,-0.00065895,0
 .00280360,0.01648917,-0.03983168,-0.04468106,0.00140499,-0.00256892,0.
 00301435,0.00106699,-0.00048580,0.00656400,-0.00005622,0.00015100,-0.0
 0040391,0.00000468,0.00004316,0.00001692,0.00000603,0.00000963,-0.0000
 0323,-0.00000118,0.00000176,-0.00000065,-0.00000274,-0.00000460,0.0000
 0179,0.00000271,-0.00001044,0.00000027,-0.00021680,0.00056530,-0.00421
 948,-0.01951224,0.04325199,0.03356307,0.00004262,-0.00004335,0.0000225
 8,-0.00019991,-0.00006886,-0.00012718,0.00010736,0.00000545,0.00003204
 ,-0.00000981,0.00001368,0.00003696,0.00000377,-0.00001285,-0.00001003,
 0.00000744,0.00001628,0.00001781,0.00002038,-0.00000289,-0.00002841,-0
 .00000884,-0.00003889,0.00000369,-0.00032185,0.00101826,0.00015609,-0.
 00546941,0.00144578,0.00110087,-0.01274333,-0.02610074,-0.00191266,-0.
 16135219,-0.13570417,-0.00965927,0.01253391,0.01221944,0.00132231,-0.0
 0065547,0.00305909,0.00113172,-0.00001129,-0.00000535,-0.00003419,-0.0
 0000119,0.00000010,-0.00000188,-0.00000100,-0.00000320,0.00000028,-0.0
 0000033,0.00000359,-0.00000268,-0.00000316,-0.00000091,-0.00000228,-0.
 00065075,-0.00129771,-0.00019296,0.00105766,0.00015327,-0.00030493,0.1
 6643725,-0.00012111,0.00017267,0.00002713,-0.00000709,-0.00035972,0.00
 013593,-0.00003611,-0.00003569,-0.00002482,-0.00001011,-0.00002203,0.0
 0000726,0.00003510,0.00000272,0.00000554,-0.00000779,-0.00001701,-0.00
 002440,-0.00001878,-0.00000020,0.00001366,-0.00000174,0.00001743,0.000
 00946,0.00109616,0.00035331,-0.00002148,0.00146943,0.00097130,-0.00099
 741,0.00416467,0.00789223,-0.00026560,-0.13576066,-0.24638439,-0.01723
 339,-0.01798685,-0.01674502,-0.00185618,0.00299261,-0.00378375,-0.0017
 4729,-0.00000322,0.00001715,-0.00000978,0.00000012,-0.00000083,0.00000
 093,-0.00000150,0.00000342,-0.00000223,-0.00000068,-0.00000145,0.00000
 176,0.00000219,0.00000237,0.00000150,0.00035488,0.00028640,0.00012234,
 -0.00016806,0.00063270,0.00061185,0.14491384,0.25686661,-0.00020661,-0
 .00038017,0.00008148,0.00001184,0.00002628,-0.00123759,0.00031847,0.00
 019141,0.00006782,0.00005151,0.00017828,-0.00002417,-0.00019088,-0.000
 02949,-0.00000099,0.00005191,0.00009943,0.00016530,0.00014027,0.000010
 91,-0.00013430,-0.00011653,-0.00016796,-0.00003648,-0.00020043,0.00024
 375,-0.00049087,0.00157880,-0.00103615,0.00709812,0.00188982,0.0026640
 8,0.00693549,-0.00942040,-0.01725828,-0.04595844,-0.00336954,-0.004295
 16,0.00644330,0.00126914,-0.00213504,0.00663443,0.00000725,-0.00004738
 ,0.00001844,-0.00000232,0.00000601,-0.00000630,0.00000452,-0.00001086,
 0.00001004,-0.00000120,0.00001389,-0.00001312,0.00000409,-0.00000941,0
 .00001650,-0.00000622,0.00025356,-0.00064427,-0.00031095,0.00048468,-0
 .00357939,0.00890933,0.02055253,0.02885917,0.00003852,-0.00014108,-0.0
 0003864,-0.00045798,0.00054509,0.00030676,-0.00012990,-0.00018940,-0.0
 0010906,0.00001649,-0.00004036,-0.00006108,-0.00001204,-0.00000898,-0.
 00000030,0.00000464,-0.00000944,-0.00001539,-0.00003993,0.00000360,0.0
 0001409,-0.00000315,0.00003668,0.00007534,0.00043148,-0.00285203,0.000
 11364,0.00065726,-0.00005620,-0.00010572,0.00104389,0.00176089,0.00065
 122,-0.00697421,-0.00050552,0.00074951,-0.34365441,0.02654566,0.027623
 60,-0.01312568,0.00277003,0.00171070,0.00000375,0.00000692,-0.00000435
 ,-0.00000469,0.00000186,0.00000059,-0.00000046,0.00000045,0.00000016,-
 0.00000811,-0.00000063,0.00000377,0.00000668,-0.00000333,0.00000184,-0
 .00004852,0.00001630,-0.00006708,-0.00034501,-0.00016050,0.00000860,0.
 00072792,0.00006213,-0.00029953,0.36104309,0.00009649,0.00002151,-0.00
 000545,-0.00140078,0.00063720,0.00025212,-0.00007349,-0.00040885,0.000
 01861,0.00001397,-0.00001858,-0.00006518,-0.00005128,0.00000400,-0.000
 01360,0.00000165,-0.00000055,0.00000856,-0.00003608,0.00002703,-0.0000
 0651,-0.00003410,0.00000645,0.00009041,-0.00229068,-0.00382148,-0.0017
 6257,-0.00016875,-0.00121975,-0.00016879,0.00123120,-0.00498696,-0.001
 75297,0.03027874,0.00150205,-0.00266035,0.02666341,-0.06221182,-0.0052
 0255,-0.02783336,0.00611058,0.00252690,0.00000684,-0.00002497,0.000012
 89,-0.00000762,0.00000061,0.00000235,0.00000218,-0.00000518,0.00000391
 ,-0.00001126,0.00000125,0.00000179,0.00001047,-0.00000907,0.00000484,0
 .00000270,0.00015042,0.00019118,0.00147173,0.00006926,-0.00010626,-0.0
 0026343,0.00092975,0.00061786,-0.02790017,0.06233824,-0.00004729,-0.00
 009526,0.00009468,-0.00005772,-0.00023837,0.00062084,-0.00018779,0.000
 05222,-0.00043444,-0.00001977,0.00000710,-0.00001056,0.00008226,-0.000
 01781,0.00003347,0.00000260,-0.00001655,-0.00003141,-0.00000851,-0.000
 05665,-0.00002297,-0.00006462,-0.00000648,0.00003787,0.00005920,-0.000
 92802,0.00781760,-0.00017056,-0.00033598,-0.00041668,0.00061066,-0.001
 98177,0.00622612,0.00538073,-0.00046046,0.00304603,0.02775276,-0.00493
 545,-0.04210012,-0.00267346,0.00013642,0.00362198,0.00001653,0.0000499
 7,-0.00002599,0.00000715,-0.00000266,0.00000077,-0.00000569,0.00000912
 ,-0.00000611,-0.00000625,0.00000219,0.00000302,-0.00000581,0.00000470,
 -0.00000764,-0.00003140,0.00014052,-0.00106630,0.00028152,0.00002107,0
 .00007082,-0.00040695,0.00060971,-0.00345934,-0.03014414,0.00724182,0.
 03033339,-0.00024138,-0.00214419,-0.00114992,-0.00036792,0.00385380,0.
 00102646,0.00045003,-0.00009149,-0.00010132,0.00000311,0.00011366,0.00
 011724,0.00004324,0.00002118,-0.00003224,-0.00000928,0.00001700,0.0000
 2261,0.00003962,-0.00003904,-0.00007825,-0.00001263,-0.00013871,-0.000
 00831,-0.00845300,0.02766482,0.00470670,-0.00568106,-0.00161465,0.0007
 9145,-0.00016786,-0.00028491,-0.00004992,-0.00263212,-0.00320459,0.000
 35019,0.01261313,-0.01912577,-0.00326324,-0.10682189,0.10481945,0.0201
 5877,-0.00000102,0.00000247,-0.00004811,0.00001117,0.00000507,-0.00000
 798,0.00000178,-0.00000687,-0.00000254,0.00000378,0.00000819,-0.000006
 21,-0.00003052,-0.00001123,-0.00004729,-0.00036058,0.00144966,0.000246
 11,0.00013146,0.00007003,-0.00009546,0.00048784,-0.00092806,-0.0002068
 0,0.00084015,0.00031945,-0.00034004,0.10970319,-0.00261356,-0.00122438
 ,-0.00049838,0.00010637,-0.00018908,0.00022827,0.00010972,0.00001985,-
 0.00005556,0.00001663,0.00005089,0.00002060,0.00001261,-0.00000847,0.0
 0000246,0.00000146,-0.00000142,-0.00000495,0.00000625,-0.00001338,-0.0
 0000149,-0.00002214,0.00000138,-0.00001464,-0.00004452,0.00198181,-0.0
 0025394,-0.00048406,0.00169264,-0.00029410,-0.00094796,-0.00003499,0.0
 0023939,-0.00349162,-0.00228250,-0.00130940,0.01135007,-0.01636231,-0.
 00433344,0.10609896,-0.29655474,-0.04213435,0.00000258,0.00000749,-0.0
 0000602,0.00000412,0.00000058,-0.00000081,-0.00000228,0.00000447,-0.00
 000306,0.00000193,-0.00000265,0.00000244,-0.00000451,0.00001461,-0.000
 00522,-0.00023801,0.00015465,-0.00026462,0.00007549,-0.00003370,0.0001
 2840,0.00069965,-0.00080819,0.00000726,0.00010045,0.00088356,0.0008005
 6,-0.11039787,0.31260266,-0.00171544,-0.00100650,0.00036406,0.00008014
 ,-0.00068794,-0.00351498,0.00015921,0.00007683,0.00011452,0.00003338,0
 .00002873,0.00003813,0.00001579,0.00001373,-0.00003569,-0.00001225,0.0
 0000454,0.00001524,0.00002059,0.00005121,-0.00003128,0.00004131,-0.000
 15782,-0.00000031,0.00252638,-0.00089698,0.00250165,0.00063269,-0.0004
 8693,0.00467017,-0.00009492,0.00044780,-0.00063355,-0.00003549,-0.0010
 8636,0.00799788,0.00099172,-0.00226393,0.00582713,0.01948414,-0.042405
 34,-0.04646573,0.00001208,-0.00002585,0.00000002,0.00001041,-0.0000025
 2,-0.00000167,0.00000443,-0.00001227,0.00000624,0.00000390,0.00000963,
 -0.00001107,-0.00001128,-0.00001894,0.00001580,0.00013448,-0.00022731,
 0.00131036,-0.00008209,0.00010900,-0.00106042,-0.00002482,0.00008349,-
 0.00074676,-0.00041852,0.00076688,-0.00431075,-0.02194429,0.04763520,0
 .03406759,-0.18887327,-0.22238473,0.02980707,0.01620207,0.01500450,-0.
 00501942,-0.00455417,0.00311490,0.00236337,0.00142710,-0.00058591,-0.0
 0161761,-0.00097752,-0.00082774,-0.00040116,0.00012919,0.00024086,-0.0
 0014045,-0.00115417,-0.00118717,0.00059384,0.00185057,0.00182623,0.002
 51291,0.00095117,0.00354401,0.00353513,0.00049504,-0.00081195,0.000118
 81,0.00061066,0.00030498,-0.00047238,-0.00018987,-0.00002406,0.0000376
 9,0.00000165,0.00040473,-0.00020107,-0.00119628,-0.00026232,0.00015137
 ,-0.00001762,0.00005013,-0.00026148,0.00002574,-0.00004577,0.00001770,
 0.00002911,-0.00000125,-0.00019163,0.00000257,0.00002573,-0.00000423,-
 0.00248761,0.00051160,-0.00287889,0.00001982,0.00007077,0.00021257,0.0
 0000169,0.00003092,0.00000878,0.00000238,-0.00003939,0.00009447,-0.000
 00975,-0.00002783,-0.00002342,0.00045076,-0.00033978,0.00018847,0.1772
 6071,-0.18287807,-0.31176820,0.01273046,-0.02001703,-0.03956177,-0.002
 42742,-0.00228556,0.00183893,0.00374774,-0.00009290,-0.00055508,-0.001
 66422,-0.00091915,-0.00041405,0.00023226,-0.00002871,0.00020286,0.0003
 3257,-0.00025638,0.00024092,0.00061566,0.00129449,0.00043027,0.0003737
 7,0.00444716,0.00060687,-0.00369645,-0.00094728,-0.00073595,-0.0013540
 2,0.00056845,-0.00023951,0.00027872,0.00014988,-0.00013572,-0.00017586
 ,-0.00012383,0.00067010,0.00008651,-0.00009429,-0.00005364,0.00061409,
 -0.00000103,0.00014511,0.00001204,-0.00010596,-0.00005812,0.00006762,-
 0.00002005,0.00003383,0.00002231,-0.00013531,0.00002042,-0.00001435,0.
 00040796,0.00081099,0.00029818,0.00003270,-0.00003766,-0.00000057,-0.0
 0005770,-0.00005165,0.00014967,-0.00000605,0.00001022,0.00001996,0.000
 01757,0.00002529,0.00000008,-0.00035741,0.00010120,0.00005164,0.201408
 53,0.34847437,0.03997108,0.03998367,-0.02569860,-0.01361335,-0.0277655
 7,-0.00389845,-0.00241292,0.00072155,-0.00344511,0.00072454,0.00011353
 ,-0.00106333,-0.00064404,-0.00078443,-0.00005971,0.00034970,0.00054690
 ,0.00052557,0.00056788,-0.00043178,-0.00137011,-0.00039354,0.00182685,
 0.00304404,0.00613004,-0.00244651,0.00408741,-0.00116034,-0.00203504,0
 .00064971,0.00121785,-0.00000371,-0.00059424,-0.00030550,0.00026895,0.
 00017323,-0.00022117,0.00009911,0.00008030,-0.00033839,0.00049467,-0.0
 0000327,-0.00005554,0.00002220,-0.00009936,0.00003291,-0.00002982,0.00
 001140,0.00001165,-0.00001300,-0.00008034,-0.00006033,-0.00010185,0.00
 013567,-0.00123652,-0.00023006,-0.00059944,0.00003387,0.00001373,0.000
 18332,-0.00010833,-0.00006800,-0.00008816,-0.00002546,-0.00000052,0.00
 000195,0.00000399,0.00000410,-0.00001428,-0.00003762,0.00011540,-0.000
 11658,-0.02843046,-0.01030038,0.02823838\\-0.00000469,0.00003203,0.000
 00757,-0.00002916,-0.00004149,0.00000160,0.00003659,-0.00000334,-0.000
 01706,-0.00000898,0.00001186,0.00000646,-0.00000353,-0.00001046,-0.000
 00335,0.00000042,0.00000621,0.00001371,0.00000227,-0.00000467,-0.00001
 627,-0.00000288,0.00000909,0.00000964,0.00002715,0.00003937,0.00000215
 ,-0.00000019,-0.00000972,0.00000475,0.00000949,-0.00000257,-0.00000749
 ,0.00000079,-0.00000335,-0.00000150,0.00000255,0.00001328,0.00000597,-
 0.00002201,-0.00001061,0.00000098,0.00000007,-0.00000207,0.00000100,0.
 00000004,0.00000153,0.00000268,-0.00000087,0.00000131,0.00000048,0.000
 00031,-0.00000408,0.00000438,0.00000074,-0.00000614,-0.00000363,-0.000
 00104,0.00000248,-0.00000106,-0.00000223,0.00000301,-0.00000165,-0.000
 00101,0.00000068,0.00000044,0.00000123,-0.00000107,-0.00000220,0.00000
 099,-0.00000329,-0.00000140,-0.00000604,-0.00001798,-0.00000620\\\@


 HIGGLEDY-PIGGLEDY
 NIC'LAUS COPERNICUS
 LOOKED AT THE UNIVERSE,
 SPOKE TO THE THRONG;
 GIVE UP YOUR PTOLOMY,
 RISE UP AND FOLLOW ME,
 HELIOCENTRICALLY
 PTOLEMY'S WRONG.
   -- NANCY L. STARK
 Job cpu time:       0 days  0 hours 22 minutes 58.3 seconds.
 Elapsed time:       0 days  0 hours  0 minutes 58.2 seconds.
 File lengths (MBytes):  RWF=    162 Int=      0 D2E=      0 Chk=      6 Scr=      1
 Normal termination of Gaussian 16 at Mon Oct 14 11:08:13 2019.
real 131.29
user 2917.10
sys 14.32
Machine:
brown-a408
brown-a408
brown-a408
brown-a408
brown-a408
brown-a408
brown-a408
brown-a408
brown-a408
brown-a408
brown-a408
brown-a408
brown-a408
brown-a408
brown-a408
brown-a408
brown-a408
brown-a408
brown-a408
brown-a408
brown-a408
brown-a408
brown-a408
brown-a408
