Title Card Required                                                     
Freq      RB3LYP                                                      6-31G(d)            
Number of atoms                            I               25
Info1-9                                    I   N=           9
          60          60        1002           0           0         100
           6          18        -502
Full Title                                 C   N=           2
Title Card Required     
Route                                      C   N=           6
#p opt freq b3lyp/6-31g(d) geom=connectivity temperature=0.0
01          
Charge                                     I                1
Multiplicity                               I                1
Number of electrons                        I               96
Number of alpha electrons                  I               48
Number of beta electrons                   I               48
Number of basis functions                  I              232
Number of independent functions            I              232
Number of point charges in /Mol/           I                0
Number of translation vectors              I                0
Atomic numbers                             I   N=          25
           8           6           6           6           6           6
           6           6           6           6           6           6
           6           6           1           1           1           1
           1           1           1           1           1           1
           1
Nuclear charges                            R   N=          25
  8.00000000E+00  6.00000000E+00  6.00000000E+00  6.00000000E+00  6.00000000E+00
  6.00000000E+00  6.00000000E+00  6.00000000E+00  6.00000000E+00  6.00000000E+00
  6.00000000E+00  6.00000000E+00  6.00000000E+00  6.00000000E+00  1.00000000E+00
  1.00000000E+00  1.00000000E+00  1.00000000E+00  1.00000000E+00  1.00000000E+00
  1.00000000E+00  1.00000000E+00  1.00000000E+00  1.00000000E+00  1.00000000E+00
Current cartesian coordinates              R   N=          75
  1.18204627E-01  4.29054317E+00  2.12413642E-01  3.40668800E-02  1.80415653E+00
  9.19763254E-02 -2.41328078E+00  5.69221335E-01  6.31612678E-02 -2.78407295E+00
 -1.77356019E+00  1.29212406E+00 -5.17566577E+00 -2.85861611E+00  1.34493855E+00
 -7.20497516E+00 -1.65452363E+00  1.54927661E-01 -6.85745905E+00  6.59780954E-01
 -1.08164952E+00 -4.48867485E+00  1.78460790E+00 -1.11107442E+00  2.44749485E+00
  5.74504696E-01 -1.65541903E-02  2.68586945E+00 -1.90264360E+00 -1.01407146E+00
  5.04608069E+00 -3.03355622E+00 -1.15380189E+00  7.18709945E+00 -1.73065194E+00
 -3.04860272E-01  6.98188025E+00  7.25912311E-01  6.66874309E-01  4.64042812E+00
  1.88786208E+00  7.97922607E-01 -1.22752902E+00 -2.66807030E+00  2.28031671E+00
 -5.46542766E+00 -4.63463526E+00  2.32840637E+00 -9.06563182E+00 -2.51882964E+00
  1.89752010E-01 -8.43129566E+00  1.56736911E+00 -2.03267364E+00 -4.21690534E+00
  3.53179504E+00 -2.15914307E+00  1.04089675E+00 -2.87560883E+00 -1.75111322E+00
  5.23315741E+00 -4.91564919E+00 -1.94558531E+00  9.02996649E+00 -2.62757229E+00
 -4.13598060E-01  8.65447822E+00  1.71624962E+00  1.31963560E+00  4.46138180E+00
  3.77879197E+00  1.56552862E+00 -1.55147492E+00  5.00684980E+00  5.39686729E-01
Number of symbols in /Mol/                 I                0
Force Field                                I                0
Atom Types                                 C   N=          25
                                                            
                                                            
                                                            
                                                            
                                                            
Int Atom Types                             I   N=          25
           0           0           0           0           0           0
           0           0           0           0           0           0
           0           0           0           0           0           0
           0           0           0           0           0           0
           0
MM charges                                 R   N=          25
  0.00000000E+00  0.00000000E+00  0.00000000E+00  0.00000000E+00  0.00000000E+00
  0.00000000E+00  0.00000000E+00  0.00000000E+00  0.00000000E+00  0.00000000E+00
  0.00000000E+00  0.00000000E+00  0.00000000E+00  0.00000000E+00  0.00000000E+00
  0.00000000E+00  0.00000000E+00  0.00000000E+00  0.00000000E+00  0.00000000E+00
  0.00000000E+00  0.00000000E+00  0.00000000E+00  0.00000000E+00  0.00000000E+00
Integer atomic weights                     I   N=          25
          16          12          12          12          12          12
          12          12          12          12          12          12
          12          12           1           1           1           1
           1           1           1           1           1           1
           1
Real atomic weights                        R   N=          25
  1.59949146E+01  1.20000000E+01  1.20000000E+01  1.20000000E+01  1.20000000E+01
  1.20000000E+01  1.20000000E+01  1.20000000E+01  1.20000000E+01  1.20000000E+01
  1.20000000E+01  1.20000000E+01  1.20000000E+01  1.20000000E+01  1.00782504E+00
  1.00782504E+00  1.00782504E+00  1.00782504E+00  1.00782504E+00  1.00782504E+00
  1.00782504E+00  1.00782504E+00  1.00782504E+00  1.00782504E+00  1.00782504E+00
Atom fragment info                         I   N=          25
           0           0           0           0           0           0
           0           0           0           0           0           0
           0           0           0           0           0           0
           0           0           0           0           0           0
           0
Atom residue num                           I   N=          25
           0           0           0           0           0           0
           0           0           0           0           0           0
           0           0           0           0           0           0
           0           0           0           0           0           0
           0
Nuclear spins                              I   N=          25
           0           0           0           0           0           0
           0           0           0           0           0           0
           0           0           1           1           1           1
           1           1           1           1           1           1
           1
Nuclear ZEff                               R   N=          25
 -5.60000000E+00 -3.60000000E+00 -3.60000000E+00 -3.60000000E+00 -3.60000000E+00
 -3.60000000E+00 -3.60000000E+00 -3.60000000E+00 -3.60000000E+00 -3.60000000E+00
 -3.60000000E+00 -3.60000000E+00 -3.60000000E+00 -3.60000000E+00 -1.00000000E+00
 -1.00000000E+00 -1.00000000E+00 -1.00000000E+00 -1.00000000E+00 -1.00000000E+00
 -1.00000000E+00 -1.00000000E+00 -1.00000000E+00 -1.00000000E+00 -1.00000000E+00
Nuclear ZNuc                               R   N=          25
  8.00000000E+00  6.00000000E+00  6.00000000E+00  6.00000000E+00  6.00000000E+00
  6.00000000E+00  6.00000000E+00  6.00000000E+00  6.00000000E+00  6.00000000E+00
  6.00000000E+00  6.00000000E+00  6.00000000E+00  6.00000000E+00  1.00000000E+00
  1.00000000E+00  1.00000000E+00  1.00000000E+00  1.00000000E+00  1.00000000E+00
  1.00000000E+00  1.00000000E+00  1.00000000E+00  1.00000000E+00  1.00000000E+00
Nuclear QMom                               R   N=          25
  0.00000000E+00  0.00000000E+00  0.00000000E+00  0.00000000E+00  0.00000000E+00
  0.00000000E+00  0.00000000E+00  0.00000000E+00  0.00000000E+00  0.00000000E+00
  0.00000000E+00  0.00000000E+00  0.00000000E+00  0.00000000E+00  0.00000000E+00
  0.00000000E+00  0.00000000E+00  0.00000000E+00  0.00000000E+00  0.00000000E+00
  0.00000000E+00  0.00000000E+00  0.00000000E+00  0.00000000E+00  0.00000000E+00
Nuclear GFac                               R   N=          25
  0.00000000E+00  0.00000000E+00  0.00000000E+00  0.00000000E+00  0.00000000E+00
  0.00000000E+00  0.00000000E+00  0.00000000E+00  0.00000000E+00  0.00000000E+00
  0.00000000E+00  0.00000000E+00  0.00000000E+00  0.00000000E+00  2.79284600E+00
  2.79284600E+00  2.79284600E+00  2.79284600E+00  2.79284600E+00  2.79284600E+00
  2.79284600E+00  2.79284600E+00  2.79284600E+00  2.79284600E+00  2.79284600E+00
MicOpt                                     I   N=          25
          -1          -1          -1          -1          -1          -1
          -1          -1          -1          -1          -1          -1
          -1          -1          -1          -1          -1          -1
          -1          -1          -1          -1          -1          -1
          -1
Number of residues                         I                0
Number of secondary structures             I                0
Redundant internal dimensions              I   N=           4
         124          26          40          58
Redundant internal coordinate indices      I   N=         496
           1           2           0           0           1          25
           0           0           2           3           0           0
           2           9           0           0           3           4
           0           0           3           8           0           0
           4           5           0           0           4          15
           0           0           5           6           0           0
           5          16           0           0           6           7
           0           0           6          17           0           0
           7           8           0           0           7          18
           0           0           8          19           0           0
           9          10           0           0           9          14
           0           0          10          11           0           0
          10          20           0           0          11          12
           0           0          11          21           0           0
          12          13           0           0          12          22
           0           0          13          14           0           0
          13          23           0           0          14          24
           0           0           2           1          25           0
           1           2           3           0           1           2
           9           0           3           2           9           0
           2           3           4           0           2           3
           8           0           4           3           8           0
           3           4           5           0           3           4
          15           0           5           4          15           0
           4           5           6           0           4           5
          16           0           6           5          16           0
           5           6           7           0           5           6
          17           0           7           6          17           0
           6           7           8           0           6           7
          18           0           8           7          18           0
           3           8           7           0           3           8
          19           0           7           8          19           0
           2           9          10           0           2           9
          14           0          10           9          14           0
           9          10          11           0           9          10
          20           0          11          10          20           0
          10          11          12           0          10          11
          21           0          12          11          21           0
          11          12          13           0          11          12
          22           0          13          12          22           0
          12          13          14           0          12          13
          23           0          14          13          23           0
           9          14          13           0           9          14
          24           0          13          14          24           0
          25           1           2           3          25           1
           2           9           1           2           3           4
           1           2           3           8           9           2
           3           4           9           2           3           8
           1           2           9          10           1           2
           9          14           3           2           9          10
           3           2           9          14           2           3
           4           5           2           3           4          15
           8           3           4           5           8           3
           4          15           2           3           8           7
           2           3           8          19           4           3
           8           7           4           3           8          19
           3           4           5           6           3           4
           5          16          15           4           5           6
          15           4           5          16           4           5
           6           7           4           5           6          17
          16           5           6           7          16           5
           6          17           5           6           7           8
           5           6           7          18          17           6
           7           8          17           6           7          18
           6           7           8           3           6           7
           8          19          18           7           8           3
          18           7           8          19           2           9
          10          11           2           9          10          20
          14           9          10          11          14           9
          10          20           2           9          14          13
           2           9          14          24          10           9
          14          13          10           9          14          24
           9          10          11          12           9          10
          11          21          20          10          11          12
          20          10          11          21          10          11
          12          13          10          11          12          22
          21          11          12          13          21          11
          12          22          11          12          13          14
          11          12          13          23          22          12
          13          14          22          12          13          23
          12          13          14           9          12          13
          14          24          23          13          14           9
          23          13          14          24
Redundant internal coordinates             R   N=         124
  2.49072335E+00  1.84608576E+00  2.74142405E+00  2.71080377E+00  2.67141567E+00
  2.67642569E+00  2.62675692E+00  2.04926867E+00  2.64273745E+00  2.05071083E+00
  2.64686537E+00  2.05189688E+00  2.62244925E+00  2.05064011E+00  2.05547305E+00
  2.68106823E+00  2.68276656E+00  2.62089394E+00  2.04837181E+00  2.64617134E+00
  2.05041279E+00  2.64973413E+00  2.05242514E+00  2.61719297E+00  2.05047537E+00
  2.04863185E+00  1.94481357E+00  2.07185329E+00  2.00940796E+00  2.20189961E+00
  2.11079025E+00  2.08552815E+00  2.08569817E+00  2.09195486E+00  2.09349157E+00
  2.09619141E+00  2.09656051E+00  2.08982547E+00  2.09675470E+00  2.10357702E+00
  2.09064924E+00  2.08895893E+00  2.09308706E+00  2.09772394E+00  2.09232774E+00
  2.09523665E+00  2.10270560E+00  2.08258873E+00  2.10966220E+00  2.08693139E+00
  2.08586828E+00  2.09275891E+00  2.09594309E+00  2.09329306E+00  2.09331246E+00
  2.09304243E+00  2.09672882E+00  2.10768878E+00  2.08785163E+00  2.08761563E+00
  2.09353391E+00  2.09594329E+00  2.09370622E+00  2.09294821E+00  2.08769053E+00
  2.10219918E+00  1.58006300E-01 -2.99063733E+00 -2.51855881E+00  5.70835035E-01
  6.30940382E-01 -2.56285108E+00 -2.75393428E+00  3.46589335E-01  3.79998703E-01
 -2.80266299E+00  3.08602949E+00  4.12437246E-03 -3.35933277E-03 -3.08526445E+00
 -3.10601562E+00  1.14334986E-01 -1.58636641E-02 -3.07869836E+00  1.57001532E-02
 -3.11575448E+00  3.09751195E+00 -3.39426866E-02 -9.07047328E-03  3.13305424E+00
  3.12234363E+00 -1.87169663E-02 -1.02645036E-02  3.12094580E+00  3.13079660E+00
 -2.11784032E-02  2.25899907E-02  3.08633237E+00 -3.10865266E+00 -4.49102781E-02
  3.11607710E+00  2.69254541E-02  1.55287414E-02 -3.07362291E+00 -3.12629652E+00
  4.34892774E-02 -2.52079011E-02 -3.13860741E+00  2.59491182E-03 -3.12370123E+00
  3.09182685E+00 -3.44692912E-02 -1.14259527E-02  3.13842113E+00  3.11483756E+00
 -1.85006635E-02  1.68439436E-03  3.14119027E+00  3.13502372E+00 -8.65570842E-03
  1.66349520E-02  3.12979693E+00 -3.12287362E+00 -9.71163971E-03
ZRed-IntVec                                I   N=         124
           0           0           0           0           0           0
           0           0           0           0           0           0
           0           0           0           0           0           0
           0           0           0           0           0           0
           0           0           0           0           0           0
           0           0           0           0           0           0
           0           0           0           0           0           0
           0           0           0           0           0           0
           0           0           0           0           0           0
           0           0           0           0           0           0
           0           0           0           0           0           0
           0           0           0           0           0           0
           0           0           0           0           0           0
           0           0           0           0           0           0
           0           0           0           0           0           0
           0           0           0           0           0           0
           0           0           0           0           0           0
           0           0           0           0           0           0
           0           0           0           0           0           0
           0           0           0           0           0           0
           0           0           0           0
ZRed-FPVec                                 R   N=         124
  0.00000000E+00  0.00000000E+00  0.00000000E+00  0.00000000E+00  0.00000000E+00
  0.00000000E+00  0.00000000E+00  0.00000000E+00  0.00000000E+00  0.00000000E+00
  0.00000000E+00  0.00000000E+00  0.00000000E+00  0.00000000E+00  0.00000000E+00
  0.00000000E+00  0.00000000E+00  0.00000000E+00  0.00000000E+00  0.00000000E+00
  0.00000000E+00  0.00000000E+00  0.00000000E+00  0.00000000E+00  0.00000000E+00
  0.00000000E+00  0.00000000E+00  0.00000000E+00  0.00000000E+00  0.00000000E+00
  0.00000000E+00  0.00000000E+00  0.00000000E+00  0.00000000E+00  0.00000000E+00
  0.00000000E+00  0.00000000E+00  0.00000000E+00  0.00000000E+00  0.00000000E+00
  0.00000000E+00  0.00000000E+00  0.00000000E+00  0.00000000E+00  0.00000000E+00
  0.00000000E+00  0.00000000E+00  0.00000000E+00  0.00000000E+00  0.00000000E+00
  0.00000000E+00  0.00000000E+00  0.00000000E+00  0.00000000E+00  0.00000000E+00
  0.00000000E+00  0.00000000E+00  0.00000000E+00  0.00000000E+00  0.00000000E+00
  0.00000000E+00  0.00000000E+00  0.00000000E+00  0.00000000E+00  0.00000000E+00
  0.00000000E+00  0.00000000E+00  0.00000000E+00  0.00000000E+00  0.00000000E+00
  0.00000000E+00  0.00000000E+00  0.00000000E+00  0.00000000E+00  0.00000000E+00
  0.00000000E+00  0.00000000E+00  0.00000000E+00  0.00000000E+00  0.00000000E+00
  0.00000000E+00  0.00000000E+00  0.00000000E+00  0.00000000E+00  0.00000000E+00
  0.00000000E+00  0.00000000E+00  0.00000000E+00  0.00000000E+00  0.00000000E+00
  0.00000000E+00  0.00000000E+00  0.00000000E+00  0.00000000E+00  0.00000000E+00
  0.00000000E+00  0.00000000E+00  0.00000000E+00  0.00000000E+00  0.00000000E+00
  0.00000000E+00  0.00000000E+00  0.00000000E+00  0.00000000E+00  0.00000000E+00
  0.00000000E+00  0.00000000E+00  0.00000000E+00  0.00000000E+00  0.00000000E+00
  0.00000000E+00  0.00000000E+00  0.00000000E+00  0.00000000E+00  0.00000000E+00
  0.00000000E+00  0.00000000E+00  0.00000000E+00  0.00000000E+00  0.00000000E+00
  0.00000000E+00  0.00000000E+00  0.00000000E+00  0.00000000E+00
ZRed-Constraint1                           R   N=         124
  2.49072335E+00  1.84608576E+00  2.74142405E+00  2.71080377E+00  2.67141567E+00
  2.67642569E+00  2.62675692E+00  2.04926867E+00  2.64273745E+00  2.05071083E+00
  2.64686537E+00  2.05189688E+00  2.62244925E+00  2.05064011E+00  2.05547305E+00
  2.68106823E+00  2.68276656E+00  2.62089394E+00  2.04837181E+00  2.64617134E+00
  2.05041279E+00  2.64973413E+00  2.05242514E+00  2.61719297E+00  2.05047537E+00
  2.04863185E+00  1.94481357E+00  2.07185329E+00  2.00940796E+00  2.20189961E+00
  2.11079025E+00  2.08552815E+00  2.08569817E+00  2.09195486E+00  2.09349157E+00
  2.09619141E+00  2.09656051E+00  2.08982547E+00  2.09675470E+00  2.10357702E+00
  2.09064924E+00  2.08895893E+00  2.09308706E+00  2.09772394E+00  2.09232774E+00
  2.09523665E+00  2.10270560E+00  2.08258873E+00  2.10966220E+00  2.08693139E+00
  2.08586828E+00  2.09275891E+00  2.09594309E+00  2.09329306E+00  2.09331246E+00
  2.09304243E+00  2.09672882E+00  2.10768878E+00  2.08785163E+00  2.08761563E+00
  2.09353391E+00  2.09594329E+00  2.09370622E+00  2.09294821E+00  2.08769053E+00
  2.10219918E+00  1.58006300E-01 -2.99063733E+00 -2.51855881E+00  5.70835035E-01
  6.30940382E-01 -2.56285108E+00 -2.75393428E+00  3.46589335E-01  3.79998703E-01
 -2.80266299E+00  3.08602949E+00  4.12437246E-03 -3.35933277E-03 -3.08526445E+00
 -3.10601562E+00  1.14334986E-01 -1.58636641E-02 -3.07869836E+00  1.57001532E-02
 -3.11575448E+00  3.09751195E+00 -3.39426866E-02 -9.07047328E-03  3.13305424E+00
  3.12234363E+00 -1.87169663E-02 -1.02645036E-02  3.12094580E+00  3.13079660E+00
 -2.11784032E-02  2.25899907E-02  3.08633237E+00 -3.10865266E+00 -4.49102781E-02
  3.11607710E+00  2.69254541E-02  1.55287414E-02 -3.07362291E+00 -3.12629652E+00
  4.34892774E-02 -2.52079011E-02 -3.13860741E+00  2.59491182E-03 -3.12370123E+00
  3.09182685E+00 -3.44692912E-02 -1.14259527E-02  3.13842113E+00  3.11483756E+00
 -1.85006635E-02  1.68439436E-03  3.14119027E+00  3.13502372E+00 -8.65570842E-03
  1.66349520E-02  3.12979693E+00 -3.12287362E+00 -9.71163971E-03
ZRed-Constraint2                           R   N=         124
  2.37750466E+00  1.81413708E+00  2.76987695E+00  2.76975889E+00  2.69126258E+00
  2.70617331E+00  2.66038874E+00  2.05977477E+00  2.64361103E+00  2.05966659E+00
  2.64534974E+00  2.05979087E+00  2.65909799E+00  2.05962046E+00  2.05991803E+00
  2.69157577E+00  2.70614256E+00  2.66021923E+00  2.05985024E+00  2.64359278E+00
  2.05988463E+00  2.64542782E+00  2.05980531E+00  2.65903957E+00  2.05974885E+00
  2.05978525E+00  2.09439510E+00  1.97033140E+00  1.97029104E+00  2.34256287E+00
  2.21083490E+00  2.08039389E+00  1.99195651E+00  2.14909356E+00  2.07784646E+00
  2.05624529E+00  2.10092564E+00  2.09667859E+00  2.08558108E+00  2.07773089E+00
  2.10213603E+00  2.10331839E+00  2.09394184E+00  2.09014705E+00  2.09909641E+00
  2.15272218E+00  2.08156306E+00  2.04890007E+00  2.21092468E+00  2.08047963E+00
  1.99178099E+00  2.14915542E+00  2.07767850E+00  2.05635139E+00  2.10101404E+00
  2.09664995E+00  2.08552131E+00  2.07759464E+00  2.10221221E+00  2.10337847E+00
  2.09403088E+00  2.09001241E+00  2.09914202E+00  2.15279464E+00  2.08147292E+00
  2.04891774E+00 -4.58285203E-01  2.68330746E+00 -2.37364778E+00  7.67944877E-01
  7.67944868E-01 -2.37364778E+00 -2.60752190E+00  5.34070749E-01  5.34070755E-01
 -2.60752190E+00  3.14159265E+00  0.00000000E+00  0.00000000E+00  3.14159265E+00
  3.14159264E+00 -0.00000000E+00  0.00000000E+00  3.14159265E+00 -0.00000000E+00
  3.14159265E+00  3.14159265E+00  0.00000000E+00  1.49011612E-08  3.14159265E+00
  3.14159265E+00 -0.00000000E+00  1.49011612E-08  3.14159265E+00  3.14159265E+00
 -0.00000000E+00 -0.00000000E+00  3.14159265E+00  3.14159265E+00  0.00000000E+00
  3.14159265E+00  0.00000000E+00  0.00000000E+00  3.14159265E+00  3.14159265E+00
  0.00000000E+00  0.00000000E+00  3.14159265E+00  0.00000000E+00  3.14159265E+00
  3.14159265E+00  0.00000000E+00  0.00000000E+00  3.14159265E+00  3.14159265E+00
  0.00000000E+00  0.00000000E+00  3.14159265E+00  3.14159265E+00  0.00000000E+00
  0.00000000E+00  3.14159265E+00  3.14159265E+00  0.00000000E+00
SymInf integers                            I   N=          26
           1           1           1           1           1           0
           0           0           0           0           0           0
           0           0           0           0           0           0
           0           0           0           0           0           0
           0           0
RotTr to input orientation                 R   N=          12
 -8.57393389E-01 -4.97491928E-01  1.31826997E-01 -3.66913623E-01  7.70481126E-01
  5.21280373E-01 -3.60902991E-01  3.98573225E-01 -8.43141990E-01 -2.96793346E+00
  5.62841873E-01 -6.47786111E-01
Number of contracted shells                I               78
Number of primitive shells                 I              198
Pure/Cartesian d shells                    I                1
Pure/Cartesian f shells                    I                0
Highest angular momentum                   I                2
Largest degree of contraction              I                6
Shell types                                I   N=          78
           0          -1          -1           2           0          -1
          -1           2           0          -1          -1           2
           0          -1          -1           2           0          -1
          -1           2           0          -1          -1           2
           0          -1          -1           2           0          -1
          -1           2           0          -1          -1           2
           0          -1          -1           2           0          -1
          -1           2           0          -1          -1           2
           0          -1          -1           2           0          -1
          -1           2           0           0           0           0
           0           0           0           0           0           0
           0           0           0           0           0           0
           0           0           0           0           0           0
Number of primitives per shell             I   N=          78
           6           3           1           1           6           3
           1           1           6           3           1           1
           6           3           1           1           6           3
           1           1           6           3           1           1
           6           3           1           1           6           3
           1           1           6           3           1           1
           6           3           1           1           6           3
           1           1           6           3           1           1
           6           3           1           1           6           3
           1           1           3           1           3           1
           3           1           3           1           3           1
           3           1           3           1           3           1
           3           1           3           1           3           1
Shell to atom map                          I   N=          78
           1           1           1           1           2           2
           2           2           3           3           3           3
           4           4           4           4           5           5
           5           5           6           6           6           6
           7           7           7           7           8           8
           8           8           9           9           9           9
          10          10          10          10          11          11
          11          11          12          12          12          12
          13          13          13          13          14          14
          14          14          15          15          16          16
          17          17          18          18          19          19
          20          20          21          21          22          22
          23          23          24          24          25          25
Primitive exponents                        R   N=         198
  5.48467166E+03  8.25234946E+02  1.88046958E+02  5.29645000E+01  1.68975704E+01
  5.79963534E+00  1.55396162E+01  3.59993359E+00  1.01376175E+00  2.70005823E-01
  8.00000000E-01  3.04752488E+03  4.57369518E+02  1.03948685E+02  2.92101553E+01
  9.28666296E+00  3.16392696E+00  7.86827235E+00  1.88128854E+00  5.44249258E-01
  1.68714478E-01  8.00000000E-01  3.04752488E+03  4.57369518E+02  1.03948685E+02
  2.92101553E+01  9.28666296E+00  3.16392696E+00  7.86827235E+00  1.88128854E+00
  5.44249258E-01  1.68714478E-01  8.00000000E-01  3.04752488E+03  4.57369518E+02
  1.03948685E+02  2.92101553E+01  9.28666296E+00  3.16392696E+00  7.86827235E+00
  1.88128854E+00  5.44249258E-01  1.68714478E-01  8.00000000E-01  3.04752488E+03
  4.57369518E+02  1.03948685E+02  2.92101553E+01  9.28666296E+00  3.16392696E+00
  7.86827235E+00  1.88128854E+00  5.44249258E-01  1.68714478E-01  8.00000000E-01