Title Card Required                                                     
Freq      RB3LYP                                                      6-31G(d)            
Number of atoms                            I               10
Info1-9                                    I   N=           9
          30          30        1002           0           0         100
           6          18        -502
Full Title                                 C   N=           2
Title Card Required     
Route                                      C   N=           6
#P opt freq b3lyp/6-31g(d) geom=connectivity temperature=0.0
01          
Charge                                     I                0
Multiplicity                               I                1
Number of electrons                        I               32
Number of alpha electrons                  I               16
Number of beta electrons                   I               16
Number of basis functions                  I               72
Number of independent functions            I               72
Number of point charges in /Mol/           I                0
Number of translation vectors              I                0
Atomic numbers                             I   N=          10
           6           6           6           8           1           1
           1           1           1           1
Nuclear charges                            R   N=          10
  6.00000000E+00  6.00000000E+00  6.00000000E+00  8.00000000E+00  1.00000000E+00
  1.00000000E+00  1.00000000E+00  1.00000000E+00  1.00000000E+00  1.00000000E+00
Current cartesian coordinates              R   N=          30
 -2.44358015E+00 -1.16176478E+00  2.17485042E-06 -2.62532856E-06  3.50175410E-01
 -1.05523144E-05  2.44356381E+00 -1.16179958E+00 -6.44842315E-08  2.64543487E-05
  2.64747288E+00  1.30300062E-06 -2.53499091E+00 -2.39494177E+00  1.66475401E+00
 -4.06008880E+00  1.20125970E-01  7.65017441E-05 -2.53507418E+00 -2.39484961E+00
 -1.66481557E+00  2.53491165E+00 -2.39502499E+00  1.66472118E+00  2.53506120E+00
 -2.39483359E+00 -1.66484909E+00  4.06008319E+00  1.20074630E-01  1.53194828E-04
Number of symbols in /Mol/                 I                0
Force Field                                I                0
Atom Types                                 C   N=          10
                                                            
                                                            
Int Atom Types                             I   N=          10
           0           0           0           0           0           0
           0           0           0           0
MM charges                                 R   N=          10
  0.00000000E+00  0.00000000E+00  0.00000000E+00  0.00000000E+00  0.00000000E+00
  0.00000000E+00  0.00000000E+00  0.00000000E+00  0.00000000E+00  0.00000000E+00
Integer atomic weights                     I   N=          10
          12          12          12          16           1           1
           1           1           1           1
Real atomic weights                        R   N=          10
  1.20000000E+01  1.20000000E+01  1.20000000E+01  1.59949146E+01  1.00782504E+00
  1.00782504E+00  1.00782504E+00  1.00782504E+00  1.00782504E+00  1.00782504E+00
Atom fragment info                         I   N=          10
           0           0           0           0           0           0
           0           0           0           0
Atom residue num                           I   N=          10
           0           0           0           0           0           0
           0           0           0           0
Nuclear spins                              I   N=          10
           0           0           0           0           1           1
           1           1           1           1
Nuclear ZEff                               R   N=          10
 -3.60000000E+00 -3.60000000E+00 -3.60000000E+00 -5.60000000E+00 -1.00000000E+00
 -1.00000000E+00 -1.00000000E+00 -1.00000000E+00 -1.00000000E+00 -1.00000000E+00
Nuclear ZNuc                               R   N=          10
  6.00000000E+00  6.00000000E+00  6.00000000E+00  8.00000000E+00  1.00000000E+00
  1.00000000E+00  1.00000000E+00  1.00000000E+00  1.00000000E+00  1.00000000E+00
Nuclear QMom                               R   N=          10
  0.00000000E+00  0.00000000E+00  0.00000000E+00  0.00000000E+00  0.00000000E+00
  0.00000000E+00  0.00000000E+00  0.00000000E+00  0.00000000E+00  0.00000000E+00
Nuclear GFac                               R   N=          10
  0.00000000E+00  0.00000000E+00  0.00000000E+00  0.00000000E+00  2.79284600E+00
  2.79284600E+00  2.79284600E+00  2.79284600E+00  2.79284600E+00  2.79284600E+00
MicOpt                                     I   N=          10
          -1          -1          -1          -1          -1          -1
          -1          -1          -1          -1
Number of residues                         I                0
Number of secondary structures             I                0
Redundant internal dimensions              I   N=           4
          36           9          15          12
Redundant internal coordinate indices      I   N=         144
           1           2           0           0           1           5
           0           0           1           6           0           0
           1           7           0           0           2           3
           0           0           2           4           0           0
           3           8           0           0           3           9
           0           0           3          10           0           0
           2           1           5           0           2           1
           6           0           2           1           7           0
           5           1           6           0           5           1
           7           0           6           1           7           0
           1           2           3           0           1           2
           4           0           3           2           4           0
           2           3           8           0           2           3
           9           0           2           3          10           0
           8           3           9           0           8           3
          10           0           9           3          10           0
           5           1           2           3           5           1
           2           4           6           1           2           3
           6           1           2           4           7           1
           2           3           7           1           2           4
           1           2           3           8           1           2
           3           9           1           2           3          10
           4           2           3           8           4           2
           3           9           4           2           3          10
Redundant internal coordinates             R   N=          36
  2.87350557E+00  2.07375989E+00  2.06309091E+00  2.07376167E+00  2.87351445E+00
  2.29729747E+00  2.07376136E+00  2.07375672E+00  2.06308904E+00  1.92876948E+00
  1.91704945E+00  1.92877306E+00  1.91231701E+00  1.86390391E+00  1.91231540E+00
  2.03340957E+00  2.12489436E+00  2.12488137E+00  1.92876047E+00  1.92876867E+00
  1.91704664E+00  1.86390674E+00  1.91231981E+00  1.91232636E+00  1.02960890E+00
 -2.11196865E+00  3.14154966E+00 -2.78929399E-05 -1.02969458E+00  2.11191317E+00
 -1.02957163E+00  1.02972701E+00 -3.14150823E+00  2.11200593E+00 -2.11188074E+00
  6.93296442E-05
ZRed-IntVec                                I   N=          36
           0           0           0           0           0           0
           0           0           0           0           0           0
           0           0           0           0           0           0
           0           0           0           0           0           0
           0           0           0           0           0           0
           0           0           0           0           0           0
ZRed-FPVec                                 R   N=          36
  0.00000000E+00  0.00000000E+00  0.00000000E+00  0.00000000E+00  0.00000000E+00
  0.00000000E+00  0.00000000E+00  0.00000000E+00  0.00000000E+00  0.00000000E+00
  0.00000000E+00  0.00000000E+00  0.00000000E+00  0.00000000E+00  0.00000000E+00
  0.00000000E+00  0.00000000E+00  0.00000000E+00  0.00000000E+00  0.00000000E+00
  0.00000000E+00  0.00000000E+00  0.00000000E+00  0.00000000E+00  0.00000000E+00
  0.00000000E+00  0.00000000E+00  0.00000000E+00  0.00000000E+00  0.00000000E+00
  0.00000000E+00  0.00000000E+00  0.00000000E+00  0.00000000E+00  0.00000000E+00
  0.00000000E+00
ZRed-Constraint1                           R   N=          36
  2.87350557E+00  2.07375989E+00  2.06309091E+00  2.07376167E+00  2.87351445E+00
  2.29729747E+00  2.07376136E+00  2.07375672E+00  2.06308904E+00  1.92876948E+00
  1.91704945E+00  1.92877306E+00  1.91231701E+00  1.86390391E+00  1.91231540E+00
  2.03340957E+00  2.12489436E+00  2.12488137E+00  1.92876047E+00  1.92876867E+00
  1.91704664E+00  1.86390674E+00  1.91231981E+00  1.91232636E+00  1.02960890E+00
 -2.11196865E+00  3.14154966E+00 -2.78929319E-05 -1.02969458E+00  2.11191317E+00
 -1.02957163E+00  1.02972701E+00 -3.14150823E+00  2.11200593E+00 -2.11188074E+00
  6.93296426E-05
ZRed-Constraint2                           R   N=          36
  2.78785094E+00  2.05976473E+00  2.05975333E+00  2.05991161E+00  2.78927910E+00
  2.36876359E+00  2.05978013E+00  2.05991820E+00  2.05973119E+00  1.91067830E+00
  1.91063680E+00  1.91062050E+00  1.91065873E+00  1.91060901E+00  1.91059608E+00
  2.12671798E+00  2.07871409E+00  2.07775322E+00  1.91068521E+00  1.91055014E+00
  1.91060148E+00  1.91062251E+00  1.91077554E+00  1.91056453E+00  1.70063180E+00
 -1.44079800E+00 -2.48809740E+00  6.53658112E-01 -3.93753425E-01  2.74800209E+00
 -1.39816872E+00  6.96194182E-01  2.79043482E+00  1.74326116E+00 -2.44556125E+00
 -3.51320606E-01
SymInf integers                            I   N=          26
           1           1           1           1           1           0
           0           0           0           0           0           0
           0           0           0           0           0           0
           0           0           0           0           0           0
           0           0
RotTr to input orientation                 R   N=          12
  7.24697800E-01  6.29483026E-01 -2.80293094E-01 -6.88914767E-01  6.70432149E-01
 -2.75530720E-01  1.44755897E-02  3.92774558E-01  9.19520855E-01  3.50224106E-01
 -2.98841447E-01 -5.45068721E-01
Number of contracted shells                I               28
Number of primitive shells                 I               68
Pure/Cartesian d shells                    I                1
Pure/Cartesian f shells                    I                0
Highest angular momentum                   I                2
Largest degree of contraction              I                6
Shell types                                I   N=          28
           0          -1          -1           2           0          -1
          -1           2           0          -1          -1           2
           0          -1          -1           2           0           0
           0           0           0           0           0           0
           0           0           0           0
Number of primitives per shell             I   N=          28
           6           3           1           1           6           3
           1           1           6           3           1           1
           6           3           1           1           3           1
           3           1           3           1           3           1
           3           1           3           1
Shell to atom map                          I   N=          28
           1           1           1           1           2           2
           2           2           3           3           3           3
           4           4           4           4           5           5
           6           6           7           7           8           8
           9           9          10          10
Primitive exponents                        R   N=          68
  3.04752488E+03  4.57369518E+02  1.03948685E+02  2.92101553E+01  9.28666296E+00
  3.16392696E+00  7.86827235E+00  1.88128854E+00  5.44249258E-01  1.68714478E-01
  8.00000000E-01  3.04752488E+03  4.57369518E+02  1.03948685E+02  2.92101553E+01
  9.28666296E+00  3.16392696E+00  7.86827235E+00  1.88128854E+00  5.44249258E-01
  1.68714478E-01  8.00000000E-01  3.04752488E+03  4.57369518E+02  1.03948685E+02
  2.92101553E+01  9.28666296E+00  3.16392696E+00  7.86827235E+00  1.88128854E+00
  5.44249258E-01  1.68714478E-01  8.00000000E-01  5.48467166E+03  8.25234946E+02
  1.88046958E+02  5.29645000E+01  1.68975704E+01  5.79963534E+00  1.55396162E+01
  3.59993359E+00  1.01376175E+00  2.70005823E-01  8.00000000E-01  1.87311370E+01
  2.82539436E+00  6.40121692E-01  1.61277759E-01  1.87311370E+01  2.82539436E+00
  6.40121692E-01  1.61277759E-01  1.87311370E+01  2.82539436E+00  6.40121692E-01
  1.61277759E-01  1.87311370E+01  2.82539436E+00  6.40121692E-01  1.61277759E-01
  1.87311370E+01  2.82539436E+00  6.40121692E-01  1.61277759E-01  1.87311370E+01
  2.82539436E+00  6.40121692E-01  1.61277759E-01
Contraction coefficients                   R   N=          68
  1.83473713E-03  1.40373228E-02  6.88426223E-02  2.32184443E-01  4.67941348E-01
  3.62311985E-01 -1.19332420E-01 -1.60854152E-01  1.14345644E+00  1.00000000E+00
  1.00000000E+00  1.83473713E-03  1.40373228E-02  6.88426223E-02  2.32184443E-01
  4.67941348E-01  3.62311985E-01 -1.19332420E-01 -1.60854152E-01  1.14345644E+00
  1.00000000E+00  1.00000000E+00  1.83473713E-03  1.40373228E-02  6.88426223E-02
  2.32184443E-01  4.67941348E-01  3.62311985E-01 -1.19332420E-01 -1.60854152E-01
  1.14345644E+00  1.00000000E+00  1.00000000E+00  1.83107443E-03  1.39501722E-02
  6.84450781E-02  2.32714336E-01  4.70192898E-01  3.58520853E-01 -1.10777550E-01
 -1.48026263E-01  1.13076702E+00  1.00000000E+00  1.00000000E+00  3.34946043E-02
  2.34726953E-01  8.13757326E-01  1.00000000E+00  3.34946043E-02  2.34726953E-01
  8.13757326E-01  1.00000000E+00  3.34946043E-02  2.34726953E-01  8.13757326E-01
  1.00000000E+00  3.34946043E-02  2.34726953E-01  8.13757326E-01  1.00000000E+00
  3.34946043E-02  2.34726953E-01  8.13757326E-01  1.00000000E+00  3.34946043E-02
  2.34726953E-01  8.13757326E-01  1.00000000E+00
P(S=P) Contraction coefficients            R   N=          68
  0.00000000E+00  0.00000000E+00  0.00000000E+00  0.00000000E+00  0.00000000E+00
  0.00000000E+00  6.89990666E-02  3.16423961E-01  7.44308291E-01  1.00000000E+00
  0.00000000E+00  0.00000000E+00  0.00000000E+00  0.00000000E+00  0.00000000E+00
  0.00000000E+00  0.00000000E+00  6.89990666E-02  3.16423961E-01  7.44308291E-01
  1.00000000E+00  0.00000000E+00  0.00000000E+00  0.00000000E+00  0.00000000E+00
  0.00000000E+00  0.00000000E+00  0.00000000E+00  6.89990666E-02  3.16423961E-01
  7.44308291E-01  1.00000000E+00  0.00000000E+00  0.00000000E+00  0.00000000E+00
  0.00000000E+00  0.00000000E+00  0.00000000E+00  0.00000000E+00  7.08742682E-02
  3.39752839E-01  7.27158577E-01  1.00000000E+00  0.00000000E+00  0.00000000E+00
  0.00000000E+00  0.00000000E+00  0.00000000E+00  0.00000000E+00  0.00000000E+00
  0.00000000E+00  0.00000000E+00  0.00000000E+00  0.00000000E+00  0.00000000E+00
  0.00000000E+00  0.00000000E+00  0.00000000E+00  0.00000000E+00  0.00000000E+00
  0.00000000E+00  0.00000000E+00  0.00000000E+00  0.00000000E+00  0.00000000E+00
  0.00000000E+00  0.00000000E+00  0.00000000E+00
Coordinates of each shell                  R   N=          84
 -2.44358015E+00 -1.16176478E+00  2.17485042E-06 -2.44358015E+00 -1.16176478E+00
  2.17485042E-06 -2.44358015E+00 -1.16176478E+00  2.17485042E-06 -2.44358015E+00
 -1.16176478E+00  2.17485042E-06 -2.62532856E-06  3.50175410E-01 -1.05523144E-05
 -2.62532856E-06  3.50175410E-01 -1.05523144E-05 -2.62532856E-06  3.50175410E-01
 -1.05523144E-05 -2.62532856E-06  3.50175410E-01 -1.05523144E-05  2.44356381E+00
 -1.16179958E+00 -6.44842316E-08  2.44356381E+00 -1.16179958E+00 -6.44842316E-08
  2.44356381E+00 -1.16179958E+00 -6.44842316E-08  2.44356381E+00 -1.16179958E+00
 -6.44842316E-08  2.64543487E-05  2.64747288E+00  1.30300062E-06  2.64543487E-05
  2.64747288E+00  1.30300062E-06  2.64543487E-05  2.64747288E+00  1.30300062E-06
  2.64543487E-05  2.64747288E+00  1.30300062E-06 -2.53499091E+00 -2.39494177E+00
  1.66475401E+00 -2.53499091E+00 -2.39494177E+00  1.66475401E+00 -4.06008880E+00
  1.20125970E-01  7.65017441E-05 -4.06008880E+00  1.20125970E-01  7.65017441E-05
 -2.53507418E+00 -2.39484961E+00 -1.66481557E+00 -2.53507418E+00 -2.39484961E+00
 -1.66481557E+00  2.53491165E+00 -2.39502499E+00  1.66472118E+00  2.53491165E+00
 -2.39502499E+00  1.66472118E+00  2.53506120E+00 -2.39483359E+00 -1.66484909E+00
  2.53506120E+00 -2.39483359E+00 -1.66484909E+00  4.06008319E+00  1.20074630E-01
  1.53194828E-04  4.06008319E+00  1.20074630E-01  1.53194828E-04
Num ILSW                                   I              100
ILSW                                       I   N=         100
           0           1           0           0           2           0
           0           0           0           0         402          -1
           5           0           0           0           2           0
           0           0           0           0           1           0
           1           0           0           0           0           0
           0           0      100000           0          -1           0
           0           0           0           0           0           0
           0           0           0           1           0           0
           0 -2000000000           1           0           0           0
           0           0           4          52           0           0
           0           0           5           0           0           0
           0           0           0          10           0           1
           0           0           0           0           0           0
           0           0           0           0           0           0
           0           0           0           0           0           0
           0           0           0           0           0           0
           0           0           0           0
Num RLSW                                   I               52
RLSW                                       R   N=          52
  8.00000000E-01  7.20000000E-01  1.00000000E+00  8.10000000E-01  2.00000000E-01
  0.00000000E+00  0.00000000E+00  1.00000000E+00  0.00000000E+00  0.00000000E+00
  0.00000000E+00  0.00000000E+00  1.00000000E+00  0.00000000E+00  0.00000000E+00
  0.00000000E+00  0.00000000E+00  1.00000000E+00  0.00000000E+00  0.00000000E+00
  0.00000000E+00  0.00000000E+00  1.00000000E+00  0.00000000E+00  0.00000000E+00
  0.00000000E+00  0.00000000E+00  1.00000000E+00  0.00000000E+00  0.00000000E+00
  0.00000000E+00  0.00000000E+00  1.00000000E+00  0.00000000E+00  0.00000000E+00
  0.00000000E+00  0.00000000E+00  0.00000000E+00  1.00000000E+00  1.00000000E+00
  0.00000000E+00  1.00000000E+00  0.00000000E+00  0.00000000E+00  0.00000000E+00
  0.00000000E+00  0.00000000E+00  0.00000000E+00  0.00000000E+00  0.00000000E+00
  0.00000000E+00  0.00000000E+00
MxBond                                     I                4
NBond                                      I   N=          10
           4           3           4           1           1           1
           1           1           1           1
IBond                                      I   N=          40
           2           5           6           7           1           3
           4           0           2           8           9          10
           2           0           0           0           1           0
           0           0           1           0           0           0
           1           0           0           0           3           0
           0           0           3           0           0           0
           3           0           0           0
RBond                                      R   N=          40
  1.00000000E+00  1.00000000E+00  1.00000000E+00  1.00000000E+00  1.00000000E+00
  1.00000000E+00  2.00000000E+00  0.00000000E+00  1.00000000E+00  1.00000000E+00
  1.00000000E+00  1.00000000E+00  2.00000000E+00  0.00000000E+00  0.00000000E+00
  0.00000000E+00  1.00000000E+00  0.00000000E+00  0.00000000E+00  0.00000000E+00
  1.00000000E+00  0.00000000E+00  0.00000000E+00  0.00000000E+00  1.00000000E+00
  0.00000000E+00  0.00000000E+00  0.00000000E+00  1.00000000E+00  0.00000000E+00
  0.00000000E+00  0.00000000E+00  1.00000000E+00  0.00000000E+00  0.00000000E+00
  0.00000000E+00  1.00000000E+00  0.00000000E+00  0.00000000E+00  0.00000000E+00
Virial Ratio                               R      2.009461384442646E+00
SCF Energy                                 R     -1.931556928928698E+02
Total Energy                               R     -1.931556928928698E+02
RMS Force                                  R      1.419710479967752E-06
RMS Density                                R      1.133419309185974E-09
NImag                                      I                0
Job Status                                 I                1
Nuclear derivative order                   I                2
External E-field                           R   N=          35
  0.00000000E+00  0.00000000E+00  0.00000000E+00  0.00000000E+00  0.00000000E+00
  0.00000000E+00  0.00000000E+00  0.00000000E+00  0.00000000E+00  0.00000000E+00
  0.00000000E+00  0.00000000E+00  0.00000000E+00  0.00000000E+00  0.00000000E+00
  0.00000000E+00  0.00000000E+00  0.00000000E+00  0.00000000E+00  0.00000000E+00
  0.00000000E+00  0.00000000E+00  0.00000000E+00  0.00000000E+00  0.00000000E+00
  0.00000000E+00  0.00000000E+00  0.00000000E+00  0.00000000E+00  0.00000000E+00
  0.00000000E+00  0.00000000E+00  0.00000000E+00  0.00000000E+00  0.00000000E+00
IOpCl                                      I                0
IROHF                                      I                0
Alpha Orbital Energies                     R   N=          72
 -1.91358065E+01 -1.02776519E+01 -1.01907740E+01 -1.01907629E+01 -1.03560162E+00
 -7.66920069E-01 -7.09715848E-01 -5.30791156E-01 -4.57856362E-01 -4.57557554E-01
 -4.47708559E-01 -4.03995790E-01 -3.92984277E-01 -3.78498242E-01 -3.46978612E-01
 -2.44185665E-01 -1.11583559E-02  8.79257111E-02  1.37459901E-01  1.48161571E-01
  1.61057458E-01  1.70787513E-01  1.80372644E-01  1.98156163E-01  2.90215488E-01
  3.23474025E-01  4.92128779E-01  5.36673237E-01  5.64761821E-01  5.73709448E-01
  5.76136603E-01  6.92057693E-01  7.01465433E-01  7.07213904E-01  7.70898098E-01
  7.84533285E-01  8.33111428E-01  8.74697537E-01  8.85345929E-01  8.98216544E-01
  9.20239129E-01  9.37973351E-01  9.60276181E-01  1.01830674E+00  1.10020812E+00
  1.17891550E+00  1.40542922E+00  1.41995842E+00  1.42771201E+00  1.56252107E+00
  1.76497824E+00  1.77727530E+00  1.79034272E+00  1.80502115E+00  1.90978847E+00
  1.93368998E+00  2.02736055E+00  2.07304279E+00  2.11797137E+00  2.19827952E+00
  2.20715564E+00  2.36088741E+00  2.40884637E+00  2.48339776E+00  2.59694319E+00
  2.69163738E+00  2.95616552E+00  2.97623549E+00  3.94548771E+00  4.08803436E+00
  4.27032831E+00  4.44324244E+00
Alpha MO coefficients                      R   N=        5184
  8.11927039E-06  8.67158498E-05  1.18942435E-05 -9.99636870E-06 -1.84396572E-09
 -7.03525385E-04 -7.45718329E-04  4.38410483E-04  1.86361611E-08 -4.13820957E-05
  1.46151602E-05 -4.64438093E-06 -5.43815536E-06 -6.21515530E-10  1.73582174E-09
 -1.14389690E-05  4.02341512E-04  1.33638955E-09 -3.46576191E-05 -2.54496615E-10
 -2.73005629E-03 -6.30348347E-08 -4.02984001E-03 -2.37833412E-08 -3.23268902E-05
 -9.19008672E-04 -5.23534658E-05 -1.39235184E-08 -3.74367997E-10 -5.50561492E-09
  8.11900113E-06  8.67185386E-05 -1.18934419E-05 -9.99616769E-06 -4.11613621E-09
 -7.03481383E-04  7.45716792E-04  4.38404941E-04  3.06266495E-08 -4.13881523E-05
  1.46125292E-05 -4.64389149E-06  5.44058201E-06  2.22930622E-09  3.44876169E-09
  9.92720274E-01  2.55495543E-02 -1.70935642E-08 -1.14038756E-03 -8.15076948E-09
  1.47537085E-02 -1.90686816E-08 -1.86974666E-03 -6.89979229E-09 -8.22055354E-03
 -7.64009852E-03 -8.24728472E-03  7.51422850E-09  1.20026097E-10  3.12589503E-09
  2.82582095E-05  1.12076110E-04  1.45478502E-05 -3.61505939E-04  2.82560441E-05
  1.12078666E-04  2.82570047E-05  1.12075167E-04  2.82538967E-05  1.12077305E-04
  1.45494719E-05 -3.61515471E-04  1.20676108E-03 -1.00161361E-04 -1.83130617E-04
 -1.98371861E-04 -6.31163761E-09  3.72145439E-03  1.99977547E-03  5.00341411E-04
  3.94424463E-08 -3.01244996E-04 -3.44276299E-04 -5.58731361E-05 -2.23106759E-04
  5.20872520E-09 -1.68175526E-09  9.92929380E-01  4.87141442E-02 -1.51694494E-09
  7.73661870E-04  8.42761223E-09 -1.02607695E-02  9.19384996E-08  4.74616780E-03
 -4.72857841E-08 -9.30386347E-03 -8.19124168E-03 -9.45343201E-03  2.46092247E-08
 -1.20324171E-09  7.09115181E-09  1.20671304E-03 -1.00157847E-04  1.83121082E-04
 -1.98371673E-04 -1.14282530E-08  3.72136455E-03 -1.99974194E-03  5.00347359E-04
  6.74964602E-08 -3.01230909E-04 -3.44280473E-04 -5.58728129E-05  2.23104977E-04
 -6.70922871E-09 -4.70749189E-09 -9.97204265E-05  5.73133333E-04  1.82723100E-09
  3.92654860E-05 -1.78915012E-09 -3.95333546E-03  1.53800329E-08  2.23354470E-03
  2.99203032E-08  3.73187932E-04 -2.58109051E-04  5.54636723E-04 -5.09849808E-09
 -2.42701478E-10 -8.83208806E-09 -1.69242667E-04  1.53885140E-04 -7.30854634E-05
  1.82833778E-04 -1.69239575E-04  1.53954972E-04 -1.69238590E-04  1.53856409E-04
 -1.69239277E-04  1.53984775E-04 -7.30849839E-05  1.82834076E-04  7.29223651E-01
  3.72021789E-02  1.63143067E-04 -1.66078908E-04 -8.92893523E-09 -1.44392622E-02
 -1.46869725E-03 -5.14987585E-04  2.73900080E-08 -6.73212947E-03 -6.76202308E-03
 -6.63517483E-03 -9.35767834E-05  3.80209682E-10  1.97826203E-09 -7.95599361E-05
 -1.44532003E-05  2.67502743E-04  1.35127332E-06 -4.24918218E-11  2.12873095E-04
 -4.70530966E-03 -4.97760905E-05  6.43047832E-09 -1.93696869E-05 -1.23266658E-05
 -7.44188225E-06 -2.24027713E-04  3.27805783E-09 -5.95448162E-10 -6.73948779E-01
 -3.44199384E-02  1.63648574E-04  1.63212697E-04  1.73908091E-08  1.35485314E-02
 -1.44594200E-03  4.83452903E-04 -5.60408294E-08  6.21376368E-03  6.24503676E-03
  6.11686177E-03 -9.12218599E-05 -2.14154863E-09 -6.89335709E-09 -1.06781356E-06
 -6.17419337E-06 -2.89450151E-05  1.15337269E-06 -6.33991121E-10  7.59788961E-06
  7.18422463E-04 -6.34897469E-06  1.36804893E-09 -1.07686291E-06  1.84591556E-06
 -8.44450651E-06 -9.93781699E-05 -7.89570711E-10 -2.84272992E-10  5.06219525E-05
  2.23631416E-03  1.22954793E-05  1.72468099E-03  5.06251213E-05  2.23630006E-03
 -5.75152954E-05 -2.09723098E-03 -5.75038328E-05 -2.09727401E-03 -1.57399329E-05
 -1.56014031E-03  6.73841793E-01  3.38980032E-02 -1.28335345E-05 -2.98937433E-05
 -1.61051664E-09 -1.07525830E-02 -2.31572429E-04 -3.80713993E-04 -1.67869764E-08
 -6.32348376E-03 -6.30475630E-03 -6.32659703E-03 -2.63247483E-05 -3.80910347E-10
 -1.34120797E-09 -2.01844112E-03 -3.66786837E-04 -1.05343789E-05  3.42537992E-05
 -3.12071207E-09  5.40277877E-03  1.85367492E-04 -1.26394738E-03  3.63301525E-08
 -4.91498556E-04 -3.12862274E-04 -1.88927155E-04  8.82463606E-06  8.42117314E-10
  2.37056941E-09  7.29124776E-01  3.67198117E-02 -4.03900675E-08 -4.28702570E-05
 -2.20290094E-09 -1.18552545E-02  3.46414108E-04 -4.20054546E-04 -4.49891637E-08
 -6.83353725E-03 -6.81721594E-03 -6.82900520E-03  3.36120109E-05 -1.55096206E-09
  1.49916317E-09 -2.71067440E-05 -1.56737915E-04  1.14074330E-06  2.93021176E-05
  3.44534535E-09  1.92547628E-04 -2.83020455E-05 -1.60910716E-04 -1.76182164E-08
 -2.72496888E-05  4.67623584E-05 -2.14381870E-04  3.91405520E-06 -7.54895963E-10
  4.40482260E-09 -8.95069740E-05  1.67937542E-03 -4.43345627E-05  2.02343921E-03
 -8.95120162E-05  1.67938376E-03 -8.52492720E-05  1.85013412E-03 -8.52551516E-05
  1.85010944E-03 -4.32325285E-05  2.15285559E-03 -1.84027672E-02  3.38286324E-02
  1.87624007E-02  1.91525303E-02 -3.57295185E-08  5.74269789E-03 -9.22390247E-03
  9.60395865E-03  8.86281720E-08  3.15185088E-03  3.34268992E-03 -1.19652953E-03
  4.79664116E-03 -3.19231083E-08  1.65072703E-08 -1.20420125E-01  2.32820350E-01
  2.23647925E-06  1.80029050E-01  1.04504146E-06  8.43466475E-02 -7.15217258E-07
 -4.35853992E-02 -1.07513649E-07 -1.90951423E-02  2.21831935E-02 -1.98927497E-02
  5.85026833E-07 -1.39061639E-09  2.38363554E-07 -1.84027863E-02  3.38286043E-02
 -1.87621233E-02  1.91527755E-02 -1.40866341E-08  5.74330221E-03  9.22381528E-03
  9.60391321E-03  1.10371206E-07  3.15175257E-03  3.34277482E-03 -1.19652126E-03
 -4.79660589E-03  5.45571635E-08  6.73500047E-08 -1.93435587E-01  4.18893496E-01
 -2.05656546E-06 -1.61748150E-01 -8.30156415E-07  4.03098249E-01 -6.79840641E-07
 -5.76812491E-02 -3.00216946E-07 -1.16228647E-02  9.88014746E-03 -6.92691485E-03
  3.17672905E-07  1.40898437E-09  1.11147065E-07  6.14564136E-03  1.23243644E-03
  8.15368630E-03 -2.59810328E-03  6.14562459E-03  1.23224760E-03  6.14564232E-03
  1.23249590E-03  6.14566301E-03  1.23215519E-03  8.15377146E-03 -2.59808264E-03
 -1.24892157E-01  2.38610026E-01  4.75443197E-02  1.75982588E-03 -9.87550421E-08
  2.07042207E-01  8.32496809E-03 -5.47851877E-03 -2.90557396E-08  2.54867927E-03
 -1.61105548E-03 -2.59837604E-05  2.39698127E-04  6.76984906E-08 -5.00639994E-08
 -8.57960973E-02  1.72971124E-01 -4.25656464E-06 -1.82078763E-01  3.37514564E-07
  1.23915768E-01 -4.26506978E-07 -4.33683960E-02 -3.55875818E-08  1.35795941E-02
 -1.21415446E-02 -6.13412268E-03 -8.32957004E-08 -1.55008694E-08 -1.69398833E-07
 -1.24888891E-01  2.38603746E-01 -4.75440042E-02  1.75977651E-03 -2.27972107E-07