 Entering Gaussian System, Link 0=/apps/cent7/gaussian/g16-A.03/g16-haswell/g16/g16
 Initial command:
 /apps/cent7/gaussian/g16-A.03/g16-haswell/g16/l1.exe "/scratch/brown/finej/gaussian/Gau-355357.inp" -scrdir="/scratch/brown/finej/gaussian/"
 Entering Link 1 = /apps/cent7/gaussian/g16-A.03/g16-haswell/g16/l1.exe PID=    355358.
  
 Copyright (c) 1988,1990,1992,1993,1995,1998,2003,2009,2016,
            Gaussian, Inc.  All Rights Reserved.
  
 This is part of the Gaussian(R) 16 program.  It is based on
 the Gaussian(R) 09 system (copyright 2009, Gaussian, Inc.),
 the Gaussian(R) 03 system (copyright 2003, Gaussian, Inc.),
 the Gaussian(R) 98 system (copyright 1998, Gaussian, Inc.),
 the Gaussian(R) 94 system (copyright 1995, Gaussian, Inc.),
 the Gaussian 92(TM) system (copyright 1992, Gaussian, Inc.),
 the Gaussian 90(TM) system (copyright 1990, Gaussian, Inc.),
 the Gaussian 88(TM) system (copyright 1988, Gaussian, Inc.),
 the Gaussian 86(TM) system (copyright 1986, Carnegie Mellon
 University), and the Gaussian 82(TM) system (copyright 1983,
 Carnegie Mellon University). Gaussian is a federally registered
 trademark of Gaussian, Inc.
  
 This software contains proprietary and confidential information,
 including trade secrets, belonging to Gaussian, Inc.
  
 This software is provided under written license and may be
 used, copied, transmitted, or stored only in accord with that
 written license.
  
 The following legend is applicable only to US Government
 contracts under FAR:
  
                    RESTRICTED RIGHTS LEGEND
  
 Use, reproduction and disclosure by the US Government is
 subject to restrictions as set forth in subparagraphs (a)
 and (c) of the Commercial Computer Software - Restricted
 Rights clause in FAR 52.227-19.
  
 Gaussian, Inc.
 340 Quinnipiac St., Bldg. 40, Wallingford CT 06492
  
  
 ---------------------------------------------------------------
 Warning -- This program may not be used in any manner that
 competes with the business of Gaussian, Inc. or will provide
 assistance to any competitor of Gaussian, Inc.  The licensee
 of this program is prohibited from giving any competitor of
 Gaussian, Inc. access to this program.  By using this program,
 the user acknowledges that Gaussian, Inc. is engaged in the
 business of creating and licensing software in the field of
 computational chemistry and represents and warrants to the
 licensee that it is not a competitor of Gaussian, Inc. and that
 it will not use this program in any manner prohibited above.
 ---------------------------------------------------------------
  

 Cite this work as:
 Gaussian 16, Revision A.03,
 M. J. Frisch, G. W. Trucks, H. B. Schlegel, G. E. Scuseria, 
 M. A. Robb, J. R. Cheeseman, G. Scalmani, V. Barone, 
 G. A. Petersson, H. Nakatsuji, X. Li, M. Caricato, A. V. Marenich, 
 J. Bloino, B. G. Janesko, R. Gomperts, B. Mennucci, H. P. Hratchian, 
 J. V. Ortiz, A. F. Izmaylov, J. L. Sonnenberg, D. Williams-Young, 
 F. Ding, F. Lipparini, F. Egidi, J. Goings, B. Peng, A. Petrone, 
 T. Henderson, D. Ranasinghe, V. G. Zakrzewski, J. Gao, N. Rega, 
 G. Zheng, W. Liang, M. Hada, M. Ehara, K. Toyota, R. Fukuda, 
 J. Hasegawa, M. Ishida, T. Nakajima, Y. Honda, O. Kitao, H. Nakai, 
 T. Vreven, K. Throssell, J. A. Montgomery, Jr., J. E. Peralta, 
 F. Ogliaro, M. J. Bearpark, J. J. Heyd, E. N. Brothers, K. N. Kudin, 
 V. N. Staroverov, T. A. Keith, R. Kobayashi, J. Normand, 
 K. Raghavachari, A. P. Rendell, J. C. Burant, S. S. Iyengar, 
 J. Tomasi, M. Cossi, J. M. Millam, M. Klene, C. Adamo, R. Cammi, 
 J. W. Ochterski, R. L. Martin, K. Morokuma, O. Farkas, 
 J. B. Foresman, and D. J. Fox, Gaussian, Inc., Wallingford CT, 2016.
 
 ******************************************
 Gaussian 16:  ES64L-G16RevA.03 25-Dec-2016
                14-Oct-2019 
 ******************************************
 %chk=16.chk
 %nprocshared=24
 Will use up to   24 processors via shared memory.
 %mem=80GB
 --------------------------------------------------------------
 #P opt freq b3lyp/6-31g(d) geom=connectivity temperature=0.001
 --------------------------------------------------------------
 1/18=20,19=15,26=3,38=1,57=2,112=-1000/1,3;
 2/9=110,12=2,17=6,18=5,40=1/2;
 3/5=1,6=6,7=1,11=2,25=1,30=1,71=1,74=-5/1,2,3;
 4//1;
 5/5=2,38=5/2;
 6/7=2,8=2,9=2,10=2,28=1/1;
 7//1,2,3,16;
 1/18=20,19=15,26=3/3(2);
 2/9=110/2;
 99//99;
 2/9=110/2;
 3/5=1,6=6,7=1,11=2,25=1,30=1,71=1,74=-5/1,2,3;
 4/5=5,16=3,69=1/1;
 5/5=2,38=5/2;
 7//1,2,3,16;
 1/18=20,19=15,26=3/3(-5);
 2/9=110/2;
 6/7=2,8=2,9=2,10=2,19=2,28=1/1;
 99/9=1/99;
 Leave Link    1 at Mon Oct 14 00:43:06 2019, MaxMem= 10737418240 cpu:               0.8 elap:               0.0
 (Enter /apps/cent7/gaussian/g16-A.03/g16-haswell/g16/l101.exe)
 -------------------
 Title Card Required
 -------------------
 Symbolic Z-matrix:
 Charge =  0 Multiplicity = 1
 C                    -0.3278   -1.3878    0.2277 
 C                     0.1379   -0.0472   -0.1752 
 C                     1.5436    0.2108   -0.5441 
 O                    -0.6828    0.8998   -0.2051 
 H                    -0.3504   -1.4529    1.3155 
 H                    -1.3292   -1.5585   -0.1674 
 H                     0.3522   -2.1426   -0.1674 
 H                     2.1423    0.3206    0.3601 
 H                     1.9239   -0.6243   -1.1325 
 H                     1.6026    1.1264   -1.1325 
 
 ITRead=  0  0  0  0  0  0  0  0  0  0
 MicOpt= -1 -1 -1 -1 -1 -1 -1 -1 -1 -1
 NAtoms=     10 NQM=       10 NQMF=       0 NMMI=      0 NMMIF=      0
                NMic=       0 NMicF=      0.
                    Isotopes and Nuclear Properties:
 (Nuclear quadrupole moments (NQMom) in fm**2, nuclear magnetic moments (NMagM)
  in nuclear magnetons)

  Atom         1           2           3           4           5           6           7           8           9          10
 IAtWgt=          12          12          12          16           1           1           1           1           1           1
 AtmWgt=  12.0000000  12.0000000  12.0000000  15.9949146   1.0078250   1.0078250   1.0078250   1.0078250   1.0078250   1.0078250
 NucSpn=           0           0           0           0           1           1           1           1           1           1
 AtZEff=  -0.0000000  -0.0000000  -0.0000000  -0.0000000  -0.0000000  -0.0000000  -0.0000000  -0.0000000  -0.0000000  -0.0000000
 NQMom=    0.0000000   0.0000000   0.0000000   0.0000000   0.0000000   0.0000000   0.0000000   0.0000000   0.0000000   0.0000000
 NMagM=    0.0000000   0.0000000   0.0000000   0.0000000   2.7928460   2.7928460   2.7928460   2.7928460   2.7928460   2.7928460
 AtZNuc=   6.0000000   6.0000000   6.0000000   8.0000000   1.0000000   1.0000000   1.0000000   1.0000000   1.0000000   1.0000000
 Leave Link  101 at Mon Oct 14 00:43:06 2019, MaxMem= 10737418240 cpu:               8.3 elap:               0.4
 (Enter /apps/cent7/gaussian/g16-A.03/g16-haswell/g16/l103.exe)

 GradGradGradGradGradGradGradGradGradGradGradGradGradGradGradGradGradGrad
 Berny optimization.
 Initialization pass.
                           ----------------------------
                           !    Initial Parameters    !
                           ! (Angstroms and Degrees)  !
 --------------------------                            --------------------------
 ! Name  Definition              Value          Derivative Info.                !
 --------------------------------------------------------------------------------
 ! R1    R(1,2)                  1.4753         estimate D2E/DX2                !
 ! R2    R(1,5)                  1.09           estimate D2E/DX2                !
 ! R3    R(1,6)                  1.09           estimate D2E/DX2                !
 ! R4    R(1,7)                  1.0901         estimate D2E/DX2                !
 ! R5    R(2,3)                  1.476          estimate D2E/DX2                !
 ! R6    R(2,4)                  1.2535         estimate D2E/DX2                !
 ! R7    R(3,8)                  1.09           estimate D2E/DX2                !
 ! R8    R(3,9)                  1.0901         estimate D2E/DX2                !
 ! R9    R(3,10)                 1.09           estimate D2E/DX2                !
 ! A1    A(2,1,5)              109.4738         estimate D2E/DX2                !
 ! A2    A(2,1,6)              109.4714         estimate D2E/DX2                !
 ! A3    A(2,1,7)              109.4705         estimate D2E/DX2                !
 ! A4    A(5,1,6)              109.4727         estimate D2E/DX2                !
 ! A5    A(5,1,7)              109.4698         estimate D2E/DX2                !
 ! A6    A(6,1,7)              109.4691         estimate D2E/DX2                !
 ! A7    A(1,2,3)              121.852          estimate D2E/DX2                !
 ! A8    A(1,2,4)              119.1015         estimate D2E/DX2                !
 ! A9    A(3,2,4)              119.0465         estimate D2E/DX2                !
 ! A10   A(2,3,8)              109.4742         estimate D2E/DX2                !
 ! A11   A(2,3,9)              109.4665         estimate D2E/DX2                !
 ! A12   A(2,3,10)             109.4694         estimate D2E/DX2                !
 ! A13   A(8,3,9)              109.4706         estimate D2E/DX2                !
 ! A14   A(8,3,10)             109.4794         estimate D2E/DX2                !
 ! A15   A(9,3,10)             109.4673         estimate D2E/DX2                !
 ! D1    D(5,1,2,3)             97.439          estimate D2E/DX2                !
 ! D2    D(5,1,2,4)            -82.5516         estimate D2E/DX2                !
 ! D3    D(6,1,2,3)           -142.5575         estimate D2E/DX2                !
 ! D4    D(6,1,2,4)             37.4519         estimate D2E/DX2                !
 ! D5    D(7,1,2,3)            -22.5604         estimate D2E/DX2                !
 ! D6    D(7,1,2,4)            157.4489         estimate D2E/DX2                !
 ! D7    D(1,2,3,8)            -80.1092         estimate D2E/DX2                !
 ! D8    D(1,2,3,9)             39.889          estimate D2E/DX2                !
 ! D9    D(1,2,3,10)           159.8801         estimate D2E/DX2                !
 ! D10   D(4,2,3,8)             99.8815         estimate D2E/DX2                !
 ! D11   D(4,2,3,9)           -140.1203         estimate D2E/DX2                !
 ! D12   D(4,2,3,10)           -20.1292         estimate D2E/DX2                !
 --------------------------------------------------------------------------------
 Trust Radius=3.00D-01 FncErr=1.00D-07 GrdErr=1.00D-06 EigMax=2.50D+02 EigMin=1.00D-04
 Number of steps in this run=     46 maximum allowed number of steps=    100.
 GradGradGradGradGradGradGradGradGradGradGradGradGradGradGradGradGradGrad

 Leave Link  103 at Mon Oct 14 00:43:06 2019, MaxMem= 10737418240 cpu:               1.0 elap:               0.1
 (Enter /apps/cent7/gaussian/g16-A.03/g16-haswell/g16/l202.exe)
                          Input orientation:                          
 ---------------------------------------------------------------------
 Center     Atomic      Atomic             Coordinates (Angstroms)
 Number     Number       Type             X           Y           Z
 ---------------------------------------------------------------------
      1          6           0       -0.327800   -1.387800    0.227700
      2          6           0        0.137900   -0.047200   -0.175200
      3          6           0        1.543600    0.210800   -0.544100
      4          8           0       -0.682800    0.899800   -0.205100
      5          1           0       -0.350400   -1.452900    1.315500
      6          1           0       -1.329200   -1.558500   -0.167400
      7          1           0        0.352200   -2.142600   -0.167400
      8          1           0        2.142300    0.320600    0.360100
      9          1           0        1.923900   -0.624300   -1.132500
     10          1           0        1.602600    1.126400   -1.132500
 ---------------------------------------------------------------------
                    Distance matrix (angstroms):
                    1          2          3          4          5
     1  C    0.000000
     2  C    1.475267   0.000000
     3  C    2.579406   1.476023   0.000000
     4  O    2.355091   1.253496   2.355101   0.000000
     5  H    1.089981   2.106328   3.132610   2.820977   0.000000
     6  H    1.089975   2.106293   3.394894   2.542143   1.779942
     7  H    1.090058   2.106344   2.664550   3.213852   1.779979
     8  H    3.006253   2.106998   1.089989   2.938727   3.204941
     9  H    2.739202   2.106956   1.090062   3.158771   3.442633
    10  H    3.449317   2.106919   1.089963   2.476787   4.057056
                    6          7          8          9         10
     6  H    0.000000
     7  H    1.779966   0.000000
     8  H    3.982535   3.090319   0.000000
     9  H    3.519490   2.388911   1.779997   0.000000
    10  H    4.090912   3.630603   1.780012   1.779939   0.000000
 Stoichiometry    C3H6O
 Framework group  C1[X(C3H6O)]
 Deg. of freedom    24
 Full point group                 C1      NOp   1
 Largest Abelian subgroup         C1      NOp   1
 Largest concise Abelian subgroup C1      NOp   1
                         Standard orientation:                         
 ---------------------------------------------------------------------
 Center     Atomic      Atomic             Coordinates (Angstroms)
 Number     Number       Type             X           Y           Z
 ---------------------------------------------------------------------
      1          6           0       -1.289607   -0.594012    0.000013
      2          6           0       -0.000353    0.123092   -0.000047
      3          6           0        1.289799   -0.593951    0.000030
      4          8           0        0.000041    1.376588    0.000012
      5          1           0       -1.671842   -0.654272    1.018994
      6          1           0       -2.003719   -0.057650   -0.624810
      7          1           0       -1.145800   -1.600072   -0.394182
      8          1           0        1.521664   -0.924673    1.012422
      9          1           0        1.224239   -1.459765   -0.658986
     10          1           0        2.076098    0.072949   -0.353520
 ---------------------------------------------------------------------
 Rotational constants (GHZ):          10.5681359           8.4955490           5.0076085
 Leave Link  202 at Mon Oct 14 00:43:06 2019, MaxMem= 10737418240 cpu:               1.1 elap:               0.1
 (Enter /apps/cent7/gaussian/g16-A.03/g16-haswell/g16/l301.exe)
 Standard basis: 6-31G(d) (6D, 7F)
 Ernie: Thresh=  0.10000D-02 Tol=  0.10000D-05 Strict=F.
 There are    72 symmetry adapted cartesian basis functions of A   symmetry.
 There are    72 symmetry adapted basis functions of A   symmetry.
    72 basis functions,   136 primitive gaussians,    72 cartesian basis functions
    16 alpha electrons       16 beta electrons
       nuclear repulsion energy       119.9935887436 Hartrees.
 IExCor=  402 DFT=T Ex+Corr=B3LYP ExCW=0 ScaHFX=  0.200000
 ScaDFX=  0.800000  0.720000  1.000000  0.810000 ScalE2=  1.000000  1.000000
 IRadAn=      5 IRanWt=     -1 IRanGd=            0 ICorTp=0 IEmpDi=  4
 NAtoms=   10 NActive=   10 NUniq=   10 SFac= 1.00D+00 NAtFMM=   60 NAOKFM=F Big=F
 Integral buffers will be    131072 words long.
 Raffenetti 2 integral format.
 Two-electron integral symmetry is turned on.
 Leave Link  301 at Mon Oct 14 00:43:06 2019, MaxMem= 10737418240 cpu:               1.4 elap:               0.1
 (Enter /apps/cent7/gaussian/g16-A.03/g16-haswell/g16/l302.exe)
 NPDir=0 NMtPBC=     1 NCelOv=     1 NCel=       1 NClECP=     1 NCelD=      1
         NCelK=      1 NCelE2=     1 NClLst=     1 CellRange=     0.0.
 One-electron integrals computed using PRISM.
 One-electron integral symmetry used in STVInt
 NBasis=    72 RedAO= T EigKep=  4.87D-03  NBF=    72
 NBsUse=    72 1.00D-06 EigRej= -1.00D+00 NBFU=    72
 Precomputing XC quadrature grid using
 IXCGrd= 4 IRadAn=           5 IRanWt=          -1 IRanGd=           0 AccXCQ= 0.00D+00.
 Generated NRdTot=       0 NPtTot=           0 NUsed=           0 NTot=          32
 NSgBfM=    72    72    72    72    72 MxSgAt=    10 MxSgA2=    10.
 Leave Link  302 at Mon Oct 14 00:43:06 2019, MaxMem= 10737418240 cpu:               2.9 elap:               0.1
 (Enter /apps/cent7/gaussian/g16-A.03/g16-haswell/g16/l303.exe)
 DipDrv:  MaxL=1.
 Leave Link  303 at Mon Oct 14 00:43:06 2019, MaxMem= 10737418240 cpu:               0.7 elap:               0.1
 (Enter /apps/cent7/gaussian/g16-A.03/g16-haswell/g16/l401.exe)
 ExpMin= 1.61D-01 ExpMax= 5.48D+03 ExpMxC= 8.25D+02 IAcc=3 IRadAn=         5 AccDes= 0.00D+00
 Harris functional with IExCor=  402 and IRadAn=       5 diagonalized for initial guess.
 HarFok:  IExCor=  402 AccDes= 0.00D+00 IRadAn=         5 IDoV= 1 UseB2=F ITyADJ=14
 ICtDFT=  3500011 ScaDFX=  1.000000  1.000000  1.000000  1.000000
 FoFCou: FMM=F IPFlag=           0 FMFlag=      100000 FMFlg1=           0
         NFxFlg=           0 DoJE=T BraDBF=F KetDBF=T FulRan=T
         wScrn=  0.000000 ICntrl=       500 IOpCl=  0 I1Cent=   200000004 NGrid=           0
         NMat0=    1 NMatS0=      1 NMatT0=    0 NMatD0=    1 NMtDS0=    0 NMtDT0=    0
 Petite list used in FoFCou.
 Harris En= -193.200574113132    
 JPrj=0 DoOrth=F DoCkMO=F.
 Leave Link  401 at Mon Oct 14 00:43:07 2019, MaxMem= 10737418240 cpu:               4.2 elap:               0.2
 (Enter /apps/cent7/gaussian/g16-A.03/g16-haswell/g16/l502.exe)
 Keep R1 ints in memory in canonical form, NReq=24964336.
 FoFCou: FMM=F IPFlag=           0 FMFlag=           0 FMFlg1=           0
         NFxFlg=           0 DoJE=F BraDBF=F KetDBF=F FulRan=T
         wScrn=  0.000000 ICntrl=       600 IOpCl=  0 I1Cent=           0 NGrid=           0
         NMat0=    1 NMatS0=   2628 NMatT0=    0 NMatD0=    1 NMtDS0=    0 NMtDT0=    0
 Symmetry not used in FoFCou.
 Two-electron integral symmetry not used.
 Closed shell SCF:
 Using DIIS extrapolation, IDIIS=  1040.
 NGot= 10737418240 LenX= 10733950624 LenY= 10733944999
 Requested convergence on RMS density matrix=1.00D-08 within 128 cycles.
 Requested convergence on MAX density matrix=1.00D-06.
 Requested convergence on             energy=1.00D-06.
 No special actions if energy rises.
 Integral accuracy reduced to 1.0D-05 until final iterations.

 Cycle   1  Pass 0  IDiag  1:
 E= -192.980933695618    
 DIIS: error= 5.49D-02 at cycle   1 NSaved=   1.
 NSaved= 1 IEnMin= 1 EnMin= -192.980933695618     IErMin= 1 ErrMin= 5.49D-02
 ErrMax= 5.49D-02  0.00D+00 EMaxC= 1.00D-01 BMatC= 1.79D-01 BMatP= 1.79D-01
 IDIUse=3 WtCom= 4.51D-01 WtEn= 5.49D-01
 Coeff-Com:  0.100D+01
 Coeff-En:   0.100D+01
 Coeff:      0.100D+01
 Gap=     0.113 Goal=   None    Shift=    0.000
 GapD=    0.113 DampG=1.000 DampE=0.500 DampFc=0.5000 IDamp=-1.
 Damping current iteration by 5.00D-01
 RMSDP=1.43D-02 MaxDP=2.02D-01              OVMax= 3.18D-01

 Cycle   2  Pass 0  IDiag  1:
 E= -193.038084396583     Delta-E=       -0.057150700965 Rises=F Damp=T
 DIIS: error= 1.70D-02 at cycle   2 NSaved=   2.
 NSaved= 2 IEnMin= 2 EnMin= -193.038084396583     IErMin= 2 ErrMin= 1.70D-02
 ErrMax= 1.70D-02  0.00D+00 EMaxC= 1.00D-01 BMatC= 2.28D-02 BMatP= 1.79D-01
 IDIUse=3 WtCom= 8.30D-01 WtEn= 1.70D-01
 Coeff-Com:  0.195D+00 0.805D+00
 Coeff-En:   0.280D+00 0.720D+00
 Coeff:      0.209D+00 0.791D+00
 Gap=     0.221 Goal=   None    Shift=    0.000
 RMSDP=4.27D-03 MaxDP=6.38D-02 DE=-5.72D-02 OVMax= 2.60D-01

 Cycle   3  Pass 0  IDiag  1:
 E= -193.123112515708     Delta-E=       -0.085028119125 Rises=F Damp=F
 DIIS: error= 2.44D-02 at cycle   3 NSaved=   3.
 NSaved= 3 IEnMin= 3 EnMin= -193.123112515708     IErMin= 2 ErrMin= 1.70D-02
 ErrMax= 2.44D-02  0.00D+00 EMaxC= 1.00D-01 BMatC= 2.96D-02 BMatP= 2.28D-02
 IDIUse=2 WtCom= 0.00D+00 WtEn= 1.00D+00
 Coeff-En:   0.000D+00 0.000D+00 0.100D+01
 Coeff:      0.000D+00 0.000D+00 0.100D+01
 Gap=     0.179 Goal=   None    Shift=    0.000
 RMSDP=6.56D-03 MaxDP=1.24D-01 DE=-8.50D-02 OVMax= 2.30D-01

 Cycle   4  Pass 0  IDiag  1:
 E= -193.014431904242     Delta-E=        0.108680611466 Rises=F Damp=F
 DIIS: error= 5.83D-02 at cycle   4 NSaved=   4.
 NSaved= 4 IEnMin= 3 EnMin= -193.123112515708     IErMin= 2 ErrMin= 1.70D-02
 ErrMax= 5.83D-02  0.00D+00 EMaxC= 1.00D-01 BMatC= 1.66D-01 BMatP= 2.28D-02
 IDIUse=2 WtCom= 0.00D+00 WtEn= 1.00D+00
 Coeff-En:   0.000D+00 0.000D+00 0.786D+00 0.214D+00
 Coeff:      0.000D+00 0.000D+00 0.786D+00 0.214D+00
 Gap=     0.205 Goal=   None    Shift=    0.000
 RMSDP=3.73D-03 MaxDP=6.76D-02 DE= 1.09D-01 OVMax= 1.27D-01

 Cycle   5  Pass 0  IDiag  1:
 E= -193.139979725229     Delta-E=       -0.125547820987 Rises=F Damp=F
 DIIS: error= 1.42D-02 at cycle   5 NSaved=   5.
 NSaved= 5 IEnMin= 5 EnMin= -193.139979725229     IErMin= 5 ErrMin= 1.42D-02
 ErrMax= 1.42D-02  0.00D+00 EMaxC= 1.00D-01 BMatC= 1.06D-02 BMatP= 2.28D-02
 IDIUse=3 WtCom= 8.58D-01 WtEn= 1.42D-01
 Coeff-Com: -0.139D-01 0.410D-01 0.287D+00-0.906D-01 0.777D+00
 Coeff-En:   0.000D+00 0.000D+00 0.304D+00 0.000D+00 0.696D+00
 Coeff:     -0.119D-01 0.352D-01 0.289D+00-0.778D-01 0.765D+00
 Gap=     0.220 Goal=   None    Shift=    0.000
 RMSDP=1.17D-03 MaxDP=2.14D-02 DE=-1.26D-01 OVMax= 3.80D-02

 Cycle   6  Pass 0  IDiag  1:
 E= -193.148900360041     Delta-E=       -0.008920634811 Rises=F Damp=F
 DIIS: error= 6.12D-04 at cycle   6 NSaved=   6.
 NSaved= 6 IEnMin= 6 EnMin= -193.148900360041     IErMin= 6 ErrMin= 6.12D-04
 ErrMax= 6.12D-04  0.00D+00 EMaxC= 1.00D-01 BMatC= 2.20D-05 BMatP= 1.06D-02
 IDIUse=3 WtCom= 9.94D-01 WtEn= 6.12D-03
 Coeff-Com: -0.640D-02 0.131D-01 0.771D-01-0.338D-01 0.270D+00 0.680D+00
 Coeff-En:   0.000D+00 0.000D+00 0.000D+00 0.000D+00 0.000D+00 0.100D+01
 Coeff:     -0.636D-02 0.131D-01 0.767D-01-0.336D-01 0.269D+00 0.682D+00
 Gap=     0.219 Goal=   None    Shift=    0.000
 RMSDP=6.26D-05 MaxDP=1.27D-03 DE=-8.92D-03 OVMax= 1.97D-03

 Cycle   7  Pass 0  IDiag  1:
 E= -193.148917215123     Delta-E=       -0.000016855082 Rises=F Damp=F
 DIIS: error= 9.39D-05 at cycle   7 NSaved=   7.
 NSaved= 7 IEnMin= 7 EnMin= -193.148917215123     IErMin= 7 ErrMin= 9.39D-05
 ErrMax= 9.39D-05  0.00D+00 EMaxC= 1.00D-01 BMatC= 5.74D-07 BMatP= 2.20D-05
 IDIUse=1 WtCom= 1.00D+00 WtEn= 0.00D+00
 Coeff-Com: -0.146D-02 0.210D-02 0.156D-01-0.782D-02 0.628D-01 0.296D+00
 Coeff-Com:  0.633D+00
 Coeff:     -0.146D-02 0.210D-02 0.156D-01-0.782D-02 0.628D-01 0.296D+00
 Coeff:      0.633D+00
 Gap=     0.219 Goal=   None    Shift=    0.000
 RMSDP=1.44D-05 MaxDP=1.83D-04 DE=-1.69D-05 OVMax= 2.46D-04

 Cycle   8  Pass 0  IDiag  1:
 E= -193.148917719327     Delta-E=       -0.000000504205 Rises=F Damp=F
 DIIS: error= 1.02D-05 at cycle   8 NSaved=   8.
 NSaved= 8 IEnMin= 8 EnMin= -193.148917719327     IErMin= 8 ErrMin= 1.02D-05
 ErrMax= 1.02D-05  0.00D+00 EMaxC= 1.00D-01 BMatC= 7.25D-09 BMatP= 5.74D-07
 IDIUse=1 WtCom= 1.00D+00 WtEn= 0.00D+00
 Coeff-Com:  0.265D-04-0.180D-03 0.782D-04-0.254D-03 0.113D-02 0.172D-01
 Coeff-Com:  0.737D-01 0.908D+00
 Coeff:      0.265D-04-0.180D-03 0.782D-04-0.254D-03 0.113D-02 0.172D-01
 Coeff:      0.737D-01 0.908D+00
 Gap=     0.219 Goal=   None    Shift=    0.000
 RMSDP=1.27D-06 MaxDP=1.76D-05 DE=-5.04D-07 OVMax= 2.02D-05

 Initial convergence to 1.0D-05 achieved.  Increase integral accuracy.
 Cycle   9  Pass 1  IDiag  1:
 E= -193.148924641939     Delta-E=       -0.000006922611 Rises=F Damp=F
 DIIS: error= 1.56D-06 at cycle   1 NSaved=   1.
 NSaved= 1 IEnMin= 1 EnMin= -193.148924641939     IErMin= 1 ErrMin= 1.56D-06
 ErrMax= 1.56D-06  0.00D+00 EMaxC= 1.00D-01 BMatC= 3.33D-10 BMatP= 3.33D-10
 IDIUse=1 WtCom= 1.00D+00 WtEn= 0.00D+00
 Coeff-Com:  0.100D+01
 Coeff:      0.100D+01
 Gap=     0.219 Goal=   None    Shift=    0.000
 RMSDP=1.27D-06 MaxDP=1.76D-05 DE=-6.92D-06 OVMax= 7.50D-06

 Cycle  10  Pass 1  IDiag  1:
 E= -193.148924642267     Delta-E=       -0.000000000328 Rises=F Damp=F
 DIIS: error= 1.87D-06 at cycle   2 NSaved=   2.
 NSaved= 2 IEnMin= 2 EnMin= -193.148924642267     IErMin= 1 ErrMin= 1.56D-06
 ErrMax= 1.87D-06  0.00D+00 EMaxC= 1.00D-01 BMatC= 1.67D-10 BMatP= 3.33D-10
 IDIUse=1 WtCom= 1.00D+00 WtEn= 0.00D+00
 Coeff-Com:  0.377D+00 0.623D+00
 Coeff:      0.377D+00 0.623D+00
 Gap=     0.219 Goal=   None    Shift=    0.000
 RMSDP=3.14D-07 MaxDP=6.57D-06 DE=-3.28D-10 OVMax= 1.11D-05

 Cycle  11  Pass 1  IDiag  1:
 E= -193.148924642259     Delta-E=        0.000000000007 Rises=F Damp=F
 DIIS: error= 2.06D-06 at cycle   3 NSaved=   3.
 NSaved= 3 IEnMin= 2 EnMin= -193.148924642267     IErMin= 1 ErrMin= 1.56D-06
 ErrMax= 2.06D-06  0.00D+00 EMaxC= 1.00D-01 BMatC= 1.93D-10 BMatP= 1.67D-10
 IDIUse=1 WtCom= 1.00D+00 WtEn= 0.00D+00
 Coeff-Com:  0.160D-01 0.514D+00 0.470D+00
 Coeff:      0.160D-01 0.514D+00 0.470D+00
 Gap=     0.219 Goal=   None    Shift=    0.000
 RMSDP=1.55D-07 MaxDP=3.31D-06 DE= 7.28D-12 OVMax= 5.35D-06

 Cycle  12  Pass 1  IDiag  1:
 E= -193.148924642406     Delta-E=       -0.000000000147 Rises=F Damp=F
 DIIS: error= 1.31D-07 at cycle   4 NSaved=   4.
 NSaved= 4 IEnMin= 4 EnMin= -193.148924642406     IErMin= 4 ErrMin= 1.31D-07
 ErrMax= 1.31D-07  0.00D+00 EMaxC= 1.00D-01 BMatC= 1.24D-12 BMatP= 1.67D-10
 IDIUse=1 WtCom= 1.00D+00 WtEn= 0.00D+00
 Coeff-Com: -0.105D-01 0.177D+00 0.169D+00 0.665D+00
 Coeff:     -0.105D-01 0.177D+00 0.169D+00 0.665D+00
 Gap=     0.219 Goal=   None    Shift=    0.000
 RMSDP=2.57D-08 MaxDP=2.96D-07 DE=-1.47D-10 OVMax= 3.20D-07

 Cycle  13  Pass 1  IDiag  1:
 E= -193.148924642407     Delta-E=       -0.000000000001 Rises=F Damp=F
 DIIS: error= 2.84D-08 at cycle   5 NSaved=   5.
 NSaved= 5 IEnMin= 5 EnMin= -193.148924642407     IErMin= 5 ErrMin= 2.84D-08
 ErrMax= 2.84D-08  0.00D+00 EMaxC= 1.00D-01 BMatC= 9.20D-14 BMatP= 1.24D-12
 IDIUse=1 WtCom= 1.00D+00 WtEn= 0.00D+00
 Coeff-Com: -0.519D-02 0.591D-01 0.548D-01 0.290D+00 0.601D+00
 Coeff:     -0.519D-02 0.591D-01 0.548D-01 0.290D+00 0.601D+00
 Gap=     0.219 Goal=   None    Shift=    0.000
 RMSDP=4.56D-09 MaxDP=7.22D-08 DE=-1.02D-12 OVMax= 7.33D-08

 SCF Done:  E(RB3LYP) =  -193.148924642     A.U. after   13 cycles
            NFock= 13  Conv=0.46D-08     -V/T= 2.0089
 KE= 1.914363114738D+02 PE=-6.901095849824D+02 EE= 1.855307601226D+02
 Leave Link  502 at Mon Oct 14 00:43:07 2019, MaxMem= 10737418240 cpu:              14.0 elap:               0.7
 (Enter /apps/cent7/gaussian/g16-A.03/g16-haswell/g16/l601.exe)
 Copying SCF densities to generalized density rwf, IOpCl= 0 IROHF=0.

 **********************************************************************

            Population analysis using the SCF density.

 **********************************************************************

 Orbital symmetries:
       Occupied  (A) (A) (A) (A) (A) (A) (A) (A) (A) (A) (A) (A)
                 (A) (A) (A) (A)
       Virtual   (A) (A) (A) (A) (A) (A) (A) (A) (A) (A) (A) (A)
                 (A) (A) (A) (A) (A) (A) (A) (A) (A) (A) (A) (A)
                 (A) (A) (A) (A) (A) (A) (A) (A) (A) (A) (A) (A)
                 (A) (A) (A) (A) (A) (A) (A) (A) (A) (A) (A) (A)
                 (A) (A) (A) (A) (A) (A) (A) (A)
 The electronic state is 1-A.
 Alpha  occ. eigenvalues --  -19.12482 -10.27139 -10.18939 -10.18885  -1.01122
 Alpha  occ. eigenvalues --   -0.77583  -0.71959  -0.53156  -0.46511  -0.45534
 Alpha  occ. eigenvalues --   -0.45091  -0.41465  -0.38164  -0.38059  -0.32740
 Alpha  occ. eigenvalues --   -0.23852
 Alpha virt. eigenvalues --   -0.01912   0.09029   0.13088   0.14270   0.16363
 Alpha virt. eigenvalues --    0.17509   0.18617   0.22182   0.30118   0.32039
 Alpha virt. eigenvalues --    0.49503   0.52794   0.57431   0.58682   0.59814
 Alpha virt. eigenvalues --    0.65393   0.67686   0.70329   0.76304   0.82306
 Alpha virt. eigenvalues --    0.84608   0.86324   0.89520   0.91098   0.92537
 Alpha virt. eigenvalues --    0.93747   0.95975   1.02081   1.10879   1.19005
 Alpha virt. eigenvalues --    1.35114   1.41021   1.43946   1.55059   1.77990
 Alpha virt. eigenvalues --    1.80926   1.81489   1.83602   1.91239   1.92225
 Alpha virt. eigenvalues --    2.02808   2.13049   2.15160   2.20334   2.24053
 Alpha virt. eigenvalues --    2.35313   2.41238   2.45795   2.59066   2.72640
 Alpha virt. eigenvalues --    2.93336   2.97067   3.89354   4.09572   4.26709
 Alpha virt. eigenvalues --    4.46230
          Condensed to atoms (all electrons):
               1          2          3          4          5          6
     1  C    5.356721   0.319346  -0.141627  -0.089132   0.361145   0.359123
     2  C    0.319346   4.474228   0.332978   0.564978  -0.021711  -0.018277
     3  C   -0.141627   0.332978   5.350955  -0.087562   0.004018   0.005611
     4  O   -0.089132   0.564978  -0.087562   8.055547  -0.001534   0.001487
     5  H    0.361145  -0.021711   0.004018  -0.001534   0.513900  -0.016377
     6  H    0.359123  -0.018277   0.005611   0.001487  -0.016377   0.503481
     7  H    0.332324  -0.021186   0.004763   0.004184  -0.025442  -0.025660
     8  H    0.004818  -0.024569   0.356756  -0.000274  -0.000195  -0.000025
     9  H    0.003863  -0.020295   0.336916   0.003308  -0.000072  -0.000238
    10  H    0.006585  -0.020977   0.355306   0.004541  -0.000105  -0.000251
               7          8          9         10
     1  C    0.332324   0.004818   0.003863   0.006585
     2  C   -0.021186  -0.024569  -0.020295  -0.020977
     3  C    0.004763   0.356756   0.336916   0.355306
     4  O    0.004184  -0.000274   0.003308   0.004541
     5  H   -0.025442  -0.000195  -0.000072  -0.000105
     6  H   -0.025660  -0.000025  -0.000238  -0.000251
     7  H    0.581259  -0.000437   0.001243  -0.000180
     8  H   -0.000437   0.527289  -0.024772  -0.018323
     9  H    0.001243  -0.024772   0.567747  -0.024258
    10  H   -0.000180  -0.018323  -0.024258   0.509242
 Mulliken charges:
               1
     1  C   -0.513166
     2  C    0.435485
     3  C   -0.518115
     4  O   -0.455543
     5  H    0.186372
     6  H    0.191126
     7  H    0.149132
     8  H    0.179732
     9  H    0.156558
    10  H    0.188419
 Sum of Mulliken charges =  -0.00000
 Mulliken charges with hydrogens summed into heavy atoms:
               1
     1  C    0.013464
     2  C    0.435485
     3  C    0.006593
     4  O   -0.455543
 Electronic spatial extent (au):  <R**2>=            287.5055
 Charge=             -0.0000 electrons
 Dipole moment (field-independent basis, Debye):
    X=             -0.0487    Y=             -2.9099    Z=              0.1264  Tot=              2.9131
 Quadrupole moment (field-independent basis, Debye-Ang):
   XX=            -23.0042   YY=            -28.6923   ZZ=            -23.5537
   XY=             -0.0509   XZ=              0.0044   YZ=             -0.1746
 Traceless Quadrupole moment (field-independent basis, Debye-Ang):
   XX=              2.0792   YY=             -3.6089   ZZ=              1.5297
   XY=             -0.0509   XZ=              0.0044   YZ=             -0.1746
 Octapole moment (field-independent basis, Debye-Ang**2):
  XXX=             -0.2394  YYY=             -1.8766  ZZZ=              1.3065  XYY=              0.2970
  XXY=              2.2161  XXZ=             -0.0670  XZZ=             -0.3912  YZZ=              1.0147
  YYZ=             -0.5394  XYZ=              0.0213
 Hexadecapole moment (field-independent basis, Debye-Ang**3):
 XXXX=           -192.5629 YYYY=           -141.1371 ZZZZ=            -34.5055 XXXY=              0.5543
 XXXZ=              0.0768 YYYX=             -0.1457 YYYZ=              1.5550 ZZZX=             -0.0628
 ZZZY=             -1.1868 XXYY=            -57.1393 XXZZ=            -36.0253 YYZZ=            -27.3006
 XXYZ=             -1.8655 YYXZ=              0.0157 ZZXY=             -0.5568
 N-N= 1.199935887436D+02 E-N=-6.901095828638D+02  KE= 1.914363114738D+02
 No NMR shielding tensors so no spin-rotation constants.
 Leave Link  601 at Mon Oct 14 00:43:08 2019, MaxMem= 10737418240 cpu:               2.1 elap:               0.1
 (Enter /apps/cent7/gaussian/g16-A.03/g16-haswell/g16/l701.exe)
 ... and contract with generalized density number  0.
 Compute integral first derivatives.
 Leave Link  701 at Mon Oct 14 00:43:08 2019, MaxMem= 10737418240 cpu:               3.8 elap:               0.2
 (Enter /apps/cent7/gaussian/g16-A.03/g16-haswell/g16/l702.exe)
 L702 exits ... SP integral derivatives will be done elsewhere.
 Leave Link  702 at Mon Oct 14 00:43:08 2019, MaxMem= 10737418240 cpu:               0.4 elap:               0.0
 (Enter /apps/cent7/gaussian/g16-A.03/g16-haswell/g16/l703.exe)
 Integral derivatives from FoFJK, PRISM(SPDF).
 Compute integral first derivatives, UseDBF=F ICtDFT=           0.
 Calling FoFJK, ICntrl=      2127 FMM=F ISym2X=0 I1Cent= 0 IOpClX= 0 NMat=1 NMatS=1 NMatT=0.
 FoFJK:  IHMeth= 1 ICntrl=    2127 DoSepK=F KAlg= 0 I1Cent=           0 FoldK=F
 IRaf=         0 NMat=       1 IRICut=       1 DoRegI=T DoRafI=F ISym2E= 0 IDoP0=0 IntGTp=1.
 FoFCou: FMM=F IPFlag=           0 FMFlag=      100000 FMFlg1=         800
         NFxFlg=           0 DoJE=F BraDBF=F KetDBF=F FulRan=T
         wScrn=  0.000000 ICntrl=      2127 IOpCl=  0 I1Cent=           0 NGrid=           0
         NMat0=    1 NMatS0=      1 NMatT0=    0 NMatD0=    1 NMtDS0=    0 NMtDT0=    0
 Symmetry not used in FoFCou.
 Leave Link  703 at Mon Oct 14 00:43:08 2019, MaxMem= 10737418240 cpu:               6.6 elap:               0.3
 (Enter /apps/cent7/gaussian/g16-A.03/g16-haswell/g16/l716.exe)
 Dipole        =-1.91684153D-02-1.14485592D+00 4.97376573D-02
 ***** Axes restored to original set *****
 -------------------------------------------------------------------
 Center     Atomic                   Forces (Hartrees/Bohr)
 Number     Number              X              Y              Z
 -------------------------------------------------------------------
      1        6           0.004035896   -0.017070095   -0.003407026
      2        6          -0.051225156    0.061675251   -0.003523014
      3        6           0.011148491   -0.002662008   -0.008645463
      4        8           0.025485957   -0.030475093    0.001471391
      5        1          -0.000869209   -0.002758715    0.004359298
      6        1          -0.002610250    0.000030930    0.002382465
      7        1          -0.000073073   -0.007480638    0.003196479
      8        1           0.005940883   -0.001045797    0.002796395
      9        1           0.007377378   -0.002294703   -0.000314314
     10        1           0.000789084    0.002080869    0.001683789
 -------------------------------------------------------------------
 Cartesian Forces:  Max     0.061675251 RMS     0.017091837
 Leave Link  716 at Mon Oct 14 00:43:08 2019, MaxMem= 10737418240 cpu:               0.5 elap:               0.0
 (Enter /apps/cent7/gaussian/g16-A.03/g16-haswell/g16/l103.exe)

 GradGradGradGradGradGradGradGradGradGradGradGradGradGradGradGradGradGrad
 Berny optimization.
 FormGI is forming the generalized inverse of G from B-inverse, IUseBI=4.
 Internal  Forces:  Max     0.039745037 RMS     0.009758622
 Search for a local minimum.
 Step number   1 out of a maximum of   46
 All quantities printed in internal units (Hartrees-Bohrs-Radians)
 RMS Force = .97586D-02 SwitMx=.10000D-02 MixMth= 1
 Mixed Optimization -- RFO/linear search
 Second derivative matrix not updated -- first step.
 ITU=  0
     Eigenvalues ---    0.01083   0.01088   0.01093   0.07712   0.07714
     Eigenvalues ---    0.07718   0.07719   0.16000   0.16000   0.16000
     Eigenvalues ---    0.16000   0.16000   0.16000   0.25000   0.25000
     Eigenvalues ---    0.34806   0.34806   0.34814   0.34815   0.34816
     Eigenvalues ---    0.34817   0.35029   0.35117   0.81958
 RFO step:  Lambda=-8.64961442D-03 EMin= 1.08311815D-02
 Linear search not attempted -- first point.
 Iteration  1 RMS(Cart)=  0.04598633 RMS(Int)=  0.00126813
 Iteration  2 RMS(Cart)=  0.00158711 RMS(Int)=  0.00027253
 Iteration  3 RMS(Cart)=  0.00000093 RMS(Int)=  0.00027253
 ITry= 1 IFail=0 DXMaxC= 1.07D-01 DCOld= 1.00D+10 DXMaxT= 3.00D-01 DXLimC= 3.00D+00 Rises=F
 Variable       Old X    -DE/DX   Delta X   Delta X   Delta X     New X
                                 (Linear)    (Quad)   (Total)
    R1        2.78785   0.02642   0.00000   0.07342   0.07342   2.86128
    R2        2.05976   0.00453   0.00000   0.01271   0.01271   2.07247
    R3        2.05975   0.00153   0.00000   0.00429   0.00429   2.06404
    R4        2.05991   0.00398   0.00000   0.01115   0.01115   2.07106
    R5        2.78928   0.02449   0.00000   0.06822   0.06822   2.85750
    R6        2.36876  -0.03975   0.00000  -0.04799  -0.04799   2.32078
    R7        2.05978   0.00548   0.00000   0.01535   0.01535   2.07513
    R8        2.05992   0.00450   0.00000   0.01262   0.01262   2.07254
    R9        2.05973   0.00088   0.00000   0.00247   0.00247   2.06220
    A1        1.91068   0.00110   0.00000   0.00036   0.00013   1.91081
    A2        1.91064  -0.00055   0.00000  -0.00354  -0.00404   1.90660
    A3        1.91062   0.01012   0.00000   0.06644   0.06588   1.97650
    A4        1.91066  -0.00308   0.00000  -0.03112  -0.03126   1.87940
    A5        1.91061  -0.00548   0.00000  -0.03190  -0.03220   1.87841
    A6        1.91060  -0.00211   0.00000  -0.00023  -0.00099   1.90960
    A7        2.12672  -0.01072   0.00000  -0.04145  -0.04187   2.08484
    A8        2.07871   0.00438   0.00000   0.01695   0.01653   2.09525
    A9        2.07775   0.00634   0.00000   0.02449   0.02407   2.10182
   A10        1.91069   0.00232   0.00000   0.00816   0.00809   1.91877
   A11        1.91055   0.00777   0.00000   0.04923   0.04889   1.95944
   A12        1.91060  -0.00074   0.00000  -0.00198  -0.00227   1.90833
   A13        1.91062  -0.00611   0.00000  -0.04107  -0.04121   1.86942
   A14        1.91078  -0.00215   0.00000  -0.01904  -0.01905   1.89173
   A15        1.91056  -0.00108   0.00000   0.00471   0.00419   1.91476
    D1        1.70063   0.00037   0.00000  -0.02840  -0.02827   1.67236
    D2       -1.44080   0.00142   0.00000   0.02552   0.02552  -1.41527
    D3       -2.48810  -0.00307   0.00000  -0.06846  -0.06864  -2.55673
    D4        0.65366  -0.00202   0.00000  -0.01454  -0.01484   0.63882
    D5       -0.39375   0.00021   0.00000  -0.03023  -0.03000  -0.42375
    D6        2.74800   0.00127   0.00000   0.02368   0.02380   2.77180
    D7       -1.39817   0.00095   0.00000   0.05376   0.05376  -1.34441
    D8        0.69619  -0.00035   0.00000   0.03860   0.03851   0.73471
    D9        2.79043   0.00263   0.00000   0.07329   0.07354   2.86398
   D10        1.74326  -0.00010   0.00000  -0.00013  -0.00024   1.74302
   D11       -2.44556  -0.00140   0.00000  -0.01529  -0.01549  -2.46105
   D12       -0.35132   0.00157   0.00000   0.01940   0.01954  -0.33178
         Item               Value     Threshold  Converged?
 Maximum Force            0.039745     0.000450     NO 
 RMS     Force            0.009759     0.000300     NO 
 Maximum Displacement     0.107038     0.001800     NO 
 RMS     Displacement     0.045720     0.001200     NO 
 Predicted change in Energy=-4.523164D-03
 Lowest energy point so far.  Saving SCF results.
 GradGradGradGradGradGradGradGradGradGradGradGradGradGradGradGradGradGrad

 Leave Link  103 at Mon Oct 14 00:43:08 2019, MaxMem= 10737418240 cpu:               0.8 elap:               0.1
 (Enter /apps/cent7/gaussian/g16-A.03/g16-haswell/g16/l202.exe)
                          Input orientation:                          
 ---------------------------------------------------------------------
 Center     Atomic      Atomic             Coordinates (Angstroms)
 Number     Number       Type             X           Y           Z
 ---------------------------------------------------------------------
      1          6           0       -0.336285   -1.401852    0.224025
      2          6           0        0.103453   -0.019266   -0.209164
      3          6           0        1.554055    0.223611   -0.560275
      4          8           0       -0.702379    0.907434   -0.218933
      5          1           0       -0.344632   -1.456563    1.319332
      6          1           0       -1.355664   -1.581114   -0.124867
      7          1           0        0.319869   -2.199242   -0.143062
      8          1           0        2.153366    0.300952    0.356620
      9          1           0        1.979756   -0.592856   -1.156091
     10          1           0        1.640760    1.163197   -1.108484
 ---------------------------------------------------------------------
                    Distance matrix (angstroms):
                    1          2          3          4          5
     1  C    0.000000
     2  C    1.514122   0.000000
     3  C    2.613550   1.512123   0.000000
     4  O    2.379715   1.228102   2.382356   0.000000
     5  H    1.096704   2.145437   3.156092   2.843014   0.000000
     6  H    1.092243   2.139041   3.451532   2.574588   1.767317
     7  H    1.095957   2.191689   2.750909   3.271419   1.769669
     8  H    3.019186   2.150534   1.098113   2.975627   3.202447
     9  H    2.814825   2.178576   1.096740   3.212940   3.503782
    10  H    3.501965   2.137828   1.091271   2.519328   4.086467
                    6          7          8          9         10
     6  H    0.000000
     7  H    1.786008   0.000000
     8  H    4.010897   3.140440   0.000000
     9  H    3.628375   2.522287   1.765596   0.000000
    10  H    4.180586   3.739356   1.775601   1.789108   0.000000
 Stoichiometry    C3H6O
 Framework group  C1[X(C3H6O)]
 Deg. of freedom    24
 Full point group                 C1      NOp   1
 RotChk:  IX=0 Diff= 9.23D-03
 Largest Abelian subgroup         C1      NOp   1
 Largest concise Abelian subgroup C1      NOp   1
                         Standard orientation:                         
 ---------------------------------------------------------------------
 Center     Atomic      Atomic             Coordinates (Angstroms)
 Number     Number       Type             X           Y           Z
 ---------------------------------------------------------------------
      1          6           0       -1.303307   -0.610477   -0.001683
      2          6           0        0.001813    0.156888   -0.021113
      3          6           0        1.310225   -0.600867   -0.001588
      4          8           0       -0.006266    1.384689    0.004874
      5          1           0       -1.671849   -0.679246    1.028952
      6          1           0       -2.049383   -0.066520   -0.585187
      7          1           0       -1.210721   -1.631222   -0.389791
      8          1           0        1.517944   -0.963256    1.013980
      9          1           0        1.292384   -1.477950   -0.659800
     10          1           0        2.119372    0.067413   -0.300845
 ---------------------------------------------------------------------
 Rotational constants (GHZ):          10.3527903           8.2604277           4.8724130
 Leave Link  202 at Mon Oct 14 00:43:08 2019, MaxMem= 10737418240 cpu:               0.2 elap:               0.0
 (Enter /apps/cent7/gaussian/g16-A.03/g16-haswell/g16/l301.exe)
 Standard basis: 6-31G(d) (6D, 7F)
 Ernie: Thresh=  0.10000D-02 Tol=  0.10000D-05 Strict=F.
 There are    72 symmetry adapted cartesian basis functions of A   symmetry.
 There are    72 symmetry adapted basis functions of A   symmetry.
    72 basis functions,   136 primitive gaussians,    72 cartesian basis functions
    16 alpha electrons       16 beta electrons
       nuclear repulsion energy       118.8873350837 Hartrees.
 IExCor=  402 DFT=T Ex+Corr=B3LYP ExCW=0 ScaHFX=  0.200000
 ScaDFX=  0.800000  0.720000  1.000000  0.810000 ScalE2=  1.000000  1.000000
 IRadAn=      5 IRanWt=     -1 IRanGd=            0 ICorTp=0 IEmpDi=  4
 NAtoms=   10 NActive=   10 NUniq=   10 SFac= 1.00D+00 NAtFMM=   60 NAOKFM=F Big=F
 Integral buffers will be    131072 words long.
 Raffenetti 2 integral format.
 Two-electron integral symmetry is turned on.
 Leave Link  301 at Mon Oct 14 00:43:08 2019, MaxMem= 10737418240 cpu:               1.6 elap:               0.1
 (Enter /apps/cent7/gaussian/g16-A.03/g16-haswell/g16/l302.exe)
 NPDir=0 NMtPBC=     1 NCelOv=     1 NCel=       1 NClECP=     1 NCelD=      1
         NCelK=      1 NCelE2=     1 NClLst=     1 CellRange=     0.0.
 One-electron integrals computed using PRISM.
 One-electron integral symmetry used in STVInt
 NBasis=    72 RedAO= T EigKep=  5.08D-03  NBF=    72
 NBsUse=    72 1.00D-06 EigRej= -1.00D+00 NBFU=    72
 Precomputing XC quadrature grid using
 IXCGrd= 4 IRadAn=           5 IRanWt=          -1 IRanGd=           0 AccXCQ= 0.00D+00.
 Generated NRdTot=       0 NPtTot=           0 NUsed=           0 NTot=          32
 NSgBfM=    72    72    72    72    72 MxSgAt=    10 MxSgA2=    10.
 Leave Link  302 at Mon Oct 14 00:43:09 2019, MaxMem= 10737418240 cpu:               2.5 elap:               0.1
 (Enter /apps/cent7/gaussian/g16-A.03/g16-haswell/g16/l303.exe)
 DipDrv:  MaxL=1.
 Leave Link  303 at Mon Oct 14 00:43:09 2019, MaxMem= 10737418240 cpu:               0.5 elap:               0.0
 (Enter /apps/cent7/gaussian/g16-A.03/g16-haswell/g16/l401.exe)
 Initial guess from the checkpoint file:  "16.chk"
 B after Tr=     0.000000   -0.000000    0.000000
         Rot=    0.999998   -0.001215    0.000252   -0.001236 Ang=  -0.20 deg.
 Guess basis will be translated and rotated to current coordinates.
 JPrj=2 DoOrth=T DoCkMO=T.
 Generating alternative initial guess.
 ExpMin= 1.61D-01 ExpMax= 5.48D+03 ExpMxC= 8.25D+02 IAcc=2 IRadAn=         4 AccDes= 0.00D+00
 Harris functional with IExCor=  402 and IRadAn=       4 diagonalized for initial guess.
 HarFok:  IExCor=  402 AccDes= 0.00D+00 IRadAn=         4 IDoV= 1 UseB2=F ITyADJ=14
 ICtDFT=  3500011 ScaDFX=  1.000000  1.000000  1.000000  1.000000
 FoFCou: FMM=F IPFlag=           0 FMFlag=      100000 FMFlg1=           0
         NFxFlg=           0 DoJE=T BraDBF=F KetDBF=T FulRan=T
         wScrn=  0.000000 ICntrl=       500 IOpCl=  0 I1Cent=   200000004 NGrid=           0
         NMat0=    1 NMatS0=      1 NMatT0=    0 NMatD0=    1 NMtDS0=    0 NMtDT0=    0
 Petite list used in FoFCou.
 Harris En= -193.200967897405    
 Leave Link  401 at Mon Oct 14 00:43:09 2019, MaxMem= 10737418240 cpu:               4.5 elap:               0.2
 (Enter /apps/cent7/gaussian/g16-A.03/g16-haswell/g16/l502.exe)
 Keep R1 ints in memory in canonical form, NReq=24964336.
 FoFCou: FMM=F IPFlag=           0 FMFlag=           0 FMFlg1=           0
         NFxFlg=           0 DoJE=F BraDBF=F KetDBF=F FulRan=T
         wScrn=  0.000000 ICntrl=       600 IOpCl=  0 I1Cent=           0 NGrid=           0
         NMat0=    1 NMatS0=   2628 NMatT0=    0 NMatD0=    1 NMtDS0=    0 NMtDT0=    0
 Symmetry not used in FoFCou.
 Two-electron integral symmetry not used.
 Closed shell SCF:
 Using DIIS extrapolation, IDIIS=  1040.
 NGot= 10737418240 LenX= 10733950624 LenY= 10733944999
 Requested convergence on RMS density matrix=1.00D-08 within 128 cycles.
 Requested convergence on MAX density matrix=1.00D-06.
 Requested convergence on             energy=1.00D-06.
 No special actions if energy rises.
 Integral accuracy reduced to 1.0D-05 until final iterations.

 Cycle   1  Pass 0  IDiag  1:
 E= -193.151494029330    
 DIIS: error= 2.79D-03 at cycle   1 NSaved=   1.
 NSaved= 1 IEnMin= 1 EnMin= -193.151494029330     IErMin= 1 ErrMin= 2.79D-03
 ErrMax= 2.79D-03  0.00D+00 EMaxC= 1.00D-01 BMatC= 1.57D-03 BMatP= 1.57D-03
 IDIUse=3 WtCom= 9.72D-01 WtEn= 2.79D-02
 Coeff-Com:  0.100D+01
 Coeff-En:   0.100D+01
 Coeff:      0.100D+01
 Gap=     1.871 Goal=   None    Shift=    0.000
 GapD=    1.871 DampG=2.000 DampE=1.000 DampFc=2.0000 IDamp=-1.
 RMSDP=1.02D-03 MaxDP=1.18D-02              OVMax= 1.62D-02

 Cycle   2  Pass 0  IDiag  1:
 E= -193.153113950767     Delta-E=       -0.001619921437 Rises=F Damp=F
 DIIS: error= 4.05D-03 at cycle   2 NSaved=   2.
 NSaved= 2 IEnMin= 2 EnMin= -193.153113950767     IErMin= 1 ErrMin= 2.79D-03
 ErrMax= 4.05D-03  0.00D+00 EMaxC= 1.00D-01 BMatC= 1.07D-03 BMatP= 1.57D-03
 IDIUse=3 WtCom= 9.59D-01 WtEn= 4.05D-02
 Coeff-Com:  0.431D+00 0.569D+00
 Coeff-En:   0.000D+00 0.100D+01
 Coeff:      0.414D+00 0.586D+00
 Gap=     0.223 Goal=   None    Shift=    0.000
 RMSDP=6.31D-04 MaxDP=1.39D-02 DE=-1.62D-03 OVMax= 2.20D-02

 Cycle   3  Pass 0  IDiag  1:
 E= -193.153298546369     Delta-E=       -0.000184595602 Rises=F Damp=F
 DIIS: error= 4.44D-03 at cycle   3 NSaved=   3.
 NSaved= 3 IEnMin= 3 EnMin= -193.153298546369     IErMin= 1 ErrMin= 2.79D-03
 ErrMax= 4.44D-03  0.00D+00 EMaxC= 1.00D-01 BMatC= 8.22D-04 BMatP= 1.07D-03
 IDIUse=3 WtCom= 9.56D-01 WtEn= 4.44D-02
 Coeff-Com:  0.137D-02 0.466D+00 0.533D+00
 Coeff-En:   0.000D+00 0.453D+00 0.547D+00
 Coeff:      0.131D-02 0.465D+00 0.533D+00
 Gap=     0.227 Goal=   None    Shift=    0.000
 RMSDP=3.49D-04 MaxDP=7.50D-03 DE=-1.85D-04 OVMax= 1.23D-02

 Cycle   4  Pass 0  IDiag  1:
 E= -193.153934699201     Delta-E=       -0.000636152832 Rises=F Damp=F
 DIIS: error= 4.74D-04 at cycle   4 NSaved=   4.
 NSaved= 4 IEnMin= 4 EnMin= -193.153934699201     IErMin= 4 ErrMin= 4.74D-04
 ErrMax= 4.74D-04  0.00D+00 EMaxC= 1.00D-01 BMatC= 1.21D-05 BMatP= 8.22D-04
 IDIUse=3 WtCom= 9.95D-01 WtEn= 4.74D-03
 Coeff-Com: -0.167D-01 0.173D+00 0.242D+00 0.602D+00
 Coeff-En:   0.000D+00 0.000D+00 0.000D+00 0.100D+01
 Coeff:     -0.166D-01 0.172D+00 0.241D+00 0.604D+00
 Gap=     0.227 Goal=   None    Shift=    0.000
 RMSDP=4.34D-05 MaxDP=5.61D-04 DE=-6.36D-04 OVMax= 9.34D-04

 Cycle   5  Pass 0  IDiag  1:
 E= -193.153944456853     Delta-E=       -0.000009757651 Rises=F Damp=F
 DIIS: error= 1.18D-04 at cycle   5 NSaved=   5.
 NSaved= 5 IEnMin= 5 EnMin= -193.153944456853     IErMin= 5 ErrMin= 1.18D-04
 ErrMax= 1.18D-04  0.00D+00 EMaxC= 1.00D-01 BMatC= 6.30D-07 BMatP= 1.21D-05
 IDIUse=3 WtCom= 9.99D-01 WtEn= 1.18D-03
 Coeff-Com: -0.666D-02 0.404D-01 0.728D-01 0.249D+00 0.644D+00
 Coeff-En:   0.000D+00 0.000D+00 0.000D+00 0.000D+00 0.100D+01
 Coeff:     -0.665D-02 0.403D-01 0.728D-01 0.249D+00 0.644D+00
 Gap=     0.227 Goal=   None    Shift=    0.000
 RMSDP=1.17D-05 MaxDP=1.38D-04 DE=-9.76D-06 OVMax= 1.72D-04

 Cycle   6  Pass 0  IDiag  1:
 E= -193.153945093129     Delta-E=       -0.000000636276 Rises=F Damp=F
 DIIS: error= 9.24D-06 at cycle   6 NSaved=   6.
 NSaved= 6 IEnMin= 6 EnMin= -193.153945093129     IErMin= 6 ErrMin= 9.24D-06
 ErrMax= 9.24D-06  0.00D+00 EMaxC= 1.00D-01 BMatC= 9.04D-09 BMatP= 6.30D-07
 IDIUse=1 WtCom= 1.00D+00 WtEn= 0.00D+00
 Coeff-Com: -0.706D-03 0.124D-02 0.633D-02 0.253D-01 0.135D+00 0.832D+00
 Coeff:     -0.706D-03 0.124D-02 0.633D-02 0.253D-01 0.135D+00 0.832D+00
 Gap=     0.227 Goal=   None    Shift=    0.000
 RMSDP=1.85D-06 MaxDP=1.66D-05 DE=-6.36D-07 OVMax= 3.16D-05

 Initial convergence to 1.0D-05 achieved.  Increase integral accuracy.
 Cycle   7  Pass 1  IDiag  1:
 E= -193.153947882324     Delta-E=       -0.000002789195 Rises=F Damp=F
 DIIS: error= 2.50D-06 at cycle   1 NSaved=   1.
 NSaved= 1 IEnMin= 1 EnMin= -193.153947882324     IErMin= 1 ErrMin= 2.50D-06
 ErrMax= 2.50D-06  0.00D+00 EMaxC= 1.00D-01 BMatC= 1.01D-09 BMatP= 1.01D-09
 IDIUse=1 WtCom= 1.00D+00 WtEn= 0.00D+00
 Coeff-Com:  0.100D+01
 Coeff:      0.100D+01
 Gap=     0.227 Goal=   None    Shift=    0.000
 RMSDP=1.85D-06 MaxDP=1.66D-05 DE=-2.79D-06 OVMax= 1.49D-05

 Cycle   8  Pass 1  IDiag  1:
 E= -193.153947882649     Delta-E=       -0.000000000325 Rises=F Damp=F
 DIIS: error= 3.32D-06 at cycle   2 NSaved=   2.
 NSaved= 2 IEnMin= 2 EnMin= -193.153947882649     IErMin= 1 ErrMin= 2.50D-06
 ErrMax= 3.32D-06  0.00D+00 EMaxC= 1.00D-01 BMatC= 8.76D-10 BMatP= 1.01D-09
 IDIUse=1 WtCom= 1.00D+00 WtEn= 0.00D+00
 Coeff-Com:  0.481D+00 0.519D+00
 Coeff:      0.481D+00 0.519D+00
 Gap=     0.227 Goal=   None    Shift=    0.000
 RMSDP=4.42D-07 MaxDP=7.62D-06 DE=-3.25D-10 OVMax= 9.99D-06

 Cycle   9  Pass 1  IDiag  1:
 E= -193.153947883363     Delta-E=       -0.000000000714 Rises=F Damp=F
 DIIS: error= 1.88D-06 at cycle   3 NSaved=   3.
 NSaved= 3 IEnMin= 3 EnMin= -193.153947883363     IErMin= 3 ErrMin= 1.88D-06
 ErrMax= 1.88D-06  0.00D+00 EMaxC= 1.00D-01 BMatC= 1.54D-10 BMatP= 8.76D-10
 IDIUse=1 WtCom= 1.00D+00 WtEn= 0.00D+00
 Coeff-Com:  0.227D+00 0.325D+00 0.448D+00
 Coeff:      0.227D+00 0.325D+00 0.448D+00
 Gap=     0.227 Goal=   None    Shift=    0.000
 RMSDP=1.65D-07 MaxDP=3.88D-06 DE=-7.14D-10 OVMax= 6.09D-06

 Cycle  10  Pass 1  IDiag  1:
 E= -193.153947883470     Delta-E=       -0.000000000106 Rises=F Damp=F
 DIIS: error= 4.79D-07 at cycle   4 NSaved=   4.
 NSaved= 4 IEnMin= 4 EnMin= -193.153947883470     IErMin= 4 ErrMin= 4.79D-07
 ErrMax= 4.79D-07  0.00D+00 EMaxC= 1.00D-01 BMatC= 1.64D-11 BMatP= 1.54D-10
 IDIUse=1 WtCom= 1.00D+00 WtEn= 0.00D+00
 Coeff-Com:  0.178D-02 0.522D-01 0.262D+00 0.684D+00
 Coeff:      0.178D-02 0.522D-01 0.262D+00 0.684D+00
 Gap=     0.227 Goal=   None    Shift=    0.000
 RMSDP=7.31D-08 MaxDP=1.02D-06 DE=-1.06D-10 OVMax= 1.66D-06

 Cycle  11  Pass 1  IDiag  1:
 E= -193.153947883482     Delta-E=       -0.000000000013 Rises=F Damp=F
 DIIS: error= 6.10D-08 at cycle   5 NSaved=   5.
 NSaved= 5 IEnMin= 5 EnMin= -193.153947883482     IErMin= 5 ErrMin= 6.10D-08
 ErrMax= 6.10D-08  0.00D+00 EMaxC= 1.00D-01 BMatC= 6.15D-13 BMatP= 1.64D-11
 IDIUse=1 WtCom= 1.00D+00 WtEn= 0.00D+00
 Coeff-Com: -0.112D-01 0.288D-02 0.827D-01 0.293D+00 0.633D+00
 Coeff:     -0.112D-01 0.288D-02 0.827D-01 0.293D+00 0.633D+00
 Gap=     0.227 Goal=   None    Shift=    0.000
 RMSDP=1.45D-08 MaxDP=1.45D-07 DE=-1.26D-11 OVMax= 2.07D-07

 Cycle  12  Pass 1  IDiag  1:
 E= -193.153947883483     Delta-E=       -0.000000000001 Rises=F Damp=F
 DIIS: error= 1.05D-08 at cycle   6 NSaved=   6.
 NSaved= 6 IEnMin= 6 EnMin= -193.153947883483     IErMin= 6 ErrMin= 1.05D-08
 ErrMax= 1.05D-08  0.00D+00 EMaxC= 1.00D-01 BMatC= 9.11D-15 BMatP= 6.15D-13
 IDIUse=1 WtCom= 1.00D+00 WtEn= 0.00D+00
 Coeff-Com: -0.236D-02-0.191D-02 0.807D-02 0.366D-01 0.132D+00 0.827D+00
 Coeff:     -0.236D-02-0.191D-02 0.807D-02 0.366D-01 0.132D+00 0.827D+00
 Gap=     0.227 Goal=   None    Shift=    0.000
 RMSDP=1.88D-09 MaxDP=2.74D-08 DE=-1.31D-12 OVMax= 4.29D-08

 SCF Done:  E(RB3LYP) =  -193.153947883     A.U. after   12 cycles
            NFock= 12  Conv=0.19D-08     -V/T= 2.0095
 KE= 1.913310573381D+02 PE=-6.877767845710D+02 EE= 1.844044442657D+02
 Leave Link  502 at Mon Oct 14 00:43:10 2019, MaxMem= 10737418240 cpu:              14.3 elap:               0.7
 (Enter /apps/cent7/gaussian/g16-A.03/g16-haswell/g16/l701.exe)
 ... and contract with generalized density number  0.
 Compute integral first derivatives.
 Leave Link  701 at Mon Oct 14 00:43:10 2019, MaxMem= 10737418240 cpu:               2.5 elap:               0.1
 (Enter /apps/cent7/gaussian/g16-A.03/g16-haswell/g16/l702.exe)
 L702 exits ... SP integral derivatives will be done elsewhere.
 Leave Link  702 at Mon Oct 14 00:43:10 2019, MaxMem= 10737418240 cpu:               0.4 elap:               0.0
 (Enter /apps/cent7/gaussian/g16-A.03/g16-haswell/g16/l703.exe)
 Integral derivatives from FoFJK, PRISM(SPDF).
 Compute integral first derivatives, UseDBF=F ICtDFT=           0.
 Calling FoFJK, ICntrl=      2127 FMM=F ISym2X=0 I1Cent= 0 IOpClX= 0 NMat=1 NMatS=1 NMatT=0.
 FoFJK:  IHMeth= 1 ICntrl=    2127 DoSepK=F KAlg= 0 I1Cent=           0 FoldK=F
 IRaf=         0 NMat=       1 IRICut=       1 DoRegI=T DoRafI=F ISym2E= 0 IDoP0=0 IntGTp=1.
 FoFCou: FMM=F IPFlag=           0 FMFlag=      100000 FMFlg1=         800
         NFxFlg=           0 DoJE=F BraDBF=F KetDBF=F FulRan=T
         wScrn=  0.000000 ICntrl=      2127 IOpCl=  0 I1Cent=           0 NGrid=           0
         NMat0=    1 NMatS0=      1 NMatT0=    0 NMatD0=    1 NMtDS0=    0 NMtDT0=    0
 Symmetry not used in FoFCou.
 Leave Link  703 at Mon Oct 14 00:43:10 2019, MaxMem= 10737418240 cpu:               6.2 elap:               0.3
 (Enter /apps/cent7/gaussian/g16-A.03/g16-haswell/g16/l716.exe)
 Dipole        =-1.14044885D-02-1.09369229D+00 4.63994468D-02
 ***** Axes restored to original set *****
 -------------------------------------------------------------------
 Center     Atomic                   Forces (Hartrees/Bohr)
 Number     Number              X              Y              Z
 -------------------------------------------------------------------
      1        6           0.002091723   -0.005898431   -0.001768522
      2        6          -0.013713759    0.018151159    0.002591507
      3        6           0.003463422   -0.002318310   -0.002966704
      4        8           0.009554825   -0.012182297   -0.001468028
      5        1           0.000172784    0.000713056    0.000705583
      6        1          -0.001038904    0.000358926    0.000741528
      7        1          -0.000003908    0.000905051    0.000247715
      8        1          -0.000282358   -0.000762873    0.000750172
      9        1          -0.000362503    0.000057065    0.000612165
     10        1           0.000118678    0.000976652    0.000554586
 -------------------------------------------------------------------
 Cartesian Forces:  Max     0.018151159 RMS     0.005295456
 Leave Link  716 at Mon Oct 14 00:43:10 2019, MaxMem= 10737418240 cpu:               0.5 elap:               0.0
 (Enter /apps/cent7/gaussian/g16-A.03/g16-haswell/g16/l103.exe)

 GradGradGradGradGradGradGradGradGradGradGradGradGradGradGradGradGradGrad
 Berny optimization.
 Using GEDIIS/GDIIS optimizer.
 FormGI is forming the generalized inverse of G from B-inverse, IUseBI=4.
 Internal  Forces:  Max     0.015450336 RMS     0.002925952
 Search for a local minimum.
 Step number   2 out of a maximum of   46
 All quantities printed in internal units (Hartrees-Bohrs-Radians)
 RMS Force = .29260D-02 SwitMx=.10000D-02 MixMth= 1
 Mixed Optimization -- RFO/linear search
 Update second derivatives using D2CorX and points    1    2
 DE= -5.02D-03 DEPred=-4.52D-03 R= 1.11D+00
 TightC=F SS=  1.41D+00  RLast= 2.12D-01 DXNew= 5.0454D-01 6.3513D-01
 Trust test= 1.11D+00 RLast= 2.12D-01 DXMaxT set to 5.05D-01
 ITU=  1  0
 Use linear search instead of GDIIS.
     Eigenvalues ---    0.01070   0.01091   0.01143   0.07155   0.07300
     Eigenvalues ---    0.07674   0.07728   0.15925   0.16000   0.16000
     Eigenvalues ---    0.16000   0.16000   0.17299   0.22705   0.24965
     Eigenvalues ---    0.33829   0.34806   0.34814   0.34815   0.34816
     Eigenvalues ---    0.34827   0.35068   0.35493   0.72731
 RFO step:  Lambda=-7.20298247D-04 EMin= 1.07037790D-02
 Quartic linear search produced a step of  0.22581.
 Iteration  1 RMS(Cart)=  0.02629964 RMS(Int)=  0.00049418
 Iteration  2 RMS(Cart)=  0.00065129 RMS(Int)=  0.00012491
 Iteration  3 RMS(Cart)=  0.00000025 RMS(Int)=  0.00012491
 ITry= 1 IFail=0 DXMaxC= 7.43D-02 DCOld= 1.00D+10 DXMaxT= 5.05D-01 DXLimC= 3.00D+00 Rises=F
 Variable       Old X    -DE/DX   Delta X   Delta X   Delta X     New X
                                 (Linear)    (Quad)   (Total)
    R1        2.86128   0.00320   0.01658   0.00085   0.01743   2.87871
    R2        2.07247   0.00067   0.00287   0.00056   0.00343   2.07590
    R3        2.06404   0.00067   0.00097   0.00177   0.00273   2.06677
    R4        2.07106  -0.00074   0.00252  -0.00418  -0.00166   2.06939
    R5        2.85750   0.00273   0.01540  -0.00004   0.01537   2.87287
    R6        2.32078  -0.01545  -0.01084  -0.01633  -0.02716   2.29361
    R7        2.07513   0.00042   0.00347  -0.00069   0.00278   2.07791
    R8        2.07254  -0.00052   0.00285  -0.00358  -0.00073   2.07180
    R9        2.06220   0.00057   0.00056   0.00166   0.00222   2.06442
    A1        1.91081  -0.00129   0.00003  -0.01262  -0.01266   1.89815
    A2        1.90660   0.00033  -0.00091   0.00428   0.00320   1.90980
    A3        1.97650  -0.00033   0.01488  -0.01008   0.00463   1.98113
    A4        1.87940  -0.00004  -0.00706   0.00077  -0.00635   1.87306
    A5        1.87841   0.00058  -0.00727   0.00684  -0.00050   1.87791
    A6        1.90960   0.00076  -0.00022   0.01125   0.01079   1.92039
    A7        2.08484  -0.00515  -0.00946  -0.01855  -0.02834   2.05650
    A8        2.09525   0.00226   0.00373   0.00949   0.01288   2.10813
    A9        2.10182   0.00290   0.00543   0.01157   0.01666   2.11848
   A10        1.91877  -0.00133   0.00183  -0.01402  -0.01223   1.90654
   A11        1.95944  -0.00020   0.01104  -0.00784   0.00307   1.96250
   A12        1.90833   0.00041  -0.00051   0.00572   0.00511   1.91344
   A13        1.86942   0.00017  -0.00930   0.00275  -0.00661   1.86281
   A14        1.89173   0.00030  -0.00430   0.00394  -0.00036   1.89137
   A15        1.91476   0.00066   0.00095   0.00973   0.01050   1.92526
    D1        1.67236   0.00004  -0.00638  -0.00027  -0.00667   1.66570
    D2       -1.41527  -0.00042   0.00576  -0.05369  -0.04792  -1.46319
    D3       -2.55673  -0.00057  -0.01550  -0.00417  -0.01974  -2.57647
    D4        0.63882  -0.00103  -0.00335  -0.05758  -0.06099   0.57782
    D5       -0.42375   0.00042  -0.00677   0.00651  -0.00021  -0.42396
    D6        2.77180  -0.00004   0.00537  -0.04691  -0.04146   2.73034
    D7       -1.34441   0.00040   0.01214   0.01783   0.02993  -1.31447
    D8        0.73471  -0.00040   0.00870   0.00684   0.01548   0.75018
    D9        2.86398   0.00059   0.01661   0.01797   0.03463   2.89861
   D10        1.74302   0.00084  -0.00005   0.07138   0.07131   1.81433
   D11       -2.46105   0.00004  -0.00350   0.06039   0.05685  -2.40420
   D12       -0.33178   0.00103   0.00441   0.07152   0.07601  -0.25577
         Item               Value     Threshold  Converged?
 Maximum Force            0.015450     0.000450     NO 
 RMS     Force            0.002926     0.000300     NO 
 Maximum Displacement     0.074282     0.001800     NO 
 RMS     Displacement     0.026537     0.001200     NO 
 Predicted change in Energy=-5.257148D-04
 Lowest energy point so far.  Saving SCF results.
 GradGradGradGradGradGradGradGradGradGradGradGradGradGradGradGradGradGrad

 Leave Link  103 at Mon Oct 14 00:43:10 2019, MaxMem= 10737418240 cpu:               0.4 elap:               0.0
 (Enter /apps/cent7/gaussian/g16-A.03/g16-haswell/g16/l202.exe)
                          Input orientation:                          
 ---------------------------------------------------------------------
 Center     Atomic      Atomic             Coordinates (Angstroms)
 Number     Number       Type             X           Y           Z
 ---------------------------------------------------------------------
      1          6           0       -0.331191   -1.400429    0.223391
      2          6           0        0.089295   -0.001855   -0.209932
      3          6           0        1.551195    0.222712   -0.561490
      4          8           0       -0.718452    0.902785   -0.257959
      5          1           0       -0.322107   -1.447861    1.320849
      6          1           0       -1.358208   -1.588660   -0.102125
      7          1           0        0.330561   -2.190145   -0.147588
      8          1           0        2.144410    0.261644    0.363532
      9          1           0        1.965570   -0.591067   -1.168154
     10          1           0        1.661228    1.177176   -1.081423
 ---------------------------------------------------------------------
                    Distance matrix (angstroms):
                    1          2          3          4          5
     1  C    0.000000
     2  C    1.523347   0.000000
     3  C    2.606531   1.520255   0.000000
     4  O    2.384631   1.213728   2.388709   0.000000
     5  H    1.098520   2.145572   3.137400   2.859242   0.000000
     6  H    1.093689   2.150544   3.457848   2.576989   1.765839
     7  H    1.095077   2.202432   2.735533   3.267847   1.770104
     8  H    2.985084   2.149835   1.099584   2.998882   3.150011
     9  H    2.804742   2.187640   1.096351   3.203752   3.487506
    10  H    3.509461   2.149554   1.092445   2.533034   4.073739
                    6          7          8          9         10
     6  H    0.000000
     7  H    1.793263   0.000000
     8  H    3.988583   3.092339   0.000000
     9  H    3.630305   2.504368   1.762147   0.000000
    10  H    4.210210   3.739193   1.777514   1.796338   0.000000
 Stoichiometry    C3H6O
 Framework group  C1[X(C3H6O)]
 Deg. of freedom    24
 Full point group                 C1      NOp   1
 RotChk:  IX=0 Diff= 2.90D-02
 Largest Abelian subgroup         C1      NOp   1
 Largest concise Abelian subgroup C1      NOp   1
                         Standard orientation:                         
 ---------------------------------------------------------------------
 Center     Atomic      Atomic             Coordinates (Angstroms)
 Number     Number       Type             X           Y           Z
 ---------------------------------------------------------------------
      1          6           0       -1.297565   -0.619704   -0.005648
      2          6           0        0.002432    0.174392   -0.008158
      3          6           0        1.308912   -0.602960   -0.005273
      4          8           0       -0.010906    1.388013    0.000922
      5          1           0       -1.650546   -0.716164    1.030135
      6          1           0       -2.061934   -0.067834   -0.560027
      7          1           0       -1.193173   -1.629911   -0.415252
      8          1           0        1.485500   -1.010954    1.000433
      9          1           0        1.289669   -1.456408   -0.693198
     10          1           0        2.135053    0.066791   -0.254997
 ---------------------------------------------------------------------
 Rotational constants (GHZ):          10.2615218           8.3061549           4.8661724
 Leave Link  202 at Mon Oct 14 00:43:10 2019, MaxMem= 10737418240 cpu:               0.8 elap:               0.1
 (Enter /apps/cent7/gaussian/g16-A.03/g16-haswell/g16/l301.exe)
 Standard basis: 6-31G(d) (6D, 7F)
 Ernie: Thresh=  0.10000D-02 Tol=  0.10000D-05 Strict=F.
 There are    72 symmetry adapted cartesian basis functions of A   symmetry.
 There are    72 symmetry adapted basis functions of A   symmetry.
    72 basis functions,   136 primitive gaussians,    72 cartesian basis functions
    16 alpha electrons       16 beta electrons
       nuclear repulsion energy       118.9227453140 Hartrees.
 IExCor=  402 DFT=T Ex+Corr=B3LYP ExCW=0 ScaHFX=  0.200000
 ScaDFX=  0.800000  0.720000  1.000000  0.810000 ScalE2=  1.000000  1.000000
 IRadAn=      5 IRanWt=     -1 IRanGd=            0 ICorTp=0 IEmpDi=  4
 NAtoms=   10 NActive=   10 NUniq=   10 SFac= 1.00D+00 NAtFMM=   60 NAOKFM=F Big=F
 Integral buffers will be    131072 words long.
 Raffenetti 2 integral format.
 Two-electron integral symmetry is turned on.
 Leave Link  301 at Mon Oct 14 00:43:10 2019, MaxMem= 10737418240 cpu:               1.2 elap:               0.1
 (Enter /apps/cent7/gaussian/g16-A.03/g16-haswell/g16/l302.exe)
 NPDir=0 NMtPBC=     1 NCelOv=     1 NCel=       1 NClECP=     1 NCelD=      1
         NCelK=      1 NCelE2=     1 NClLst=     1 CellRange=     0.0.
 One-electron integrals computed using PRISM.
 One-electron integral symmetry used in STVInt
 NBasis=    72 RedAO= T EigKep=  4.84D-03  NBF=    72
 NBsUse=    72 1.00D-06 EigRej= -1.00D+00 NBFU=    72
 Precomputing XC quadrature grid using
 IXCGrd= 4 IRadAn=           5 IRanWt=          -1 IRanGd=           0 AccXCQ= 0.00D+00.
 Generated NRdTot=       0 NPtTot=           0 NUsed=           0 NTot=          32
 NSgBfM=    72    72    72    72    72 MxSgAt=    10 MxSgA2=    10.
 Leave Link  302 at Mon Oct 14 00:43:10 2019, MaxMem= 10737418240 cpu:               2.5 elap:               0.1
 (Enter /apps/cent7/gaussian/g16-A.03/g16-haswell/g16/l303.exe)
 DipDrv:  MaxL=1.
 Leave Link  303 at Mon Oct 14 00:43:10 2019, MaxMem= 10737418240 cpu:               0.5 elap:               0.0
 (Enter /apps/cent7/gaussian/g16-A.03/g16-haswell/g16/l401.exe)
 Initial guess from the checkpoint file:  "16.chk"
 B after Tr=    -0.000000    0.000000   -0.000000
         Rot=    0.999993   -0.003455    0.000332   -0.001146 Ang=  -0.42 deg.
 Guess basis will be translated and rotated to current coordinates.
 JPrj=2 DoOrth=T DoCkMO=T.
 Generating alternative initial guess.
 ExpMin= 1.61D-01 ExpMax= 5.48D+03 ExpMxC= 8.25D+02 IAcc=2 IRadAn=         4 AccDes= 0.00D+00
 Harris functional with IExCor=  402 and IRadAn=       4 diagonalized for initial guess.
 HarFok:  IExCor=  402 AccDes= 0.00D+00 IRadAn=         4 IDoV= 1 UseB2=F ITyADJ=14
 ICtDFT=  3500011 ScaDFX=  1.000000  1.000000  1.000000  1.000000
 FoFCou: FMM=F IPFlag=           0 FMFlag=      100000 FMFlg1=           0
         NFxFlg=           0 DoJE=T BraDBF=F KetDBF=T FulRan=T
         wScrn=  0.000000 ICntrl=       500 IOpCl=  0 I1Cent=   200000004 NGrid=           0
         NMat0=    1 NMatS0=      1 NMatT0=    0 NMatD0=    1 NMtDS0=    0 NMtDT0=    0
 Petite list used in FoFCou.
 Harris En= -193.200897356466    
 Leave Link  401 at Mon Oct 14 00:43:11 2019, MaxMem= 10737418240 cpu:               5.0 elap:               0.2
 (Enter /apps/cent7/gaussian/g16-A.03/g16-haswell/g16/l502.exe)
 Keep R1 ints in memory in canonical form, NReq=24964336.
 FoFCou: FMM=F IPFlag=           0 FMFlag=           0 FMFlg1=           0
         NFxFlg=           0 DoJE=F BraDBF=F KetDBF=F FulRan=T
         wScrn=  0.000000 ICntrl=       600 IOpCl=  0 I1Cent=           0 NGrid=           0
         NMat0=    1 NMatS0=   2628 NMatT0=    0 NMatD0=    1 NMtDS0=    0 NMtDT0=    0
 Symmetry not used in FoFCou.
 Two-electron integral symmetry not used.
 Closed shell SCF:
 Using DIIS extrapolation, IDIIS=  1040.
 NGot= 10737418240 LenX= 10733950624 LenY= 10733944999
 Requested convergence on RMS density matrix=1.00D-08 within 128 cycles.
 Requested convergence on MAX density matrix=1.00D-06.
 Requested convergence on             energy=1.00D-06.
 No special actions if energy rises.
 Integral accuracy reduced to 1.0D-05 until final iterations.

 Cycle   1  Pass 0  IDiag  1:
 E= -193.153355311053    
 DIIS: error= 2.05D-03 at cycle   1 NSaved=   1.
 NSaved= 1 IEnMin= 1 EnMin= -193.153355311053     IErMin= 1 ErrMin= 2.05D-03
 ErrMax= 2.05D-03  0.00D+00 EMaxC= 1.00D-01 BMatC= 5.92D-04 BMatP= 5.92D-04
 IDIUse=3 WtCom= 9.79D-01 WtEn= 2.05D-02
 Coeff-Com:  0.100D+01
 Coeff-En:   0.100D+01
 Coeff:      0.100D+01
 Gap=     1.891 Goal=   None    Shift=    0.000
 GapD=    1.891 DampG=2.000 DampE=1.000 DampFc=2.0000 IDamp=-1.
 RMSDP=6.09D-04 MaxDP=6.65D-03              OVMax= 1.20D-02

 Cycle   2  Pass 0  IDiag  1:
 E= -193.154360719887     Delta-E=       -0.001005408835 Rises=F Damp=F
 DIIS: error= 1.32D-03 at cycle   2 NSaved=   2.
 NSaved= 2 IEnMin= 2 EnMin= -193.154360719887     IErMin= 2 ErrMin= 1.32D-03
 ErrMax= 1.32D-03  0.00D+00 EMaxC= 1.00D-01 BMatC= 1.39D-04 BMatP= 5.92D-04
 IDIUse=3 WtCom= 9.87D-01 WtEn= 1.32D-02
 Coeff-Com:  0.215D+00 0.785D+00
 Coeff-En:   0.000D+00 0.100D+01
 Coeff:      0.212D+00 0.788D+00
 Gap=     0.230 Goal=   None    Shift=    0.000
 RMSDP=3.03D-04 MaxDP=6.63D-03 DE=-1.01D-03 OVMax= 9.96D-03

 Cycle   3  Pass 0  IDiag  1:
 E= -193.154254857729     Delta-E=        0.000105862158 Rises=F Damp=F
 DIIS: error= 2.44D-03 at cycle   3 NSaved=   3.
 NSaved= 3 IEnMin= 2 EnMin= -193.154360719887     IErMin= 2 ErrMin= 1.32D-03
 ErrMax= 2.44D-03  0.00D+00 EMaxC= 1.00D-01 BMatC= 2.79D-04 BMatP= 1.39D-04
 IDIUse=3 WtCom= 1.68D-01 WtEn= 8.32D-01
 Coeff-Com: -0.362D-01 0.603D+00 0.433D+00
 Coeff-En:   0.000D+00 0.631D+00 0.369D+00
 Coeff:     -0.609D-02 0.627D+00 0.379D+00
 Gap=     0.231 Goal=   None    Shift=    0.000
 RMSDP=1.72D-04 MaxDP=3.73D-03 DE= 1.06D-04 OVMax= 5.91D-03

 Cycle   4  Pass 0  IDiag  1:
 E= -193.154467137933     Delta-E=       -0.000212280204 Rises=F Damp=F
 DIIS: error= 1.71D-04 at cycle   4 NSaved=   4.
 NSaved= 4 IEnMin= 4 EnMin= -193.154467137933     IErMin= 4 ErrMin= 1.71D-04
 ErrMax= 1.71D-04  0.00D+00 EMaxC= 1.00D-01 BMatC= 2.40D-06 BMatP= 1.39D-04
 IDIUse=3 WtCom= 9.98D-01 WtEn= 1.71D-03
 Coeff-Com: -0.216D-01 0.205D+00 0.980D-01 0.718D+00
 Coeff-En:   0.000D+00 0.000D+00 0.000D+00 0.100D+01
 Coeff:     -0.216D-01 0.205D+00 0.978D-01 0.719D+00
 Gap=     0.231 Goal=   None    Shift=    0.000
 RMSDP=2.33D-05 MaxDP=3.24D-04 DE=-2.12D-04 OVMax= 4.37D-04

 Cycle   5  Pass 0  IDiag  1:
 E= -193.154469009226     Delta-E=       -0.000001871294 Rises=F Damp=F
 DIIS: error= 3.62D-05 at cycle   5 NSaved=   5.
 NSaved= 5 IEnMin= 5 EnMin= -193.154469009226     IErMin= 5 ErrMin= 3.62D-05
 ErrMax= 3.62D-05  0.00D+00 EMaxC= 1.00D-01 BMatC= 1.35D-07 BMatP= 2.40D-06
 IDIUse=1 WtCom= 1.00D+00 WtEn= 0.00D+00
 Coeff-Com: -0.625D-02 0.483D-01 0.169D-01 0.308D+00 0.633D+00
 Coeff:     -0.625D-02 0.483D-01 0.169D-01 0.308D+00 0.633D+00
 Gap=     0.231 Goal=   None    Shift=    0.000
 RMSDP=6.82D-06 MaxDP=9.54D-05 DE=-1.87D-06 OVMax= 9.81D-05

 Initial convergence to 1.0D-05 achieved.  Increase integral accuracy.
 Cycle   6  Pass 1  IDiag  1:
 E= -193.154471813818     Delta-E=       -0.000002804592 Rises=F Damp=F
 DIIS: error= 4.82D-06 at cycle   1 NSaved=   1.
 NSaved= 1 IEnMin= 1 EnMin= -193.154471813818     IErMin= 1 ErrMin= 4.82D-06
 ErrMax= 4.82D-06  0.00D+00 EMaxC= 1.00D-01 BMatC= 3.03D-09 BMatP= 3.03D-09
 IDIUse=1 WtCom= 1.00D+00 WtEn= 0.00D+00
 Coeff-Com:  0.100D+01
 Coeff:      0.100D+01
 Gap=     0.231 Goal=   None    Shift=    0.000
 RMSDP=6.82D-06 MaxDP=9.54D-05 DE=-2.80D-06 OVMax= 2.36D-05

 Cycle   7  Pass 1  IDiag  1:
 E= -193.154471814856     Delta-E=       -0.000000001037 Rises=F Damp=F
 DIIS: error= 5.38D-06 at cycle   2 NSaved=   2.
 NSaved= 2 IEnMin= 2 EnMin= -193.154471814856     IErMin= 1 ErrMin= 4.82D-06
 ErrMax= 5.38D-06  0.00D+00 EMaxC= 1.00D-01 BMatC= 2.60D-09 BMatP= 3.03D-09
 IDIUse=1 WtCom= 1.00D+00 WtEn= 0.00D+00
 Coeff-Com:  0.479D+00 0.521D+00
 Coeff:      0.479D+00 0.521D+00
 Gap=     0.231 Goal=   None    Shift=    0.000
 RMSDP=8.34D-07 MaxDP=9.34D-06 DE=-1.04D-09 OVMax= 1.47D-05

 Cycle   8  Pass 1  IDiag  1:
 E= -193.154471817296     Delta-E=       -0.000000002440 Rises=F Damp=F
 DIIS: error= 1.66D-06 at cycle   3 NSaved=   3.
 NSaved= 3 IEnMin= 3 EnMin= -193.154471817296     IErMin= 3 ErrMin= 1.66D-06
 ErrMax= 1.66D-06  0.00D+00 EMaxC= 1.00D-01 BMatC= 2.11D-10 BMatP= 2.60D-09
 IDIUse=1 WtCom= 1.00D+00 WtEn= 0.00D+00
 Coeff-Com:  0.186D+00 0.269D+00 0.546D+00
 Coeff:      0.186D+00 0.269D+00 0.546D+00
 Gap=     0.231 Goal=   None    Shift=    0.000
 RMSDP=2.32D-07 MaxDP=5.04D-06 DE=-2.44D-09 OVMax= 7.51D-06

 Cycle   9  Pass 1  IDiag  1:
 E= -193.154471817415     Delta-E=       -0.000000000119 Rises=F Damp=F
 DIIS: error= 1.27D-06 at cycle   4 NSaved=   4.
 NSaved= 4 IEnMin= 4 EnMin= -193.154471817415     IErMin= 4 ErrMin= 1.27D-06
 ErrMax= 1.27D-06  0.00D+00 EMaxC= 1.00D-01 BMatC= 7.21D-11 BMatP= 2.11D-10
 IDIUse=1 WtCom= 1.00D+00 WtEn= 0.00D+00
 Coeff-Com:  0.286D-01 0.821D-01 0.380D+00 0.509D+00
 Coeff:      0.286D-01 0.821D-01 0.380D+00 0.509D+00
 Gap=     0.231 Goal=   None    Shift=    0.000
 RMSDP=9.84D-08 MaxDP=2.14D-06 DE=-1.19D-10 OVMax= 3.38D-06

 Cycle  10  Pass 1  IDiag  1:
 E= -193.154471817469     Delta-E=       -0.000000000054 Rises=F Damp=F
 DIIS: error= 2.08D-07 at cycle   5 NSaved=   5.
 NSaved= 5 IEnMin= 5 EnMin= -193.154471817469     IErMin= 5 ErrMin= 2.08D-07
 ErrMax= 2.08D-07  0.00D+00 EMaxC= 1.00D-01 BMatC= 2.07D-12 BMatP= 7.21D-11
 IDIUse=1 WtCom= 1.00D+00 WtEn= 0.00D+00
 Coeff-Com: -0.145D-01-0.369D-02 0.727D-01 0.200D+00 0.746D+00
 Coeff:     -0.145D-01-0.369D-02 0.727D-01 0.200D+00 0.746D+00
 Gap=     0.231 Goal=   None    Shift=    0.000
 RMSDP=2.30D-08 MaxDP=2.50D-07 DE=-5.38D-11 OVMax= 5.25D-07

 Cycle  11  Pass 1  IDiag  1:
 E= -193.154471817471     Delta-E=       -0.000000000002 Rises=F Damp=F
 DIIS: error= 2.68D-08 at cycle   6 NSaved=   6.
 NSaved= 6 IEnMin= 6 EnMin= -193.154471817471     IErMin= 6 ErrMin= 2.68D-08
 ErrMax= 2.68D-08  0.00D+00 EMaxC= 1.00D-01 BMatC= 3.88D-14 BMatP= 2.07D-12
 IDIUse=1 WtCom= 1.00D+00 WtEn= 0.00D+00
 Coeff-Com: -0.580D-02-0.438D-02 0.864D-02 0.389D-01 0.210D+00 0.753D+00
 Coeff:     -0.580D-02-0.438D-02 0.864D-02 0.389D-01 0.210D+00 0.753D+00
 Gap=     0.231 Goal=   None    Shift=    0.000
 RMSDP=3.04D-09 MaxDP=4.31D-08 DE=-2.22D-12 OVMax= 6.69D-08

 SCF Done:  E(RB3LYP) =  -193.154471817     A.U. after   11 cycles
            NFock= 11  Conv=0.30D-08     -V/T= 2.0094
 KE= 1.913480454819D+02 PE=-6.878405176805D+02 EE= 1.844152550671D+02
 Leave Link  502 at Mon Oct 14 00:43:11 2019, MaxMem= 10737418240 cpu:              12.9 elap:               0.6
 (Enter /apps/cent7/gaussian/g16-A.03/g16-haswell/g16/l701.exe)
 ... and contract with generalized density number  0.
 Compute integral first derivatives.
 Leave Link  701 at Mon Oct 14 00:43:11 2019, MaxMem= 10737418240 cpu:               2.2 elap:               0.1
 (Enter /apps/cent7/gaussian/g16-A.03/g16-haswell/g16/l702.exe)
 L702 exits ... SP integral derivatives will be done elsewhere.
 Leave Link  702 at Mon Oct 14 00:43:11 2019, MaxMem= 10737418240 cpu:               1.1 elap:               0.1
 (Enter /apps/cent7/gaussian/g16-A.03/g16-haswell/g16/l703.exe)
 Integral derivatives from FoFJK, PRISM(SPDF).
 Compute integral first derivatives, UseDBF=F ICtDFT=           0.
 Calling FoFJK, ICntrl=      2127 FMM=F ISym2X=0 I1Cent= 0 IOpClX= 0 NMat=1 NMatS=1 NMatT=0.
 FoFJK:  IHMeth= 1 ICntrl=    2127 DoSepK=F KAlg= 0 I1Cent=           0 FoldK=F
 IRaf=         0 NMat=       1 IRICut=       1 DoRegI=T DoRafI=F ISym2E= 0 IDoP0=0 IntGTp=1.
 FoFCou: FMM=F IPFlag=           0 FMFlag=      100000 FMFlg1=         800
         NFxFlg=           0 DoJE=F BraDBF=F KetDBF=F FulRan=T
         wScrn=  0.000000 ICntrl=      2127 IOpCl=  0 I1Cent=           0 NGrid=           0
         NMat0=    1 NMatS0=      1 NMatT0=    0 NMatD0=    1 NMtDS0=    0 NMtDT0=    0
 Symmetry not used in FoFCou.
 Leave Link  703 at Mon Oct 14 00:43:12 2019, MaxMem= 10737418240 cpu:               6.6 elap:               0.3
 (Enter /apps/cent7/gaussian/g16-A.03/g16-haswell/g16/l716.exe)
 Dipole        =-7.41285612D-03-1.07378271D+00 5.15207191D-02
 ***** Axes restored to original set *****
 -------------------------------------------------------------------
 Center     Atomic                   Forces (Hartrees/Bohr)
 Number     Number              X              Y              Z
 -------------------------------------------------------------------
      1        6           0.000104369   -0.000966426    0.002034354
      2        6           0.001426620   -0.003322361   -0.003986515
      3        6           0.001516425    0.000455012    0.001941106
      4        8          -0.002260205    0.002796524    0.000227617
      5        1           0.000297043   -0.000135311   -0.000042518
      6        1           0.000269986    0.000343235    0.000195771
      7        1          -0.000036947    0.001067020   -0.000371720
      8        1          -0.000024143   -0.000432857   -0.000159738
      9        1          -0.001301202    0.000319278   -0.000129265
     10        1           0.000008053   -0.000124114    0.000290909
 -------------------------------------------------------------------
 Cartesian Forces:  Max     0.003986515 RMS     0.001378952
 Leave Link  716 at Mon Oct 14 00:43:12 2019, MaxMem= 10737418240 cpu:               0.5 elap:               0.0
 (Enter /apps/cent7/gaussian/g16-A.03/g16-haswell/g16/l103.exe)

 GradGradGradGradGradGradGradGradGradGradGradGradGradGradGradGradGradGrad
 Berny optimization.
 Using GEDIIS/GDIIS optimizer.
 FormGI is forming the generalized inverse of G from B-inverse, IUseBI=4.
 Internal  Forces:  Max     0.003579543 RMS     0.000864358
 Search for a local minimum.
 Step number   3 out of a maximum of   46
 All quantities printed in internal units (Hartrees-Bohrs-Radians)
 RMS Force = .86436D-03 SwitMx=.10000D-02 MixMth= 2
 Mixed Optimization -- En-DIIS/RFO-DIIS
 Update second derivatives using D2CorX and points    1    2    3
 DE= -5.24D-04 DEPred=-5.26D-04 R= 9.97D-01
 TightC=F SS=  1.41D+00  RLast= 1.67D-01 DXNew= 8.4853D-01 5.0063D-01
[...]
     31  0.137046D-01
     32 -0.295963D-02  0.137042D-01
     33 -0.225636D-02 -0.225654D-02  0.142787D-01
     34  0.801015D-02 -0.865396D-02 -0.675785D-02  0.123691D-01
     35 -0.865403D-02  0.800989D-02 -0.675803D-02 -0.429498D-02  0.123689D-01
     36 -0.795076D-02 -0.795087D-02  0.977716D-02 -0.239887D-02 -0.239899D-02
               36 
     36  0.153290D-01
 Leave Link  716 at Mon Oct 14 00:43:41 2019, MaxMem= 10737418240 cpu:               1.7 elap:               0.1
 (Enter /apps/cent7/gaussian/g16-A.03/g16-haswell/g16/l103.exe)

 GradGradGradGradGradGradGradGradGradGradGradGradGradGradGradGradGradGrad
 Berny optimization.
 Red2BG is reusing G-inverse.
 Internal  Forces:  Max     0.000001881 RMS     0.000000795
 Search for a local minimum.
 Step number   1 out of a maximum of    2
 All quantities printed in internal units (Hartrees-Bohrs-Radians)
 Second derivative matrix not updated -- analytic derivatives used.
 ITU=  0
     Eigenvalues ---    0.00018   0.00118   0.02772   0.05550   0.05618
     Eigenvalues ---    0.05728   0.05948   0.12319   0.12420   0.12753
     Eigenvalues ---    0.12787   0.12870   0.14209   0.21415   0.21642
     Eigenvalues ---    0.29466   0.30096   0.33479   0.33665   0.34239
     Eigenvalues ---    0.34295   0.35290   0.35418   0.86861
 Angle between quadratic step and forces=  76.08 degrees.
 Linear search not attempted -- first point.
 Iteration  1 RMS(Cart)=  0.00003770 RMS(Int)=  0.00000000
 Iteration  2 RMS(Cart)=  0.00000000 RMS(Int)=  0.00000000
 ITry= 1 IFail=0 DXMaxC= 1.00D-04 DCOld= 1.00D+10 DXMaxT= 3.00D-01 DXLimC= 3.00D+00 Rises=F
 Variable       Old X    -DE/DX   Delta X   Delta X   Delta X     New X
                                 (Linear)    (Quad)   (Total)
    R1        2.87351   0.00000   0.00000   0.00000   0.00000   2.87351
    R2        2.07376  -0.00000   0.00000   0.00000   0.00000   2.07376
    R3        2.06309  -0.00000   0.00000  -0.00000  -0.00000   2.06309
    R4        2.07376  -0.00000   0.00000  -0.00000  -0.00000   2.07376
    R5        2.87351  -0.00000   0.00000  -0.00001  -0.00001   2.87351
    R6        2.29730   0.00000   0.00000   0.00000   0.00000   2.29730
    R7        2.07376  -0.00000   0.00000  -0.00000  -0.00000   2.07376
    R8        2.07376   0.00000   0.00000   0.00000   0.00000   2.07376
    R9        2.06309  -0.00000   0.00000  -0.00000  -0.00000   2.06309
    A1        1.92877  -0.00000   0.00000  -0.00001  -0.00001   1.92876
    A2        1.91705   0.00000   0.00000   0.00001   0.00001   1.91705
    A3        1.92877  -0.00000   0.00000  -0.00001  -0.00001   1.92876
    A4        1.91232   0.00000   0.00000   0.00001   0.00001   1.91232
    A5        1.86390   0.00000   0.00000   0.00000   0.00000   1.86391
    A6        1.91232   0.00000   0.00000   0.00001   0.00001   1.91232
    A7        2.03341   0.00000   0.00000   0.00000   0.00000   2.03341
    A8        2.12489  -0.00000   0.00000  -0.00001  -0.00001   2.12489
    A9        2.12488   0.00000   0.00000   0.00001   0.00001   2.12489
   A10        1.92876   0.00000   0.00000  -0.00000  -0.00000   1.92876
   A11        1.92877  -0.00000   0.00000  -0.00001  -0.00001   1.92876
   A12        1.91705   0.00000   0.00000   0.00001   0.00001   1.91705
   A13        1.86391   0.00000   0.00000  -0.00000  -0.00000   1.86391
   A14        1.91232   0.00000   0.00000   0.00000   0.00000   1.91232
   A15        1.91233  -0.00000   0.00000  -0.00000  -0.00000   1.91232
    D1        1.02961  -0.00000   0.00000   0.00004   0.00004   1.02965
    D2       -2.11197  -0.00000   0.00000   0.00002   0.00002  -2.11195
    D3        3.14155   0.00000   0.00000   0.00004   0.00004  -3.14159
    D4       -0.00003  -0.00000   0.00000   0.00003   0.00003   0.00000
    D5       -1.02969   0.00000   0.00000   0.00005   0.00005  -1.02965
    D6        2.11191   0.00000   0.00000   0.00003   0.00003   2.11195
    D7       -1.02957  -0.00000   0.00000  -0.00007  -0.00007  -1.02965
    D8        1.02973  -0.00000   0.00000  -0.00008  -0.00008   1.02965
    D9       -3.14151  -0.00000   0.00000  -0.00008  -0.00008  -3.14159
   D10        2.11201   0.00000   0.00000  -0.00006  -0.00006   2.11195
   D11       -2.11188   0.00000   0.00000  -0.00007  -0.00007  -2.11195
   D12        0.00007  -0.00000   0.00000  -0.00007  -0.00007   0.00000
         Item               Value     Threshold  Converged?
 Maximum Force            0.000002     0.000450     YES
 RMS     Force            0.000001     0.000300     YES
 Maximum Displacement     0.000100     0.001800     YES
 RMS     Displacement     0.000038     0.001200     YES
 Predicted change in Energy=-1.155318D-10
 Optimization completed.
    -- Stationary point found.
                           ----------------------------
                           !   Optimized Parameters   !
                           ! (Angstroms and Degrees)  !
 --------------------------                            --------------------------
 ! Name  Definition              Value          Derivative Info.                !
 --------------------------------------------------------------------------------
 ! R1    R(1,2)                  1.5206         -DE/DX =    0.0                 !
 ! R2    R(1,5)                  1.0974         -DE/DX =    0.0                 !
 ! R3    R(1,6)                  1.0917         -DE/DX =    0.0                 !
 ! R4    R(1,7)                  1.0974         -DE/DX =    0.0                 !
 ! R5    R(2,3)                  1.5206         -DE/DX =    0.0                 !
 ! R6    R(2,4)                  1.2157         -DE/DX =    0.0                 !
 ! R7    R(3,8)                  1.0974         -DE/DX =    0.0                 !
 ! R8    R(3,9)                  1.0974         -DE/DX =    0.0                 !
 ! R9    R(3,10)                 1.0917         -DE/DX =    0.0                 !
 ! A1    A(2,1,5)              110.5104         -DE/DX =    0.0                 !
 ! A2    A(2,1,6)              109.8388         -DE/DX =    0.0                 !
 ! A3    A(2,1,7)              110.5106         -DE/DX =    0.0                 !
 ! A4    A(5,1,6)              109.5677         -DE/DX =    0.0                 !
 ! A5    A(5,1,7)              106.7938         -DE/DX =    0.0                 !
 ! A6    A(6,1,7)              109.5676         -DE/DX =    0.0                 !
 ! A7    A(1,2,3)              116.5058         -DE/DX =    0.0                 !
 ! A8    A(1,2,4)              121.7475         -DE/DX =    0.0                 !
 ! A9    A(3,2,4)              121.7467         -DE/DX =    0.0                 !
 ! A10   A(2,3,8)              110.5098         -DE/DX =    0.0                 !
 ! A11   A(2,3,9)              110.5103         -DE/DX =    0.0                 !
 ! A12   A(2,3,10)             109.8387         -DE/DX =    0.0                 !
 ! A13   A(8,3,9)              106.794          -DE/DX =    0.0                 !
 ! A14   A(8,3,10)             109.5679         -DE/DX =    0.0                 !
 ! A15   A(9,3,10)             109.5682         -DE/DX =    0.0                 !
 ! D1    D(5,1,2,3)             58.9922         -DE/DX =    0.0                 !
 ! D2    D(5,1,2,4)           -121.0069         -DE/DX =    0.0                 !
 ! D3    D(6,1,2,3)           -180.0025         -DE/DX =    0.0                 !
 ! D4    D(6,1,2,4)             -0.0016         -DE/DX =    0.0                 !
 ! D5    D(7,1,2,3)            -58.9972         -DE/DX =    0.0                 !
 ! D6    D(7,1,2,4)            121.0037         -DE/DX =    0.0                 !
 ! D7    D(1,2,3,8)            -58.9901         -DE/DX =    0.0                 !
 ! D8    D(1,2,3,9)             58.999          -DE/DX =    0.0                 !
 ! D9    D(1,2,3,10)          -179.9952         -DE/DX =    0.0                 !
 ! D10   D(4,2,3,8)            121.009          -DE/DX =    0.0                 !
 ! D11   D(4,2,3,9)           -121.0019         -DE/DX =    0.0                 !
 ! D12   D(4,2,3,10)             0.004          -DE/DX =    0.0                 !
 --------------------------------------------------------------------------------
 GradGradGradGradGradGradGradGradGradGradGradGradGradGradGradGradGradGrad

 Leave Link  103 at Mon Oct 14 00:43:41 2019, MaxMem= 10737418240 cpu:               0.4 elap:               0.0
 (Enter /apps/cent7/gaussian/g16-A.03/g16-haswell/g16/l9999.exe)

 ----------------------------------------------------------------------

 Electric dipole moment (input orientation):
 (Debye = 10**-18 statcoulomb cm , SI units = C m)
                  (au)            (Debye)         (10**-30 SI)
   Tot        0.110768D+01      0.281544D+01      0.939131D+01
   x          0.763084D+00      0.193957D+01      0.646969D+01
   y         -0.742641D+00     -0.188760D+01     -0.629637D+01
   z          0.305198D+00      0.775735D+00      0.258757D+01

 Dipole polarizability, Alpha (input orientation).
 (esu units = cm**3 , SI units = C**2 m**2 J**-1)
 Alpha(0;0):
               (au)            (10**-24 esu)      (10**-40 SI)
   iso        0.338961D+02      0.502288D+01      0.558870D+01
   aniso      0.107836D+02      0.159797D+01      0.177798D+01
   xx         0.373502D+02      0.553473D+01      0.615821D+01
   yx        -0.121683D+01     -0.180315D+00     -0.200628D+00
   yy         0.358542D+02      0.531305D+01      0.591156D+01
   zx         0.354479D+00      0.525284D-01      0.584457D-01
   zy        -0.382447D+01     -0.566728D+00     -0.630570D+00
   zz         0.284837D+02      0.422086D+01      0.469634D+01

 ----------------------------------------------------------------------

 Dipole orientation:
     6         -1.65358281         -1.61029250          1.45325330
     6          0.48720263         -0.43216756         -0.05873004
     6          2.62800222          0.74601941          1.45320180
     8          0.48719575         -0.43217888         -2.35602751
     1         -2.53630508         -0.19587211          2.68641852
     1         -3.06984256         -2.38963949          0.17139109
     1         -0.93104145         -3.11291896          2.68635312
     1          1.90540791          2.24852920          2.68641222
     1          3.51087584         -0.66840600          2.68624757
     1          4.04413190          1.52553108          0.17129905

 Electric dipole moment (dipole orientation):
 (Debye = 10**-18 statcoulomb cm , SI units = C m)
                  (au)            (Debye)         (10**-30 SI)
   Tot        0.110768D+01      0.281544D+01      0.939131D+01
   x          0.000000D+00      0.000000D+00      0.000000D+00
   y          0.000000D+00      0.000000D+00      0.000000D+00
   z          0.110768D+01      0.281544D+01      0.939131D+01

 Dipole polarizability, Alpha (dipole orientation).
 (esu units = cm**3 , SI units = C**2 m**2 J**-1)
 Alpha(0;0):
               (au)            (10**-24 esu)      (10**-40 SI)
   iso        0.338961D+02      0.502288D+01      0.558870D+01
   aniso      0.107836D+02      0.159797D+01      0.177798D+01
   xx         0.339942D+02      0.503742D+01      0.560488D+01
   yx         0.392855D+01      0.582151D+00      0.647731D+00
   yy         0.290178D+02      0.429999D+01      0.478438D+01
   zx        -0.146211D-04     -0.216662D-05     -0.241069D-05
   zy        -0.287010D-04     -0.425305D-05     -0.473215D-05
   zz         0.386762D+02      0.573123D+01      0.637685D+01

 ----------------------------------------------------------------------
 1\1\GINC-BROWN-A305\Freq\RB3LYP\6-31G(d)\C3H6O1\FINEJ\14-Oct-2019\0\\#
 P Geom=AllCheck Guess=TCheck SCRF=Check GenChk RB3LYP/6-31G(d) Freq\\T
 itle Card Required\\0,1\C,-0.3282359811,-1.3842838111,0.2433970735\C,0
 .0576702823,-0.0339088247,-0.3394998686\C,1.545964926,0.2436504839,-0.
 4814831927\O,-0.7798166348,0.7811325834,-0.6744549017\H,0.0990253625,-
 1.5062225658,1.2468091334\H,-1.415479592,-1.467954555,0.296295889\H,0.
 0734548236,-2.1982598064,-0.3733254917\H,2.0433304364,0.1825665554,0.4
 948134249\H,2.0178129959,-0.509358068,-1.1253705395\H,1.6985733812,1.2
 369380083,-0.9080815265\\Version=ES64L-G16RevA.03\State=1-A\HF=-193.15
 56929\RMSD=1.133e-09\RMSF=1.420e-06\ZeroPoint=0.0841079\Thermal=0.0841
 079\Dipole=0.7630837,-0.7426409,0.3051975\DipoleDeriv=-0.0370319,-0.11
 55626,0.0511414,-0.0777505,-0.2835403,0.1548561,0.0349966,0.1554504,0.
 0091757,1.1140887,-0.0036579,-0.0142654,-0.0036648,0.958965,-0.3630878
 ,-0.0142666,-0.3630842,0.2641261,-0.36027,-0.0608486,0.0328665,-0.0986
 561,-0.0103022,0.0384729,0.0490228,0.0378722,0.0591785,-0.7991405,0.18
 61109,-0.0713634,0.186118,-0.7386578,0.1919971,-0.0713612,0.1919921,-0
 .3632042,0.0375872,-0.0190095,-0.0823311,-0.010007,0.0604162,-0.001651
 1,-0.0613417,0.0336103,-0.0615952,-0.0921691,-0.0419161,0.0205764,-0.0
 085796,0.042212,0.015083,0.0063375,0.015612,0.0704417,0.0416961,0.0435
 607,0.0695418,0.0355612,-0.0201611,-0.0443877,0.0481233,-0.0796302,0.0
 148798,0.0299814,0.000896,-0.0378053,-0.0136101,0.0803057,0.0358705,-0
 .0711584,0.0148396,-0.073886,0.0329767,0.0255144,0.0244859,0.0390159,-
 0.0262453,-0.0877921,0.0582605,-0.066776,0.0296849,0.0322813,-0.015087
 2,0.0071532,-0.048427,-0.0629922,0.0606392,0.0213872,0.0601138,0.05119
 87\Polar=37.3501912,-1.2168274,35.8542214,0.3544793,-3.8244734,28.4837
 488\Quadrupole=-0.3971388,-0.3542658,0.7514045,1.6156541,-0.6685978,0.
 5411073\PG=C01 [X(C3H6O1)]\NImag=0\\0.60743479,-0.02420083,0.47629179,
 0.00908163,0.02233603,0.51800766,-0.11033425,-0.03944992,0.01716609,0.
 72350757,-0.04110829,-0.14855207,0.02548954,-0.21970183,0.67215322,0.0
 1787330,0.02546168,-0.10155582,0.08627805,-0.17988951,0.31839400,-0.00
 521442,-0.00504582,0.00251035,-0.16399844,-0.03664270,0.01681068,0.464
 34618,-0.02957436,0.00008933,0.00784593,-0.03830190,-0.10318481,0.0060
 6483,-0.01672268,0.59724837,0.01298745,0.00745986,0.01397519,0.0175167
 3,0.00603748,-0.09325304,0.00813743,-0.02944091,0.54013964,0.01193607,
 0.01449592,-0.00597195,-0.41865224,0.29907575,-0.12222793,-0.04815475,
 0.03774153,-0.01495515,0.45719078,0.03459868,-0.03943179,0.02735771,0.
 29907602,-0.39569290,0.13526975,0.01763846,0.01136227,0.00592793,-0.35
 104435,0.42667055,-0.01455863,0.02767461,0.01429918,-0.12222797,0.1352
 6959,-0.12384175,-0.00636855,0.00561110,0.02359519,0.14310354,-0.16710
 721,0.09163984,-0.08927650,0.00719380,-0.09284879,0.00294290,0.0038961
 4,0.00879789,-0.00104120,-0.00010136,-0.00129826,0.00141059,-0.0010959
 9,-0.00065944,0.09072220,0.00840255,-0.04566510,0.03104879,0.01622495,
 0.00031099,0.02919763,-0.00063499,-0.00022065,-0.00274468,-0.00151985,
 -0.00739685,-0.00136200,-0.01073397,0.05019339,-0.09356490,0.02640169,
 -0.26768584,-0.00663066,-0.00076688,-0.00986792,0.00009054,0.00000715,
 0.00059624,0.00157944,0.00198232,-0.00005691,0.10409303,-0.02923517,0.
 28956295,-0.32497612,-0.02036799,0.01303118,-0.01073086,0.00085337,-0.
 00021584,0.00098635,-0.00216051,0.00092562,0.00318160,0.00129684,-0.00
 062338,-0.00914471,-0.00061677,0.00125783,0.34910126,-0.01612829,-0.05
 009575,0.00006240,-0.03525936,-0.00189444,0.00081071,0.00026591,-0.005
 44487,0.00281970,0.00269686,0.00373259,-0.00215806,0.00337149,-0.00087
 695,-0.00091508,0.02181845,0.05142953,0.01122031,0.00012932,-0.0507789
 2,0.01520969,0.00024056,-0.00164185,-0.00011092,0.00285816,-0.00005247
 ,-0.00122142,-0.00213579,-0.00028817,-0.03049585,-0.00262081,0.0039064
 8,-0.01407350,-0.00186076,0.04889622,-0.08458406,0.06796765,0.05669861
 ,0.00265520,-0.00363085,-0.00893285,-0.00100023,0.00086986,0.00098552,
 0.00141374,-0.00028767,0.00117530,0.00454701,-0.01050338,-0.00742353,-
 0.00838687,0.02453097,0.01890198,0.08553046,0.06919705,-0.19186189,-0.
 11452744,0.01523353,-0.01934017,-0.01975722,-0.00042926,0.00156872,0.0
 0172532,-0.00210866,-0.00384727,0.00539564,-0.00185141,0.00379317,0.00
 218859,-0.00111603,0.00312128,0.00298306,-0.07809392,0.20617618,0.0563
 7384,-0.10984112,-0.12617918,-0.00682864,0.01069917,0.01007148,0.00037
 914,-0.00105563,-0.00123411,-0.00010456,0.00201588,-0.00360943,0.01186
 451,-0.02398479,-0.01732866,-0.00019315,0.00080963,-0.00084970,-0.0615
 4081,0.12114661,0.13876930,0.00091777,0.00042555,0.00271547,-0.0110197
 2,0.00496449,-0.03365385,-0.09917981,0.00165090,-0.10996420,-0.0065325
 6,0.00023540,0.00453617,-0.00046625,-0.00128392,0.00070559,0.00024884,
 0.00045751,0.00037336,0.00014893,0.00035585,-0.00013696,0.10622649,0.0
 0024756,-0.00047418,0.00105845,0.00130055,-0.00119074,-0.00659464,0.00
 226734,-0.04834587,0.01523675,0.00002396,0.00109324,-0.00011441,-0.000
 72703,-0.00030110,0.00023765,0.00019773,0.00007167,0.00005636,-0.00023
 235,0.00007855,-0.00016372,-0.00613456,0.04649544,-0.00027162,0.000146
 71,-0.00110900,0.00123722,0.00096347,0.00559637,-0.10514942,0.01516472
 ,-0.25510087,0.00087067,-0.00181649,-0.00060417,0.00048821,0.00026427,
 0.00053652,-0.00009866,-0.00012847,0.00026036,-0.00001764,-0.00004461,
 -0.00000226,0.11635443,-0.01516498,0.27775576,0.00084360,-0.00168881,-
 0.00222103,-0.01021660,0.02789811,0.02002007,-0.09359277,0.07694552,0.
 07266430,-0.00667371,-0.00302554,-0.00316735,0.00015149,0.00034198,-0.
 00016793,0.00023393,0.00005102,-0.00059152,-0.00047424,-0.00138162,0.0
 0046656,0.00772904,-0.01141678,-0.00922362,0.10027499,0.00032201,-0.00
 139249,-0.00073083,0.00036825,0.00484573,0.00681556,0.07389063,-0.1731
 8254,-0.10551005,-0.00056928,0.00121342,-0.00168837,-0.00014760,0.0001
 3823,0.00002040,0.00020761,0.00020320,0.00000133,-0.00083902,-0.000089
 28,0.00046006,-0.00127063,0.00110466,0.00147047,-0.08428349,0.18428989
 ,-0.00001618,0.00020993,-0.00011693,-0.00154845,-0.00123333,-0.0012426
 4,0.06888952,-0.10547708,-0.13585392,-0.00046044,0.00004873,-0.0005825
 8,0.00017308,-0.00011568,-0.00006438,-0.00007530,0.00018467,0.00014358
 ,0.00021423,0.00045080,0.00033258,0.01370709,-0.02096113,-0.01782205,-
 0.07362002,0.11801078,0.14591470,-0.00674688,0.00067044,-0.00016155,-0
 .00415356,-0.03560420,0.01525048,-0.05315091,-0.03034699,0.01300055,0.
 00488047,0.00260814,-0.00120969,0.00015445,0.00032340,0.00006060,-0.00
 051342,-0.00180457,0.00078786,0.00015006,0.00019446,-0.00027992,0.0019
 2726,0.01447359,-0.00418956,0.00172427,0.01232152,-0.00726354,0.055728
 25,-0.00175609,0.00109213,0.00005942,0.00050970,-0.00745482,0.00262120
 ,-0.03458689,-0.27988997,0.09848860,0.00120812,0.00229675,-0.00152089,
 0.00019593,0.00002486,0.00007932,-0.00011270,-0.00024624,0.00034856,0.
 00021870,0.00040070,-0.00008609,0.00059941,0.00146833,-0.00085508,-0.0
 0344040,-0.01713083,0.00888229,0.03716422,0.29943908,0.00087480,0.0000
 2131,0.00114366,-0.00017205,0.00318991,-0.00265883,0.01481123,0.098421
 73,-0.09281186,-0.00061219,-0.00154286,-0.00055119,-0.00011438,-0.0004
 4756,0.00040152,0.00006520,0.00037526,0.00040447,-0.00006082,0.0004392
 4,0.00002998,0.00536290,0.02640966,-0.00951066,-0.00415946,-0.01884935
 ,0.00929165,-0.01599523,-0.10801735,0.09426126\\0.00000377,0.00000191,
 -0.00000025,-0.00000477,-0.00000025,-0.00000126,0.00000111,-0.00000199
 ,-0.00000169,0.00000179,0.00000029,0.00000042,-0.00000053,-0.00000082,
 0.00000027,-0.00000078,0.00000014,0.00000022,-0.00000056,-0.00000119,0
 .00000036,0.00000028,0.00000025,0.00000046,0.00000008,0.00000089,0.000
 00085,-0.00000039,0.00000077,0.00000062\\\@


 There are more things in heaven and earth, Horatio,
 than are dreamt of in your philosophy.
                   -- Hamlet, Act I, Scene 5
 Job cpu time:       0 days  0 hours  1 minutes 55.7 seconds.
 Elapsed time:       0 days  0 hours  0 minutes  5.3 seconds.
 File lengths (MBytes):  RWF=     10 Int=      0 D2E=      0 Chk=      2 Scr=      1
 Normal termination of Gaussian 16 at Mon Oct 14 00:43:41 2019.
real 35.66
user 661.68
sys 17.12
Machine:
brown-a305
brown-a305
brown-a305
brown-a305
brown-a305
brown-a305
brown-a305
brown-a305
brown-a305
brown-a305
brown-a305
brown-a305
brown-a305
brown-a305
brown-a305
brown-a305
brown-a305
brown-a305
brown-a305
brown-a305
brown-a305
brown-a305
brown-a305
brown-a305
