 Entering Gaussian System, Link 0=/apps/cent7/gaussian/g16-A.03/g16-haswell/g16/g16
 Initial command:
 /apps/cent7/gaussian/g16-A.03/g16-haswell/g16/l1.exe "/scratch/brown/finej/gaussian/Gau-240873.inp" -scrdir="/scratch/brown/finej/gaussian/"
 Entering Link 1 = /apps/cent7/gaussian/g16-A.03/g16-haswell/g16/l1.exe PID=    240874.
  
 Copyright (c) 1988,1990,1992,1993,1995,1998,2003,2009,2016,
            Gaussian, Inc.  All Rights Reserved.
  
 This is part of the Gaussian(R) 16 program.  It is based on
 the Gaussian(R) 09 system (copyright 2009, Gaussian, Inc.),
 the Gaussian(R) 03 system (copyright 2003, Gaussian, Inc.),
 the Gaussian(R) 98 system (copyright 1998, Gaussian, Inc.),
 the Gaussian(R) 94 system (copyright 1995, Gaussian, Inc.),
 the Gaussian 92(TM) system (copyright 1992, Gaussian, Inc.),
 the Gaussian 90(TM) system (copyright 1990, Gaussian, Inc.),
 the Gaussian 88(TM) system (copyright 1988, Gaussian, Inc.),
 the Gaussian 86(TM) system (copyright 1986, Carnegie Mellon
 University), and the Gaussian 82(TM) system (copyright 1983,
 Carnegie Mellon University). Gaussian is a federally registered
 trademark of Gaussian, Inc.
  
 This software contains proprietary and confidential information,
 including trade secrets, belonging to Gaussian, Inc.
  
 This software is provided under written license and may be
 used, copied, transmitted, or stored only in accord with that
 written license.
  
 The following legend is applicable only to US Government
 contracts under FAR:
  
                    RESTRICTED RIGHTS LEGEND
  
 Use, reproduction and disclosure by the US Government is
 subject to restrictions as set forth in subparagraphs (a)
 and (c) of the Commercial Computer Software - Restricted
 Rights clause in FAR 52.227-19.
  
 Gaussian, Inc.
 340 Quinnipiac St., Bldg. 40, Wallingford CT 06492
  
  
 ---------------------------------------------------------------
 Warning -- This program may not be used in any manner that
 competes with the business of Gaussian, Inc. or will provide
 assistance to any competitor of Gaussian, Inc.  The licensee
 of this program is prohibited from giving any competitor of
 Gaussian, Inc. access to this program.  By using this program,
 the user acknowledges that Gaussian, Inc. is engaged in the
 business of creating and licensing software in the field of
 computational chemistry and represents and warrants to the
 licensee that it is not a competitor of Gaussian, Inc. and that
 it will not use this program in any manner prohibited above.
 ---------------------------------------------------------------
  

 Cite this work as:
 Gaussian 16, Revision A.03,
 M. J. Frisch, G. W. Trucks, H. B. Schlegel, G. E. Scuseria, 
 M. A. Robb, J. R. Cheeseman, G. Scalmani, V. Barone, 
 G. A. Petersson, H. Nakatsuji, X. Li, M. Caricato, A. V. Marenich, 
 J. Bloino, B. G. Janesko, R. Gomperts, B. Mennucci, H. P. Hratchian, 
 J. V. Ortiz, A. F. Izmaylov, J. L. Sonnenberg, D. Williams-Young, 
 F. Ding, F. Lipparini, F. Egidi, J. Goings, B. Peng, A. Petrone, 
 T. Henderson, D. Ranasinghe, V. G. Zakrzewski, J. Gao, N. Rega, 
 G. Zheng, W. Liang, M. Hada, M. Ehara, K. Toyota, R. Fukuda, 
 J. Hasegawa, M. Ishida, T. Nakajima, Y. Honda, O. Kitao, H. Nakai, 
 T. Vreven, K. Throssell, J. A. Montgomery, Jr., J. E. Peralta, 
 F. Ogliaro, M. J. Bearpark, J. J. Heyd, E. N. Brothers, K. N. Kudin, 
 V. N. Staroverov, T. A. Keith, R. Kobayashi, J. Normand, 
 K. Raghavachari, A. P. Rendell, J. C. Burant, S. S. Iyengar, 
 J. Tomasi, M. Cossi, J. M. Millam, M. Klene, C. Adamo, R. Cammi, 
 J. W. Ochterski, R. L. Martin, K. Morokuma, O. Farkas, 
 J. B. Foresman, and D. J. Fox, Gaussian, Inc., Wallingford CT, 2016.
 
 ******************************************
 Gaussian 16:  ES64L-G16RevA.03 25-Dec-2016
                14-Oct-2019 
 ******************************************
 %chk=16_p.chk
 %nprocshared=24
 Will use up to   24 processors via shared memory.
 %mem=80GB
 --------------------------------------------------------------
 #P opt freq b3lyp/6-31g(d) geom=connectivity temperature=0.001
 --------------------------------------------------------------
 1/18=20,19=15,26=3,38=1,57=2,112=-1000/1,3;
 2/9=110,12=2,17=6,18=5,40=1/2;
 3/5=1,6=6,7=1,11=2,25=1,30=1,71=1,74=-5/1,2,3;
 4//1;
 5/5=2,38=5/2;
 6/7=2,8=2,9=2,10=2,28=1/1;
 7//1,2,3,16;
 1/18=20,19=15,26=3/3(2);
 2/9=110/2;
 99//99;
 2/9=110/2;
 3/5=1,6=6,7=1,11=2,25=1,30=1,71=1,74=-5/1,2,3;
 4/5=5,16=3,69=1/1;
 5/5=2,38=5/2;
 7//1,2,3,16;
 1/18=20,19=15,26=3/3(-5);
 2/9=110/2;
 6/7=2,8=2,9=2,10=2,19=2,28=1/1;
 99/9=1/99;
 Leave Link    1 at Mon Oct 14 00:44:09 2019, MaxMem= 10737418240 cpu:               0.8 elap:               0.0
 (Enter /apps/cent7/gaussian/g16-A.03/g16-haswell/g16/l101.exe)
 -------------------
 Title Card Required
 -------------------
 Symbolic Z-matrix:
 Charge =  1 Multiplicity = 1
 C                    -0.3278   -1.3878    0.2277 
 C                     0.1379   -0.0472   -0.1752 
 C                     1.5436    0.2108   -0.5441 
 O                    -0.6828    0.8998   -0.2051 
 H                    -0.3504   -1.4529    1.3155 
 H                    -1.3292   -1.5585   -0.1674 
 H                     0.3522   -2.1426   -0.1674 
 H                     2.1423    0.3206    0.3601 
 H                     1.9239   -0.6243   -1.1325 
 H                     1.6026    1.1264   -1.1325 
 H                    -0.36866   1.80649  -0.23373 
 
 ITRead=  0  0  0  0  0  0  0  0  0  0  0
 MicOpt= -1 -1 -1 -1 -1 -1 -1 -1 -1 -1 -1
 NAtoms=     11 NQM=       11 NQMF=       0 NMMI=      0 NMMIF=      0
                NMic=       0 NMicF=      0.
                    Isotopes and Nuclear Properties:
 (Nuclear quadrupole moments (NQMom) in fm**2, nuclear magnetic moments (NMagM)
  in nuclear magnetons)

  Atom         1           2           3           4           5           6           7           8           9          10
 IAtWgt=          12          12          12          16           1           1           1           1           1           1
 AtmWgt=  12.0000000  12.0000000  12.0000000  15.9949146   1.0078250   1.0078250   1.0078250   1.0078250   1.0078250   1.0078250
 NucSpn=           0           0           0           0           1           1           1           1           1           1
 AtZEff=  -0.0000000  -0.0000000  -0.0000000  -0.0000000  -0.0000000  -0.0000000  -0.0000000  -0.0000000  -0.0000000  -0.0000000
 NQMom=    0.0000000   0.0000000   0.0000000   0.0000000   0.0000000   0.0000000   0.0000000   0.0000000   0.0000000   0.0000000
 NMagM=    0.0000000   0.0000000   0.0000000   0.0000000   2.7928460   2.7928460   2.7928460   2.7928460   2.7928460   2.7928460
 AtZNuc=   6.0000000   6.0000000   6.0000000   8.0000000   1.0000000   1.0000000   1.0000000   1.0000000   1.0000000   1.0000000

  Atom        11
 IAtWgt=           1
 AtmWgt=   1.0078250
 NucSpn=           1
 AtZEff=  -0.0000000
 NQMom=    0.0000000
 NMagM=    2.7928460
 AtZNuc=   1.0000000
 Leave Link  101 at Mon Oct 14 00:44:10 2019, MaxMem= 10737418240 cpu:               9.1 elap:               0.4
 (Enter /apps/cent7/gaussian/g16-A.03/g16-haswell/g16/l103.exe)

 GradGradGradGradGradGradGradGradGradGradGradGradGradGradGradGradGradGrad
 Berny optimization.
 Initialization pass.
                           ----------------------------
                           !    Initial Parameters    !
                           ! (Angstroms and Degrees)  !
 --------------------------                            --------------------------
 ! Name  Definition              Value          Derivative Info.                !
 --------------------------------------------------------------------------------
 ! R1    R(1,2)                  1.4753         estimate D2E/DX2                !
 ! R2    R(1,5)                  1.09           estimate D2E/DX2                !
 ! R3    R(1,6)                  1.09           estimate D2E/DX2                !
 ! R4    R(1,7)                  1.0901         estimate D2E/DX2                !
 ! R5    R(2,3)                  1.476          estimate D2E/DX2                !
 ! R6    R(2,4)                  1.2535         estimate D2E/DX2                !
 ! R7    R(3,8)                  1.09           estimate D2E/DX2                !
 ! R8    R(3,9)                  1.0901         estimate D2E/DX2                !
 ! R9    R(3,10)                 1.09           estimate D2E/DX2                !
 ! R10   R(4,11)                 0.96           estimate D2E/DX2                !
 ! A1    A(2,1,5)              109.4738         estimate D2E/DX2                !
 ! A2    A(2,1,6)              109.4714         estimate D2E/DX2                !
 ! A3    A(2,1,7)              109.4705         estimate D2E/DX2                !
 ! A4    A(5,1,6)              109.4727         estimate D2E/DX2                !
 ! A5    A(5,1,7)              109.4698         estimate D2E/DX2                !
 ! A6    A(6,1,7)              109.4691         estimate D2E/DX2                !
 ! A7    A(1,2,3)              121.852          estimate D2E/DX2                !
 ! A8    A(1,2,4)              119.1015         estimate D2E/DX2                !
 ! A9    A(3,2,4)              119.0465         estimate D2E/DX2                !
 ! A10   A(2,3,8)              109.4742         estimate D2E/DX2                !
 ! A11   A(2,3,9)              109.4665         estimate D2E/DX2                !
 ! A12   A(2,3,10)             109.4694         estimate D2E/DX2                !
 ! A13   A(8,3,9)              109.4706         estimate D2E/DX2                !
 ! A14   A(8,3,10)             109.4794         estimate D2E/DX2                !
 ! A15   A(9,3,10)             109.4673         estimate D2E/DX2                !
 ! A16   A(2,4,11)             120.0            estimate D2E/DX2                !
 ! D1    D(5,1,2,3)             97.439          estimate D2E/DX2                !
 ! D2    D(5,1,2,4)            -82.5516         estimate D2E/DX2                !
 ! D3    D(6,1,2,3)           -142.5575         estimate D2E/DX2                !
 ! D4    D(6,1,2,4)             37.4519         estimate D2E/DX2                !
 ! D5    D(7,1,2,3)            -22.5604         estimate D2E/DX2                !
 ! D6    D(7,1,2,4)            157.4489         estimate D2E/DX2                !
 ! D7    D(1,2,3,8)            -80.1092         estimate D2E/DX2                !
 ! D8    D(1,2,3,9)             39.889          estimate D2E/DX2                !
 ! D9    D(1,2,3,10)           159.8801         estimate D2E/DX2                !
 ! D10   D(4,2,3,8)             99.8815         estimate D2E/DX2                !
 ! D11   D(4,2,3,9)           -140.1203         estimate D2E/DX2                !
 ! D12   D(4,2,3,10)           -20.1292         estimate D2E/DX2                !
 ! D13   D(1,2,4,11)           163.7646         estimate D2E/DX2                !
 ! D14   D(3,2,4,11)           -16.2264         estimate D2E/DX2                !
 --------------------------------------------------------------------------------
 Trust Radius=3.00D-01 FncErr=1.00D-07 GrdErr=1.00D-06 EigMax=2.50D+02 EigMin=1.00D-04
 Number of steps in this run=     50 maximum allowed number of steps=    100.
 GradGradGradGradGradGradGradGradGradGradGradGradGradGradGradGradGradGrad

 Leave Link  103 at Mon Oct 14 00:44:10 2019, MaxMem= 10737418240 cpu:               0.8 elap:               0.1
 (Enter /apps/cent7/gaussian/g16-A.03/g16-haswell/g16/l202.exe)
                          Input orientation:                          
 ---------------------------------------------------------------------
 Center     Atomic      Atomic             Coordinates (Angstroms)
 Number     Number       Type             X           Y           Z
 ---------------------------------------------------------------------
      1          6           0       -0.327800   -1.387800    0.227700
      2          6           0        0.137900   -0.047200   -0.175200
      3          6           0        1.543600    0.210800   -0.544100
      4          8           0       -0.682800    0.899800   -0.205100
      5          1           0       -0.350400   -1.452900    1.315500
      6          1           0       -1.329200   -1.558500   -0.167400
      7          1           0        0.352200   -2.142600   -0.167400
      8          1           0        2.142300    0.320600    0.360100
      9          1           0        1.923900   -0.624300   -1.132500
     10          1           0        1.602600    1.126400   -1.132500
     11          1           0       -0.368657    1.806494   -0.233727
 ---------------------------------------------------------------------
                    Distance matrix (angstroms):
                    1          2          3          4          5
     1  C    0.000000
     2  C    1.475267   0.000000
     3  C    2.579406   1.476023   0.000000
     4  O    2.355091   1.253496   2.355101   0.000000
     5  H    1.089981   2.106328   3.132610   2.820977   0.000000
     6  H    1.089975   2.106293   3.394894   2.542143   1.779942
     7  H    1.090058   2.106344   2.664550   3.213852   1.779979
     8  H    3.006253   2.106998   1.089989   2.938727   3.204941
     9  H    2.739202   2.106956   1.090062   3.158771   3.442633
    10  H    3.449317   2.106919   1.089963   2.476787   4.057056
    11  H    3.227708   1.922552   2.509840   0.960000   3.608890
                    6          7          8          9         10
     6  H    0.000000
     7  H    1.779966   0.000000
     8  H    3.982535   3.090319   0.000000
     9  H    3.519490   2.388911   1.779997   0.000000
    10  H    4.090912   3.630603   1.780012   1.779939   0.000000
    11  H    3.500033   4.014895   2.977485   3.460111   2.270721
                   11
    11  H    0.000000
 Stoichiometry    C3H7O(1+)
 Framework group  C1[X(C3H7O)]
 Deg. of freedom    27
 Full point group                 C1      NOp   1
 Largest Abelian subgroup         C1      NOp   1
 Largest concise Abelian subgroup C1      NOp   1
                         Standard orientation:                         
 ---------------------------------------------------------------------
 Center     Atomic      Atomic             Coordinates (Angstroms)
 Number     Number       Type             X           Y           Z
 ---------------------------------------------------------------------
      1          6           0       -1.405923   -0.415040    0.009558
      2          6           0       -0.012765    0.069948   -0.008049
      3          6           0        1.135153   -0.857897   -0.002460
      4          8           0        0.202748    1.304615   -0.028150
      5          1           0       -1.785322   -0.393436    1.031148
      6          1           0       -2.021967    0.226519   -0.620472
      7          1           0       -1.439813   -1.436664   -0.369075
      8          1           0        1.314262   -1.208256    1.014026
      9          1           0        0.917129   -1.709407   -0.647155
     10          1           0        2.021616   -0.341315   -0.370354
     11          1           0        1.073320    1.643573    0.192786
 ---------------------------------------------------------------------
 Rotational constants (GHZ):           9.9499188           8.3699623           4.8274940
 Leave Link  202 at Mon Oct 14 00:44:10 2019, MaxMem= 10737418240 cpu:               1.1 elap:               0.1
 (Enter /apps/cent7/gaussian/g16-A.03/g16-haswell/g16/l301.exe)
 Standard basis: 6-31G(d) (6D, 7F)
 Ernie: Thresh=  0.10000D-02 Tol=  0.10000D-05 Strict=F.
 There are    74 symmetry adapted cartesian basis functions of A   symmetry.
 There are    74 symmetry adapted basis functions of A   symmetry.
    74 basis functions,   140 primitive gaussians,    74 cartesian basis functions
    16 alpha electrons       16 beta electrons
       nuclear repulsion energy       129.2969516160 Hartrees.
 IExCor=  402 DFT=T Ex+Corr=B3LYP ExCW=0 ScaHFX=  0.200000
 ScaDFX=  0.800000  0.720000  1.000000  0.810000 ScalE2=  1.000000  1.000000
 IRadAn=      5 IRanWt=     -1 IRanGd=            0 ICorTp=0 IEmpDi=  4
 NAtoms=   11 NActive=   11 NUniq=   11 SFac= 1.00D+00 NAtFMM=   60 NAOKFM=F Big=F
 Integral buffers will be    131072 words long.
 Raffenetti 2 integral format.
 Two-electron integral symmetry is turned on.
 Leave Link  301 at Mon Oct 14 00:44:10 2019, MaxMem= 10737418240 cpu:               1.3 elap:               0.1
 (Enter /apps/cent7/gaussian/g16-A.03/g16-haswell/g16/l302.exe)
 NPDir=0 NMtPBC=     1 NCelOv=     1 NCel=       1 NClECP=     1 NCelD=      1
         NCelK=      1 NCelE2=     1 NClLst=     1 CellRange=     0.0.
 One-electron integrals computed using PRISM.
 One-electron integral symmetry used in STVInt
 NBasis=    74 RedAO= T EigKep=  4.63D-03  NBF=    74
 NBsUse=    74 1.00D-06 EigRej= -1.00D+00 NBFU=    74
 Precomputing XC quadrature grid using
 IXCGrd= 4 IRadAn=           5 IRanWt=          -1 IRanGd=           0 AccXCQ= 0.00D+00.
 Generated NRdTot=       0 NPtTot=           0 NUsed=           0 NTot=          32
 NSgBfM=    74    74    74    74    74 MxSgAt=    11 MxSgA2=    11.
 Leave Link  302 at Mon Oct 14 00:44:10 2019, MaxMem= 10737418240 cpu:               3.0 elap:               0.1
 (Enter /apps/cent7/gaussian/g16-A.03/g16-haswell/g16/l303.exe)
 DipDrv:  MaxL=1.
 Leave Link  303 at Mon Oct 14 00:44:10 2019, MaxMem= 10737418240 cpu:               0.7 elap:               0.1
 (Enter /apps/cent7/gaussian/g16-A.03/g16-haswell/g16/l401.exe)
 ExpMin= 1.61D-01 ExpMax= 5.48D+03 ExpMxC= 8.25D+02 IAcc=3 IRadAn=         5 AccDes= 0.00D+00
 Harris functional with IExCor=  402 and IRadAn=       5 diagonalized for initial guess.
 HarFok:  IExCor=  402 AccDes= 0.00D+00 IRadAn=         5 IDoV= 1 UseB2=F ITyADJ=14
 ICtDFT=  3500011 ScaDFX=  1.000000  1.000000  1.000000  1.000000
 FoFCou: FMM=F IPFlag=           0 FMFlag=      100000 FMFlg1=           0
         NFxFlg=           0 DoJE=T BraDBF=F KetDBF=T FulRan=T
         wScrn=  0.000000 ICntrl=       500 IOpCl=  0 I1Cent=   200000004 NGrid=           0
         NMat0=    1 NMatS0=      1 NMatT0=    0 NMatD0=    1 NMtDS0=    0 NMtDT0=    0
 Petite list used in FoFCou.
 Harris En= -193.557365069276    
 JPrj=0 DoOrth=F DoCkMO=F.
 Leave Link  401 at Mon Oct 14 00:44:11 2019, MaxMem= 10737418240 cpu:               4.3 elap:               0.2
 (Enter /apps/cent7/gaussian/g16-A.03/g16-haswell/g16/l502.exe)
 Keep R1 ints in memory in canonical form, NReq=25365119.
 FoFCou: FMM=F IPFlag=           0 FMFlag=           0 FMFlg1=           0
         NFxFlg=           0 DoJE=F BraDBF=F KetDBF=F FulRan=T
         wScrn=  0.000000 ICntrl=       600 IOpCl=  0 I1Cent=           0 NGrid=           0
         NMat0=    1 NMatS0=   2775 NMatT0=    0 NMatD0=    1 NMtDS0=    0 NMtDT0=    0
 Symmetry not used in FoFCou.
 Two-electron integral symmetry not used.
 Closed shell SCF:
 Using DIIS extrapolation, IDIIS=  1040.
 NGot= 10737418240 LenX= 10733552751 LenY= 10733546834
 Requested convergence on RMS density matrix=1.00D-08 within 128 cycles.
 Requested convergence on MAX density matrix=1.00D-06.
 Requested convergence on             energy=1.00D-06.
 No special actions if energy rises.
 Integral accuracy reduced to 1.0D-05 until final iterations.

 Cycle   1  Pass 0  IDiag  1:
 E= -193.348569767716    
 DIIS: error= 4.09D-02 at cycle   1 NSaved=   1.
 NSaved= 1 IEnMin= 1 EnMin= -193.348569767716     IErMin= 1 ErrMin= 4.09D-02
 ErrMax= 4.09D-02  0.00D+00 EMaxC= 1.00D-01 BMatC= 1.34D-01 BMatP= 1.34D-01
 IDIUse=3 WtCom= 5.91D-01 WtEn= 4.09D-01
 Coeff-Com:  0.100D+01
 Coeff-En:   0.100D+01
 Coeff:      0.100D+01
 Gap=     0.233 Goal=   None    Shift=    0.000
 GapD=    0.233 DampG=1.000 DampE=0.500 DampFc=0.5000 IDamp=-1.
 Damping current iteration by 5.00D-01
 RMSDP=8.07D-03 MaxDP=1.20D-01              OVMax= 1.41D-01

 Cycle   2  Pass 0  IDiag  1:
 E= -193.406059051123     Delta-E=       -0.057489283407 Rises=F Damp=T
 DIIS: error= 7.93D-03 at cycle   2 NSaved=   2.
 NSaved= 2 IEnMin= 2 EnMin= -193.406059051123     IErMin= 2 ErrMin= 7.93D-03
 ErrMax= 7.93D-03  0.00D+00 EMaxC= 1.00D-01 BMatC= 4.80D-03 BMatP= 1.34D-01
 IDIUse=3 WtCom= 9.21D-01 WtEn= 7.93D-02
 Coeff-Com:  0.517D-01 0.948D+00
 Coeff-En:   0.805D-01 0.920D+00
 Coeff:      0.540D-01 0.946D+00
 Gap=     0.291 Goal=   None    Shift=    0.000
 RMSDP=1.49D-03 MaxDP=2.39D-02 DE=-5.75D-02 OVMax= 1.04D-01

 Cycle   3  Pass 0  IDiag  1:
 E= -193.470004751615     Delta-E=       -0.063945700492 Rises=F Damp=F
 DIIS: error= 6.18D-03 at cycle   3 NSaved=   3.
 NSaved= 3 IEnMin= 3 EnMin= -193.470004751615     IErMin= 3 ErrMin= 6.18D-03
 ErrMax= 6.18D-03  0.00D+00 EMaxC= 1.00D-01 BMatC= 2.21D-03 BMatP= 4.80D-03
 IDIUse=3 WtCom= 9.38D-01 WtEn= 6.18D-02
 Coeff-Com: -0.269D-02 0.373D+00 0.629D+00
 Coeff-En:   0.000D+00 0.000D+00 0.100D+01
 Coeff:     -0.252D-02 0.350D+00 0.652D+00
 Gap=     0.285 Goal=   None    Shift=    0.000
 RMSDP=7.51D-04 MaxDP=1.64D-02 DE=-6.39D-02 OVMax= 2.27D-02

 Cycle   4  Pass 0  IDiag  1:
 E= -193.470956407147     Delta-E=       -0.000951655532 Rises=F Damp=F
 DIIS: error= 4.07D-03 at cycle   4 NSaved=   4.
 NSaved= 4 IEnMin= 4 EnMin= -193.470956407147     IErMin= 4 ErrMin= 4.07D-03
 ErrMax= 4.07D-03  0.00D+00 EMaxC= 1.00D-01 BMatC= 1.14D-03 BMatP= 2.21D-03
 IDIUse=3 WtCom= 9.59D-01 WtEn= 4.07D-02
 Coeff-Com: -0.644D-02 0.570D-01 0.420D+00 0.529D+00
 Coeff-En:   0.000D+00 0.000D+00 0.352D+00 0.648D+00
 Coeff:     -0.618D-02 0.547D-01 0.418D+00 0.534D+00
 Gap=     0.285 Goal=   None    Shift=    0.000
 RMSDP=3.23D-04 MaxDP=8.35D-03 DE=-9.52D-04 OVMax= 9.07D-03

 Cycle   5  Pass 0  IDiag  1:
 E= -193.471845485076     Delta-E=       -0.000889077930 Rises=F Damp=F
 DIIS: error= 4.21D-04 at cycle   5 NSaved=   5.
 NSaved= 5 IEnMin= 5 EnMin= -193.471845485076     IErMin= 5 ErrMin= 4.21D-04
 ErrMax= 4.21D-04  0.00D+00 EMaxC= 1.00D-01 BMatC= 3.08D-05 BMatP= 1.14D-03
 IDIUse=3 WtCom= 9.96D-01 WtEn= 4.21D-03
 Coeff-Com: -0.332D-02 0.917D-02 0.173D+00 0.257D+00 0.565D+00
 Coeff-En:   0.000D+00 0.000D+00 0.000D+00 0.000D+00 0.100D+01
 Coeff:     -0.330D-02 0.913D-02 0.172D+00 0.256D+00 0.566D+00
 Gap=     0.285 Goal=   None    Shift=    0.000
 RMSDP=7.12D-05 MaxDP=1.28D-03 DE=-8.89D-04 OVMax= 1.46D-03

 Cycle   6  Pass 0  IDiag  1:
 E= -193.471869926941     Delta-E=       -0.000024441864 Rises=F Damp=F
 DIIS: error= 1.11D-04 at cycle   6 NSaved=   6.
 NSaved= 6 IEnMin= 6 EnMin= -193.471869926941     IErMin= 6 ErrMin= 1.11D-04
 ErrMax= 1.11D-04  0.00D+00 EMaxC= 1.00D-01 BMatC= 1.17D-06 BMatP= 3.08D-05
 IDIUse=3 WtCom= 9.99D-01 WtEn= 1.11D-03
 Coeff-Com: -0.100D-02 0.310D-03 0.412D-01 0.679D-01 0.240D+00 0.651D+00
 Coeff-En:   0.000D+00 0.000D+00 0.000D+00 0.000D+00 0.000D+00 0.100D+01
 Coeff:     -0.100D-02 0.310D-03 0.411D-01 0.678D-01 0.240D+00 0.652D+00
 Gap=     0.284 Goal=   None    Shift=    0.000
 RMSDP=1.64D-05 MaxDP=2.05D-04 DE=-2.44D-05 OVMax= 2.91D-04

 Cycle   7  Pass 0  IDiag  1:
 E= -193.471871079787     Delta-E=       -0.000001152847 Rises=F Damp=F
 DIIS: error= 8.99D-06 at cycle   7 NSaved=   7.
 NSaved= 7 IEnMin= 7 EnMin= -193.471871079787     IErMin= 7 ErrMin= 8.99D-06
 ErrMax= 8.99D-06  0.00D+00 EMaxC= 1.00D-01 BMatC= 7.21D-09 BMatP= 1.17D-06
 IDIUse=1 WtCom= 1.00D+00 WtEn= 0.00D+00
 Coeff-Com: -0.168D-03-0.771D-04 0.366D-02 0.739D-02 0.335D-01 0.102D+00
 Coeff-Com:  0.854D+00
 Coeff:     -0.168D-03-0.771D-04 0.366D-02 0.739D-02 0.335D-01 0.102D+00
 Coeff:      0.854D+00
 Gap=     0.284 Goal=   None    Shift=    0.000
 RMSDP=1.41D-06 MaxDP=1.36D-05 DE=-1.15D-06 OVMax= 2.44D-05

 Initial convergence to 1.0D-05 achieved.  Increase integral accuracy.
 Cycle   8  Pass 1  IDiag  1:
 E= -193.471871414113     Delta-E=       -0.000000334325 Rises=F Damp=F
 DIIS: error= 2.15D-06 at cycle   1 NSaved=   1.
 NSaved= 1 IEnMin= 1 EnMin= -193.471871414113     IErMin= 1 ErrMin= 2.15D-06
 ErrMax= 2.15D-06  0.00D+00 EMaxC= 1.00D-01 BMatC= 8.99D-10 BMatP= 8.99D-10
 IDIUse=1 WtCom= 1.00D+00 WtEn= 0.00D+00
 Coeff-Com:  0.100D+01
 Coeff:      0.100D+01
 Gap=     0.284 Goal=   None    Shift=    0.000
 RMSDP=1.41D-06 MaxDP=1.36D-05 DE=-3.34D-07 OVMax= 1.41D-05

 Cycle   9  Pass 1  IDiag  1:
 E= -193.471871414635     Delta-E=       -0.000000000523 Rises=F Damp=F
 DIIS: error= 1.96D-06 at cycle   2 NSaved=   2.
 NSaved= 2 IEnMin= 2 EnMin= -193.471871414635     IErMin= 2 ErrMin= 1.96D-06
 ErrMax= 1.96D-06  0.00D+00 EMaxC= 1.00D-01 BMatC= 5.51D-10 BMatP= 8.99D-10
 IDIUse=1 WtCom= 1.00D+00 WtEn= 0.00D+00
 Coeff-Com:  0.430D+00 0.570D+00
 Coeff:      0.430D+00 0.570D+00
 Gap=     0.284 Goal=   None    Shift=    0.000
 RMSDP=3.25D-07 MaxDP=4.89D-06 DE=-5.23D-10 OVMax= 8.85D-06

 Cycle  10  Pass 1  IDiag  1:
 E= -193.471871415124     Delta-E=       -0.000000000488 Rises=F Damp=F
 DIIS: error= 1.00D-06 at cycle   3 NSaved=   3.
 NSaved= 3 IEnMin= 3 EnMin= -193.471871415124     IErMin= 3 ErrMin= 1.00D-06
 ErrMax= 1.00D-06  0.00D+00 EMaxC= 1.00D-01 BMatC= 5.87D-11 BMatP= 5.51D-10
 IDIUse=1 WtCom= 1.00D+00 WtEn= 0.00D+00
 Coeff-Com:  0.112D+00 0.269D+00 0.619D+00
 Coeff:      0.112D+00 0.269D+00 0.619D+00
 Gap=     0.284 Goal=   None    Shift=    0.000
 RMSDP=9.37D-08 MaxDP=2.26D-06 DE=-4.88D-10 OVMax= 3.07D-06

 Cycle  11  Pass 1  IDiag  1:
 E= -193.471871415164     Delta-E=       -0.000000000040 Rises=F Damp=F
 DIIS: error= 3.19D-07 at cycle   4 NSaved=   4.
 NSaved= 4 IEnMin= 4 EnMin= -193.471871415164     IErMin= 4 ErrMin= 3.19D-07
 ErrMax= 3.19D-07  0.00D+00 EMaxC= 1.00D-01 BMatC= 1.19D-11 BMatP= 5.87D-11
 IDIUse=1 WtCom= 1.00D+00 WtEn= 0.00D+00
 Coeff-Com:  0.282D-02 0.761D-01 0.356D+00 0.565D+00
 Coeff:      0.282D-02 0.761D-01 0.356D+00 0.565D+00
 Gap=     0.284 Goal=   None    Shift=    0.000
 RMSDP=3.95D-08 MaxDP=9.86D-07 DE=-4.02D-11 OVMax= 9.24D-07

 Cycle  12  Pass 1  IDiag  1:
 E= -193.471871415172     Delta-E=       -0.000000000008 Rises=F Damp=F
 DIIS: error= 7.32D-08 at cycle   5 NSaved=   5.
 NSaved= 5 IEnMin= 5 EnMin= -193.471871415172     IErMin= 5 ErrMin= 7.32D-08
 ErrMax= 7.32D-08  0.00D+00 EMaxC= 1.00D-01 BMatC= 9.48D-13 BMatP= 1.19D-11
 IDIUse=1 WtCom= 1.00D+00 WtEn= 0.00D+00
 Coeff-Com: -0.869D-02 0.153D-01 0.130D+00 0.299D+00 0.564D+00
 Coeff:     -0.869D-02 0.153D-01 0.130D+00 0.299D+00 0.564D+00
 Gap=     0.284 Goal=   None    Shift=    0.000
 RMSDP=1.18D-08 MaxDP=1.91D-07 DE=-8.19D-12 OVMax= 2.94D-07

 Cycle  13  Pass 1  IDiag  1:
 E= -193.471871415174     Delta-E=       -0.000000000002 Rises=F Damp=F
 DIIS: error= 5.98D-09 at cycle   6 NSaved=   6.
 NSaved= 6 IEnMin= 6 EnMin= -193.471871415174     IErMin= 6 ErrMin= 5.98D-09
 ErrMax= 5.98D-09  0.00D+00 EMaxC= 1.00D-01 BMatC= 8.29D-15 BMatP= 9.48D-13
 IDIUse=1 WtCom= 1.00D+00 WtEn= 0.00D+00
 Coeff-Com: -0.221D-02 0.130D-02 0.184D-01 0.524D-01 0.146D+00 0.784D+00
 Coeff:     -0.221D-02 0.130D-02 0.184D-01 0.524D-01 0.146D+00 0.784D+00
 Gap=     0.284 Goal=   None    Shift=    0.000
 RMSDP=1.51D-09 MaxDP=2.11D-08 DE=-1.71D-12 OVMax= 3.45D-08

 SCF Done:  E(RB3LYP) =  -193.471871415     A.U. after   13 cycles
            NFock= 13  Conv=0.15D-08     -V/T= 2.0087
 KE= 1.918061423006D+02 PE=-7.008116020338D+02 EE= 1.862366367020D+02
 Leave Link  502 at Mon Oct 14 00:44:11 2019, MaxMem= 10737418240 cpu:              15.9 elap:               0.8
 (Enter /apps/cent7/gaussian/g16-A.03/g16-haswell/g16/l601.exe)
 Copying SCF densities to generalized density rwf, IOpCl= 0 IROHF=0.

 **********************************************************************

            Population analysis using the SCF density.

 **********************************************************************

 Orbital symmetries:
       Occupied  (A) (A) (A) (A) (A) (A) (A) (A) (A) (A) (A) (A)
                 (A) (A) (A) (A)
       Virtual   (A) (A) (A) (A) (A) (A) (A) (A) (A) (A) (A) (A)
                 (A) (A) (A) (A) (A) (A) (A) (A) (A) (A) (A) (A)
                 (A) (A) (A) (A) (A) (A) (A) (A) (A) (A) (A) (A)
                 (A) (A) (A) (A) (A) (A) (A) (A) (A) (A) (A) (A)
                 (A) (A) (A) (A) (A) (A) (A) (A) (A) (A)
 The electronic state is 1-A.
 Alpha  occ. eigenvalues --  -19.47776 -10.56631 -10.41085 -10.40341  -1.38441
 Alpha  occ. eigenvalues --   -1.03481  -0.95121  -0.89482  -0.74358  -0.71710
 Alpha  occ. eigenvalues --   -0.71392  -0.63167  -0.62651  -0.61998  -0.60117
 Alpha  occ. eigenvalues --   -0.58302
 Alpha virt. eigenvalues --   -0.29860  -0.15458  -0.08001  -0.06800  -0.03893
 Alpha virt. eigenvalues --   -0.03641  -0.01450  -0.00534   0.01009   0.07572
 Alpha virt. eigenvalues --    0.11635   0.28699   0.30440   0.32848   0.35148
 Alpha virt. eigenvalues --    0.37463   0.38879   0.44752   0.48359   0.52363
 Alpha virt. eigenvalues --    0.56143   0.61241   0.64972   0.66474   0.68885
 Alpha virt. eigenvalues --    0.70299   0.71535   0.73683   0.75871   0.78020
 Alpha virt. eigenvalues --    0.93041   1.05573   1.13676   1.18526   1.19775
 Alpha virt. eigenvalues --    1.27944   1.46804   1.51902   1.54888   1.63378
 Alpha virt. eigenvalues --    1.66313   1.72208   1.88533   1.88898   1.95008
 Alpha virt. eigenvalues --    2.02345   2.04579   2.14359   2.19945   2.21530
 Alpha virt. eigenvalues --    2.31694   2.48355   2.62820   2.71384   3.64638
 Alpha virt. eigenvalues --    3.84888   4.05159   4.21710
          Condensed to atoms (all electrons):
               1          2          3          4          5          6
     1  C    5.201926   0.374328  -0.074280  -0.061388   0.355790   0.357507
     2  C    0.374328   4.517879   0.381657   0.417537  -0.017899  -0.020124
     3  C   -0.074280   0.381657   5.234576  -0.062146   0.001587   0.003826
     4  O   -0.061388   0.417537  -0.062146   7.865711  -0.001652  -0.000777
     5  H    0.355790  -0.017899   0.001587  -0.001652   0.414797  -0.010057
     6  H    0.357507  -0.020124   0.003826  -0.000777  -0.010057   0.425977
     7  H    0.369254  -0.026571  -0.002739   0.002642  -0.016926  -0.019698
     8  H    0.001019  -0.021392   0.354594  -0.000033  -0.000403   0.000014
     9  H   -0.002935  -0.019234   0.360807   0.002432   0.000163  -0.000124
    10  H    0.004379  -0.029192   0.363884  -0.003288  -0.000046  -0.000204
    11  H    0.005632  -0.020505  -0.004387   0.246411  -0.000274  -0.000140
               7          8          9         10         11
     1  C    0.369254   0.001019  -0.002935   0.004379   0.005632
     2  C   -0.026571  -0.021392  -0.019234  -0.029192  -0.020505
     3  C   -0.002739   0.354594   0.360807   0.363884  -0.004387
     4  O    0.002642  -0.000033   0.002432  -0.003288   0.246411
     5  H   -0.016926  -0.000403   0.000163  -0.000046  -0.000274
     6  H   -0.019698   0.000014  -0.000124  -0.000204  -0.000140
     7  H    0.452781  -0.000015   0.002165   0.000090  -0.000156
     8  H   -0.000015   0.418545  -0.011890  -0.015060   0.000084
     9  H    0.002165  -0.011890   0.427930  -0.019306   0.000073
    10  H    0.000090  -0.015060  -0.019306   0.466246   0.005373
    11  H   -0.000156   0.000084   0.000073   0.005373   0.276817
 Mulliken charges:
               1
     1  C   -0.531230
     2  C    0.463516
     3  C   -0.557378
     4  O   -0.405449
     5  H    0.274920
     6  H    0.263800
     7  H    0.239173
     8  H    0.274535
     9  H    0.259919
    10  H    0.227123
    11  H    0.491072
 Sum of Mulliken charges =   1.00000
 Mulliken charges with hydrogens summed into heavy atoms:
               1
     1  C    0.246662
     2  C    0.463516
     3  C    0.204198
     4  O    0.085623
 Electronic spatial extent (au):  <R**2>=            285.6833
 Charge=              1.0000 electrons
 Dipole moment (field-independent basis, Debye):
    X=              1.3643    Y=             -0.0946    Z=              0.5961  Tot=              1.4919
 Quadrupole moment (field-independent basis, Debye-Ang):
   XX=            -14.5229   YY=            -17.4897   ZZ=            -21.5157
   XY=              2.9757   XZ=              0.4524   YZ=              0.6215
 Traceless Quadrupole moment (field-independent basis, Debye-Ang):
   XX=              3.3199   YY=              0.3531   ZZ=             -3.6729
   XY=              2.9757   XZ=              0.4524   YZ=              0.6215
 Octapole moment (field-independent basis, Debye-Ang**2):
  XXX=              0.9982  YYY=              7.1936  ZZZ=              2.1993  XYY=              7.9361
  XXY=              3.5810  XXZ=              0.8132  XZZ=             -0.1710  YZZ=              0.4832
  YYZ=              0.2564  XYZ=              0.7788
 Hexadecapole moment (field-independent basis, Debye-Ang**3):
 XXXX=           -158.8013 YYYY=           -111.2804 ZZZZ=            -29.9376 XXXY=              6.9654
 XXXZ=             -0.2907 YYYX=             13.7097 YYYZ=              5.4036 ZZZX=             -0.2113
 ZZZY=             -1.3323 XXYY=            -41.1980 XXZZ=            -30.4606 YYZZ=            -24.6886
 XXYZ=             -1.1785 YYXZ=              2.8129 ZZXY=             -0.2764
 N-N= 1.292969516160D+02 E-N=-7.008116019053D+02  KE= 1.918061423006D+02
 No NMR shielding tensors so no spin-rotation constants.
 Leave Link  601 at Mon Oct 14 00:44:11 2019, MaxMem= 10737418240 cpu:               2.1 elap:               0.1
 (Enter /apps/cent7/gaussian/g16-A.03/g16-haswell/g16/l701.exe)
 ... and contract with generalized density number  0.
 Compute integral first derivatives.
 Leave Link  701 at Mon Oct 14 00:44:12 2019, MaxMem= 10737418240 cpu:               2.1 elap:               0.1
 (Enter /apps/cent7/gaussian/g16-A.03/g16-haswell/g16/l702.exe)
 L702 exits ... SP integral derivatives will be done elsewhere.
 Leave Link  702 at Mon Oct 14 00:44:12 2019, MaxMem= 10737418240 cpu:               0.6 elap:               0.0
 (Enter /apps/cent7/gaussian/g16-A.03/g16-haswell/g16/l703.exe)
 Integral derivatives from FoFJK, PRISM(SPDF).
 Compute integral first derivatives, UseDBF=F ICtDFT=           0.
 Calling FoFJK, ICntrl=      2127 FMM=F ISym2X=0 I1Cent= 0 IOpClX= 0 NMat=1 NMatS=1 NMatT=0.
 FoFJK:  IHMeth= 1 ICntrl=    2127 DoSepK=F KAlg= 0 I1Cent=           0 FoldK=F
 IRaf=         0 NMat=       1 IRICut=       1 DoRegI=T DoRafI=F ISym2E= 0 IDoP0=0 IntGTp=1.
 FoFCou: FMM=F IPFlag=           0 FMFlag=      100000 FMFlg1=         800
         NFxFlg=           0 DoJE=F BraDBF=F KetDBF=F FulRan=T
         wScrn=  0.000000 ICntrl=      2127 IOpCl=  0 I1Cent=           0 NGrid=           0
         NMat0=    1 NMatS0=      1 NMatT0=    0 NMatD0=    1 NMtDS0=    0 NMtDT0=    0
 Symmetry not used in FoFCou.
 Leave Link  703 at Mon Oct 14 00:44:12 2019, MaxMem= 10737418240 cpu:               7.0 elap:               0.3
 (Enter /apps/cent7/gaussian/g16-A.03/g16-haswell/g16/l716.exe)
 Dipole        = 5.36762148D-01-3.72252274D-02 2.34530461D-01
 ***** Axes restored to original set *****
 -------------------------------------------------------------------
 Center     Atomic                   Forces (Hartrees/Bohr)
 Number     Number              X              Y              Z
 -------------------------------------------------------------------
      1        6          -0.001884235    0.001648033   -0.017705266
      2        6           0.031785339   -0.013437577   -0.000978367
      3        6          -0.005234109    0.002727427   -0.006538789
      4        8          -0.046557110   -0.003938125    0.016929877
      5        1          -0.001438905    0.000698267    0.006769901
      6        1          -0.005778083   -0.001450484    0.003595986
      7        1           0.000544954   -0.002076705    0.002942883
      8        1           0.005939008   -0.001780097    0.004974001
      9        1           0.004481768   -0.002122427    0.001161542
     10        1           0.004838927    0.003220238   -0.000530793
     11        1           0.013302446    0.016511449   -0.010620974
 -------------------------------------------------------------------
 Cartesian Forces:  Max     0.046557110 RMS     0.012128752
 Leave Link  716 at Mon Oct 14 00:44:12 2019, MaxMem= 10737418240 cpu:               0.5 elap:               0.0
 (Enter /apps/cent7/gaussian/g16-A.03/g16-haswell/g16/l103.exe)

 GradGradGradGradGradGradGradGradGradGradGradGradGradGradGradGradGradGrad
 Berny optimization.
 FormGI is forming the generalized inverse of G from B-inverse, IUseBI=4.
 Internal  Forces:  Max     0.031121266 RMS     0.007987958
 Search for a local minimum.
 Step number   1 out of a maximum of   50
 All quantities printed in internal units (Hartrees-Bohrs-Radians)
 RMS Force = .79880D-02 SwitMx=.10000D-02 MixMth= 1
 Mixed Optimization -- RFO/linear search
 Second derivative matrix not updated -- first step.
 ITU=  0
     Eigenvalues ---    0.01083   0.01093   0.01434   0.03630   0.07712
     Eigenvalues ---    0.07714   0.07718   0.07719   0.16000   0.16000
     Eigenvalues ---    0.16000   0.16000   0.16000   0.16000   0.16000
     Eigenvalues ---    0.25000   0.25000   0.34806   0.34806   0.34814
     Eigenvalues ---    0.34815   0.34816   0.34817   0.35029   0.35117
     Eigenvalues ---    0.55473   0.81958
 RFO step:  Lambda=-9.70458389D-03 EMin= 1.08311815D-02
 Linear search not attempted -- first point.
 Iteration  1 RMS(Cart)=  0.05180238 RMS(Int)=  0.00398230
 Iteration  2 RMS(Cart)=  0.00412498 RMS(Int)=  0.00040234
 Iteration  3 RMS(Cart)=  0.00003648 RMS(Int)=  0.00040051
 Iteration  4 RMS(Cart)=  0.00000000 RMS(Int)=  0.00040051
 ITry= 1 IFail=0 DXMaxC= 1.46D-01 DCOld= 1.00D+10 DXMaxT= 3.00D-01 DXLimC= 3.00D+00 Rises=F
 Variable       Old X    -DE/DX   Delta X   Delta X   Delta X     New X
                                 (Linear)    (Quad)   (Total)
    R1        2.78785   0.00257   0.00000   0.00713   0.00713   2.79498
    R2        2.05976   0.00674   0.00000   0.01885   0.01885   2.07861
    R3        2.05975   0.00423   0.00000   0.01183   0.01183   2.07158
    R4        2.05991   0.00071   0.00000   0.00199   0.00199   2.06190
    R5        2.78928   0.01014   0.00000   0.02816   0.02816   2.81744
    R6        2.36876   0.03112   0.00000   0.03753   0.03753   2.40629
    R7        2.05978   0.00721   0.00000   0.02015   0.02015   2.07993
    R8        2.05992   0.00256   0.00000   0.00716   0.00716   2.06708
    R9        2.05973   0.00325   0.00000   0.00909   0.00909   2.06882
   R10        1.81414   0.02026   0.00000   0.03590   0.03590   1.85004
    A1        1.91068  -0.00367   0.00000  -0.03112  -0.03099   1.87969
    A2        1.91064   0.00420   0.00000   0.02714   0.02643   1.93706
    A3        1.91062   0.00429   0.00000   0.03240   0.03177   1.94240
    A4        1.91066  -0.00344   0.00000  -0.03448  -0.03443   1.87623
    A5        1.91061  -0.00137   0.00000  -0.01284  -0.01263   1.89798
    A6        1.91060  -0.00002   0.00000   0.01891   0.01759   1.92819
    A7        2.12672   0.00507   0.00000   0.01953   0.01952   2.14624
    A8        2.07871  -0.01670   0.00000  -0.06431  -0.06432   2.01439
    A9        2.07775   0.01163   0.00000   0.04478   0.04477   2.12252
   A10        1.91069  -0.00007   0.00000  -0.00679  -0.00686   1.90382
   A11        1.91055   0.00272   0.00000   0.01493   0.01435   1.92490
   A12        1.91060   0.00682   0.00000   0.04767   0.04708   1.95768
   A13        1.91062  -0.00467   0.00000  -0.04252  -0.04257   1.86805
   A14        1.91078  -0.00288   0.00000  -0.01478  -0.01488   1.89589
   A15        1.91056  -0.00192   0.00000   0.00150   0.00050   1.91107
   A16        2.09440  -0.01281   0.00000  -0.07547  -0.07547   2.01892
    D1        1.70063   0.00059   0.00000  -0.00241  -0.00235   1.69829
    D2       -1.44080   0.00081   0.00000   0.00659   0.00640  -1.43440
    D3       -2.48810  -0.00329   0.00000  -0.04708  -0.04748  -2.53558
    D4        0.65366  -0.00307   0.00000  -0.03808  -0.03874   0.61492
    D5       -0.39375   0.00189   0.00000   0.01254   0.01327  -0.38049
    D6        2.74800   0.00211   0.00000   0.02154   0.02201   2.77001
    D7       -1.39817   0.00212   0.00000   0.04438   0.04454  -1.35363
    D8        0.69619  -0.00197   0.00000  -0.00271  -0.00294   0.69325
    D9        2.79043   0.00152   0.00000   0.03744   0.03793   2.82837
   D10        1.74326   0.00190   0.00000   0.03538   0.03526   1.77852
   D11       -2.44556  -0.00219   0.00000  -0.01171  -0.01222  -2.45778
   D12       -0.35132   0.00130   0.00000   0.02844   0.02865  -0.32267
   D13        2.85823   0.00782   0.00000   0.16799   0.16806   3.02629
   D14       -0.28320   0.00803   0.00000   0.17674   0.17667  -0.10653
         Item               Value     Threshold  Converged?
 Maximum Force            0.031121     0.000450     NO 
 RMS     Force            0.007988     0.000300     NO 
 Maximum Displacement     0.146093     0.001800     NO 
 RMS     Displacement     0.053513     0.001200     NO 
 Predicted change in Energy=-5.328548D-03
 Lowest energy point so far.  Saving SCF results.
 GradGradGradGradGradGradGradGradGradGradGradGradGradGradGradGradGradGrad

 Leave Link  103 at Mon Oct 14 00:44:12 2019, MaxMem= 10737418240 cpu:               0.8 elap:               0.1
 (Enter /apps/cent7/gaussian/g16-A.03/g16-haswell/g16/l202.exe)
                          Input orientation:                          
 ---------------------------------------------------------------------
 Center     Atomic      Atomic             Coordinates (Angstroms)
 Number     Number       Type             X           Y           Z
 ---------------------------------------------------------------------
      1          6           0       -0.336844   -1.390139    0.215029
      2          6           0        0.144917   -0.046695   -0.173077
      3          6           0        1.560015    0.229441   -0.552696
      4          8           0       -0.732957    0.875466   -0.153411
      5          1           0       -0.342027   -1.438974    1.313886
      6          1           0       -1.365664   -1.552233   -0.126999
      7          1           0        0.320363   -2.172544   -0.167651
      8          1           0        2.173663    0.281484    0.359530
      9          1           0        1.956731   -0.589732   -1.159394
     10          1           0        1.664693    1.172486   -1.098809
     11          1           0       -0.399246    1.782234   -0.311037
 ---------------------------------------------------------------------
                    Distance matrix (angstroms):
                    1          2          3          4          5
     1  C    0.000000
     2  C    1.479041   0.000000
     3  C    2.609696   1.490927   0.000000
     4  O    2.329296   1.273354   2.415470   0.000000
     5  H    1.099953   2.094424   3.144121   2.768108   0.000000
     6  H    1.096233   2.133219   3.451837   2.508932   1.771103
     7  H    1.091111   2.133083   2.730298   3.224911   1.780964
     8  H    3.019578   2.123012   1.100649   3.010708   3.193660
     9  H    2.791089   2.133162   1.093852   3.223853   3.481754
    10  H    3.507045   2.157104   1.094774   2.594364   4.082614
    11  H    3.216301   1.913146   2.511626   0.978998   3.608300
                    6          7          8          9         10
     6  H    0.000000
     7  H    1.796976   0.000000
     8  H    4.015727   3.120079   0.000000
     9  H    3.609786   2.483253   1.764429   0.000000
    10  H    4.189459   3.723372   1.783168   1.787280   0.000000
    11  H    3.476565   4.022271   3.053157   3.449140   2.291773
                   11
    11  H    0.000000
 Stoichiometry    C3H7O(1+)
 Framework group  C1[X(C3H7O)]
 Deg. of freedom    27
 Full point group                 C1      NOp   1
 RotChk:  IX=0 Diff= 1.72D-01
 Largest Abelian subgroup         C1      NOp   1
 Largest concise Abelian subgroup C1      NOp   1
                         Standard orientation:                         
 ---------------------------------------------------------------------
 Center     Atomic      Atomic             Coordinates (Angstroms)
 Number     Number       Type             X           Y           Z
 ---------------------------------------------------------------------
      1          6           0       -1.339491   -0.581711   -0.002039
      2          6           0       -0.006638    0.059380   -0.010243
      3          6           0        1.266741   -0.716083   -0.005263
      4          8           0       -0.012659    1.332719   -0.011750
      5          1           0       -1.696805   -0.596992    1.038150
      6          1           0       -2.058953    0.000816   -0.589204
      7          1           0       -1.287989   -1.607533   -0.370223
      8          1           0        1.459216   -1.085254    1.013606
      9          1           0        1.179106   -1.593391   -0.652690
     10          1           0        2.120680   -0.110066   -0.324736
     11          1           0        0.862351    1.761154    0.084368
 ---------------------------------------------------------------------
 Rotational constants (GHZ):           9.8281547           8.1924748           4.7320629
 Leave Link  202 at Mon Oct 14 00:44:12 2019, MaxMem= 10737418240 cpu:               0.2 elap:               0.0
 (Enter /apps/cent7/gaussian/g16-A.03/g16-haswell/g16/l301.exe)
 Standard basis: 6-31G(d) (6D, 7F)
 Ernie: Thresh=  0.10000D-02 Tol=  0.10000D-05 Strict=F.
 There are    74 symmetry adapted cartesian basis functions of A   symmetry.
 There are    74 symmetry adapted basis functions of A   symmetry.
    74 basis functions,   140 primitive gaussians,    74 cartesian basis functions
    16 alpha electrons       16 beta electrons
       nuclear repulsion energy       128.1056191256 Hartrees.
 IExCor=  402 DFT=T Ex+Corr=B3LYP ExCW=0 ScaHFX=  0.200000
 ScaDFX=  0.800000  0.720000  1.000000  0.810000 ScalE2=  1.000000  1.000000
 IRadAn=      5 IRanWt=     -1 IRanGd=            0 ICorTp=0 IEmpDi=  4
 NAtoms=   11 NActive=   11 NUniq=   11 SFac= 1.00D+00 NAtFMM=   60 NAOKFM=F Big=F
 Integral buffers will be    131072 words long.
 Raffenetti 2 integral format.
 Two-electron integral symmetry is turned on.
 Leave Link  301 at Mon Oct 14 00:44:12 2019, MaxMem= 10737418240 cpu:               1.7 elap:               0.1
 (Enter /apps/cent7/gaussian/g16-A.03/g16-haswell/g16/l302.exe)
 NPDir=0 NMtPBC=     1 NCelOv=     1 NCel=       1 NClECP=     1 NCelD=      1
         NCelK=      1 NCelE2=     1 NClLst=     1 CellRange=     0.0.
 One-electron integrals computed using PRISM.
 One-electron integral symmetry used in STVInt
 NBasis=    74 RedAO= T EigKep=  4.89D-03  NBF=    74
 NBsUse=    74 1.00D-06 EigRej= -1.00D+00 NBFU=    74
 Precomputing XC quadrature grid using
 IXCGrd= 4 IRadAn=           5 IRanWt=          -1 IRanGd=           0 AccXCQ= 0.00D+00.
 Generated NRdTot=       0 NPtTot=           0 NUsed=           0 NTot=          32
 NSgBfM=    74    74    74    74    74 MxSgAt=    11 MxSgA2=    11.
 Leave Link  302 at Mon Oct 14 00:44:12 2019, MaxMem= 10737418240 cpu:               2.5 elap:               0.1
 (Enter /apps/cent7/gaussian/g16-A.03/g16-haswell/g16/l303.exe)
 DipDrv:  MaxL=1.
 Leave Link  303 at Mon Oct 14 00:44:12 2019, MaxMem= 10737418240 cpu:               1.0 elap:               0.1
 (Enter /apps/cent7/gaussian/g16-A.03/g16-haswell/g16/l401.exe)
 Initial guess from the checkpoint file:  "16_p.chk"
 B after Tr=    -0.000000   -0.000000    0.000000
         Rot=    0.997837   -0.001152   -0.000081   -0.065726 Ang=  -7.54 deg.
 Guess basis will be translated and rotated to current coordinates.
 JPrj=2 DoOrth=T DoCkMO=T.
 Generating alternative initial guess.
 ExpMin= 1.61D-01 ExpMax= 5.48D+03 ExpMxC= 8.25D+02 IAcc=2 IRadAn=         4 AccDes= 0.00D+00
 Harris functional with IExCor=  402 and IRadAn=       4 diagonalized for initial guess.
 HarFok:  IExCor=  402 AccDes= 0.00D+00 IRadAn=         4 IDoV= 1 UseB2=F ITyADJ=14
 ICtDFT=  3500011 ScaDFX=  1.000000  1.000000  1.000000  1.000000
 FoFCou: FMM=F IPFlag=           0 FMFlag=      100000 FMFlg1=           0
         NFxFlg=           0 DoJE=T BraDBF=F KetDBF=T FulRan=T
         wScrn=  0.000000 ICntrl=       500 IOpCl=  0 I1Cent=   200000004 NGrid=           0
         NMat0=    1 NMatS0=      1 NMatT0=    0 NMatD0=    1 NMtDS0=    0 NMtDT0=    0
 Petite list used in FoFCou.
 Harris En= -193.559362751124    
 Leave Link  401 at Mon Oct 14 00:44:13 2019, MaxMem= 10737418240 cpu:               4.5 elap:               0.2
 (Enter /apps/cent7/gaussian/g16-A.03/g16-haswell/g16/l502.exe)
 Keep R1 ints in memory in canonical form, NReq=25365119.
 FoFCou: FMM=F IPFlag=           0 FMFlag=           0 FMFlg1=           0
         NFxFlg=           0 DoJE=F BraDBF=F KetDBF=F FulRan=T
         wScrn=  0.000000 ICntrl=       600 IOpCl=  0 I1Cent=           0 NGrid=           0
         NMat0=    1 NMatS0=   2775 NMatT0=    0 NMatD0=    1 NMtDS0=    0 NMtDT0=    0
 Symmetry not used in FoFCou.
 Two-electron integral symmetry not used.
 Closed shell SCF:
 Using DIIS extrapolation, IDIIS=  1040.
 NGot= 10737418240 LenX= 10733552751 LenY= 10733546834
 Requested convergence on RMS density matrix=1.00D-08 within 128 cycles.
 Requested convergence on MAX density matrix=1.00D-06.
 Requested convergence on             energy=1.00D-06.
 No special actions if energy rises.
 Integral accuracy reduced to 1.0D-05 until final iterations.

 Cycle   1  Pass 0  IDiag  1:
 E= -193.473604581716    
 DIIS: error= 4.83D-03 at cycle   1 NSaved=   1.
 NSaved= 1 IEnMin= 1 EnMin= -193.473604581716     IErMin= 1 ErrMin= 4.83D-03
 ErrMax= 4.83D-03  0.00D+00 EMaxC= 1.00D-01 BMatC= 2.69D-03 BMatP= 2.69D-03
 IDIUse=3 WtCom= 9.52D-01 WtEn= 4.83D-02
 Coeff-Com:  0.100D+01
 Coeff-En:   0.100D+01
 Coeff:      0.100D+01
 Gap=     1.725 Goal=   None    Shift=    0.000
 GapD=    1.725 DampG=2.000 DampE=1.000 DampFc=2.0000 IDamp=-1.
 RMSDP=1.07D-03 MaxDP=1.95D-02              OVMax= 1.91D-02

 Cycle   2  Pass 0  IDiag  1:
 E= -193.477484588977     Delta-E=       -0.003880007261 Rises=F Damp=F
 DIIS: error= 1.63D-03 at cycle   2 NSaved=   2.
 NSaved= 2 IEnMin= 2 EnMin= -193.477484588977     IErMin= 2 ErrMin= 1.63D-03
 ErrMax= 1.63D-03  0.00D+00 EMaxC= 1.00D-01 BMatC= 2.50D-04 BMatP= 2.69D-03
 IDIUse=3 WtCom= 9.84D-01 WtEn= 1.63D-02
 Coeff-Com:  0.949D-01 0.905D+00
 Coeff-En:   0.000D+00 0.100D+01
 Coeff:      0.933D-01 0.907D+00
 Gap=     0.292 Goal=   None    Shift=    0.000
 RMSDP=3.23D-04 MaxDP=8.94D-03 DE=-3.88D-03 OVMax= 7.39D-03

 Cycle   3  Pass 0  IDiag  1:
 E= -193.477398143368     Delta-E=        0.000086445609 Rises=F Damp=F
 DIIS: error= 2.20D-03 at cycle   3 NSaved=   3.
 NSaved= 3 IEnMin= 2 EnMin= -193.477484588977     IErMin= 2 ErrMin= 1.63D-03
 ErrMax= 2.20D-03  0.00D+00 EMaxC= 1.00D-01 BMatC= 4.08D-04 BMatP= 2.50D-04
 IDIUse=3 WtCom= 1.76D-01 WtEn= 8.24D-01
 Coeff-Com: -0.261D-01 0.573D+00 0.453D+00
 Coeff-En:   0.000D+00 0.579D+00 0.421D+00
 Coeff:     -0.458D-02 0.578D+00 0.427D+00
 Gap=     0.292 Goal=   None    Shift=    0.000
 RMSDP=1.83D-04 MaxDP=5.50D-03 DE= 8.64D-05 OVMax= 4.59D-03

 Cycle   4  Pass 0  IDiag  1:
 E= -193.477688012909     Delta-E=       -0.000289869541 Rises=F Damp=F
 DIIS: error= 3.85D-04 at cycle   4 NSaved=   4.
 NSaved= 4 IEnMin= 4 EnMin= -193.477688012909     IErMin= 4 ErrMin= 3.85D-04
 ErrMax= 3.85D-04  0.00D+00 EMaxC= 1.00D-01 BMatC= 8.77D-06 BMatP= 2.50D-04
 IDIUse=3 WtCom= 9.96D-01 WtEn= 3.85D-03
 Coeff-Com: -0.194D-01 0.250D+00 0.226D+00 0.544D+00
 Coeff-En:   0.000D+00 0.000D+00 0.000D+00 0.100D+01
 Coeff:     -0.193D-01 0.249D+00 0.225D+00 0.546D+00
 Gap=     0.292 Goal=   None    Shift=    0.000
 RMSDP=3.79D-05 MaxDP=4.74D-04 DE=-2.90D-04 OVMax= 9.99D-04

 Cycle   5  Pass 0  IDiag  1:
 E= -193.477696081496     Delta-E=       -0.000008068588 Rises=F Damp=F
 DIIS: error= 5.67D-05 at cycle   5 NSaved=   5.
 NSaved= 5 IEnMin= 5 EnMin= -193.477696081496     IErMin= 5 ErrMin= 5.67D-05
 ErrMax= 5.67D-05  0.00D+00 EMaxC= 1.00D-01 BMatC= 3.08D-07 BMatP= 8.77D-06
 IDIUse=1 WtCom= 1.00D+00 WtEn= 0.00D+00
 Coeff-Com: -0.512D-02 0.395D-01 0.428D-01 0.194D+00 0.729D+00
 Coeff:     -0.512D-02 0.395D-01 0.428D-01 0.194D+00 0.729D+00
 Gap=     0.292 Goal=   None    Shift=    0.000
 RMSDP=7.81D-06 MaxDP=8.31D-05 DE=-8.07D-06 OVMax= 1.56D-04

 Initial convergence to 1.0D-05 achieved.  Increase integral accuracy.
 Cycle   6  Pass 1  IDiag  1:
 E= -193.477699417625     Delta-E=       -0.000003336128 Rises=F Damp=F
 DIIS: error= 8.88D-06 at cycle   1 NSaved=   1.
 NSaved= 1 IEnMin= 1 EnMin= -193.477699417625     IErMin= 1 ErrMin= 8.88D-06
 ErrMax= 8.88D-06  0.00D+00 EMaxC= 1.00D-01 BMatC= 9.52D-09 BMatP= 9.52D-09
 IDIUse=1 WtCom= 1.00D+00 WtEn= 0.00D+00
 Coeff-Com:  0.100D+01
 Coeff:      0.100D+01
 Gap=     0.292 Goal=   None    Shift=    0.000
 RMSDP=7.81D-06 MaxDP=8.31D-05 DE=-3.34D-06 OVMax= 5.78D-05

 Cycle   7  Pass 1  IDiag  1:
 E= -193.477699420381     Delta-E=       -0.000000002756 Rises=F Damp=F
 DIIS: error= 8.36D-06 at cycle   2 NSaved=   2.
 NSaved= 2 IEnMin= 2 EnMin= -193.477699420381     IErMin= 2 ErrMin= 8.36D-06
 ErrMax= 8.36D-06  0.00D+00 EMaxC= 1.00D-01 BMatC= 9.54D-09 BMatP= 9.52D-09
 IDIUse=1 WtCom= 1.00D+00 WtEn= 0.00D+00
 Coeff-Com:  0.500D+00 0.500D+00
 Coeff:      0.500D+00 0.500D+00
 Gap=     0.292 Goal=   None    Shift=    0.000
 RMSDP=1.30D-06 MaxDP=2.56D-05 DE=-2.76D-09 OVMax= 2.71D-05

 Cycle   8  Pass 1  IDiag  1:
 E= -193.477699429521     Delta-E=       -0.000000009140 Rises=F Damp=F
 DIIS: error= 9.65D-07 at cycle   3 NSaved=   3.
 NSaved= 3 IEnMin= 3 EnMin= -193.477699429521     IErMin= 3 ErrMin= 9.65D-07
 ErrMax= 9.65D-07  0.00D+00 EMaxC= 1.00D-01 BMatC= 1.61D-10 BMatP= 9.52D-09
 IDIUse=1 WtCom= 1.00D+00 WtEn= 0.00D+00
 Coeff-Com:  0.123D+00 0.166D+00 0.712D+00
 Coeff:      0.123D+00 0.166D+00 0.712D+00
 Gap=     0.292 Goal=   None    Shift=    0.000
 RMSDP=1.87D-07 MaxDP=2.75D-06 DE=-9.14D-09 OVMax= 4.42D-06

 Cycle   9  Pass 1  IDiag  1:
 E= -193.477699429694     Delta-E=       -0.000000000173 Rises=F Damp=F
 DIIS: error= 2.91D-07 at cycle   4 NSaved=   4.
 NSaved= 4 IEnMin= 4 EnMin= -193.477699429694     IErMin= 4 ErrMin= 2.91D-07
 ErrMax= 2.91D-07  0.00D+00 EMaxC= 1.00D-01 BMatC= 6.48D-12 BMatP= 1.61D-10
 IDIUse=1 WtCom= 1.00D+00 WtEn= 0.00D+00
 Coeff-Com: -0.294D-01-0.290D-01 0.860D-01 0.972D+00
 Coeff:     -0.294D-01-0.290D-01 0.860D-01 0.972D+00
 Gap=     0.292 Goal=   None    Shift=    0.000
 RMSDP=7.17D-08 MaxDP=8.88D-07 DE=-1.73D-10 OVMax= 3.11D-06

 Cycle  10  Pass 1  IDiag  1:
 E= -193.477699429706     Delta-E=       -0.000000000013 Rises=F Damp=F
 DIIS: error= 1.14D-07 at cycle   5 NSaved=   5.
 NSaved= 5 IEnMin= 5 EnMin= -193.477699429706     IErMin= 5 ErrMin= 1.14D-07
 ErrMax= 1.14D-07  0.00D+00 EMaxC= 1.00D-01 BMatC= 1.12D-12 BMatP= 6.48D-12
 IDIUse=1 WtCom= 1.00D+00 WtEn= 0.00D+00
 Coeff-Com: -0.153D-01-0.173D-01 0.871D-02 0.403D+00 0.621D+00
 Coeff:     -0.153D-01-0.173D-01 0.871D-02 0.403D+00 0.621D+00
 Gap=     0.292 Goal=   None    Shift=    0.000
 RMSDP=1.62D-08 MaxDP=2.69D-07 DE=-1.27D-11 OVMax= 3.57D-07

 Cycle  11  Pass 1  IDiag  1:
 E= -193.477699429708     Delta-E=       -0.000000000001 Rises=F Damp=F
 DIIS: error= 5.04D-08 at cycle   6 NSaved=   6.
 NSaved= 6 IEnMin= 6 EnMin= -193.477699429708     IErMin= 6 ErrMin= 5.04D-08
 ErrMax= 5.04D-08  0.00D+00 EMaxC= 1.00D-01 BMatC= 1.61D-13 BMatP= 1.12D-12
 IDIUse=1 WtCom= 1.00D+00 WtEn= 0.00D+00
 Coeff-Com: -0.568D-02-0.680D-02-0.234D-02 0.133D+00 0.314D+00 0.567D+00
 Coeff:     -0.568D-02-0.680D-02-0.234D-02 0.133D+00 0.314D+00 0.567D+00
 Gap=     0.292 Goal=   None    Shift=    0.000
 RMSDP=5.42D-09 MaxDP=1.24D-07 DE=-1.25D-12 OVMax= 1.41D-07

 SCF Done:  E(RB3LYP) =  -193.477699430     A.U. after   11 cycles
            NFock= 11  Conv=0.54D-08     -V/T= 2.0096
 KE= 1.916328105658D+02 PE=-6.983556679789D+02 EE= 1.851395388579D+02
 Leave Link  502 at Mon Oct 14 00:44:13 2019, MaxMem= 10737418240 cpu:              14.3 elap:               0.7
 (Enter /apps/cent7/gaussian/g16-A.03/g16-haswell/g16/l701.exe)
 ... and contract with generalized density number  0.
 Compute integral first derivatives.
 Leave Link  701 at Mon Oct 14 00:44:14 2019, MaxMem= 10737418240 cpu:               2.7 elap:               0.1
 (Enter /apps/cent7/gaussian/g16-A.03/g16-haswell/g16/l702.exe)
 L702 exits ... SP integral derivatives will be done elsewhere.
 Leave Link  702 at Mon Oct 14 00:44:14 2019, MaxMem= 10737418240 cpu:               0.5 elap:               0.0
 (Enter /apps/cent7/gaussian/g16-A.03/g16-haswell/g16/l703.exe)
 Integral derivatives from FoFJK, PRISM(SPDF).
 Compute integral first derivatives, UseDBF=F ICtDFT=           0.
 Calling FoFJK, ICntrl=      2127 FMM=F ISym2X=0 I1Cent= 0 IOpClX= 0 NMat=1 NMatS=1 NMatT=0.
 FoFJK:  IHMeth= 1 ICntrl=    2127 DoSepK=F KAlg= 0 I1Cent=           0 FoldK=F
 IRaf=         0 NMat=       1 IRICut=       1 DoRegI=T DoRafI=F ISym2E= 0 IDoP0=0 IntGTp=1.
 FoFCou: FMM=F IPFlag=           0 FMFlag=      100000 FMFlg1=         800
         NFxFlg=           0 DoJE=F BraDBF=F KetDBF=F FulRan=T
         wScrn=  0.000000 ICntrl=      2127 IOpCl=  0 I1Cent=           0 NGrid=           0
         NMat0=    1 NMatS0=      1 NMatT0=    0 NMatD0=    1 NMtDS0=    0 NMtDT0=    0
 Symmetry not used in FoFCou.
 Leave Link  703 at Mon Oct 14 00:44:14 2019, MaxMem= 10737418240 cpu:               6.6 elap:               0.3
 (Enter /apps/cent7/gaussian/g16-A.03/g16-haswell/g16/l716.exe)
 Dipole        = 5.94315974D-01-2.90012283D-02 1.57045688D-01
 ***** Axes restored to original set *****
 -------------------------------------------------------------------
 Center     Atomic                   Forces (Hartrees/Bohr)
 Number     Number              X              Y              Z
 -------------------------------------------------------------------
      1        6           0.000151191    0.000288497   -0.005453148
      2        6           0.011353798   -0.007182323   -0.003863111
      3        6          -0.006232195    0.002450874   -0.000097128
      4        8          -0.008137532    0.003400080    0.005873715
      5        1          -0.000147154   -0.000383638    0.001623781
      6        1           0.000100291    0.001306545    0.001766748
      7        1           0.000417718   -0.000270520    0.001481926
      8        1           0.000008799   -0.001116955    0.001059715
      9        1          -0.000046267   -0.000969990    0.000662614
     10        1           0.000343712    0.000506158    0.001132511
     11        1           0.002187640    0.001971271   -0.004187624
 -------------------------------------------------------------------
 Cartesian Forces:  Max     0.011353798 RMS     0.003584915
 Leave Link  716 at Mon Oct 14 00:44:14 2019, MaxMem= 10737418240 cpu:               0.5 elap:               0.0
 (Enter /apps/cent7/gaussian/g16-A.03/g16-haswell/g16/l103.exe)

 GradGradGradGradGradGradGradGradGradGradGradGradGradGradGradGradGradGrad
 Berny optimization.
 Using GEDIIS/GDIIS optimizer.
 FormGI is forming the generalized inverse of G from B-inverse, IUseBI=4.
 Internal  Forces:  Max     0.008018009 RMS     0.002050180
 Search for a local minimum.
 Step number   2 out of a maximum of   50
 All quantities printed in internal units (Hartrees-Bohrs-Radians)
 RMS Force = .20502D-02 SwitMx=.10000D-02 MixMth= 1
 Mixed Optimization -- RFO/linear search
 Update second derivatives using D2CorX and points    1    2
 DE= -5.83D-03 DEPred=-5.33D-03 R= 1.09D+00
 TightC=F SS=  1.41D+00  RLast= 3.09D-01 DXNew= 5.0454D-01 9.2558D-01
 Trust test= 1.09D+00 RLast= 3.09D-01 DXMaxT set to 5.05D-01
 ITU=  1  0
 Use linear search instead of GDIIS.
     Eigenvalues ---    0.01074   0.01092   0.01416   0.03301   0.07090
     Eigenvalues ---    0.07308   0.07660   0.07859   0.15341   0.16000
     Eigenvalues ---    0.16000   0.16000   0.16000   0.16000   0.16486
     Eigenvalues ---    0.24811   0.25925   0.34423   0.34806   0.34806
     Eigenvalues ---    0.34814   0.34817   0.34825   0.35113   0.38227
     Eigenvalues ---    0.54693   0.78319
 RFO step:  Lambda=-9.86743833D-04 EMin= 1.07398464D-02
 Quartic linear search produced a step of  0.24909.
 Iteration  1 RMS(Cart)=  0.03951867 RMS(Int)=  0.00159813
 Iteration  2 RMS(Cart)=  0.00165772 RMS(Int)=  0.00017731
 Iteration  3 RMS(Cart)=  0.00000440 RMS(Int)=  0.00017726
 Iteration  4 RMS(Cart)=  0.00000000 RMS(Int)=  0.00017726
 ITry= 1 IFail=0 DXMaxC= 1.30D-01 DCOld= 1.00D+10 DXMaxT= 5.05D-01 DXLimC= 3.00D+00 Rises=F
 Variable       Old X    -DE/DX   Delta X   Delta X   Delta X     New X
                                 (Linear)    (Quad)   (Total)
    R1        2.79498  -0.00118   0.00178  -0.00542  -0.00364   2.79134
    R2        2.07861   0.00164   0.00469   0.00254   0.00724   2.08585
    R3        2.07158  -0.00084   0.00295  -0.00507  -0.00212   2.06946
    R4        2.06190  -0.00007   0.00050  -0.00061  -0.00012   2.06178
    R5        2.81744  -0.00617   0.00702  -0.02681  -0.01980   2.79764
    R6        2.40629   0.00802   0.00935   0.00573   0.01507   2.42136
    R7        2.07993   0.00083   0.00502  -0.00058   0.00444   2.08437
    R8        2.06708   0.00034   0.00178  -0.00004   0.00175   2.06883
    R9        2.06882  -0.00010   0.00226  -0.00194   0.00033   2.06915
   R10        1.85004   0.00325   0.00894   0.00106   0.01000   1.86004
    A1        1.87969  -0.00012  -0.00772   0.00012  -0.00759   1.87210
    A2        1.93706  -0.00073   0.00658  -0.00919  -0.00293   1.93414
    A3        1.94240   0.00131   0.00791   0.00768   0.01536   1.95775
    A4        1.87623  -0.00070  -0.00858  -0.00587  -0.01452   1.86171
    A5        1.89798  -0.00095  -0.00315  -0.00749  -0.01055   1.88743
    A6        1.92819   0.00107   0.00438   0.01384   0.01774   1.94593
    A7        2.14624   0.00143   0.00486   0.00351   0.00806   2.15429
    A8        2.01439  -0.00022  -0.01602   0.01026  -0.00607   2.00833
    A9        2.12252  -0.00121   0.01115  -0.01412  -0.00328   2.11925
   A10        1.90382  -0.00154  -0.00171  -0.01455  -0.01633   1.88749
   A11        1.92490  -0.00064   0.00358  -0.00715  -0.00386   1.92104
   A12        1.95768   0.00102   0.01173   0.00286   0.01441   1.97209
   A13        1.86805  -0.00010  -0.01060  -0.00015  -0.01093   1.85712
   A14        1.89589   0.00025  -0.00371   0.00412   0.00044   1.89633
   A15        1.91107   0.00096   0.00013   0.01474   0.01452   1.92559
   A16        2.01892  -0.00318  -0.01880  -0.01081  -0.02960   1.98932
    D1        1.69829  -0.00016  -0.00058  -0.03332  -0.03394   1.66434
    D2       -1.43440   0.00041   0.00159   0.01017   0.01168  -1.42272
    D3       -2.53558  -0.00149  -0.01183  -0.04547  -0.05743  -2.59301
    D4        0.61492  -0.00092  -0.00965  -0.00198  -0.01181   0.60311
    D5       -0.38049   0.00031   0.00330  -0.02872  -0.02517  -0.40566
    D6        2.77001   0.00088   0.00548   0.01477   0.02045   2.79046
    D7       -1.35363   0.00117   0.01109   0.06336   0.07444  -1.27919
    D8        0.69325  -0.00024  -0.00073   0.05038   0.04966   0.74291
    D9        2.82837   0.00124   0.00945   0.06619   0.07585   2.90421
   D10        1.77852   0.00057   0.00878   0.01737   0.02600   1.80452
   D11       -2.45778  -0.00084  -0.00304   0.00439   0.00122  -2.45657
   D12       -0.32267   0.00065   0.00714   0.02019   0.02741  -0.29527
   D13        3.02629   0.00270   0.04186   0.03807   0.08010   3.10639
   D14       -0.10653   0.00324   0.04401   0.08082   0.12466   0.01812
         Item               Value     Threshold  Converged?
 Maximum Force            0.008018     0.000450     NO 
 RMS     Force            0.002050     0.000300     NO 
 Maximum Displacement     0.130128     0.001800     NO 
 RMS     Displacement     0.039585     0.001200     NO 
 Predicted change in Energy=-7.534913D-04
 Lowest energy point so far.  Saving SCF results.
 GradGradGradGradGradGradGradGradGradGradGradGradGradGradGradGradGradGrad

 Leave Link  103 at Mon Oct 14 00:44:14 2019, MaxMem= 10737418240 cpu:               0.6 elap:               0.1
 (Enter /apps/cent7/gaussian/g16-A.03/g16-haswell/g16/l202.exe)
                          Input orientation:                          
 ---------------------------------------------------------------------
 Center     Atomic      Atomic             Coordinates (Angstroms)
 Number     Number       Type             X           Y           Z
 ---------------------------------------------------------------------
      1          6           0       -0.330782   -1.392096    0.211005
      2          6           0        0.146652   -0.052618   -0.188648
      3          6           0        1.552068    0.237307   -0.552628
      4          8           0       -0.735988    0.874989   -0.140672
      5          1           0       -0.313915   -1.430231    1.314000
      6          1           0       -1.372456   -1.540568   -0.092533
      7          1           0        0.312895   -2.188142   -0.166323
      8          1           0        2.154761    0.229485    0.371120
      9          1           0        1.948339   -0.562007   -1.187137
     10          1           0        1.675265    1.208568   -1.042915
     11          1           0       -0.393193    1.766108   -0.379897
 ---------------------------------------------------------------------
                    Distance matrix (angstroms):
                    1          2          3          4          5
     1  C    0.000000
     2  C    1.477115   0.000000
     3  C    2.604460   1.480450   0.000000
     4  O    2.329709   1.281331   2.410715   0.000000
     5  H    1.103782   2.089950   3.121999   2.758307   0.000000
     6  H    1.095109   2.128596   3.453312   2.498465   1.763808
     7  H    1.091048   2.142101   2.750924   3.237837   1.777267
     8  H    2.972051   2.103669   1.103001   3.005834   3.120584
     9  H    2.799686   2.121917   1.094776   3.219574   3.482426
    10  H    3.515678   2.158013   1.094946   2.596046   4.058959
    11  H    3.213614   1.906770   2.480143   0.984291   3.618309
                    6          7          8          9         10
     6  H    0.000000
     7  H    1.806988   0.000000
     8  H    3.973578   3.086460   0.000000
     9  H    3.630898   2.522112   1.759896   0.000000
    10  H    4.213025   3.763256   1.785501   1.797305   0.000000
    11  H    3.460584   4.022470   3.068763   3.399196   2.242535
                   11
    11  H    0.000000
 Stoichiometry    C3H7O(1+)
 Framework group  C1[X(C3H7O)]
 Deg. of freedom    27
 Full point group                 C1      NOp   1
 RotChk:  IX=0 Diff= 2.14D-02
 Largest Abelian subgroup         C1      NOp   1
 Largest concise Abelian subgroup C1      NOp   1
                         Standard orientation:                         
 ---------------------------------------------------------------------
 Center     Atomic      Atomic             Coordinates (Angstroms)
 Number     Number       Type             X           Y           Z
 ---------------------------------------------------------------------
      1          6           0       -1.343634   -0.567575   -0.006859
      2          6           0       -0.003493    0.053349   -0.025414
      3          6           0        1.256107   -0.724262   -0.003968
      4          8           0        0.001729    1.334391    0.001270
      5          1           0       -1.681587   -0.586009    1.043752
      6          1           0       -2.064384    0.045680   -0.557952
      7          1           0       -1.326997   -1.593990   -0.376431
      8          1           0        1.390644   -1.132297    1.011915
      9          1           0        1.177344   -1.585539   -0.675186
     10          1           0        2.134642   -0.122486   -0.258819
     11          1           0        0.902628    1.730445    0.020018
 ---------------------------------------------------------------------
 Rotational constants (GHZ):           9.8473714           8.2225723           4.7435405
 Leave Link  202 at Mon Oct 14 00:44:14 2019, MaxMem= 10737418240 cpu:               0.2 elap:               0.0
 (Enter /apps/cent7/gaussian/g16-A.03/g16-haswell/g16/l301.exe)
 Standard basis: 6-31G(d) (6D, 7F)
 Ernie: Thresh=  0.10000D-02 Tol=  0.10000D-05 Strict=F.
 There are    74 symmetry adapted cartesian basis functions of A   symmetry.
 There are    74 symmetry adapted basis functions of A   symmetry.
    74 basis functions,   140 primitive gaussians,    74 cartesian basis functions
    16 alpha electrons       16 beta electrons
       nuclear repulsion energy       128.1531722533 Hartrees.
 IExCor=  402 DFT=T Ex+Corr=B3LYP ExCW=0 ScaHFX=  0.200000
 ScaDFX=  0.800000  0.720000  1.000000  0.810000 ScalE2=  1.000000  1.000000
 IRadAn=      5 IRanWt=     -1 IRanGd=            0 ICorTp=0 IEmpDi=  4
 NAtoms=   11 NActive=   11 NUniq=   11 SFac= 1.00D+00 NAtFMM=   60 NAOKFM=F Big=F
 Integral buffers will be    131072 words long.
 Raffenetti 2 integral format.
 Two-electron integral symmetry is turned on.
 Leave Link  301 at Mon Oct 14 00:44:14 2019, MaxMem= 10737418240 cpu:               1.2 elap:               0.1
 (Enter /apps/cent7/gaussian/g16-A.03/g16-haswell/g16/l302.exe)
 NPDir=0 NMtPBC=     1 NCelOv=     1 NCel=       1 NClECP=     1 NCelD=      1
         NCelK=      1 NCelE2=     1 NClLst=     1 CellRange=     0.0.
 One-electron integrals computed using PRISM.
 One-electron integral symmetry used in STVInt
 NBasis=    74 RedAO= T EigKep=  4.78D-03  NBF=    74
 NBsUse=    74 1.00D-06 EigRej= -1.00D+00 NBFU=    74
 Precomputing XC quadrature grid using
 IXCGrd= 4 IRadAn=           5 IRanWt=          -1 IRanGd=           0 AccXCQ= 0.00D+00.
 Generated NRdTot=       0 NPtTot=           0 NUsed=           0 NTot=          32
 NSgBfM=    74    74    74    74    74 MxSgAt=    11 MxSgA2=    11.
 Leave Link  302 at Mon Oct 14 00:44:14 2019, MaxMem= 10737418240 cpu:               3.2 elap:               0.2
 (Enter /apps/cent7/gaussian/g16-A.03/g16-haswell/g16/l303.exe)
 DipDrv:  MaxL=1.
 Leave Link  303 at Mon Oct 14 00:44:14 2019, MaxMem= 10737418240 cpu:               0.5 elap:               0.0
 (Enter /apps/cent7/gaussian/g16-A.03/g16-haswell/g16/l401.exe)
 Initial guess from the checkpoint file:  "16_p.chk"
 B after Tr=     0.000000    0.000000    0.000000
         Rot=    0.999978   -0.002168    0.000909    0.006208 Ang=  -0.76 deg.
 Guess basis will be translated and rotated to current coordinates.
 JPrj=2 DoOrth=T DoCkMO=T.
 Generating alternative initial guess.
 ExpMin= 1.61D-01 ExpMax= 5.48D+03 ExpMxC= 8.25D+02 IAcc=2 IRadAn=         4 AccDes= 0.00D+00
 Harris functional with IExCor=  402 and IRadAn=       4 diagonalized for initial guess.
 HarFok:  IExCor=  402 AccDes= 0.00D+00 IRadAn=         4 IDoV= 1 UseB2=F ITyADJ=14
 ICtDFT=  3500011 ScaDFX=  1.000000  1.000000  1.000000  1.000000
 FoFCou: FMM=F IPFlag=           0 FMFlag=      100000 FMFlg1=           0
         NFxFlg=           0 DoJE=T BraDBF=F KetDBF=T FulRan=T
         wScrn=  0.000000 ICntrl=       500 IOpCl=  0 I1Cent=   200000004 NGrid=           0
         NMat0=    1 NMatS0=      1 NMatT0=    0 NMatD0=    1 NMtDS0=    0 NMtDT0=    0
 Petite list used in FoFCou.
 Harris En= -193.559321322547    
 Leave Link  401 at Mon Oct 14 00:44:15 2019, MaxMem= 10737418240 cpu:               5.2 elap:               0.2
 (Enter /apps/cent7/gaussian/g16-A.03/g16-haswell/g16/l502.exe)
 Keep R1 ints in memory in canonical form, NReq=25365119.
 FoFCou: FMM=F IPFlag=           0 FMFlag=           0 FMFlg1=           0
         NFxFlg=           0 DoJE=F BraDBF=F KetDBF=F FulRan=T
         wScrn=  0.000000 ICntrl=       600 IOpCl=  0 I1Cent=           0 NGrid=           0
         NMat0=    1 NMatS0=   2775 NMatT0=    0 NMatD0=    1 NMtDS0=    0 NMtDT0=    0
 Symmetry not used in FoFCou.
 Two-electron integral symmetry not used.
 Closed shell SCF:
 Using DIIS extrapolation, IDIIS=  1040.
 NGot= 10737418240 LenX= 10733552751 LenY= 10733546834
 Requested convergence on RMS density matrix=1.00D-08 within 128 cycles.
 Requested convergence on MAX density matrix=1.00D-06.
 Requested convergence on             energy=1.00D-06.
 No special actions if energy rises.
 Integral accuracy reduced to 1.0D-05 until final iterations.

 Cycle   1  Pass 0  IDiag  1:
 E= -193.476746316389    
 DIIS: error= 3.93D-03 at cycle   1 NSaved=   1.
 NSaved= 1 IEnMin= 1 EnMin= -193.476746316389     IErMin= 1 ErrMin= 3.93D-03
 ErrMax= 3.93D-03  0.00D+00 EMaxC= 1.00D-01 BMatC= 1.01D-03 BMatP= 1.01D-03
 IDIUse=3 WtCom= 9.61D-01 WtEn= 3.93D-02
 Coeff-Com:  0.100D+01
 Coeff-En:   0.100D+01
 Coeff:      0.100D+01
 Gap=     1.735 Goal=   None    Shift=    0.000
 GapD=    1.735 DampG=2.000 DampE=1.000 DampFc=2.0000 IDamp=-1.
 RMSDP=6.46D-04 MaxDP=1.18D-02              OVMax= 1.28D-02

 Cycle   2  Pass 0  IDiag  1:
 E= -193.478424263344     Delta-E=       -0.001677946955 Rises=F Damp=F
 DIIS: error= 8.14D-04 at cycle   2 NSaved=   2.
 NSaved= 2 IEnMin= 2 EnMin= -193.478424263344     IErMin= 2 ErrMin= 8.14D-04
 ErrMax= 8.14D-04  0.00D+00 EMaxC= 1.00D-01 BMatC= 5.49D-05 BMatP= 1.01D-03
 IDIUse=3 WtCom= 9.92D-01 WtEn= 8.14D-03
 Coeff-Com:  0.222D-01 0.978D+00
 Coeff-En:   0.000D+00 0.100D+01
 Coeff:      0.220D-01 0.978D+00
 Gap=     0.296 Goal=   None    Shift=    0.000
 RMSDP=1.67D-04 MaxDP=4.66D-03 DE=-1.68D-03 OVMax= 4.91D-03

 Cycle   3  Pass 0  IDiag  1:
 E= -193.478369864292     Delta-E=        0.000054399052 Rises=F Damp=F
 DIIS: error= 1.62D-03 at cycle   3 NSaved=   3.
 NSaved= 3 IEnMin= 2 EnMin= -193.478424263344     IErMin= 2 ErrMin= 8.14D-04
 ErrMax= 1.62D-03  0.00D+00 EMaxC= 1.00D-01 BMatC= 1.47D-04 BMatP= 5.49D-05
 IDIUse=3 WtCom= 1.99D-01 WtEn= 8.01D-01
 Coeff-Com: -0.430D-01 0.649D+00 0.394D+00
 Coeff-En:   0.000D+00 0.663D+00 0.337D+00
 Coeff:     -0.855D-02 0.660D+00 0.349D+00
 Gap=     0.296 Goal=   None    Shift=    0.000
 RMSDP=9.69D-05 MaxDP=2.89D-03 DE= 5.44D-05 OVMax= 2.99D-03

 Cycle   4  Pass 0  IDiag  1:
 E= -193.478477270846     Delta-E=       -0.000107406554 Rises=F Damp=F
 DIIS: error= 4.51D-05 at cycle   4 NSaved=   4.
 NSaved= 4 IEnMin= 4 EnMin= -193.478477270846     IErMin= 4 ErrMin= 4.51D-05
 ErrMax= 4.51D-05  0.00D+00 EMaxC= 1.00D-01 BMatC= 4.31D-07 BMatP= 5.49D-05
 IDIUse=1 WtCom= 1.00D+00 WtEn= 0.00D+00
 Coeff-Com: -0.154D-01 0.137D+00 0.592D-01 0.819D+00
 Coeff:     -0.154D-01 0.137D+00 0.592D-01 0.819D+00
 Gap=     0.295 Goal=   None    Shift=    0.000
 RMSDP=1.11D-05 MaxDP=1.26D-04 DE=-1.07D-04 OVMax= 2.66D-04

 Cycle   5  Pass 0  IDiag  1:
 E= -193.478477696531     Delta-E=       -0.000000425685 Rises=F Damp=F
 DIIS: error= 2.13D-05 at cycle   5 NSaved=   5.
 NSaved= 5 IEnMin= 5 EnMin= -193.478477696531     IErMin= 5 ErrMin= 2.13D-05
 ErrMax= 2.13D-05  0.00D+00 EMaxC= 1.00D-01 BMatC= 4.32D-08 BMatP= 4.31D-07
 IDIUse=1 WtCom= 1.00D+00 WtEn= 0.00D+00
 Coeff-Com: -0.338D-02 0.167D-01 0.933D-03 0.276D+00 0.710D+00
 Coeff:     -0.338D-02 0.167D-01 0.933D-03 0.276D+00 0.710D+00
 Gap=     0.295 Goal=   None    Shift=    0.000
 RMSDP=3.39D-06 MaxDP=6.78D-05 DE=-4.26D-07 OVMax= 8.28D-05

 Initial convergence to 1.0D-05 achieved.  Increase integral accuracy.
 Cycle   6  Pass 1  IDiag  1:
 E= -193.478483294136     Delta-E=       -0.000005597605 Rises=F Damp=F
 DIIS: error= 9.01D-06 at cycle   1 NSaved=   1.
 NSaved= 1 IEnMin= 1 EnMin= -193.478483294136     IErMin= 1 ErrMin= 9.01D-06
 ErrMax= 9.01D-06  0.00D+00 EMaxC= 1.00D-01 BMatC= 7.54D-09 BMatP= 7.54D-09
 IDIUse=1 WtCom= 1.00D+00 WtEn= 0.00D+00
 Coeff-Com:  0.100D+01
 Coeff:      0.100D+01
 Gap=     0.295 Goal=   None    Shift=    0.000
 RMSDP=3.39D-06 MaxDP=6.78D-05 DE=-5.60D-06 OVMax= 4.78D-05

 Cycle   7  Pass 1  IDiag  1:
 E= -193.478483293313     Delta-E=        0.000000000824 Rises=F Damp=F
 DIIS: error= 1.06D-05 at cycle   2 NSaved=   2.
 NSaved= 2 IEnMin= 1 EnMin= -193.478483294136     IErMin= 1 ErrMin= 9.01D-06
 ErrMax= 1.06D-05  0.00D+00 EMaxC= 1.00D-01 BMatC= 9.42D-09 BMatP= 7.54D-09
 IDIUse=1 WtCom= 1.00D+00 WtEn= 0.00D+00
 Coeff-Com:  0.528D+00 0.472D+00
 Coeff:      0.528D+00 0.472D+00
 Gap=     0.295 Goal=   None    Shift=    0.000
 RMSDP=1.08D-06 MaxDP=2.25D-05 DE= 8.24D-10 OVMax= 2.18D-05

 Cycle   8  Pass 1  IDiag  1:
 E= -193.478483302457     Delta-E=       -0.000000009144 Rises=F Damp=F
 DIIS: error= 4.20D-07 at cycle   3 NSaved=   3.
 NSaved= 3 IEnMin= 3 EnMin= -193.478483302457     IErMin= 3 ErrMin= 4.20D-07
 ErrMax= 4.20D-07  0.00D+00 EMaxC= 1.00D-01 BMatC= 3.29D-11 BMatP= 7.54D-09
 IDIUse=1 WtCom= 1.00D+00 WtEn= 0.00D+00
 Coeff-Com:  0.703D-01 0.846D-01 0.845D+00
 Coeff:      0.703D-01 0.846D-01 0.845D+00
 Gap=     0.295 Goal=   None    Shift=    0.000
 RMSDP=1.08D-07 MaxDP=1.44D-06 DE=-9.14D-09 OVMax= 3.56D-06

 Cycle   9  Pass 1  IDiag  1:
 E= -193.478483302483     Delta-E=       -0.000000000026 Rises=F Damp=F
 DIIS: error= 5.82D-07 at cycle   4 NSaved=   4.
 NSaved= 4 IEnMin= 4 EnMin= -193.478483302483     IErMin= 3 ErrMin= 4.20D-07
 ErrMax= 5.82D-07  0.00D+00 EMaxC= 1.00D-01 BMatC= 1.96D-11 BMatP= 3.29D-11
 IDIUse=1 WtCom= 1.00D+00 WtEn= 0.00D+00
 Coeff-Com: -0.122D-01 0.954D-03 0.454D+00 0.557D+00
 Coeff:     -0.122D-01 0.954D-03 0.454D+00 0.557D+00
 Gap=     0.295 Goal=   None    Shift=    0.000
 RMSDP=5.74D-08 MaxDP=1.41D-06 DE=-2.64D-11 OVMax= 1.71D-06

 Cycle  10  Pass 1  IDiag  1:
 E= -193.478483302499     Delta-E=       -0.000000000016 Rises=F Damp=F
 DIIS: error= 2.91D-07 at cycle   5 NSaved=   5.
 NSaved= 5 IEnMin= 5 EnMin= -193.478483302499     IErMin= 5 ErrMin= 2.91D-07
 ErrMax= 2.91D-07  0.00D+00 EMaxC= 1.00D-01 BMatC= 3.91D-12 BMatP= 1.96D-11
 IDIUse=1 WtCom= 1.00D+00 WtEn= 0.00D+00
 Coeff-Com: -0.175D-01-0.129D-01 0.967D-01 0.341D+00 0.593D+00
 Coeff:     -0.175D-01-0.129D-01 0.967D-01 0.341D+00 0.593D+00
 Gap=     0.295 Goal=   None    Shift=    0.000
 RMSDP=2.30D-08 MaxDP=5.37D-07 DE=-1.59D-11 OVMax= 5.59D-07

 Cycle  11  Pass 1  IDiag  1:
 E= -193.478483302502     Delta-E=       -0.000000000002 Rises=F Damp=F
 DIIS: error= 3.53D-08 at cycle   6 NSaved=   6.
 NSaved= 6 IEnMin= 6 EnMin= -193.478483302502     IErMin= 6 ErrMin= 3.53D-08
 ErrMax= 3.53D-08  0.00D+00 EMaxC= 1.00D-01 BMatC= 1.30D-13 BMatP= 3.91D-12
 IDIUse=1 WtCom= 1.00D+00 WtEn= 0.00D+00
 Coeff-Com: -0.644D-02-0.532D-02 0.131D-01 0.117D+00 0.253D+00 0.628D+00
 Coeff:     -0.644D-02-0.532D-02 0.131D-01 0.117D+00 0.253D+00 0.628D+00
 Gap=     0.295 Goal=   None    Shift=    0.000
 RMSDP=5.44D-09 MaxDP=6.85D-08 DE=-2.39D-12 OVMax= 1.31D-07

 SCF Done:  E(RB3LYP) =  -193.478483303     A.U. after   11 cycles
            NFock= 11  Conv=0.54D-08     -V/T= 2.0097
 KE= 1.916197579624D+02 PE=-6.984441960206D+02 EE= 1.851927825023D+02
 Leave Link  502 at Mon Oct 14 00:44:15 2019, MaxMem= 10737418240 cpu:              14.2 elap:               0.7
 (Enter /apps/cent7/gaussian/g16-A.03/g16-haswell/g16/l701.exe)
 ... and contract with generalized density number  0.
 Compute integral first derivatives.
 Leave Link  701 at Mon Oct 14 00:44:15 2019, MaxMem= 10737418240 cpu:               2.2 elap:               0.1
 (Enter /apps/cent7/gaussian/g16-A.03/g16-haswell/g16/l702.exe)
 L702 exits ... SP integral derivatives will be done elsewhere.
 Leave Link  702 at Mon Oct 14 00:44:15 2019, MaxMem= 10737418240 cpu:               0.4 elap:               0.0
 (Enter /apps/cent7/gaussian/g16-A.03/g16-haswell/g16/l703.exe)
 Integral derivatives from FoFJK, PRISM(SPDF).
 Compute integral first derivatives, UseDBF=F ICtDFT=           0.
 Calling FoFJK, ICntrl=      2127 FMM=F ISym2X=0 I1Cent= 0 IOpClX= 0 NMat=1 NMatS=1 NMatT=0.
 FoFJK:  IHMeth= 1 ICntrl=    2127 DoSepK=F KAlg= 0 I1Cent=           0 FoldK=F
 IRaf=         0 NMat=       1 IRICut=       1 DoRegI=T DoRafI=F ISym2E= 0 IDoP0=0 IntGTp=1.
 FoFCou: FMM=F IPFlag=           0 FMFlag=      100000 FMFlg1=         800
         NFxFlg=           0 DoJE=F BraDBF=F KetDBF=F FulRan=T
         wScrn=  0.000000 ICntrl=      2127 IOpCl=  0 I1Cent=           0 NGrid=           0
         NMat0=    1 NMatS0=      1 NMatT0=    0 NMatD0=    1 NMtDS0=    0 NMtDT0=    0
 Symmetry not used in FoFCou.
 Leave Link  703 at Mon Oct 14 00:44:16 2019, MaxMem= 10737418240 cpu:               6.6 elap:               0.3
[...]
    R7        2.07086   0.00000   0.00000   0.00001   0.00001   2.07087
    R8        2.08340  -0.00001   0.00000  -0.00002  -0.00002   2.08338
    R9        2.06699  -0.00000   0.00000  -0.00000  -0.00000   2.06698
   R10        1.85705  -0.00002   0.00000  -0.00004  -0.00004   1.85701
    A1        1.87300   0.00000   0.00000  -0.00000  -0.00000   1.87300
    A2        1.95123   0.00000   0.00000   0.00004   0.00004   1.95127
    A3        1.93480   0.00000   0.00000  -0.00001  -0.00001   1.93479
    A4        1.89521  -0.00000   0.00000   0.00000   0.00000   1.89521
    A5        1.85517  -0.00001   0.00000  -0.00008  -0.00008   1.85509
    A6        1.94974   0.00000   0.00000   0.00005   0.00005   1.94979
    A7        2.14410  -0.00000   0.00000  -0.00000  -0.00000   2.14410
    A8        2.01630   0.00001   0.00000   0.00004   0.00004   2.01634
    A9        2.12278  -0.00001   0.00000  -0.00003  -0.00003   2.12275
   A10        1.92697  -0.00000   0.00000  -0.00001  -0.00001   1.92696
   A11        1.87766   0.00001   0.00000   0.00009   0.00009   1.87775
   A12        1.97944  -0.00000   0.00000  -0.00002  -0.00002   1.97942
   A13        1.85118  -0.00001   0.00000  -0.00005  -0.00005   1.85113
   A14        1.92542   0.00000   0.00000  -0.00002  -0.00002   1.92540
   A15        1.89783  -0.00000   0.00000   0.00000   0.00000   1.89783
   A16        1.99579   0.00002   0.00000   0.00008   0.00008   1.99587
    D1        1.36737  -0.00000   0.00000   0.00003   0.00003   1.36741
    D2       -1.77753  -0.00000   0.00000   0.00001   0.00001  -1.77752
    D3       -2.83948  -0.00000   0.00000   0.00006   0.00006  -2.83943
    D4        0.29880  -0.00000   0.00000   0.00003   0.00003   0.29883
    D5       -0.65152   0.00000   0.00000   0.00014   0.00014  -0.65139
    D6        2.48676   0.00000   0.00000   0.00011   0.00011   2.48687
    D7       -0.70365   0.00000   0.00000   0.00062   0.00062  -0.70303
    D8        1.30899  -0.00000   0.00000   0.00062   0.00062   1.30961
    D9       -2.87468   0.00000   0.00000   0.00067   0.00067  -2.87401
   D10        2.44145   0.00000   0.00000   0.00065   0.00065   2.44210
   D11       -1.82909  -0.00000   0.00000   0.00064   0.00064  -1.82845
   D12        0.27042   0.00000   0.00000   0.00070   0.00070   0.27112
   D13        3.10997   0.00000   0.00000   0.00001   0.00001   3.10998
   D14       -0.03489  -0.00000   0.00000  -0.00002  -0.00002  -0.03491
         Item               Value     Threshold  Converged?
 Maximum Force            0.000018     0.000450     YES
 RMS     Force            0.000006     0.000300     YES
 Maximum Displacement     0.001061     0.001800     YES
 RMS     Displacement     0.000324     0.001200     YES
 Predicted change in Energy=-5.054200D-09
 Optimization completed.
    -- Stationary point found.
                           ----------------------------
                           !   Optimized Parameters   !
                           ! (Angstroms and Degrees)  !
 --------------------------                            --------------------------
 ! Name  Definition              Value          Derivative Info.                !
 --------------------------------------------------------------------------------
 ! R1    R(1,2)                  1.4738         -DE/DX =    0.0                 !
 ! R2    R(1,5)                  1.1033         -DE/DX =    0.0                 !
 ! R3    R(1,6)                  1.0916         -DE/DX =    0.0                 !
 ! R4    R(1,7)                  1.0951         -DE/DX =    0.0                 !
 ! R5    R(2,3)                  1.4782         -DE/DX =    0.0                 !
 ! R6    R(2,4)                  1.2814         -DE/DX =    0.0                 !
 ! R7    R(3,8)                  1.0959         -DE/DX =    0.0                 !
 ! R8    R(3,9)                  1.1025         -DE/DX =    0.0                 !
 ! R9    R(3,10)                 1.0938         -DE/DX =    0.0                 !
 ! R10   R(4,11)                 0.9827         -DE/DX =    0.0                 !
 ! A1    A(2,1,5)              107.3153         -DE/DX =    0.0                 !
 ! A2    A(2,1,6)              111.7973         -DE/DX =    0.0                 !
 ! A3    A(2,1,7)              110.8558         -DE/DX =    0.0                 !
 ! A4    A(5,1,6)              108.5877         -DE/DX =    0.0                 !
 ! A5    A(5,1,7)              106.2935         -DE/DX =    0.0                 !
 ! A6    A(6,1,7)              111.7121         -DE/DX =    0.0                 !
 ! A7    A(1,2,3)              122.848          -DE/DX =    0.0                 !
 ! A8    A(1,2,4)              115.5253         -DE/DX =    0.0                 !
 ! A9    A(3,2,4)              121.6264         -DE/DX =    0.0                 !
 ! A10   A(2,3,8)              110.4072         -DE/DX =    0.0                 !
 ! A11   A(2,3,9)              107.582          -DE/DX =    0.0                 !
 ! A12   A(2,3,10)             113.4133         -DE/DX =    0.0                 !
 ! A13   A(8,3,9)              106.0647         -DE/DX =    0.0                 !
 ! A14   A(8,3,10)             110.3186         -DE/DX =    0.0                 !
 ! A15   A(9,3,10)             108.7377         -DE/DX =    0.0                 !
 ! A16   A(2,4,11)             114.3504         -DE/DX =    0.0                 !
 ! D1    D(5,1,2,3)             78.3447         -DE/DX =    0.0                 !
 ! D2    D(5,1,2,4)           -101.8449         -DE/DX =    0.0                 !
 ! D3    D(6,1,2,3)           -162.6904         -DE/DX =    0.0                 !
 ! D4    D(6,1,2,4)             17.12           -DE/DX =    0.0                 !
 ! D5    D(7,1,2,3)            -37.3295         -DE/DX =    0.0                 !
 ! D6    D(7,1,2,4)            142.4809         -DE/DX =    0.0                 !
 ! D7    D(1,2,3,8)            -40.3164         -DE/DX =    0.0                 !
 ! D8    D(1,2,3,9)             74.9997         -DE/DX =    0.0                 !
 ! D9    D(1,2,3,10)          -164.7072         -DE/DX =    0.0                 !
 ! D10   D(4,2,3,8)            139.8845         -DE/DX =    0.0                 !
 ! D11   D(4,2,3,9)           -104.7994         -DE/DX =    0.0                 !
 ! D12   D(4,2,3,10)            15.4938         -DE/DX =    0.0                 !
 ! D13   D(1,2,4,11)           178.188          -DE/DX =    0.0                 !
 ! D14   D(3,2,4,11)            -1.999          -DE/DX =    0.0                 !
 --------------------------------------------------------------------------------
 GradGradGradGradGradGradGradGradGradGradGradGradGradGradGradGradGradGrad

 Leave Link  103 at Mon Oct 14 00:44:43 2019, MaxMem= 10737418240 cpu:               0.4 elap:               0.0
 (Enter /apps/cent7/gaussian/g16-A.03/g16-haswell/g16/l9999.exe)

 ----------------------------------------------------------------------

 Electric dipole moment (input orientation):
 (Debye = 10**-18 statcoulomb cm , SI units = C m)
                  (au)            (Debye)         (10**-30 SI)
   Tot        0.633616D+00      0.161049D+01      0.537202D+01
   x          0.519368D+00      0.132010D+01      0.440339D+01
   y          0.333900D+00      0.848689D+00      0.283092D+01
   z         -0.142254D+00     -0.361573D+00     -0.120608D+01

 Dipole polarizability, Alpha (input orientation).
 (esu units = cm**3 , SI units = C**2 m**2 J**-1)
 Alpha(0;0):
               (au)            (10**-24 esu)      (10**-40 SI)
   iso        0.334470D+02      0.495633D+01      0.551466D+01
   aniso      0.132171D+02      0.195858D+01      0.217921D+01
   xx         0.359893D+02      0.533307D+01      0.593384D+01
   yx        -0.398929D+00     -0.591152D-01     -0.657745D-01
   yy         0.375927D+02      0.557066D+01      0.619819D+01
   zx        -0.157370D+01     -0.233199D+00     -0.259469D+00
   zy        -0.462660D+01     -0.685591D+00     -0.762823D+00
   zz         0.267590D+02      0.396527D+01      0.441196D+01

 ----------------------------------------------------------------------

 Dipole orientation:
     6          1.06574195          1.49379992         -1.98477631
     6         -0.17569193          0.37519880          0.24332000
     6          0.43189423          1.14080634          2.86023482
     8         -1.84052856         -1.31831349         -0.23017021
     1          2.94401112          0.60579861         -2.15975061
     1          0.00359622          1.13202084         -3.71562812
     1          1.40355544          3.51591529         -1.70233729
     1          2.47209727          1.42382321          3.07455681
     1         -0.44613905          3.00084333          3.19171642
     1         -0.26252175         -0.18481855          4.28604793
     1         -2.60924522         -2.07948445          1.27923938

 Electric dipole moment (dipole orientation):
 (Debye = 10**-18 statcoulomb cm , SI units = C m)
                  (au)            (Debye)         (10**-30 SI)
   Tot        0.633616D+00      0.161049D+01      0.537202D+01
   x          0.000000D+00      0.000000D+00      0.000000D+00
   y          0.000000D+00      0.000000D+00      0.000000D+00
   z          0.633616D+00      0.161049D+01      0.537202D+01

 Dipole polarizability, Alpha (dipole orientation).
 (esu units = cm**3 , SI units = C**2 m**2 J**-1)
 Alpha(0;0):
               (au)            (10**-24 esu)      (10**-40 SI)
   iso        0.334470D+02      0.495633D+01      0.551466D+01
   aniso      0.132171D+02      0.195858D+01      0.217921D+01
   xx         0.316254D+02      0.468639D+01      0.521432D+01
   yx         0.660475D+01      0.978724D+00      0.108898D+01
   yy         0.314170D+02      0.465551D+01      0.517996D+01
   zx        -0.184173D+01     -0.272917D+00     -0.303661D+00
   zy        -0.280603D+00     -0.415811D-01     -0.462652D-01
   zz         0.372987D+02      0.552709D+01      0.614972D+01

 ----------------------------------------------------------------------
 1\1\GINC-BROWN-A494\Freq\RB3LYP\6-31G(d)\C3H7O1(1+)\FINEJ\14-Oct-2019\
 0\\#P Geom=AllCheck Guess=TCheck SCRF=Check GenChk RB3LYP/6-31G(d) Fre
 q\\Title Card Required\\1,1\C,-0.327551584,-1.3636387295,0.2815146125\
 C,0.1336236085,-0.0528690021,-0.2097455124\C,1.5567586551,0.2502130243
 ,-0.4706037417\O,-0.7854798296,0.8187984283,-0.403374556\H,-0.12065128
 ,-1.3997120484,1.3646540465\H,-1.3995199803,-1.5000097284,0.1273198169
 \H,0.2531068436,-2.1753190259,-0.1694048157\H,2.1897891111,-0.18666970
 87,0.3099712296\H,1.8380698273,-0.2545097697,-1.4095390696\H,1.7619261
 031,1.3198496094,-0.571541224\H,-0.4564281149,1.6946611807,-0.70387819
 62\\Version=ES64L-G16RevA.03\State=1-A\HF=-193.479333\RMSD=2.528e-09\R
 MSF=9.795e-06\ZeroPoint=0.0966113\Thermal=0.0966114\Dipole=0.5193684,0
 .3339001,-0.1422537\DipoleDeriv=-0.1026628,-0.0494175,0.0418437,-0.058
 3278,-0.3537396,0.1591952,0.0737982,0.291133,-0.2542195,1.2792677,-0.2
 298268,-0.0982636,-0.1084449,1.1854332,-0.3515652,-0.1070814,-0.317658
 8,0.4663263,-0.4837305,0.0102284,0.1039718,0.0372203,-0.0328566,-0.000
 4985,0.2081087,0.0251392,-0.1551138,-0.6611926,0.4177098,-0.089077,0.3
 742881,-0.7828799,0.1591006,-0.0769311,0.1415709,-0.2441812,0.1212325,
 -0.064143,-0.0231277,-0.0239092,0.1196379,-0.0307406,-0.0487333,-0.078
 9368,0.1491655,0.0740674,0.0145316,-0.0155597,0.0168124,0.0787572,0.02
 43106,-0.0229651,-0.0114939,0.1411082,0.0517028,-0.0283145,0.0659292,0
 .0106611,0.1459347,-0.0049075,0.030632,-0.0529062,0.1306715,0.167386,-
 0.0045118,0.0131668,-0.0622011,0.0914739,0.0627428,-0.0231229,0.039913
 5,0.1015103,0.1485986,-0.025726,-0.033191,-0.0858893,0.1017111,-0.0230
 689,-0.0489326,-0.035136,0.1447765,0.0663054,0.0489265,0.0032862,0.009
 0403,-0.0019419,0.0181813,-0.016928,0.0108447,0.1319383,0.3390256,-0.0
 894566,0.0310212,-0.1092501,0.44847,-0.0127499,0.0321556,-0.0124697,0.
 3880179\Polar=35.9893408,-0.3989292,37.592665,-1.573703,-4.6265985,26.
 7589847\Quadrupole=-0.9520206,3.0935531,-2.1415325,0.2992623,-0.568784
 2,-2.2093351\PG=C01 [X(C3H7O1)]\NImag=0\\0.62100466,-0.02207710,0.5299
 7298,0.00656737,0.02602026,0.49396512,-0.12230712,-0.04590497,0.014781
 97,0.68781575,-0.06320114,-0.19460491,0.02392470,-0.09585329,0.6772507
 0,0.02596547,0.03245315,-0.09579676,-0.00983848,-0.12673669,0.29246827
 ,-0.00323794,-0.00863779,0.00832766,-0.20611903,-0.03315479,0.01616146
 ,0.50371924,-0.02612131,0.00314150,0.00415231,-0.05979059,-0.11433229,
 0.01558972,0.00159285,0.61112998,0.01061693,0.00717245,0.00865565,0.01
 440123,0.00827025,-0.09824001,0.02804443,-0.02590008,0.51509562,0.0121
 8872,0.00760915,-0.00727988,-0.33021352,0.15917036,-0.02620963,-0.0396
 7096,0.03989788,-0.00383485,0.46523505,0.03464285,-0.04775869,0.019084
 62,0.20726267,-0.30005745,0.05616560,0.01229553,0.00131550,0.00503067,
 -0.08944821,0.69543275,-0.01514355,0.02009834,0.00079723,-0.04171590,0
 .05932868,-0.07807781,0.00696313,0.00148091,0.03626546,-0.00860246,-0.
 19323711,0.11346685,-0.04786887,-0.00480634,-0.04638529,0.00029050,0.0
 0478213,0.00937266,-0.00197090,-0.00048331,-0.00095017,0.00074481,-0.0
 0017498,0.00091535,0.05064788,-0.00186818,-0.03873159,0.01411731,0.007
 34131,-0.00221717,0.03395315,-0.00056169,-0.00105794,-0.00277708,-0.00
 095583,-0.00317861,0.00000942,0.00004643,0.04457896,-0.04963603,0.0077
 1995,-0.28930318,-0.00146369,0.00639688,-0.01529493,-0.00159888,0.0015
 7580,0.00136721,0.00286351,-0.00283552,0.00042496,0.05192297,-0.012727
 50,0.31791187,-0.32234215,-0.03329497,-0.04036279,-0.00906808,-0.00319
 303,0.00031208,0.00135892,-0.00163527,-0.00081245,0.00065746,0.0026770
 1,-0.00044268,-0.00374517,0.00004627,-0.00008674,0.34334675,-0.0273891
 1,-0.05812935,-0.00487591,-0.03531147,-0.00412841,-0.00667078,0.000505
 71,-0.00360808,0.00287666,0.00091611,0.00176668,-0.00046545,0.00235982
 ,-0.00009804,-0.00036606,0.03732829,0.05803679,-0.04270680,-0.00778725
 ,-0.05071769,0.01633070,0.00491178,-0.00157176,-0.00076811,0.00409608,
 0.00123009,0.00034524,-0.00233206,-0.00025781,-0.03056953,-0.00454140,
 -0.00247060,0.04356407,0.00260139,0.05237838,-0.13085576,0.10364762,0.
 06415890,0.00648923,-0.00349492,-0.01184084,-0.00120273,0.00074399,0.0
 0220422,0.00147739,-0.00374405,0.00286595,0.00217206,-0.00397558,-0.00
 240672,-0.01048136,0.02253533,0.01308146,0.13170913,0.10307919,-0.1960
 7204,-0.08535786,0.01758006,-0.02254929,-0.01331593,0.00030379,0.00222
 353,0.00120873,-0.00299650,-0.00454117,0.00107106,-0.00059375,0.001859
 75,0.00046708,-0.00256715,0.00606564,0.00384154,-0.11511911,0.21362975
 ,0.06181328,-0.08846387,-0.08452518,-0.00880866,0.01367972,0.00313551,
 -0.00010273,0.00001885,-0.00040461,0.00149195,0.00283357,-0.00081859,0
 .01662810,-0.02504714,-0.01334430,-0.00265279,0.00602270,0.00164355,-0
 .06801479,0.09023170,0.09530748,0.00210485,0.00054287,0.00207472,-0.02
 058805,0.01556798,-0.02590741,-0.13489339,0.05725470,-0.11449693,-0.00
 549518,-0.00066170,0.00387750,-0.00070773,-0.00067560,0.00049156,0.000
 12036,0.00053534,0.00014620,-0.00000852,-0.00011234,-0.00026782,0.1486
 0854,-0.00023324,-0.00061397,0.00244973,0.00406404,0.00130717,-0.01071
 491,0.05598229,-0.09311949,0.08371802,-0.00216290,0.00367325,0.0021840
 4,-0.00090184,-0.00021627,-0.00048162,0.00031208,-0.00003086,-0.000363
 30,-0.00022459,-0.00017735,-0.00045821,-0.06588731,0.09347029,0.000501
 17,0.00020504,-0.00071133,0.00588695,-0.00503106,0.00716427,-0.1163846
 7,0.08220058,-0.18053360,0.00379708,-0.00112314,-0.00254503,0.00049301
 ,0.00036373,0.00039673,-0.00005080,-0.00017319,0.00004502,-0.00041399,
 -0.00022118,0.00010579,0.12207667,-0.08707823,0.19645632,-0.00070025,-
 0.00108332,-0.00306417,-0.01108047,0.01841467,0.03237280,-0.05757120,0
 .02886476,0.06339374,-0.00391060,-0.00298868,-0.00611698,0.00064155,0.
 00086771,-0.00035725,0.00011944,-0.00047213,-0.00043372,-0.00031272,-0
 .00072161,0.00039699,0.00617334,-0.00855702,-0.01707517,0.06491228,-0.
 00018441,-0.00236675,0.00060545,0.00635108,0.00208635,0.00593810,0.023
 24990,-0.09594945,-0.10202574,-0.00094795,0.00178938,-0.00063290,-0.00
 054171,0.00040221,-0.00059475,0.00024376,-0.00046547,-0.00050236,-0.00
 120734,-0.00031770,0.00036099,-0.00327350,0.00497798,0.01097570,-0.032
 47067,0.10224353,0.00085018,-0.00078612,0.00124266,0.00548591,-0.00137
 721,-0.00606898,0.05823255,-0.10414061,-0.22767132,-0.00279031,0.00177
 550,-0.00201190,-0.00032759,-0.00018064,0.00015563,-0.00002083,0.00024
 374,0.00017978,-0.00026456,0.00055473,0.00013260,0.00634212,-0.0103503
 5,-0.02026127,-0.06513379,0.11206520,0.24971611,-0.00476453,0.00145036
 ,0.00074558,-0.00774550,-0.03682923,0.00296547,-0.06111062,-0.04427439
 ,0.00158388,0.00420033,-0.00034055,0.00103959,-0.00039230,-0.00027961,
 0.00019450,-0.00017640,-0.00113282,0.00086979,0.00020371,0.00036360,-0
 .00023351,0.00496771,0.01875371,0.00128138,0.00164978,0.00915122,-0.00
 229919,0.06498027,-0.00051658,0.00137808,-0.00080468,0.00121358,-0.005
 25629,0.00087153,-0.04821483,-0.31432630,0.02561052,0.00109565,0.00343
 166,-0.00057268,0.00005211,-0.00001724,0.00006371,-0.00000794,-0.00004
 672,0.00016698,0.00022959,0.00025972,-0.00003741,-0.00202864,-0.008876
 88,-0.00065461,-0.00212783,-0.01216992,0.00245315,0.05205957,0.3352008
 4,0.00281459,-0.00050111,0.00302134,0.00435359,0.00791388,-0.00474223,
 0.00097932,0.02460618,-0.04786916,-0.00182167,0.00005664,-0.00145385,-
 0.00073307,-0.00045165,0.00015927,0.00006352,0.00065650,-0.00005159,-0
 .00037227,0.00023232,-0.00015809,0.00620550,0.02104598,-0.00042257,-0.
 00591119,-0.02604000,0.00419829,-0.00531151,-0.02711527,0.04620286,-0.
 00322162,0.00255450,0.00043594,0.01252629,0.03779126,-0.01335358,0.000
 69860,0.00395068,-0.00015002,-0.10521351,-0.15951989,0.05636005,0.0001
 8816,0.00001476,0.00007678,0.00021024,0.00012493,0.00014071,0.00080957
 ,0.00078380,-0.00025001,-0.00028193,-0.00114524,-0.00011162,0.00007884
 ,-0.00037038,-0.00007447,-0.00181245,-0.00175467,-0.00026682,0.0960177
 8,0.00386902,0.00378474,0.00068408,-0.00695242,-0.03749842,0.01246706,
 -0.00336097,0.00458302,-0.00318440,-0.11217777,-0.35187329,0.11073568,
 0.00026143,-0.00132407,0.00078203,0.00009097,0.00063782,-0.00009141,0.
 00060905,-0.00038082,0.00085910,-0.00126180,-0.00039386,0.00053637,0.0
 0027411,-0.00023018,-0.00025739,0.00107813,0.00042305,-0.00040345,0.11
 757025,0.38227201,-0.00164260,0.00386916,0.01337215,0.00058638,0.00871
 906,-0.00297555,0.00014583,-0.00367974,-0.00789534,0.04204103,0.114581
 23,-0.06578951,-0.00036642,-0.00271820,-0.00000266,0.00048942,0.000150
 40,-0.00040737,0.00100265,0.00128783,-0.00107416,-0.00054211,0.0000488
 5,0.00030566,0.00192876,-0.00014969,0.00038841,-0.00083598,0.00001878,
 0.00111573,-0.04280694,-0.12212768,0.06296264\\0.00000566,-0.00000487,
 0.00000605,-0.00000302,0.00001454,-0.00001453,0.00001611,-0.00000218,0
 .00002247,-0.00001339,-0.00002953,0.00001233,-0.00000213,0.00000414,0.
 00000095,-0.00000358,-0.00000077,-0.00000176,-0.00000441,0.00000162,-0
 .00000438,-0.00000200,0.00000456,-0.00000181,-0.00000740,-0.00000266,-
 0.00000893,0.00000017,0.00000232,-0.00000496,0.00001399,0.00001283,-0.
 00000544\\\@


 Some scientists claim that hydrogen, because it is so
 plentiful, is the basic building block of the universe. 
 I dispute that. I say that stupidity is far more
 abundant than hydrogen, and THAT is the basic building 
 block of the universe.
                   --Frank Zappa
 Job cpu time:       0 days  0 hours  2 minutes  2.8 seconds.
 Elapsed time:       0 days  0 hours  0 minutes  5.6 seconds.
 File lengths (MBytes):  RWF=     11 Int=      0 D2E=      0 Chk=      2 Scr=      1
 Normal termination of Gaussian 16 at Mon Oct 14 00:44:43 2019.
real 33.30
user 627.99
sys 15.37
Machine:
brown-a494
brown-a494
brown-a494
brown-a494
brown-a494
brown-a494
brown-a494
brown-a494
brown-a494
brown-a494
brown-a494
brown-a494
brown-a494
brown-a494
brown-a494
brown-a494
brown-a494
brown-a494
brown-a494
brown-a494
brown-a494
brown-a494
brown-a494
brown-a494
