Title Card Required                                                     
Freq      RB3LYP                                                      6-31G(d)            
Number of atoms                            I               11
Info1-9                                    I   N=           9
          32          32        1002           0           0         100
           6          18        -502
Full Title                                 C   N=           2
Title Card Required     
Route                                      C   N=           6
#P opt freq b3lyp/6-31g(d) geom=connectivity temperature=0.0
01          
Charge                                     I                1
Multiplicity                               I                1
Number of electrons                        I               32
Number of alpha electrons                  I               16
Number of beta electrons                   I               16
Number of basis functions                  I               74
Number of independent functions            I               74
Number of point charges in /Mol/           I                0
Number of translation vectors              I                0
Atomic numbers                             I   N=          11
           6           6           6           8           1           1
           1           1           1           1           1
Nuclear charges                            R   N=          11
  6.00000000E+00  6.00000000E+00  6.00000000E+00  8.00000000E+00  1.00000000E+00
  1.00000000E+00  1.00000000E+00  1.00000000E+00  1.00000000E+00  1.00000000E+00
  1.00000000E+00
Current cartesian coordinates              R   N=          33
 -2.54701911E+00 -1.03378182E+00 -1.37456308E-02 -8.96784395E-03  1.12941595E-01
 -1.06121014E-03  2.33810033E+00 -1.40188009E+00  1.09921606E-02  4.22750649E-02
  2.53392881E+00 -8.33701169E-03 -2.95680578E+00 -1.65549248E+00  1.93371634E+00
 -3.99498882E+00  3.17119702E-01 -5.91096834E-01 -2.57937224E+00 -2.73865987E+00
 -1.18642822E+00  2.13595386E+00 -3.03670374E+00  1.26596201E+00  2.59781170E+00
 -2.17529309E+00 -1.90602177E+00  4.01779922E+00 -3.09940900E-01  5.19635879E-01
  1.74872127E+00  3.26386175E+00  5.38167676E-02
Number of symbols in /Mol/                 I                0
Force Field                                I                0
Atom Types                                 C   N=          11
                                                            
                                                            
            
Int Atom Types                             I   N=          11
           0           0           0           0           0           0
           0           0           0           0           0
MM charges                                 R   N=          11
  0.00000000E+00  0.00000000E+00  0.00000000E+00  0.00000000E+00  0.00000000E+00
  0.00000000E+00  0.00000000E+00  0.00000000E+00  0.00000000E+00  0.00000000E+00
  0.00000000E+00
Integer atomic weights                     I   N=          11
          12          12          12          16           1           1
           1           1           1           1           1
Real atomic weights                        R   N=          11
  1.20000000E+01  1.20000000E+01  1.20000000E+01  1.59949146E+01  1.00782504E+00
  1.00782504E+00  1.00782504E+00  1.00782504E+00  1.00782504E+00  1.00782504E+00
  1.00782504E+00
Atom fragment info                         I   N=          11
           0           0           0           0           0           0
           0           0           0           0           0
Atom residue num                           I   N=          11
           0           0           0           0           0           0
           0           0           0           0           0
Nuclear spins                              I   N=          11
           0           0           0           0           1           1
           1           1           1           1           1
Nuclear ZEff                               R   N=          11
 -3.60000000E+00 -3.60000000E+00 -3.60000000E+00 -5.60000000E+00 -1.00000000E+00
 -1.00000000E+00 -1.00000000E+00 -1.00000000E+00 -1.00000000E+00 -1.00000000E+00
 -1.00000000E+00
Nuclear ZNuc                               R   N=          11
  6.00000000E+00  6.00000000E+00  6.00000000E+00  8.00000000E+00  1.00000000E+00
  1.00000000E+00  1.00000000E+00  1.00000000E+00  1.00000000E+00  1.00000000E+00
  1.00000000E+00
Nuclear QMom                               R   N=          11
  0.00000000E+00  0.00000000E+00  0.00000000E+00  0.00000000E+00  0.00000000E+00
  0.00000000E+00  0.00000000E+00  0.00000000E+00  0.00000000E+00  0.00000000E+00
  0.00000000E+00
Nuclear GFac                               R   N=          11
  0.00000000E+00  0.00000000E+00  0.00000000E+00  0.00000000E+00  2.79284600E+00
  2.79284600E+00  2.79284600E+00  2.79284600E+00  2.79284600E+00  2.79284600E+00
  2.79284600E+00
MicOpt                                     I   N=          11
          -1          -1          -1          -1          -1          -1
          -1          -1          -1          -1          -1
Number of residues                         I                0
Number of secondary structures             I                0
Redundant internal dimensions              I   N=           4
          40          10          16          14
Redundant internal coordinate indices      I   N=         160
           1           2           0           0           1           5
           0           0           1           6           0           0
           1           7           0           0           2           3
           0           0           2           4           0           0
           3           8           0           0           3           9
           0           0           3          10           0           0
           4          11           0           0           2           1
           5           0           2           1           6           0
           2           1           7           0           5           1
           6           0           5           1           7           0
           6           1           7           0           1           2
           3           0           1           2           4           0
           3           2           4           0           2           3
           8           0           2           3           9           0
           2           3          10           0           8           3
           9           0           8           3          10           0
           9           3          10           0           2           4
          11           0           5           1           2           3
           5           1           2           4           6           1
           2           3           6           1           2           4
           7           1           2           3           7           1
           2           4           1           2           3           8
           1           2           3           9           1           2
           3          10           4           2           3           8
           4           2           3           9           4           2
           3          10           1           2           4          11
           3           2           4          11
Redundant internal coordinates             R   N=          40
  2.78511036E+00  2.08495981E+00  2.06273741E+00  2.06950244E+00  2.79348511E+00
  2.42154039E+00  2.07085995E+00  2.08340109E+00  2.06698765E+00  1.85704707E+00
  1.87300490E+00  1.95123015E+00  1.93479924E+00  1.89521280E+00  1.85517079E+00
  1.94974369E+00  2.14410126E+00  2.01629724E+00  2.12278194E+00  1.92696914E+00
  1.87766045E+00  1.97943628E+00  1.85117811E+00  1.92542270E+00  1.89783093E+00
  1.99579097E+00  1.36737250E+00 -1.77752911E+00 -2.83948356E+00  2.98800145E-01
 -6.51523379E-01  2.48676032E+00 -7.03653511E-01  1.30899124E+00 -2.87468238E+00
  2.44144594E+00 -1.82909462E+00  2.70417065E-01  3.10996800E+00 -3.48894164E-02
ZRed-IntVec                                I   N=          40
           0           0           0           0           0           0
           0           0           0           0           0           0
           0           0           0           0           0           0
           0           0           0           0           0           0
           0           0           0           0           0           0
           0           0           0           0           0           0
           0           0           0           0
ZRed-FPVec                                 R   N=          40
  0.00000000E+00  0.00000000E+00  0.00000000E+00  0.00000000E+00  0.00000000E+00
  0.00000000E+00  0.00000000E+00  0.00000000E+00  0.00000000E+00  0.00000000E+00
  0.00000000E+00  0.00000000E+00  0.00000000E+00  0.00000000E+00  0.00000000E+00
  0.00000000E+00  0.00000000E+00  0.00000000E+00  0.00000000E+00  0.00000000E+00
  0.00000000E+00  0.00000000E+00  0.00000000E+00  0.00000000E+00  0.00000000E+00
  0.00000000E+00  0.00000000E+00  0.00000000E+00  0.00000000E+00  0.00000000E+00
  0.00000000E+00  0.00000000E+00  0.00000000E+00  0.00000000E+00  0.00000000E+00
  0.00000000E+00  0.00000000E+00  0.00000000E+00  0.00000000E+00  0.00000000E+00
ZRed-Constraint1                           R   N=          40
  2.78511036E+00  2.08495981E+00  2.06273741E+00  2.06950244E+00  2.79348511E+00
  2.42154039E+00  2.07085995E+00  2.08340109E+00  2.06698765E+00  1.85704707E+00
  1.87300490E+00  1.95123015E+00  1.93479924E+00  1.89521280E+00  1.85517079E+00
  1.94974369E+00  2.14410126E+00  2.01629724E+00  2.12278194E+00  1.92696914E+00
  1.87766045E+00  1.97943628E+00  1.85117811E+00  1.92542270E+00  1.89783093E+00
  1.99579097E+00  1.36737250E+00 -1.77752911E+00 -2.83948356E+00  2.98800145E-01
 -6.51523379E-01  2.48676032E+00 -7.03653511E-01  1.30899124E+00 -2.87468238E+00
  2.44144594E+00 -1.82909462E+00  2.70417065E-01  3.10996800E+00 -3.48894164E-02
ZRed-Constraint2                           R   N=          40
  2.78785094E+00  2.05976473E+00  2.05975333E+00  2.05991161E+00  2.78927910E+00
  2.36876359E+00  2.05978013E+00  2.05991820E+00  2.05973119E+00  1.81413709E+00
  1.91067830E+00  1.91063680E+00  1.91062050E+00  1.91065873E+00  1.91060901E+00
  1.91059608E+00  2.12671798E+00  2.07871409E+00  2.07775322E+00  1.91068521E+00
  1.91055014E+00  1.91060148E+00  1.91062251E+00  1.91077554E+00  1.91056453E+00
  2.09439510E+00  1.70063180E+00 -1.44079800E+00 -2.48809740E+00  6.53658112E-01
 -3.93753425E-01  2.74800209E+00 -1.39816872E+00  6.96194182E-01  2.79043482E+00
  1.74326116E+00 -2.44556125E+00 -3.51320606E-01  2.85823065E+00 -2.83203760E-01
SymInf integers                            I   N=          26
           1           1           1           1           1           0
           0           0           0           0           0           0
           0           0           0           0           0           0
           0           0           0           0           0           0
           0           0
RotTr to input orientation                 R   N=          12
  6.73254883E-01  6.72940138E-01 -3.06397507E-01 -7.31338247E-01  6.67105709E-01
 -1.41825038E-01  1.08959766E-01  3.19564615E-01  9.41279038E-01  3.41263806E-01
 -1.68877970E-01 -3.82092459E-01
Number of contracted shells                I               30
Number of primitive shells                 I               72
Pure/Cartesian d shells                    I                1
Pure/Cartesian f shells                    I                0
Highest angular momentum                   I                2
Largest degree of contraction              I                6
Shell types                                I   N=          30
           0          -1          -1           2           0          -1
          -1           2           0          -1          -1           2
           0          -1          -1           2           0           0
           0           0           0           0           0           0
           0           0           0           0           0           0
Number of primitives per shell             I   N=          30
           6           3           1           1           6           3
           1           1           6           3           1           1
           6           3           1           1           3           1
           3           1           3           1           3           1
           3           1           3           1           3           1
Shell to atom map                          I   N=          30
           1           1           1           1           2           2
           2           2           3           3           3           3
           4           4           4           4           5           5
           6           6           7           7           8           8
           9           9          10          10          11          11
Primitive exponents                        R   N=          72
  3.04752488E+03  4.57369518E+02  1.03948685E+02  2.92101553E+01  9.28666296E+00
  3.16392696E+00  7.86827235E+00  1.88128854E+00  5.44249258E-01  1.68714478E-01
  8.00000000E-01  3.04752488E+03  4.57369518E+02  1.03948685E+02  2.92101553E+01
  9.28666296E+00  3.16392696E+00  7.86827235E+00  1.88128854E+00  5.44249258E-01
  1.68714478E-01  8.00000000E-01  3.04752488E+03  4.57369518E+02  1.03948685E+02
  2.92101553E+01  9.28666296E+00  3.16392696E+00  7.86827235E+00  1.88128854E+00
  5.44249258E-01  1.68714478E-01  8.00000000E-01  5.48467166E+03  8.25234946E+02
  1.88046958E+02  5.29645000E+01  1.68975704E+01  5.79963534E+00  1.55396162E+01
  3.59993359E+00  1.01376175E+00  2.70005823E-01  8.00000000E-01  1.87311370E+01
  2.82539436E+00  6.40121692E-01  1.61277759E-01  1.87311370E+01  2.82539436E+00
  6.40121692E-01  1.61277759E-01  1.87311370E+01  2.82539436E+00  6.40121692E-01
  1.61277759E-01  1.87311370E+01  2.82539436E+00  6.40121692E-01  1.61277759E-01
  1.87311370E+01  2.82539436E+00  6.40121692E-01  1.61277759E-01  1.87311370E+01
  2.82539436E+00  6.40121692E-01  1.61277759E-01  1.87311370E+01  2.82539436E+00
  6.40121692E-01  1.61277759E-01
Contraction coefficients                   R   N=          72
  1.83473713E-03  1.40373228E-02  6.88426223E-02  2.32184443E-01  4.67941348E-01
  3.62311985E-01 -1.19332420E-01 -1.60854152E-01  1.14345644E+00  1.00000000E+00
  1.00000000E+00  1.83473713E-03  1.40373228E-02  6.88426223E-02  2.32184443E-01
  4.67941348E-01  3.62311985E-01 -1.19332420E-01 -1.60854152E-01  1.14345644E+00
  1.00000000E+00  1.00000000E+00  1.83473713E-03  1.40373228E-02  6.88426223E-02
  2.32184443E-01  4.67941348E-01  3.62311985E-01 -1.19332420E-01 -1.60854152E-01
  1.14345644E+00  1.00000000E+00  1.00000000E+00  1.83107443E-03  1.39501722E-02
  6.84450781E-02  2.32714336E-01  4.70192898E-01  3.58520853E-01 -1.10777550E-01
 -1.48026263E-01  1.13076702E+00  1.00000000E+00  1.00000000E+00  3.34946043E-02
  2.34726953E-01  8.13757326E-01  1.00000000E+00  3.34946043E-02  2.34726953E-01
  8.13757326E-01  1.00000000E+00  3.34946043E-02  2.34726953E-01  8.13757326E-01
  1.00000000E+00  3.34946043E-02  2.34726953E-01  8.13757326E-01  1.00000000E+00
  3.34946043E-02  2.34726953E-01  8.13757326E-01  1.00000000E+00  3.34946043E-02
  2.34726953E-01  8.13757326E-01  1.00000000E+00  3.34946043E-02  2.34726953E-01
  8.13757326E-01  1.00000000E+00
P(S=P) Contraction coefficients            R   N=          72
  0.00000000E+00  0.00000000E+00  0.00000000E+00  0.00000000E+00  0.00000000E+00
  0.00000000E+00  6.89990666E-02  3.16423961E-01  7.44308291E-01  1.00000000E+00
  0.00000000E+00  0.00000000E+00  0.00000000E+00  0.00000000E+00  0.00000000E+00
  0.00000000E+00  0.00000000E+00  6.89990666E-02  3.16423961E-01  7.44308291E-01
  1.00000000E+00  0.00000000E+00  0.00000000E+00  0.00000000E+00  0.00000000E+00
  0.00000000E+00  0.00000000E+00  0.00000000E+00  6.89990666E-02  3.16423961E-01
  7.44308291E-01  1.00000000E+00  0.00000000E+00  0.00000000E+00  0.00000000E+00
  0.00000000E+00  0.00000000E+00  0.00000000E+00  0.00000000E+00  7.08742682E-02
  3.39752839E-01  7.27158577E-01  1.00000000E+00  0.00000000E+00  0.00000000E+00
  0.00000000E+00  0.00000000E+00  0.00000000E+00  0.00000000E+00  0.00000000E+00
  0.00000000E+00  0.00000000E+00  0.00000000E+00  0.00000000E+00  0.00000000E+00
  0.00000000E+00  0.00000000E+00  0.00000000E+00  0.00000000E+00  0.00000000E+00
  0.00000000E+00  0.00000000E+00  0.00000000E+00  0.00000000E+00  0.00000000E+00
  0.00000000E+00  0.00000000E+00  0.00000000E+00  0.00000000E+00  0.00000000E+00
  0.00000000E+00  0.00000000E+00
Coordinates of each shell                  R   N=          90
 -2.54701911E+00 -1.03378182E+00 -1.37456308E-02 -2.54701911E+00 -1.03378182E+00
 -1.37456308E-02 -2.54701911E+00 -1.03378182E+00 -1.37456308E-02 -2.54701911E+00
 -1.03378182E+00 -1.37456308E-02 -8.96784395E-03  1.12941595E-01 -1.06121014E-03
 -8.96784395E-03  1.12941595E-01 -1.06121014E-03 -8.96784395E-03  1.12941595E-01
 -1.06121014E-03 -8.96784395E-03  1.12941595E-01 -1.06121014E-03  2.33810033E+00
 -1.40188009E+00  1.09921606E-02  2.33810033E+00 -1.40188009E+00  1.09921606E-02
  2.33810033E+00 -1.40188009E+00  1.09921606E-02  2.33810033E+00 -1.40188009E+00
  1.09921606E-02  4.22750649E-02  2.53392881E+00 -8.33701169E-03  4.22750649E-02
  2.53392881E+00 -8.33701169E-03  4.22750649E-02  2.53392881E+00 -8.33701169E-03
  4.22750649E-02  2.53392881E+00 -8.33701169E-03 -2.95680578E+00 -1.65549248E+00
  1.93371634E+00 -2.95680578E+00 -1.65549248E+00  1.93371634E+00 -3.99498882E+00
  3.17119702E-01 -5.91096834E-01 -3.99498882E+00  3.17119702E-01 -5.91096834E-01
 -2.57937224E+00 -2.73865987E+00 -1.18642822E+00 -2.57937224E+00 -2.73865987E+00
 -1.18642822E+00  2.13595386E+00 -3.03670374E+00  1.26596201E+00  2.13595386E+00
 -3.03670374E+00  1.26596201E+00  2.59781170E+00 -2.17529309E+00 -1.90602177E+00
  2.59781170E+00 -2.17529309E+00 -1.90602177E+00  4.01779922E+00 -3.09940900E-01
  5.19635879E-01  4.01779922E+00 -3.09940900E-01  5.19635879E-01  1.74872127E+00
  3.26386175E+00  5.38167676E-02  1.74872127E+00  3.26386175E+00  5.38167676E-02
Num ILSW                                   I              100
ILSW                                       I   N=         100
           0           1           0           0           2           0
           0           0           0           0         402          -1
           5           0           0           0           2           0
           0           0           0           0           1           0
           1           0           0           0           0           0
           0           0      100000           0          -1           0
           0           0           0           0           0           0
           0           0           0           1           0           0
           0 -2000000000           1           0           0           0
           0           0           4          52           0           0
           0           0           5           0           0           0
           0           0           0          11           0           1
           0           0           0           0           0           0
           0           0           0           0           0           0
           0           0           0           0           0           0
           0           0           0           0           0           0
           0           0           0           0
Num RLSW                                   I               52
RLSW                                       R   N=          52
  8.00000000E-01  7.20000000E-01  1.00000000E+00  8.10000000E-01  2.00000000E-01
  0.00000000E+00  0.00000000E+00  1.00000000E+00  0.00000000E+00  0.00000000E+00
  0.00000000E+00  0.00000000E+00  1.00000000E+00  0.00000000E+00  0.00000000E+00
  0.00000000E+00  0.00000000E+00  1.00000000E+00  0.00000000E+00  0.00000000E+00
  0.00000000E+00  0.00000000E+00  1.00000000E+00  0.00000000E+00  0.00000000E+00
  0.00000000E+00  0.00000000E+00  1.00000000E+00  0.00000000E+00  0.00000000E+00
  0.00000000E+00  0.00000000E+00  1.00000000E+00  0.00000000E+00  0.00000000E+00
  0.00000000E+00  0.00000000E+00  0.00000000E+00  1.00000000E+00  1.00000000E+00
  0.00000000E+00  1.00000000E+00  0.00000000E+00  0.00000000E+00  0.00000000E+00
  0.00000000E+00  0.00000000E+00  0.00000000E+00  0.00000000E+00  0.00000000E+00
  0.00000000E+00  0.00000000E+00
MxBond                                     I                4
NBond                                      I   N=          11
           4           3           4           2           1           1
           1           1           1           1           1
IBond                                      I   N=          44
           2           5           6           7           1           3
           4           0           2           8           9          10
           2          11           0           0           1           0
           0           0           1           0           0           0
           1           0           0           0           3           0
           0           0           3           0           0           0
           3           0           0           0           4           0
           0           0
RBond                                      R   N=          44
  1.00000000E+00  1.00000000E+00  1.00000000E+00  1.00000000E+00  1.00000000E+00
  1.00000000E+00  2.00000000E+00  0.00000000E+00  1.00000000E+00  1.00000000E+00
  1.00000000E+00  1.00000000E+00  2.00000000E+00  1.00000000E+00  0.00000000E+00
  0.00000000E+00  1.00000000E+00  0.00000000E+00  0.00000000E+00  0.00000000E+00
  1.00000000E+00  0.00000000E+00  0.00000000E+00  0.00000000E+00  1.00000000E+00
  0.00000000E+00  0.00000000E+00  0.00000000E+00  1.00000000E+00  0.00000000E+00
  0.00000000E+00  0.00000000E+00  1.00000000E+00  0.00000000E+00  0.00000000E+00
  0.00000000E+00  1.00000000E+00  0.00000000E+00  0.00000000E+00  0.00000000E+00
  1.00000000E+00  0.00000000E+00  0.00000000E+00  0.00000000E+00
Virial Ratio                               R      2.009661292732733E+00
SCF Energy                                 R     -1.934793330231944E+02
Total Energy                               R     -1.934793330231944E+02
RMS Force                                  R      9.795078196235367E-06
RMS Density                                R      2.528338886934184E-09
NImag                                      I                0
Job Status                                 I                1
Nuclear derivative order                   I                2
External E-field                           R   N=          35
  0.00000000E+00  0.00000000E+00  0.00000000E+00  0.00000000E+00  0.00000000E+00
  0.00000000E+00  0.00000000E+00  0.00000000E+00  0.00000000E+00  0.00000000E+00
  0.00000000E+00  0.00000000E+00  0.00000000E+00  0.00000000E+00  0.00000000E+00
  0.00000000E+00  0.00000000E+00  0.00000000E+00  0.00000000E+00  0.00000000E+00
  0.00000000E+00  0.00000000E+00  0.00000000E+00  0.00000000E+00  0.00000000E+00
  0.00000000E+00  0.00000000E+00  0.00000000E+00  0.00000000E+00  0.00000000E+00
  0.00000000E+00  0.00000000E+00  0.00000000E+00  0.00000000E+00  0.00000000E+00
IOpCl                                      I                0
IROHF                                      I                0
Alpha Orbital Energies                     R   N=          74
 -1.94793505E+01 -1.05676539E+01 -1.04186179E+01 -1.04051826E+01 -1.37008444E+00
 -1.03240522E+00 -9.50645511E-01 -8.74939242E-01 -7.47794440E-01 -7.11189193E-01
 -7.07811083E-01 -6.30871567E-01 -6.20689011E-01 -6.10981330E-01 -6.08235760E-01
 -5.96850390E-01 -2.98327106E-01 -1.58111684E-01 -8.45898011E-02 -7.19351400E-02
 -4.29188128E-02 -3.76495924E-02 -2.79722199E-02 -4.55209513E-03 -2.37667972E-03
  6.31569204E-02  1.25731713E-01  2.82763862E-01  3.06398925E-01  3.33612964E-01
  3.45003402E-01  3.62978107E-01  4.08090766E-01  4.60606975E-01  4.84659405E-01
  5.24088173E-01  5.42785149E-01  5.95951105E-01  6.39137116E-01  6.61671575E-01
  6.91092866E-01  7.02079098E-01  7.20072129E-01  7.23102758E-01  7.50158823E-01
  7.73460661E-01  9.09084815E-01  1.11887432E+00  1.13235452E+00  1.13834416E+00
  1.18310870E+00  1.27668084E+00  1.46034081E+00  1.53148387E+00  1.54438373E+00
  1.60549747E+00  1.69285275E+00  1.72330625E+00  1.84536423E+00  1.88604077E+00
  1.92231027E+00  2.00069142E+00  2.06730273E+00  2.12093251E+00  2.17303478E+00
  2.24086896E+00  2.25657519E+00  2.47597532E+00  2.63418931E+00  2.65771954E+00
  3.63448155E+00  3.84220331E+00  4.03893334E+00  4.21157051E+00
Alpha MO coefficients                      R   N=        5476
  7.91713350E-06  1.12636891E-04  5.15732128E-05  2.28199065E-05  3.18466453E-05
  1.73814814E-04 -3.95575094E-04  4.98099709E-04 -1.86753576E-04 -5.19091384E-05
 -3.77855530E-05  2.36584464E-05 -8.21510199E-06  1.58741227E-06 -6.84267497E-06
 -2.19277442E-06  4.07366647E-04 -9.07651700E-05  3.16787836E-04 -4.94156876E-06
 -1.92670574E-03  8.75314864E-04 -2.98006037E-03  7.28892610E-05 -1.63457574E-05
 -2.95017127E-04 -4.96418867E-05 -6.38814280E-05 -5.26675747E-06 -2.34418560E-06
  1.96507701E-05  1.60500358E-04  2.63600773E-05 -5.33146643E-05 -5.45293495E-07
 -1.39785197E-03  6.91240473E-04  1.95782720E-04 -1.88715006E-05 -3.73789261E-05
 -5.32633432E-06  1.36480032E-05  2.86815852E-05  1.20483571E-05  1.77038204E-05
  9.92681663E-01  2.57122120E-02  9.02399641E-04 -6.45953565E-04  4.03801489E-05
  1.38845844E-02 -4.01811043E-04 -1.16666622E-03 -2.22937881E-05 -8.31388771E-03
 -8.07882145E-03 -8.25285772E-03  1.69103878E-05 -1.85642110E-06  1.53441012E-06
  1.11137138E-06  1.37567966E-04  4.50459963E-05 -4.69293971E-04  9.51163320E-06
  1.37061475E-05  7.16509194E-05  1.68327666E-04  3.50858042E-05  9.84665769E-05
 -2.59827818E-05  4.16411047E-06  4.59730453E-04 -1.00170271E-03  8.48691379E-04
 -2.50558470E-04 -2.47509718E-04 -1.72514395E-04  3.61662101E-05  3.78051601E-03
  2.20929554E-03  8.74187220E-05 -2.11918039E-04 -2.54869994E-04 -2.87529768E-04
 -9.17109202E-05 -1.97440870E-04 -1.14116040E-05  3.20962337E-05  9.92965805E-01
  4.83475708E-02  1.00699741E-04  1.45229141E-03 -3.11219649E-06 -1.10814871E-02
  2.36251813E-05  4.20119768E-03  4.93450902E-06 -9.06293667E-03 -8.04276578E-03
 -9.43105912E-03 -1.36798065E-05 -1.21715880E-05 -4.46983648E-06  9.07948592E-04
 -2.13930480E-04  2.35828818E-04 -2.11120755E-04 -2.93224819E-05  3.96379926E-03
 -2.27089501E-03  5.33415351E-04  1.69393047E-04 -2.53445840E-04 -3.43012122E-04
 -7.78104919E-05  1.97725399E-04 -1.47566465E-05 -2.71566580E-05 -3.56278022E-05
  5.46559467E-04 -1.77121735E-05  1.30780950E-04 -1.19924819E-06 -3.05646942E-03
  1.61300965E-04  2.32125399E-03 -6.03635341E-06  3.52880045E-04 -7.38941756E-04
  5.77038031E-04 -7.31234869E-05 -9.49296754E-06  4.25857252E-06 -1.63188797E-04
  4.02683519E-04 -7.12822821E-05  3.13837252E-04 -1.48349667E-04 -1.60897976E-04
 -1.55085229E-04 -9.00721464E-05 -1.73484069E-04  3.91709333E-04 -8.14440065E-05
  3.80853881E-04  1.14982255E-04 -2.38797202E-04 -3.71926820E-04 -3.02339457E-04
 -7.36744306E-05  7.80808654E-05 -3.46874315E-05  1.63824449E-03  6.52006040E-04
  3.81816126E-04  2.19129050E-04 -2.54002635E-05  6.32767302E-06 -1.16758154E-04
  7.30303086E-05 -1.10295285E-05  7.55850922E-06 -1.16819395E-03 -2.30450086E-04
 -2.88089040E-04  6.97629794E-05 -1.79806227E-05  4.06704975E-03  3.51945899E-03
 -1.56776213E-03  9.85570834E-06 -4.57484540E-04 -3.05016168E-04 -1.33166867E-04
  2.13922074E-04  2.36595117E-06  1.06048628E-05  9.92858588E-01  5.04925411E-02
 -4.16841907E-04  2.05340595E-04 -9.62633755E-05 -1.82662430E-02  1.59203750E-03
 -8.41700325E-04  2.87830150E-04 -9.21886656E-03 -9.26572289E-03 -9.26634968E-03
  2.13181531E-05  9.08668088E-06 -7.77091047E-06 -3.75442092E-05 -1.99242674E-04
  9.46774642E-06  4.22034735E-05  9.13310176E-06  6.73960387E-04 -4.32664944E-04
 -3.07761735E-04 -3.35154366E-05 -7.56464908E-05  7.22829563E-06 -2.04085542E-04
  5.85532624E-05 -5.67001076E-06  7.05878567E-06 -5.35126510E-05 -2.93667148E-04
 -3.50406694E-05  1.40546312E-04 -1.01967111E-04  9.52152136E-05  2.06494427E-05
  2.62342475E-03  4.23965297E-05  2.79448219E-03 -1.83448234E-05  2.52594286E-03
 -1.32112194E-05  9.21896625E-05  9.92855300E-01  5.04945077E-02  5.31905252E-04
  1.03127072E-04  1.31946850E-04 -1.80487602E-02 -1.67507342E-03 -5.34566833E-04
 -3.64170954E-04 -9.22939998E-03 -9.24957067E-03 -9.26878132E-03 -1.20416057E-05
  1.12548661E-05  8.56184725E-06 -1.11737694E-03 -2.38517041E-04  2.92647440E-04
  1.65566103E-05  2.07518980E-05  4.08997090E-03 -3.23962508E-03 -1.17306170E-03
 -1.08712909E-05 -5.07548991E-04 -2.79458720E-04 -1.34436762E-04 -1.54312145E-04
 -4.25327565E-07 -1.28529533E-05  2.65850294E-04 -2.61179762E-04  9.52017016E-05
  5.64140999E-05  3.10269190E-05  1.32977889E-03 -4.83370873E-04  3.64780775E-04
 -1.94993638E-04 -4.58375555E-05  1.18052213E-05 -1.25791732E-04 -5.88871227E-05
 -1.18150976E-05 -5.28644203E-06 -4.14149351E-05 -2.35724693E-04  2.23416247E-05
  5.22247261E-05 -1.17048170E-05  7.02833565E-04  1.45546589E-04 -4.36138338E-04
  4.48455279E-05 -6.83634314E-05  1.44144939E-05 -2.31127687E-04 -9.28074968E-07
 -9.96765359E-06 -1.04602325E-05  3.34305889E-05  2.82840850E-03 -1.16074611E-05
  2.51322103E-03 -1.53632280E-06  2.62263431E-03 -9.74189741E-05  8.01026157E-05
 -4.60455377E-05 -2.91521946E-04 -2.72441191E-05  1.22315754E-04 -1.76655924E-05
  1.95018982E-04 -1.24295926E-02  2.20413673E-02  1.67129808E-02  1.38726087E-02
  3.18804478E-04  1.00412575E-02 -3.79903491E-03  1.31434334E-02  1.10683505E-05
  3.21393473E-03  2.00361294E-03 -9.25667492E-04  4.25015906E-03  1.68138732E-04
 -3.14633201E-04 -9.22070823E-02  1.81557099E-01  1.02842777E-02  1.48072600E-01