 Entering Gaussian System, Link 0=/apps/cent7/gaussian/g16-A.03/g16-haswell/g16/g16
 Initial command:
 /apps/cent7/gaussian/g16-A.03/g16-haswell/g16/l1.exe "/scratch/brown/finej/gaussian/Gau-446471.inp" -scrdir="/scratch/brown/finej/gaussian/"
 Entering Link 1 = /apps/cent7/gaussian/g16-A.03/g16-haswell/g16/l1.exe PID=    446472.
  
 Copyright (c) 1988,1990,1992,1993,1995,1998,2003,2009,2016,
            Gaussian, Inc.  All Rights Reserved.
  
 This is part of the Gaussian(R) 16 program.  It is based on
 the Gaussian(R) 09 system (copyright 2009, Gaussian, Inc.),
 the Gaussian(R) 03 system (copyright 2003, Gaussian, Inc.),
 the Gaussian(R) 98 system (copyright 1998, Gaussian, Inc.),
 the Gaussian(R) 94 system (copyright 1995, Gaussian, Inc.),
 the Gaussian 92(TM) system (copyright 1992, Gaussian, Inc.),
 the Gaussian 90(TM) system (copyright 1990, Gaussian, Inc.),
 the Gaussian 88(TM) system (copyright 1988, Gaussian, Inc.),
 the Gaussian 86(TM) system (copyright 1986, Carnegie Mellon
 University), and the Gaussian 82(TM) system (copyright 1983,
 Carnegie Mellon University). Gaussian is a federally registered
 trademark of Gaussian, Inc.
  
 This software contains proprietary and confidential information,
 including trade secrets, belonging to Gaussian, Inc.
  
 This software is provided under written license and may be
 used, copied, transmitted, or stored only in accord with that
 written license.
  
 The following legend is applicable only to US Government
 contracts under FAR:
  
                    RESTRICTED RIGHTS LEGEND
  
 Use, reproduction and disclosure by the US Government is
 subject to restrictions as set forth in subparagraphs (a)
 and (c) of the Commercial Computer Software - Restricted
 Rights clause in FAR 52.227-19.
  
 Gaussian, Inc.
 340 Quinnipiac St., Bldg. 40, Wallingford CT 06492
  
  
 ---------------------------------------------------------------
 Warning -- This program may not be used in any manner that
 competes with the business of Gaussian, Inc. or will provide
 assistance to any competitor of Gaussian, Inc.  The licensee
 of this program is prohibited from giving any competitor of
 Gaussian, Inc. access to this program.  By using this program,
 the user acknowledges that Gaussian, Inc. is engaged in the
 business of creating and licensing software in the field of
 computational chemistry and represents and warrants to the
 licensee that it is not a competitor of Gaussian, Inc. and that
 it will not use this program in any manner prohibited above.
 ---------------------------------------------------------------
  

 Cite this work as:
 Gaussian 16, Revision A.03,
 M. J. Frisch, G. W. Trucks, H. B. Schlegel, G. E. Scuseria, 
 M. A. Robb, J. R. Cheeseman, G. Scalmani, V. Barone, 
 G. A. Petersson, H. Nakatsuji, X. Li, M. Caricato, A. V. Marenich, 
 J. Bloino, B. G. Janesko, R. Gomperts, B. Mennucci, H. P. Hratchian, 
 J. V. Ortiz, A. F. Izmaylov, J. L. Sonnenberg, D. Williams-Young, 
 F. Ding, F. Lipparini, F. Egidi, J. Goings, B. Peng, A. Petrone, 
 T. Henderson, D. Ranasinghe, V. G. Zakrzewski, J. Gao, N. Rega, 
 G. Zheng, W. Liang, M. Hada, M. Ehara, K. Toyota, R. Fukuda, 
 J. Hasegawa, M. Ishida, T. Nakajima, Y. Honda, O. Kitao, H. Nakai, 
 T. Vreven, K. Throssell, J. A. Montgomery, Jr., J. E. Peralta, 
 F. Ogliaro, M. J. Bearpark, J. J. Heyd, E. N. Brothers, K. N. Kudin, 
 V. N. Staroverov, T. A. Keith, R. Kobayashi, J. Normand, 
 K. Raghavachari, A. P. Rendell, J. C. Burant, S. S. Iyengar, 
 J. Tomasi, M. Cossi, J. M. Millam, M. Klene, C. Adamo, R. Cammi, 
 J. W. Ochterski, R. L. Martin, K. Morokuma, O. Farkas, 
 J. B. Foresman, and D. J. Fox, Gaussian, Inc., Wallingford CT, 2016.
 
 ******************************************
 Gaussian 16:  ES64L-G16RevA.03 25-Dec-2016
                14-Oct-2019 
 ******************************************
 %chk=17.chk
 %nprocshared=24
 Will use up to   24 processors via shared memory.
 %mem=80GB
 --------------------------------------------------------------
 #P opt freq b3lyp/6-31g(d) geom=connectivity temperature=0.001
 --------------------------------------------------------------
 1/18=20,19=15,26=3,38=1,57=2,112=-1000/1,3;
 2/9=110,12=2,17=6,18=5,40=1/2;
 3/5=1,6=6,7=1,11=2,25=1,30=1,71=1,74=-5/1,2,3;
 4//1;
 5/5=2,38=5/2;
 6/7=2,8=2,9=2,10=2,28=1/1;
 7//1,2,3,16;
 1/18=20,19=15,26=3/3(2);
 2/9=110/2;
 99//99;
 2/9=110/2;
 3/5=1,6=6,7=1,11=2,25=1,30=1,71=1,74=-5/1,2,3;
 4/5=5,16=3,69=1/1;
 5/5=2,38=5/2;
 7//1,2,3,16;
 1/18=20,19=15,26=3/3(-5);
 2/9=110/2;
 6/7=2,8=2,9=2,10=2,19=2,28=1/1;
 99/9=1/99;
 Leave Link    1 at Mon Oct 14 00:44:17 2019, MaxMem= 10737418240 cpu:               1.5 elap:               0.1
 (Enter /apps/cent7/gaussian/g16-A.03/g16-haswell/g16/l101.exe)
 -------------------
 Title Card Required
 -------------------
 Symbolic Z-matrix:
 Charge =  0 Multiplicity = 1
 O                     2.4576    0.2295   -0.0454 
 C                     1.7876   -0.3309   -0.9427 
 O                     1.91      0.11     -2.2228 
 C                     2.6851   -0.5479   -3.2246 
 C                     0.7745   -1.3463   -0.5955 
 C                    -0.5318   -0.6788   -0.0878 
 C                    -1.6572   -1.7033    0.2052 
 C                    -2.9629   -1.0333    0.7163 
 C                    -4.067    -2.0766    1.0353 
 C                    -5.3747   -1.4369    1.5731 
 C                    -6.4657   -2.4915    1.9014 
 C                    -7.7679   -1.8438    2.4423 
 C                    -8.8641   -2.8906    2.7732 
 C                    -10.1633  -2.2332    3.3125 
 C                    -11.262   -3.2766    3.6435 
 C                    -12.5576  -2.6174    4.1811 
 C                    -13.6471  -3.669     4.5078 
 C                    -14.9465  -3.0195    5.0461 
 C                    -16.0348  -4.0751    5.372 
 C                    -17.3387  -3.4332    5.9114 
 C                    -18.4237  -4.4832    6.2365 
 H                     3.4323   -1.1821   -2.7476 
 H                     2.0315   -1.1605   -3.8456 
 H                     3.1833    0.1966   -3.8456 
 H                     0.5377   -1.8539   -1.5306 
 H                     1.1975   -1.9077    0.2375 
 H                    -0.2844   -0.2215    0.8702 
 H                    -0.894    -0.0608   -0.9093 
 H                    -1.906    -2.159    -0.7532 
 H                    -1.2939   -2.3228    1.0252 
 H                    -2.7108   -0.5578    1.6642 
 H                    -3.3416   -0.4329   -0.1109 
 H                    -4.3283   -2.5379    0.0829 
 H                    -3.676    -2.6886    1.8482 
 H                    -5.1133   -0.9672    2.5214 
 H                    -5.7733   -0.8335    0.7576 
 H                    -6.7308   -2.9594    0.9533 
 H                    -6.0674   -3.0972    2.7155 
 H                    -7.5014   -1.3758    3.39 
 H                    -8.1648   -1.2379    1.6278 
 H                    -9.1314   -3.3594    1.8262 
 H                    -8.4689   -3.4962    3.5887 
 H                    -9.8957   -1.7649    4.2597 
 H                    -10.5577  -1.6269    2.497 
 H                    -11.5305  -3.7454    2.6968 
 H                    -10.869   -3.8829    4.4596 
 H                    -12.2916  -2.1491    5.1287 
 H                    -12.9531  -2.0115    3.3658 
 H                    -13.9116  -4.137     3.5596 
 H                    -13.2501  -4.2747    5.3225 
 H                    -14.6823  -2.5515    5.9943 
 H                    -15.3437  -2.4139    4.2314 
 H                    -16.2974  -4.5428    4.4231 
 H                    -15.636   -4.6804    6.186 
 H                    -17.0773  -2.9657    6.8607 
 H                    -17.7388  -2.8281    5.0978 
 H                    -18.5235  -4.5797    7.3177 
 H                    -19.3756  -4.1658    5.8107 
 H                    -18.1378  -5.4449    5.8107 
 
 ITRead=  0  0  0  0  0  0  0  0  0  0  0  0  0  0  0  0  0  0  0  0
 ITRead=  0  0  0  0  0  0  0  0  0  0  0  0  0  0  0  0  0  0  0  0
 ITRead=  0  0  0  0  0  0  0  0  0  0  0  0  0  0  0  0  0  0  0
 MicOpt= -1 -1 -1 -1 -1 -1 -1 -1 -1 -1 -1 -1 -1 -1 -1 -1 -1 -1 -1 -1
 MicOpt= -1 -1 -1 -1 -1 -1 -1 -1 -1 -1 -1 -1 -1 -1 -1 -1 -1 -1 -1 -1
 MicOpt= -1 -1 -1 -1 -1 -1 -1 -1 -1 -1 -1 -1 -1 -1 -1 -1 -1 -1 -1
 NAtoms=     59 NQM=       59 NQMF=       0 NMMI=      0 NMMIF=      0
                NMic=       0 NMicF=      0.
                    Isotopes and Nuclear Properties:
 (Nuclear quadrupole moments (NQMom) in fm**2, nuclear magnetic moments (NMagM)
  in nuclear magnetons)

  Atom         1           2           3           4           5           6           7           8           9          10
 IAtWgt=          16          12          16          12          12          12          12          12          12          12
 AtmWgt=  15.9949146  12.0000000  15.9949146  12.0000000  12.0000000  12.0000000  12.0000000  12.0000000  12.0000000  12.0000000
 NucSpn=           0           0           0           0           0           0           0           0           0           0
 AtZEff=  -0.0000000  -0.0000000  -0.0000000  -0.0000000  -0.0000000  -0.0000000  -0.0000000  -0.0000000  -0.0000000  -0.0000000
 NQMom=    0.0000000   0.0000000   0.0000000   0.0000000   0.0000000   0.0000000   0.0000000   0.0000000   0.0000000   0.0000000
 NMagM=    0.0000000   0.0000000   0.0000000   0.0000000   0.0000000   0.0000000   0.0000000   0.0000000   0.0000000   0.0000000
 AtZNuc=   8.0000000   6.0000000   8.0000000   6.0000000   6.0000000   6.0000000   6.0000000   6.0000000   6.0000000   6.0000000

  Atom        11          12          13          14          15          16          17          18          19          20
 IAtWgt=          12          12          12          12          12          12          12          12          12          12
 AtmWgt=  12.0000000  12.0000000  12.0000000  12.0000000  12.0000000  12.0000000  12.0000000  12.0000000  12.0000000  12.0000000
 NucSpn=           0           0           0           0           0           0           0           0           0           0
 AtZEff=  -0.0000000  -0.0000000  -0.0000000  -0.0000000  -0.0000000  -0.0000000  -0.0000000  -0.0000000  -0.0000000  -0.0000000
 NQMom=    0.0000000   0.0000000   0.0000000   0.0000000   0.0000000   0.0000000   0.0000000   0.0000000   0.0000000   0.0000000
 NMagM=    0.0000000   0.0000000   0.0000000   0.0000000   0.0000000   0.0000000   0.0000000   0.0000000   0.0000000   0.0000000
 AtZNuc=   6.0000000   6.0000000   6.0000000   6.0000000   6.0000000   6.0000000   6.0000000   6.0000000   6.0000000   6.0000000

  Atom        21          22          23          24          25          26          27          28          29          30
 IAtWgt=          12           1           1           1           1           1           1           1           1           1
 AtmWgt=  12.0000000   1.0078250   1.0078250   1.0078250   1.0078250   1.0078250   1.0078250   1.0078250   1.0078250   1.0078250
 NucSpn=           0           1           1           1           1           1           1           1           1           1
 AtZEff=  -0.0000000  -0.0000000  -0.0000000  -0.0000000  -0.0000000  -0.0000000  -0.0000000  -0.0000000  -0.0000000  -0.0000000
 NQMom=    0.0000000   0.0000000   0.0000000   0.0000000   0.0000000   0.0000000   0.0000000   0.0000000   0.0000000   0.0000000
 NMagM=    0.0000000   2.7928460   2.7928460   2.7928460   2.7928460   2.7928460   2.7928460   2.7928460   2.7928460   2.7928460
 AtZNuc=   6.0000000   1.0000000   1.0000000   1.0000000   1.0000000   1.0000000   1.0000000   1.0000000   1.0000000   1.0000000

  Atom        31          32          33          34          35          36          37          38          39          40
 IAtWgt=           1           1           1           1           1           1           1           1           1           1
 AtmWgt=   1.0078250   1.0078250   1.0078250   1.0078250   1.0078250   1.0078250   1.0078250   1.0078250   1.0078250   1.0078250
 NucSpn=           1           1           1           1           1           1           1           1           1           1
 AtZEff=  -0.0000000  -0.0000000  -0.0000000  -0.0000000  -0.0000000  -0.0000000  -0.0000000  -0.0000000  -0.0000000  -0.0000000
 NQMom=    0.0000000   0.0000000   0.0000000   0.0000000   0.0000000   0.0000000   0.0000000   0.0000000   0.0000000   0.0000000
 NMagM=    2.7928460   2.7928460   2.7928460   2.7928460   2.7928460   2.7928460   2.7928460   2.7928460   2.7928460   2.7928460
 AtZNuc=   1.0000000   1.0000000   1.0000000   1.0000000   1.0000000   1.0000000   1.0000000   1.0000000   1.0000000   1.0000000

  Atom        41          42          43          44          45          46          47          48          49          50
 IAtWgt=           1           1           1           1           1           1           1           1           1           1
 AtmWgt=   1.0078250   1.0078250   1.0078250   1.0078250   1.0078250   1.0078250   1.0078250   1.0078250   1.0078250   1.0078250
 NucSpn=           1           1           1           1           1           1           1           1           1           1
 AtZEff=  -0.0000000  -0.0000000  -0.0000000  -0.0000000  -0.0000000  -0.0000000  -0.0000000  -0.0000000  -0.0000000  -0.0000000
 NQMom=    0.0000000   0.0000000   0.0000000   0.0000000   0.0000000   0.0000000   0.0000000   0.0000000   0.0000000   0.0000000
 NMagM=    2.7928460   2.7928460   2.7928460   2.7928460   2.7928460   2.7928460   2.7928460   2.7928460   2.7928460   2.7928460
 AtZNuc=   1.0000000   1.0000000   1.0000000   1.0000000   1.0000000   1.0000000   1.0000000   1.0000000   1.0000000   1.0000000

  Atom        51          52          53          54          55          56          57          58          59
 IAtWgt=           1           1           1           1           1           1           1           1           1
 AtmWgt=   1.0078250   1.0078250   1.0078250   1.0078250   1.0078250   1.0078250   1.0078250   1.0078250   1.0078250
 NucSpn=           1           1           1           1           1           1           1           1           1
 AtZEff=  -0.0000000  -0.0000000  -0.0000000  -0.0000000  -0.0000000  -0.0000000  -0.0000000  -0.0000000  -0.0000000
 NQMom=    0.0000000   0.0000000   0.0000000   0.0000000   0.0000000   0.0000000   0.0000000   0.0000000   0.0000000
 NMagM=    2.7928460   2.7928460   2.7928460   2.7928460   2.7928460   2.7928460   2.7928460   2.7928460   2.7928460
 AtZNuc=   1.0000000   1.0000000   1.0000000   1.0000000   1.0000000   1.0000000   1.0000000   1.0000000   1.0000000
 Leave Link  101 at Mon Oct 14 00:44:17 2019, MaxMem= 10737418240 cpu:               9.2 elap:               0.4
 (Enter /apps/cent7/gaussian/g16-A.03/g16-haswell/g16/l103.exe)

 GradGradGradGradGradGradGradGradGradGradGradGradGradGradGradGradGradGrad
 Berny optimization.
 Initialization pass.
                           ----------------------------
                           !    Initial Parameters    !
                           ! (Angstroms and Degrees)  !
 --------------------------                            --------------------------
 ! Name  Definition              Value          Derivative Info.                !
 --------------------------------------------------------------------------------
 ! R1    R(1,2)                  1.2522         estimate D2E/DX2                !
 ! R2    R(2,3)                  1.3594         estimate D2E/DX2                !
 ! R3    R(2,5)                  1.4758         estimate D2E/DX2                !
 ! R4    R(3,4)                  1.4273         estimate D2E/DX2                !
 ! R5    R(4,22)                 1.09           estimate D2E/DX2                !
 ! R6    R(4,23)                 1.09           estimate D2E/DX2                !
 ! R7    R(4,24)                 1.09           estimate D2E/DX2                !
 ! R8    R(5,6)                  1.5523         estimate D2E/DX2                !
 ! R9    R(5,25)                 1.09           estimate D2E/DX2                !
 ! R10   R(5,26)                 1.0899         estimate D2E/DX2                !
 ! R11   R(6,7)                  1.5498         estimate D2E/DX2                !
 ! R12   R(6,27)                 1.09           estimate D2E/DX2                !
 ! R13   R(6,28)                 1.0899         estimate D2E/DX2                !
 ! R14   R(7,8)                  1.554          estimate D2E/DX2                !
 ! R15   R(7,29)                 1.09           estimate D2E/DX2                !
 ! R16   R(7,30)                 1.09           estimate D2E/DX2                !
 ! R17   R(8,9)                  1.5522         estimate D2E/DX2                !
 ! R18   R(8,31)                 1.09           estimate D2E/DX2                !
 ! R19   R(8,32)                 1.09           estimate D2E/DX2                !
 ! R20   R(9,10)                 1.5519         estimate D2E/DX2                !
 ! R21   R(9,33)                 1.09           estimate D2E/DX2                !
 ! R22   R(9,34)                 1.0901         estimate D2E/DX2                !
 ! R23   R(10,11)                1.5525         estimate D2E/DX2                !
 ! R24   R(10,35)                1.0901         estimate D2E/DX2                !
 ! R25   R(10,36)                1.09           estimate D2E/DX2                !
 ! R26   R(11,12)                1.5517         estimate D2E/DX2                !
 ! R27   R(11,37)                1.09           estimate D2E/DX2                !
 ! R28   R(11,38)                1.0901         estimate D2E/DX2                !
 ! R29   R(12,13)                1.5514         estimate D2E/DX2                !
 ! R30   R(12,39)                1.09           estimate D2E/DX2                !
 ! R31   R(12,40)                1.09           estimate D2E/DX2                !
 ! R32   R(13,14)                1.5527         estimate D2E/DX2                !
 ! R33   R(13,41)                1.09           estimate D2E/DX2                !
 ! R34   R(13,42)                1.0899         estimate D2E/DX2                !
 ! R35   R(14,15)                1.5509         estimate D2E/DX2                !
 ! R36   R(14,43)                1.09           estimate D2E/DX2                !
 ! R37   R(14,44)                1.09           estimate D2E/DX2                !
 ! R38   R(15,16)                1.5499         estimate D2E/DX2                !
 ! R39   R(15,45)                1.09           estimate D2E/DX2                !
 ! R40   R(15,46)                1.09           estimate D2E/DX2                !
 ! R41   R(16,17)                1.5491         estimate D2E/DX2                !
 ! R42   R(16,47)                1.09           estimate D2E/DX2                !
 ! R43   R(16,48)                1.0901         estimate D2E/DX2                !
 ! R44   R(17,18)                1.5492         estimate D2E/DX2                !
 ! R45   R(17,49)                1.09           estimate D2E/DX2                !
 ! R46   R(17,50)                1.0901         estimate D2E/DX2                !
 ! R47   R(18,19)                1.5508         estimate D2E/DX2                !
 ! R48   R(18,51)                1.0899         estimate D2E/DX2                !
 ! R49   R(18,52)                1.0901         estimate D2E/DX2                !
 ! R50   R(19,20)                1.5502         estimate D2E/DX2                !
 ! R51   R(19,53)                1.09           estimate D2E/DX2                !
 ! R52   R(19,54)                1.09           estimate D2E/DX2                !
 ! R53   R(20,21)                1.5445         estimate D2E/DX2                !
 ! R54   R(20,55)                1.09           estimate D2E/DX2                !
 ! R55   R(20,56)                1.09           estimate D2E/DX2                !
 ! R56   R(21,57)                1.0901         estimate D2E/DX2                !
 ! R57   R(21,58)                1.09           estimate D2E/DX2                !
 ! R58   R(21,59)                1.0899         estimate D2E/DX2                !
 ! A1    A(1,2,3)              118.7788         estimate D2E/DX2                !
 ! A2    A(1,2,5)              120.4394         estimate D2E/DX2                !
 ! A3    A(3,2,5)              120.4307         estimate D2E/DX2                !
 ! A4    A(2,3,4)              124.0782         estimate D2E/DX2                !
 ! A5    A(3,4,22)             109.4696         estimate D2E/DX2                !
 ! A6    A(3,4,23)             109.4693         estimate D2E/DX2                !
 ! A7    A(3,4,24)             109.4662         estimate D2E/DX2                !
 ! A8    A(22,4,23)            109.4738         estimate D2E/DX2                !
 ! A9    A(22,4,24)            109.4761         estimate D2E/DX2                !
 ! A10   A(23,4,24)            109.4724         estimate D2E/DX2                !
 ! A11   A(2,5,6)              111.0245         estimate D2E/DX2                !
 ! A12   A(2,5,25)             105.5282         estimate D2E/DX2                !
 ! A13   A(2,5,26)             105.5318         estimate D2E/DX2                !
 ! A14   A(6,5,25)             107.3376         estimate D2E/DX2                !
 ! A15   A(6,5,26)             107.3439         estimate D2E/DX2                !
 ! A16   A(25,5,26)            120.0059         estimate D2E/DX2                !
 ! A17   A(5,6,7)              112.87           estimate D2E/DX2                !
 ! A18   A(5,6,27)             106.0725         estimate D2E/DX2                !
 ! A19   A(5,6,28)             106.0781         estimate D2E/DX2                !
 ! A20   A(7,6,27)             106.0211         estimate D2E/DX2                !
 ! A21   A(7,6,28)             106.0214         estimate D2E/DX2                !
 ! A22   A(27,6,28)            119.9987         estimate D2E/DX2                !
 ! A23   A(6,7,8)              112.7859         estimate D2E/DX2                !
 ! A24   A(6,7,29)             106.0147         estimate D2E/DX2                !
 ! A25   A(6,7,30)             106.0151         estimate D2E/DX2                !
 ! A26   A(8,7,29)             106.1198         estimate D2E/DX2                !
 ! A27   A(8,7,30)             106.1202         estimate D2E/DX2                !
 ! A28   A(29,7,30)            119.9947         estimate D2E/DX2                !
 ! A29   A(7,8,9)              112.0527         estimate D2E/DX2                !
 ! A30   A(7,8,31)             106.2457         estimate D2E/DX2                !
 ! A31   A(7,8,32)             106.2481         estimate D2E/DX2                !
 ! A32   A(9,8,31)             106.2007         estimate D2E/DX2                !
 ! A33   A(9,8,32)             106.2043         estimate D2E/DX2                !
 ! A34   A(31,8,32)            120.0001         estimate D2E/DX2                !
 ! A35   A(8,9,10)             113.1748         estimate D2E/DX2                !
 ! A36   A(8,9,33)             105.9861         estimate D2E/DX2                !
 ! A37   A(8,9,34)             105.9909         estimate D2E/DX2                !
 ! A38   A(10,9,33)            105.9757         estimate D2E/DX2                !
 ! A39   A(10,9,34)            105.9764         estimate D2E/DX2                !
 ! A40   A(33,9,34)            119.9981         estimate D2E/DX2                !
 ! A41   A(9,10,11)            112.67           estimate D2E/DX2                !
 ! A42   A(9,10,35)            106.0822         estimate D2E/DX2                !
 ! A43   A(9,10,36)            106.085          estimate D2E/DX2                !
 ! A44   A(11,10,35)           106.0966         estimate D2E/DX2                !
 ! A45   A(11,10,36)           106.0979         estimate D2E/DX2                !
 ! A46   A(35,10,36)           120.0032         estimate D2E/DX2                !
 ! A47   A(10,11,12)           112.3281         estimate D2E/DX2                !
 ! A48   A(10,11,37)           106.1752         estimate D2E/DX2                !
 ! A49   A(10,11,38)           106.1769         estimate D2E/DX2                !
 ! A50   A(12,11,37)           106.1575         estimate D2E/DX2                !
 ! A51   A(12,11,38)           106.1549         estimate D2E/DX2                !
 ! A52   A(37,11,38)           119.9965         estimate D2E/DX2                !
 ! A53   A(11,12,13)           112.6851         estimate D2E/DX2                !
 ! A54   A(11,12,39)           106.0874         estimate D2E/DX2                !
 ! A55   A(11,12,40)           106.0891         estimate D2E/DX2                !
 ! A56   A(13,12,39)           106.0814         estimate D2E/DX2                !
 ! A57   A(13,12,40)           106.091          estimate D2E/DX2                !
 ! A58   A(39,12,40)           120.0031         estimate D2E/DX2                !
 ! A59   A(12,13,14)           112.3099         estimate D2E/DX2                !
 ! A60   A(12,13,41)           106.1511         estimate D2E/DX2                !
 ! A61   A(12,13,42)           106.1579         estimate D2E/DX2                !
 ! A62   A(14,13,41)           106.181          estimate D2E/DX2                !
 ! A63   A(14,13,42)           106.1862         estimate D2E/DX2                !
 ! A64   A(41,13,42)           120.0005         estimate D2E/DX2                !
 ! A65   A(13,14,15)           112.46           estimate D2E/DX2                !
 ! A66   A(13,14,43)           106.159          estimate D2E/DX2                !
 ! A67   A(13,14,44)           106.1643         estimate D2E/DX2                !
 ! A68   A(15,14,43)           106.1109         estimate D2E/DX2                !
 ! A69   A(15,14,44)           106.1139         estimate D2E/DX2                !
 ! A70   A(43,14,44)           119.9988         estimate D2E/DX2                !
 ! A71   A(14,15,16)           112.3384         estimate D2E/DX2                !
 ! A72   A(14,15,45)           106.17           estimate D2E/DX2                !
 ! A73   A(14,15,46)           106.176          estimate D2E/DX2                !
 ! A74   A(16,15,45)           106.1572         estimate D2E/DX2                !
 ! A75   A(16,15,46)           106.1574         estimate D2E/DX2                !
 ! A76   A(45,15,46)           119.9914         estimate D2E/DX2                !
 ! A77   A(15,16,17)           111.8609         estimate D2E/DX2                !
 ! A78   A(15,16,47)           106.2778         estimate D2E/DX2                !
 ! A79   A(15,16,48)           106.2764         estimate D2E/DX2                !
 ! A80   A(17,16,47)           106.2579         estimate D2E/DX2                !
 ! A81   A(17,16,48)           106.2539         estimate D2E/DX2                !
 ! A82   A(47,16,48)           119.9986         estimate D2E/DX2                !
 ! A83   A(16,17,18)           112.2462         estimate D2E/DX2                !
 ! A84   A(16,17,49)           106.1816         estimate D2E/DX2                !
 ! A85   A(16,17,50)           106.182          estimate D2E/DX2                !
 ! A86   A(18,17,49)           106.1852         estimate D2E/DX2                !
 ! A87   A(18,17,50)           106.1849         estimate D2E/DX2                !
 ! A88   A(49,17,50)           119.9981         estimate D2E/DX2                !
 ! A89   A(17,18,19)           112.1022         estimate D2E/DX2                !
 ! A90   A(17,18,51)           106.2001         estimate D2E/DX2                !
 ! A91   A(17,18,52)           106.1915         estimate D2E/DX2                !
 ! A92   A(19,18,51)           106.2345         estimate D2E/DX2                !
 ! A93   A(19,18,52)           106.2313         estimate D2E/DX2                !
 ! A94   A(51,18,52)           119.9987         estimate D2E/DX2                !
 ! A95   A(18,19,20)           112.4292         estimate D2E/DX2                !
 ! A96   A(18,19,53)           106.1524         estimate D2E/DX2                !
 ! A97   A(18,19,54)           106.1523         estimate D2E/DX2                !
 ! A98   A(20,19,53)           106.1374         estimate D2E/DX2                !
 ! A99   A(20,19,54)           106.1316         estimate D2E/DX2                !
 ! A100  A(53,19,54)           119.9998         estimate D2E/DX2                !
 ! A101  A(19,20,21)           112.4961         estimate D2E/DX2                !
 ! A102  A(19,20,55)           106.1962         estimate D2E/DX2                !
 ! A103  A(19,20,56)           106.1935         estimate D2E/DX2                !
 ! A104  A(21,20,55)           106.0657         estimate D2E/DX2                !
 ! A105  A(21,20,56)           106.0603         estimate D2E/DX2                !
 ! A106  A(55,20,56)           119.9997         estimate D2E/DX2                !
 ! A107  A(20,21,57)           109.4678         estimate D2E/DX2                !
 ! A108  A(20,21,58)           109.469          estimate D2E/DX2                !
 ! A109  A(20,21,59)           109.4727         estimate D2E/DX2                !
 ! A110  A(57,21,58)           109.4678         estimate D2E/DX2                !
 ! A111  A(57,21,59)           109.475          estimate D2E/DX2                !
 ! A112  A(58,21,59)           109.475          estimate D2E/DX2                !
 ! D1    D(1,2,3,4)            101.836          estimate D2E/DX2                !
 ! D2    D(5,2,3,4)            -84.9371         estimate D2E/DX2                !
 ! D3    D(1,2,5,6)             78.6554         estimate D2E/DX2                !
 ! D4    D(1,2,5,25)          -165.359          estimate D2E/DX2                !
 ! D5    D(1,2,5,26)           -37.3396         estimate D2E/DX2                !
 ! D6    D(3,2,5,6)            -94.4585         estimate D2E/DX2                !
 ! D7    D(3,2,5,25)            21.5271         estimate D2E/DX2                !
 ! D8    D(3,2,5,26)           149.5465         estimate D2E/DX2                !
 ! D9    D(2,3,4,22)           -21.6472         estimate D2E/DX2                !
 ! D10   D(2,3,4,23)            98.3537         estimate D2E/DX2                !
 ! D11   D(2,3,4,24)          -141.6491         estimate D2E/DX2                !
 ! D12   D(2,5,6,7)            176.3968         estimate D2E/DX2                !
 ! D13   D(2,5,6,27)           -67.9293         estimate D2E/DX2                !
 ! D14   D(2,5,6,28)            60.7191         estimate D2E/DX2                !
 ! D15   D(25,5,6,7)            61.534          estimate D2E/DX2                !
 ! D16   D(25,5,6,27)          177.2079         estimate D2E/DX2                !
 ! D17   D(25,5,6,28)          -54.1437         estimate D2E/DX2                !
 ! D18   D(26,5,6,7)           -68.7325         estimate D2E/DX2                !
 ! D19   D(26,5,6,27)           46.9414         estimate D2E/DX2                !
 ! D20   D(26,5,6,28)          175.5898         estimate D2E/DX2                !
 ! D21   D(5,6,7,8)            179.8726         estimate D2E/DX2                !
 ! D22   D(5,6,7,29)           -64.4135         estimate D2E/DX2                !
 ! D23   D(5,6,7,30)            64.158          estimate D2E/DX2                !
 ! D24   D(27,6,7,8)            64.168          estimate D2E/DX2                !
 ! D25   D(27,6,7,29)          179.8819         estimate D2E/DX2                !
 ! D26   D(27,6,7,30)          -51.5467         estimate D2E/DX2                !
 ! D27   D(28,6,7,8)           -64.4158         estimate D2E/DX2                !
 ! D28   D(28,6,7,29)           51.2981         estimate D2E/DX2                !
 ! D29   D(28,6,7,30)          179.8696         estimate D2E/DX2                !
 ! D30   D(6,7,8,9)           -178.6845         estimate D2E/DX2                !
 ! D31   D(6,7,8,31)           -63.1161         estimate D2E/DX2                !
 ! D32   D(6,7,8,32)            65.7415         estimate D2E/DX2                !
 ! D33   D(29,7,8,9)            65.6646         estimate D2E/DX2                !
 ! D34   D(29,7,8,31)         -178.767          estimate D2E/DX2                !
 ! D35   D(29,7,8,32)          -49.9095         estimate D2E/DX2                !
 ! D36   D(30,7,8,9)           -63.0328         estimate D2E/DX2                !
 ! D37   D(30,7,8,31)           52.5356         estimate D2E/DX2                !
 ! D38   D(30,7,8,32)         -178.6068         estimate D2E/DX2                !
 ! D39   D(7,8,9,10)           178.9382         estimate D2E/DX2                !
 ! D40   D(7,8,9,33)           -65.3357         estimate D2E/DX2                !
 ! D41   D(7,8,9,34)            63.2084         estimate D2E/DX2                !
 ! D42   D(31,8,9,10)           63.3424         estimate D2E/DX2                !
 ! D43   D(31,8,9,33)          179.0686         estimate D2E/DX2                !
 ! D44   D(31,8,9,34)          -52.3874         estimate D2E/DX2                !
 ! D45   D(32,8,9,10)          -65.4611         estimate D2E/DX2                !
 ! D46   D(32,8,9,33)           50.265          estimate D2E/DX2                !
 ! D47   D(32,8,9,34)          178.8091         estimate D2E/DX2                !
 ! D48   D(8,9,10,11)         -179.4351         estimate D2E/DX2                !
 ! D49   D(8,9,10,35)          -63.7686         estimate D2E/DX2                !
 ! D50   D(8,9,10,36)           64.8952         estimate D2E/DX2                !
 ! D51   D(33,9,10,11)          64.8326         estimate D2E/DX2                !
 ! D52   D(33,9,10,35)        -179.5009         estimate D2E/DX2                !
 ! D53   D(33,9,10,36)         -50.8371         estimate D2E/DX2                !
 ! D54   D(34,9,10,11)         -63.6967         estimate D2E/DX2                !
 ! D55   D(34,9,10,35)          51.9698         estimate D2E/DX2                !
 ! D56   D(34,9,10,36)        -179.3664         estimate D2E/DX2                !
 ! D57   D(9,10,11,12)         179.8303         estimate D2E/DX2                !
 ! D58   D(9,10,11,37)         -64.5522         estimate D2E/DX2                !
 ! D59   D(9,10,11,38)          64.2149         estimate D2E/DX2                !
 ! D60   D(35,10,11,12)         64.1724         estimate D2E/DX2                !
 ! D61   D(35,10,11,37)        179.7899         estimate D2E/DX2                !
 ! D62   D(35,10,11,38)        -51.443          estimate D2E/DX2                !
 ! D63   D(36,10,11,12)        -64.5078         estimate D2E/DX2                !
 ! D64   D(36,10,11,37)         51.1097         estimate D2E/DX2                !
 ! D65   D(36,10,11,38)        179.8768         estimate D2E/DX2                !
 ! D66   D(10,11,12,13)       -179.9988         estimate D2E/DX2                !
 ! D67   D(10,11,12,39)        -64.3396         estimate D2E/DX2                !
 ! D68   D(10,11,12,40)         64.3295         estimate D2E/DX2                !
 ! D69   D(37,11,12,13)         64.373          estimate D2E/DX2                !
 ! D70   D(37,11,12,39)       -179.9678         estimate D2E/DX2                !
 ! D71   D(37,11,12,40)        -51.2986         estimate D2E/DX2                !
 ! D72   D(38,11,12,13)        -64.3701         estimate D2E/DX2                !
 ! D73   D(38,11,12,39)         51.2891         estimate D2E/DX2                !
 ! D74   D(38,11,12,40)        179.9583         estimate D2E/DX2                !
 ! D75   D(11,12,13,14)       -179.9543         estimate D2E/DX2                !
 ! D76   D(11,12,13,41)        -64.3323         estimate D2E/DX2                !
 ! D77   D(11,12,13,42)         64.4136         estimate D2E/DX2                !
 ! D78   D(39,12,13,14)         64.3831         estimate D2E/DX2                !
 ! D79   D(39,12,13,41)       -179.995          estimate D2E/DX2                !
 ! D80   D(39,12,13,42)        -51.2491         estimate D2E/DX2                !
 ! D81   D(40,12,13,14)        -64.2838         estimate D2E/DX2                !
 ! D82   D(40,12,13,41)         51.3382         estimate D2E/DX2                !
 ! D83   D(40,12,13,42)       -179.9159         estimate D2E/DX2                !
 ! D84   D(12,13,14,15)        179.9588         estimate D2E/DX2                !
 ! D85   D(12,13,14,43)        -64.4208         estimate D2E/DX2                !
 ! D86   D(12,13,14,44)         64.3317         estimate D2E/DX2                !
 ! D87   D(41,13,14,15)         64.355          estimate D2E/DX2                !
 ! D88   D(41,13,14,43)        179.9753         estimate D2E/DX2                !
 ! D89   D(41,13,14,44)        -51.2722         estimate D2E/DX2                !
 ! D90   D(42,13,14,15)        -64.4261         estimate D2E/DX2                !
 ! D91   D(42,13,14,43)         51.1942         estimate D2E/DX2                !
 ! D92   D(42,13,14,44)        179.9468         estimate D2E/DX2                !
 ! D93   D(13,14,15,16)       -179.9818         estimate D2E/DX2                !
 ! D94   D(13,14,15,45)        -64.3623         estimate D2E/DX2                !
 ! D95   D(13,14,15,46)         64.395          estimate D2E/DX2                !
 ! D96   D(43,14,15,16)         64.3689         estimate D2E/DX2                !
 ! D97   D(43,14,15,45)        179.9883         estimate D2E/DX2                !
 ! D98   D(43,14,15,46)        -51.2544         estimate D2E/DX2                !
 ! D99   D(44,14,15,16)        -64.3243         estimate D2E/DX2                !
 ! D100  D(44,14,15,45)         51.2952         estimate D2E/DX2                !
 ! D101  D(44,14,15,46)       -179.9475         estimate D2E/DX2                !
 ! D102  D(14,15,16,17)        179.9923         estimate D2E/DX2                !
 ! D103  D(14,15,16,47)        -64.4512         estimate D2E/DX2                !
 ! D104  D(14,15,16,48)         64.4413         estimate D2E/DX2                !
 ! D105  D(45,15,16,17)         64.3651         estimate D2E/DX2                !
 ! D106  D(45,15,16,47)        179.9217         estimate D2E/DX2                !
 ! D107  D(45,15,16,48)        -51.1858         estimate D2E/DX2                !
 ! D108  D(46,15,16,17)        -64.3732         estimate D2E/DX2                !
 ! D109  D(46,15,16,47)         51.1833         estimate D2E/DX2                !
 ! D110  D(46,15,16,48)       -179.9242         estimate D2E/DX2                !
 ! D111  D(15,16,17,18)        179.9988         estimate D2E/DX2                !
 ! D112  D(15,16,17,49)        -64.3891         estimate D2E/DX2                !
 ! D113  D(15,16,17,50)         64.3869         estimate D2E/DX2                !
 ! D114  D(47,16,17,18)         64.4301         estimate D2E/DX2                !
 ! D115  D(47,16,17,49)       -179.9578         estimate D2E/DX2                !
 ! D116  D(47,16,17,50)        -51.1817         estimate D2E/DX2                !
 ! D117  D(48,16,17,18)        -64.4364         estimate D2E/DX2                !
 ! D118  D(48,16,17,49)         51.1756         estimate D2E/DX2                !
 ! D119  D(48,16,17,50)        179.9517         estimate D2E/DX2                !
 ! D120  D(16,17,18,19)        179.9986         estimate D2E/DX2                !
 ! D121  D(16,17,18,51)        -64.3938         estimate D2E/DX2                !
 ! D122  D(16,17,18,52)         64.3999         estimate D2E/DX2                !
 ! D123  D(49,17,18,19)         64.3887         estimate D2E/DX2                !
 ! D124  D(49,17,18,51)        179.9963         estimate D2E/DX2                !
 ! D125  D(49,17,18,52)        -51.21           estimate D2E/DX2                !
 ! D126  D(50,17,18,19)        -64.3912         estimate D2E/DX2                !
 ! D127  D(50,17,18,51)         51.2163         estimate D2E/DX2                !
 ! D128  D(50,17,18,52)       -179.9899         estimate D2E/DX2                !
 ! D129  D(17,18,19,20)        179.9998         estimate D2E/DX2                !
 ! D130  D(17,18,19,53)        -64.3678         estimate D2E/DX2                !
 ! D131  D(17,18,19,54)         64.3746         estimate D2E/DX2                !
 ! D132  D(51,18,19,20)         64.4131         estimate D2E/DX2                !
 ! D133  D(51,18,19,53)       -179.9545         estimate D2E/DX2                !
 ! D134  D(51,18,19,54)        -51.2121         estimate D2E/DX2                !
 ! D135  D(52,18,19,20)        -64.4257         estimate D2E/DX2                !
 ! D136  D(52,18,19,53)         51.2067         estimate D2E/DX2                !
 ! D137  D(52,18,19,54)        179.9491         estimate D2E/DX2                !
 ! D138  D(18,19,20,21)       -180.0            estimate D2E/DX2                !
 ! D139  D(18,19,20,55)        -64.3928         estimate D2E/DX2                !
 ! D140  D(18,19,20,56)         64.4009         estimate D2E/DX2                !
 ! D141  D(53,19,20,21)         64.3586         estimate D2E/DX2                !
 ! D142  D(53,19,20,55)        179.9658         estimate D2E/DX2                !
 ! D143  D(53,19,20,56)        -51.2405         estimate D2E/DX2                !
 ! D144  D(54,19,20,21)        -64.3623         estimate D2E/DX2                !
 ! D145  D(54,19,20,55)         51.2449         estimate D2E/DX2                !
 ! D146  D(54,19,20,56)       -179.9614         estimate D2E/DX2                !
 ! D147  D(19,20,21,57)        107.2251         estimate D2E/DX2                !
 ! D148  D(19,20,21,58)       -132.7825         estimate D2E/DX2                !
 ! D149  D(19,20,21,59)        -12.7783         estimate D2E/DX2                !
 ! D150  D(55,20,21,57)         -8.4606         estimate D2E/DX2                !
 ! D151  D(55,20,21,58)        111.5318         estimate D2E/DX2                !
 ! D152  D(55,20,21,59)       -128.4641         estimate D2E/DX2                !
 ! D153  D(56,20,21,57)       -137.0956         estimate D2E/DX2                !
 ! D154  D(56,20,21,58)        -17.1032         estimate D2E/DX2                !
 ! D155  D(56,20,21,59)        102.901          estimate D2E/DX2                !
 --------------------------------------------------------------------------------
 Trust Radius=3.00D-01 FncErr=1.00D-07 GrdErr=1.00D-06 EigMax=2.50D+02 EigMin=1.00D-04
 Number of steps in this run=    335 maximum allowed number of steps=    354.
 GradGradGradGradGradGradGradGradGradGradGradGradGradGradGradGradGradGrad

 Leave Link  103 at Mon Oct 14 00:44:17 2019, MaxMem= 10737418240 cpu:               0.4 elap:               0.0
 (Enter /apps/cent7/gaussian/g16-A.03/g16-haswell/g16/l202.exe)
 Stoichiometry    C19H38O2
 Framework group  C1[X(C19H38O2)]
 Deg. of freedom   171
 Full point group                 C1      NOp   1
 Largest Abelian subgroup         C1      NOp   1
 Largest concise Abelian subgroup C1      NOp   1
                         Standard orientation:                         
 ---------------------------------------------------------------------
 Center     Atomic      Atomic             Coordinates (Angstroms)
 Number     Number       Type             X           Y           Z
 ---------------------------------------------------------------------
      1          8           0       -9.729069   -1.560536   -0.036981
      2          6           0       -9.332496   -0.372792   -0.027579
      3          8           0       -9.968233    0.535700   -0.814034
      4          6           0      -10.923351    1.480796   -0.332623
      5          6           0       -8.106972    0.000493    0.705024
      6          6           0       -6.837367   -0.378622   -0.103745
      7          6           0       -5.525863    0.074879    0.586378
      8          6           0       -4.256037   -0.308389   -0.223328
      9          6           0       -2.951884    0.124528    0.498503
     10          6           0       -1.665767   -0.269207   -0.275705
     11          6           0       -0.368525    0.156799    0.463163
     12          6           0        0.912270   -0.244342   -0.315594
     13          6           0        2.213906    0.177546    0.415634
     14          6           0        3.489748   -0.226936   -0.371488
     15          6           0        4.793152    0.194122    0.355997
     16          6           0        6.064779   -0.210538   -0.432260
     17          6           0        7.359574    0.215254    0.303819
     18          6           0        8.636576   -0.185072   -0.476607
     19          6           0        9.930656    0.242744    0.263142
     20          6           0       11.213464   -0.154274   -0.511404
     21          6           0       12.503284    0.271100    0.224012
     22          1           0      -11.338050    1.129160    0.612058
     23          1           0      -10.436218    2.443809   -0.179590
     24          1           0      -11.725075    1.591105   -1.062826
     25          1           0       -8.131631    1.087640    0.780176
     26          1           0       -8.110326   -0.608578    1.608910
     27          1           0       -6.806003   -1.467997   -0.123068
     28          1           0       -6.895491    0.181518   -1.036933
     29          1           0       -5.556346    1.164312    0.603725
     30          1           0       -5.469027   -0.483620    1.520731
     31          1           0       -4.235600   -1.397579   -0.260978
     32          1           0       -4.298006    0.268202   -1.147413
     33          1           0       -2.967806    1.214233    0.519246
     34          1           0       -2.924317   -0.437990    1.431801
     35          1           0       -1.652784   -1.358783   -0.305321
     36          1           0       -1.685801    0.301068   -1.204360
     37          1           0       -0.378331    1.246421    0.490156
     38          1           0       -0.348320   -0.411233    1.393327
     39          1           0        0.920629   -1.334018   -0.342404
     40          1           0        0.890601    0.323596   -1.245665
     41          1           0        2.206664    1.267143    0.443162
     42          1           0        2.237442   -0.390950    1.345275
     43          1           0        3.496868   -1.316581   -0.398415
     44          1           0        3.465358    0.341067   -1.301525
     45          1           0        4.787121    1.283767    0.383278
     46          1           0        4.819043   -0.374044    1.285828
     47          1           0        6.073513   -1.300120   -0.459518
     48          1           0        6.041540    0.357738   -1.362191
     49          1           0        7.349198    1.304849    0.331043
     50          1           0        7.381188   -0.352967    1.233805
     51          1           0        8.647229   -1.274590   -0.503918
     52          1           0        8.615163    0.383241   -1.406562
     53          1           0        9.918233    1.332338    0.290415
     54          1           0        9.950299   -0.325493    1.193059
     55          1           0       11.227167   -1.243825   -0.538713
     56          1           0       11.195193    0.414032   -1.441386
     57          1           0       12.990654   -0.609916    0.641800
     58          1           0       13.177685    0.760373   -0.478809
     59          1           0       12.251876    0.962830    1.027888
 ---------------------------------------------------------------------
 Rotational constants (GHZ):           2.4839437           0.0299721           0.0298998
 Leave Link  202 at Mon Oct 14 00:44:17 2019, MaxMem= 10737418240 cpu:               0.8 elap:               0.1
 (Enter /apps/cent7/gaussian/g16-A.03/g16-haswell/g16/l301.exe)
 Standard basis: 6-31G(d) (6D, 7F)
 Ernie: Thresh=  0.10000D-02 Tol=  0.10000D-05 Strict=F.
 There are   391 symmetry adapted cartesian basis functions of A   symmetry.
 There are   391 symmetry adapted basis functions of A   symmetry.
   391 basis functions,   740 primitive gaussians,   391 cartesian basis functions
    84 alpha electrons       84 beta electrons
       nuclear repulsion energy      1455.1176438237 Hartrees.
 IExCor=  402 DFT=T Ex+Corr=B3LYP ExCW=0 ScaHFX=  0.200000
 ScaDFX=  0.800000  0.720000  1.000000  0.810000 ScalE2=  1.000000  1.000000
 IRadAn=      5 IRanWt=     -1 IRanGd=            0 ICorTp=0 IEmpDi=  4
 NAtoms=   59 NActive=   59 NUniq=   59 SFac= 1.00D+00 NAtFMM=   60 NAOKFM=F Big=F
 Integral buffers will be    131072 words long.
 Raffenetti 2 integral format.
 Two-electron integral symmetry is turned on.
 Leave Link  301 at Mon Oct 14 00:44:17 2019, MaxMem= 10737418240 cpu:               1.4 elap:               0.1
 (Enter /apps/cent7/gaussian/g16-A.03/g16-haswell/g16/l302.exe)
 NPDir=0 NMtPBC=     1 NCelOv=     1 NCel=       1 NClECP=     1 NCelD=      1
         NCelK=      1 NCelE2=     1 NClLst=     1 CellRange=     0.0.
 One-electron integrals computed using PRISM.
 One-electron integral symmetry used in STVInt
 NBasis=   391 RedAO= T EigKep=  2.38D-03  NBF=   391
 NBsUse=   391 1.00D-06 EigRej= -1.00D+00 NBFU=   391
 Precomputing XC quadrature grid using
 IXCGrd= 4 IRadAn=           5 IRanWt=          -1 IRanGd=           0 AccXCQ= 0.00D+00.
 Generated NRdTot=       0 NPtTot=           0 NUsed=           0 NTot=          32
 NSgBfM=   323   323   323   323   323 MxSgAt=    59 MxSgA2=    59.
 Leave Link  302 at Mon Oct 14 00:44:18 2019, MaxMem= 10737418240 cpu:               9.2 elap:               0.4
 (Enter /apps/cent7/gaussian/g16-A.03/g16-haswell/g16/l303.exe)
 DipDrv:  MaxL=1.
 Leave Link  303 at Mon Oct 14 00:44:18 2019, MaxMem= 10737418240 cpu:               1.5 elap:               0.1
 (Enter /apps/cent7/gaussian/g16-A.03/g16-haswell/g16/l401.exe)
 ExpMin= 1.61D-01 ExpMax= 5.48D+03 ExpMxC= 8.25D+02 IAcc=3 IRadAn=         5 AccDes= 0.00D+00
 Harris functional with IExCor=  402 and IRadAn=       5 diagonalized for initial guess.
 HarFok:  IExCor=  402 AccDes= 0.00D+00 IRadAn=         5 IDoV= 1 UseB2=F ITyADJ=14
 ICtDFT=  3500011 ScaDFX=  1.000000  1.000000  1.000000  1.000000
 FoFCou: FMM=F IPFlag=           0 FMFlag=      100000 FMFlg1=           0
         NFxFlg=           0 DoJE=T BraDBF=F KetDBF=T FulRan=T
         wScrn=  0.000000 ICntrl=       500 IOpCl=  0 I1Cent=   200000004 NGrid=           0
         NMat0=    1 NMatS0=      1 NMatT0=    0 NMatD0=    1 NMtDS0=    0 NMtDT0=    0
 Petite list used in FoFCou.
 Harris En= -897.478458888716    
 JPrj=0 DoOrth=F DoCkMO=F.
 Leave Link  401 at Mon Oct 14 00:44:19 2019, MaxMem= 10737418240 cpu:              20.5 elap:               0.9
 (Enter /apps/cent7/gaussian/g16-A.03/g16-haswell/g16/l502.exe)
 Integral symmetry usage will be decided dynamically.
 Closed shell SCF:
 Using DIIS extrapolation, IDIIS=  1040.
 NGot= 10737418240 LenX= 10737098196 LenY= 10736944874
 Requested convergence on RMS density matrix=1.00D-08 within 128 cycles.
 Requested convergence on MAX density matrix=1.00D-06.
 Requested convergence on             energy=1.00D-06.
 No special actions if energy rises.
 Fock matrices will be formed incrementally for  20 cycles.
 Integral accuracy reduced to 1.0D-05 until final iterations.

 Cycle   1  Pass 0  IDiag  1:
 FoFJK:  IHMeth= 1 ICntrl=       0 DoSepK=F KAlg= 0 I1Cent=           0 FoldK=F
 IRaf= 500000000 NMat=       1 IRICut=       1 DoRegI=T DoRafI=F ISym2E= 0 IDoP0=0 IntGTp=1.
 FoFCou: FMM=F IPFlag=           0 FMFlag=      100000 FMFlg1=           0
         NFxFlg=           0 DoJE=F BraDBF=F KetDBF=F FulRan=T
         wScrn=  0.000000 ICntrl=         0 IOpCl=  0 I1Cent=           0 NGrid=           0
         NMat0=    1 NMatS0=      1 NMatT0=    0 NMatD0=    1 NMtDS0=    0 NMtDT0=    0
 Symmetry not used in FoFCou.
 E= -896.509464367259    
 DIIS: error= 4.58D-02 at cycle   1 NSaved=   1.
 NSaved= 1 IEnMin= 1 EnMin= -896.509464367259     IErMin= 1 ErrMin= 4.58D-02
 ErrMax= 4.58D-02  0.00D+00 EMaxC= 1.00D-01 BMatC= 7.27D-01 BMatP= 7.27D-01
 IDIUse=3 WtCom= 5.42D-01 WtEn= 4.58D-01
 Coeff-Com:  0.100D+01
 Coeff-En:   0.100D+01
 Coeff:      0.100D+01
 Gap=     0.185 Goal=   None    Shift=    0.000
 GapD=    0.185 DampG=1.000 DampE=0.500 DampFc=0.5000 IDamp=-1.
 Damping current iteration by 5.00D-01
 RMSDP=5.23D-03 MaxDP=1.89D-01              OVMax= 2.09D-01

 Cycle   2  Pass 0  IDiag  1:
 RMSU=  2.58D-03    CP:  9.73D-01
 E= -896.837330752046     Delta-E=       -0.327866384787 Rises=F Damp=T
 DIIS: error= 1.06D-02 at cycle   2 NSaved=   2.
 NSaved= 2 IEnMin= 2 EnMin= -896.837330752046     IErMin= 2 ErrMin= 1.06D-02
 ErrMax= 1.06D-02  0.00D+00 EMaxC= 1.00D-01 BMatC= 5.58D-02 BMatP= 7.27D-01
 IDIUse=3 WtCom= 8.94D-01 WtEn= 1.06D-01
 Coeff-Com:  0.116D+00 0.884D+00
 Coeff-En:   0.162D+00 0.838D+00
 Coeff:      0.121D+00 0.879D+00
 Gap=     0.229 Goal=   None    Shift=    0.000
 RMSDP=1.10D-03 MaxDP=7.95D-02 DE=-3.28D-01 OVMax= 1.63D-01

 Cycle   3  Pass 0  IDiag  1:
 RMSU=  1.06D-03    CP:  9.69D-01  8.88D-01
 E= -897.223689800776     Delta-E=       -0.386359048731 Rises=F Damp=F
 DIIS: error= 1.66D-02 at cycle   3 NSaved=   3.
 NSaved= 3 IEnMin= 3 EnMin= -897.223689800776     IErMin= 2 ErrMin= 1.06D-02
 ErrMax= 1.66D-02  0.00D+00 EMaxC= 1.00D-01 BMatC= 8.45D-02 BMatP= 5.58D-02
 IDIUse=2 WtCom= 0.00D+00 WtEn= 1.00D+00
 Coeff-En:   0.000D+00 0.000D+00 0.100D+01
 Coeff:      0.000D+00 0.000D+00 0.100D+01
 Gap=     0.297 Goal=   None    Shift=    0.000
 RMSDP=2.19D-03 MaxDP=1.91D-01 DE=-3.86D-01 OVMax= 3.83D-01

 Cycle   4  Pass 0  IDiag  1:
 RMSU=  1.19D-03    CP:  9.76D-01  1.03D+00 -6.88D-01
 E= -896.831798104927     Delta-E=        0.391891695850 Rises=F Damp=F
 DIIS: error= 4.72D-02 at cycle   4 NSaved=   4.
 NSaved= 4 IEnMin= 3 EnMin= -897.223689800776     IErMin= 2 ErrMin= 1.06D-02
 ErrMax= 4.72D-02  0.00D+00 EMaxC= 1.00D-01 BMatC= 5.72D-01 BMatP= 5.58D-02
 IDIUse=2 WtCom= 0.00D+00 WtEn= 1.00D+00
 Coeff-En:   0.000D+00 0.000D+00 0.813D+00 0.187D+00
 Coeff:      0.000D+00 0.000D+00 0.813D+00 0.187D+00
 Gap=     0.194 Goal=   None    Shift=    0.000
 RMSDP=1.25D-03 MaxDP=9.32D-02 DE= 3.92D-01 OVMax= 1.37D-01

 Cycle   5  Pass 0  IDiag  1:
 RMSU=  2.36D-04    CP:  9.74D-01  9.05D-01  2.13D-01  4.23D-01
 E= -897.254165246492     Delta-E=       -0.422367141565 Rises=F Damp=F
 DIIS: error= 1.27D-02 at cycle   5 NSaved=   5.
 NSaved= 5 IEnMin= 5 EnMin= -897.254165246492     IErMin= 2 ErrMin= 1.06D-02
 ErrMax= 1.27D-02  0.00D+00 EMaxC= 1.00D-01 BMatC= 4.89D-02 BMatP= 5.58D-02
 IDIUse=3 WtCom= 8.73D-01 WtEn= 1.27D-01
 Coeff-Com: -0.937D-03 0.175D-01 0.336D+00-0.933D-01 0.740D+00
 Coeff-En:   0.000D+00 0.000D+00 0.394D+00 0.000D+00 0.606D+00
 Coeff:     -0.817D-03 0.153D-01 0.344D+00-0.814D-01 0.723D+00
 Gap=     0.236 Goal=   None    Shift=    0.000
 RMSDP=4.31D-04 MaxDP=4.16D-02 DE=-4.22D-01 OVMax= 6.04D-02

 Cycle   6  Pass 0  IDiag  1:
 RMSU=  3.95D-05    CP:  9.72D-01  8.91D-01  5.48D-01  2.31D-01  7.69D-01
 E= -897.292353129654     Delta-E=       -0.038187883162 Rises=F Damp=F
 DIIS: error= 3.11D-04 at cycle   6 NSaved=   6.
 NSaved= 6 IEnMin= 6 EnMin= -897.292353129654     IErMin= 6 ErrMin= 3.11D-04
 ErrMax= 3.11D-04  0.00D+00 EMaxC= 1.00D-01 BMatC= 3.55D-05 BMatP= 4.89D-02
 IDIUse=3 WtCom= 9.97D-01 WtEn= 3.11D-03
 Coeff-Com: -0.757D-03 0.398D-02 0.105D+00-0.382D-01 0.259D+00 0.671D+00
 Coeff-En:   0.000D+00 0.000D+00 0.000D+00 0.000D+00 0.000D+00 0.100D+01
 Coeff:     -0.755D-03 0.396D-02 0.105D+00-0.381D-01 0.258D+00 0.672D+00
 Gap=     0.237 Goal=   None    Shift=    0.000
 RMSDP=2.02D-05 MaxDP=1.35D-03 DE=-3.82D-02 OVMax= 1.43D-03

 Cycle   7  Pass 0  IDiag  1:
 RMSU=  1.38D-05    CP:  9.72D-01  8.91D-01  5.47D-01  2.32D-01  7.74D-01
                    CP:  6.36D-01
 E= -897.292370674265     Delta-E=       -0.000017544610 Rises=F Damp=F
 DIIS: error= 2.04D-04 at cycle   7 NSaved=   7.
 NSaved= 7 IEnMin= 7 EnMin= -897.292370674265     IErMin= 7 ErrMin= 2.04D-04
 ErrMax= 2.04D-04  0.00D+00 EMaxC= 1.00D-01 BMatC= 1.65D-05 BMatP= 3.55D-05
 IDIUse=3 WtCom= 9.98D-01 WtEn= 2.04D-03
 Coeff-Com:  0.337D-03-0.155D-02 0.169D-01-0.544D-02 0.321D-01 0.341D+00
 Coeff-Com:  0.616D+00
 Coeff-En:   0.000D+00 0.000D+00 0.000D+00 0.000D+00 0.000D+00 0.244D+00
 Coeff-En:   0.756D+00
 Coeff:      0.336D-03-0.155D-02 0.168D-01-0.543D-02 0.320D-01 0.341D+00
 Coeff:      0.617D+00
 Gap=     0.238 Goal=   None    Shift=    0.000
 RMSDP=8.69D-06 MaxDP=6.21D-04 DE=-1.75D-05 OVMax= 8.24D-04

 Initial convergence to 1.0D-05 achieved.  Increase integral accuracy.
 Cycle   8  Pass 1  IDiag  1:
 E= -897.292215664307     Delta-E=        0.000155009958 Rises=F Damp=F
 DIIS: error= 3.67D-05 at cycle   1 NSaved=   1.
 NSaved= 1 IEnMin= 1 EnMin= -897.292215664307     IErMin= 1 ErrMin= 3.67D-05
 ErrMax= 3.67D-05  0.00D+00 EMaxC= 1.00D-01 BMatC= 5.66D-07 BMatP= 5.66D-07
 IDIUse=1 WtCom= 1.00D+00 WtEn= 0.00D+00
 Coeff-Com:  0.100D+01
 Coeff:      0.100D+01
 Gap=     0.238 Goal=   None    Shift=    0.000
 RMSDP=8.69D-06 MaxDP=6.21D-04 DE= 1.55D-04 OVMax= 4.12D-04

 Cycle   9  Pass 1  IDiag  1:
 RMSU=  5.20D-06    CP:  1.00D+00
 E= -897.292214998360     Delta-E=        0.000000665947 Rises=F Damp=F
 DIIS: error= 6.18D-05 at cycle   2 NSaved=   2.
 NSaved= 2 IEnMin= 1 EnMin= -897.292215664307     IErMin= 1 ErrMin= 3.67D-05
 ErrMax= 6.18D-05  0.00D+00 EMaxC= 1.00D-01 BMatC= 1.50D-06 BMatP= 5.66D-07
 IDIUse=1 WtCom= 1.00D+00 WtEn= 0.00D+00
 Coeff-Com:  0.627D+00 0.373D+00
 Coeff:      0.627D+00 0.373D+00
 Gap=     0.238 Goal=   None    Shift=    0.000
 RMSDP=2.76D-06 MaxDP=2.08D-04 DE= 6.66D-07 OVMax= 3.39D-04

 Cycle  10  Pass 1  IDiag  1:
 RMSU=  1.94D-06    CP:  1.00D+00  6.22D-01
 E= -897.292216071704     Delta-E=       -0.000001073343 Rises=F Damp=F
 DIIS: error= 1.45D-05 at cycle   3 NSaved=   3.
 NSaved= 3 IEnMin= 3 EnMin= -897.292216071704     IErMin= 3 ErrMin= 1.45D-05
 ErrMax= 1.45D-05  0.00D+00 EMaxC= 1.00D-01 BMatC= 6.15D-08 BMatP= 5.66D-07
 IDIUse=1 WtCom= 1.00D+00 WtEn= 0.00D+00
 Coeff-Com:  0.267D+00 0.211D+00 0.522D+00
 Coeff:      0.267D+00 0.211D+00 0.522D+00
 Gap=     0.238 Goal=   None    Shift=    0.000
 RMSDP=7.16D-07 MaxDP=6.07D-05 DE=-1.07D-06 OVMax= 9.63D-05

 Cycle  11  Pass 1  IDiag  1:
 RMSU=  5.75D-07    CP:  1.00D+00  6.56D-01  8.00D-01
 E= -897.292216113011     Delta-E=       -0.000000041307 Rises=F Damp=F
 DIIS: error= 5.15D-06 at cycle   4 NSaved=   4.
 NSaved= 4 IEnMin= 4 EnMin= -897.292216113011     IErMin= 4 ErrMin= 5.15D-06
 ErrMax= 5.15D-06  0.00D+00 EMaxC= 1.00D-01 BMatC= 1.30D-08 BMatP= 6.15D-08
 IDIUse=1 WtCom= 1.00D+00 WtEn= 0.00D+00
 Coeff-Com:  0.452D-01 0.578D-01 0.343D+00 0.554D+00
 Coeff:      0.452D-01 0.578D-01 0.343D+00 0.554D+00
 Gap=     0.238 Goal=   None    Shift=    0.000
 RMSDP=2.40D-07 MaxDP=2.22D-05 DE=-4.13D-08 OVMax= 2.71D-05

 Cycle  12  Pass 1  IDiag  1:
 RMSU=  1.48D-07    CP:  1.00D+00  6.55D-01  8.35D-01  6.94D-01
 E= -897.292216122650     Delta-E=       -0.000000009639 Rises=F Damp=F
 DIIS: error= 1.47D-06 at cycle   5 NSaved=   5.
 NSaved= 5 IEnMin= 5 EnMin= -897.292216122650     IErMin= 5 ErrMin= 1.47D-06
 ErrMax= 1.47D-06  0.00D+00 EMaxC= 1.00D-01 BMatC= 6.80D-10 BMatP= 1.30D-08
 IDIUse=1 WtCom= 1.00D+00 WtEn= 0.00D+00
 Coeff-Com:  0.831D-03 0.118D-01 0.143D+00 0.285D+00 0.560D+00
 Coeff:      0.831D-03 0.118D-01 0.143D+00 0.285D+00 0.560D+00
 Gap=     0.238 Goal=   None    Shift=    0.000
 RMSDP=6.75D-08 MaxDP=4.16D-06 DE=-9.64D-09 OVMax= 4.59D-06

 Cycle  13  Pass 1  IDiag  1:
 RMSU=  3.01D-08    CP:  1.00D+00  6.56D-01  8.43D-01  6.83D-01  6.06D-01
 E= -897.292216123190     Delta-E=       -0.000000000539 Rises=F Damp=F
 DIIS: error= 1.83D-07 at cycle   6 NSaved=   6.
 NSaved= 6 IEnMin= 6 EnMin= -897.292216123190     IErMin= 6 ErrMin= 1.83D-07
 ErrMax= 1.83D-07  0.00D+00 EMaxC= 1.00D-01 BMatC= 2.33D-11 BMatP= 6.80D-10
 IDIUse=1 WtCom= 1.00D+00 WtEn= 0.00D+00
 Coeff-Com: -0.115D-02 0.369D-02 0.583D-01 0.118D+00 0.275D+00 0.546D+00
 Coeff:     -0.115D-02 0.369D-02 0.583D-01 0.118D+00 0.275D+00 0.546D+00
 Gap=     0.238 Goal=   None    Shift=    0.000
 RMSDP=1.37D-08 MaxDP=6.31D-07 DE=-5.39D-10 OVMax= 7.10D-07

 Cycle  14  Pass 1  IDiag  1:
 RMSU=  7.58D-09    CP:  1.00D+00  6.56D-01  8.44D-01  6.83D-01  6.08D-01
                    CP:  6.24D-01
 E= -897.292216123200     Delta-E=       -0.000000000011 Rises=F Damp=F
 DIIS: error= 3.71D-08 at cycle   7 NSaved=   7.
 NSaved= 7 IEnMin= 7 EnMin= -897.292216123200     IErMin= 7 ErrMin= 3.71D-08
 ErrMax= 3.71D-08  0.00D+00 EMaxC= 1.00D-01 BMatC= 7.13D-13 BMatP= 2.33D-11
 IDIUse=1 WtCom= 1.00D+00 WtEn= 0.00D+00
 Coeff-Com: -0.495D-03 0.942D-03 0.175D-01 0.343D-01 0.866D-01 0.220D+00
 Coeff-Com:  0.641D+00
 Coeff:     -0.495D-03 0.942D-03 0.175D-01 0.343D-01 0.866D-01 0.220D+00
 Coeff:      0.641D+00
 Gap=     0.238 Goal=   None    Shift=    0.000
 RMSDP=2.74D-09 MaxDP=1.19D-07 DE=-1.09D-11 OVMax= 1.56D-07

 SCF Done:  E(RB3LYP) =  -897.292216123     A.U. after   14 cycles
            NFock= 14  Conv=0.27D-08     -V/T= 2.0096
 KE= 8.887961925177D+02 PE=-4.990335776377D+03 EE= 1.749129723913D+03
 Leave Link  502 at Mon Oct 14 00:44:31 2019, MaxMem= 10737418240 cpu:             283.6 elap:              11.9
 (Enter /apps/cent7/gaussian/g16-A.03/g16-haswell/g16/l601.exe)
 Copying SCF densities to generalized density rwf, IOpCl= 0 IROHF=0.

 **********************************************************************

            Population analysis using the SCF density.

 **********************************************************************

 Orbital symmetries:
       Occupied  (A) (A) (A) (A) (A) (A) (A) (A) (A) (A) (A) (A)
                 (A) (A) (A) (A) (A) (A) (A) (A) (A) (A) (A) (A)
                 (A) (A) (A) (A) (A) (A) (A) (A) (A) (A) (A) (A)
                 (A) (A) (A) (A) (A) (A) (A) (A) (A) (A) (A) (A)
                 (A) (A) (A) (A) (A) (A) (A) (A) (A) (A) (A) (A)
                 (A) (A) (A) (A) (A) (A) (A) (A) (A) (A) (A) (A)
                 (A) (A) (A) (A) (A) (A) (A) (A) (A) (A) (A) (A)
       Virtual   (A) (A) (A) (A) (A) (A) (A) (A) (A) (A) (A) (A)
                 (A) (A) (A) (A) (A) (A) (A) (A) (A) (A) (A) (A)
                 (A) (A) (A) (A) (A) (A) (A) (A) (A) (A) (A) (A)
                 (A) (A) (A) (A) (A) (A) (A) (A) (A) (A) (A) (A)
                 (A) (A) (A) (A) (A) (A) (A) (A) (A) (A) (A) (A)
                 (A) (A) (A) (A) (A) (A) (A) (A) (A) (A) (A) (A)
                 (A) (A) (A) (A) (A) (A) (A) (A) (A) (A) (A) (A)
                 (A) (A) (A) (A) (A) (A) (A) (A) (A) (A) (A) (A)
                 (A) (A) (A) (A) (A) (A) (A) (A) (A) (A) (A) (A)
                 (A) (A) (A) (A) (A) (A) (A) (A) (A) (A) (A) (A)
                 (A) (A) (A) (A) (A) (A) (A) (A) (A) (A) (A) (A)
                 (A) (A) (A) (A) (A) (A) (A) (A) (A) (A) (A) (A)
                 (A) (A) (A) (A) (A) (A) (A) (A) (A) (A) (A) (A)
                 (A) (A) (A) (A) (A) (A) (A) (A) (A) (A) (A) (A)
                 (A) (A) (A) (A) (A) (A) (A) (A) (A) (A) (A) (A)
                 (A) (A) (A) (A) (A) (A) (A) (A) (A) (A) (A) (A)
                 (A) (A) (A) (A) (A) (A) (A) (A) (A) (A) (A) (A)
                 (A) (A) (A) (A) (A) (A) (A) (A) (A) (A) (A) (A)
                 (A) (A) (A) (A) (A) (A) (A) (A) (A) (A) (A) (A)
                 (A) (A) (A) (A) (A) (A) (A) (A) (A) (A) (A) (A)
                 (A) (A) (A) (A) (A) (A) (A) (A) (A) (A) (A) (A)
                 (A) (A) (A) (A) (A) (A) (A) (A) (A) (A) (A) (A)
                 (A) (A) (A) (A) (A) (A) (A) (A) (A) (A) (A) (A)
                 (A) (A) (A) (A) (A) (A) (A) (A) (A) (A) (A) (A)
                 (A) (A) (A) (A) (A) (A) (A) (A) (A) (A) (A) (A)
                 (A) (A) (A) (A) (A) (A) (A)
 The electronic state is 1-A.
 Alpha  occ. eigenvalues --  -19.16869 -19.12602 -10.31079 -10.25018 -10.19617
 Alpha  occ. eigenvalues --  -10.19124 -10.18280 -10.17888 -10.17622 -10.17439
 Alpha  occ. eigenvalues --  -10.17347 -10.17241 -10.17195 -10.17186 -10.17142
 Alpha  occ. eigenvalues --  -10.17101 -10.17088 -10.17076 -10.17055 -10.17025
 Alpha  occ. eigenvalues --  -10.16500  -1.07763  -0.98883  -0.81556  -0.80794
 Alpha  occ. eigenvalues --   -0.79946  -0.78690  -0.77106  -0.75192  -0.73280
 Alpha  occ. eigenvalues --   -0.72049  -0.69909  -0.67157  -0.64192  -0.61243
 Alpha  occ. eigenvalues --   -0.58608  -0.56849  -0.56231  -0.55915  -0.55864
 Alpha  occ. eigenvalues --   -0.55424  -0.55343  -0.51118  -0.50495  -0.49685
 Alpha  occ. eigenvalues --   -0.48633  -0.48452  -0.47563  -0.47310  -0.46285
 Alpha  occ. eigenvalues --   -0.44958  -0.43348  -0.42152  -0.41811  -0.41564
 Alpha  occ. eigenvalues --   -0.41129  -0.40305  -0.39813  -0.39495  -0.38761
 Alpha  occ. eigenvalues --   -0.37906  -0.37622  -0.36695  -0.36419  -0.35848
 Alpha  occ. eigenvalues --   -0.35256  -0.34672  -0.34495  -0.33967  -0.33638
 Alpha  occ. eigenvalues --   -0.33485  -0.33321  -0.33053  -0.32918  -0.31606
 Alpha  occ. eigenvalues --   -0.31057  -0.30496  -0.29945  -0.29693  -0.29213
 Alpha  occ. eigenvalues --   -0.28937  -0.28297  -0.27425  -0.25237
 Alpha virt. eigenvalues --   -0.01463   0.06961   0.07431   0.08058   0.08713
 Alpha virt. eigenvalues --    0.09467   0.10535   0.10801   0.11209   0.11828
 Alpha virt. eigenvalues --    0.11943   0.12938   0.13090   0.13553   0.13751
 Alpha virt. eigenvalues --    0.14305   0.14826   0.15030   0.15431   0.15781
 Alpha virt. eigenvalues --    0.16217   0.16522   0.17302   0.17501   0.17847
 Alpha virt. eigenvalues --    0.18184   0.18979   0.19399   0.19575   0.19740
 Alpha virt. eigenvalues --    0.19801   0.19909   0.19959   0.20181   0.20248
 Alpha virt. eigenvalues --    0.20462   0.20816   0.20943   0.21593   0.21797
 Alpha virt. eigenvalues --    0.21953   0.22042   0.22330   0.22955   0.23254
 Alpha virt. eigenvalues --    0.23478   0.24098   0.24320   0.25299   0.26020
 Alpha virt. eigenvalues --    0.26597   0.27211   0.29076   0.29619   0.30349
 Alpha virt. eigenvalues --    0.33850   0.34422   0.35458   0.38425   0.43874
 Alpha virt. eigenvalues --    0.46421   0.48017   0.48921   0.49801   0.50282
 Alpha virt. eigenvalues --    0.50984   0.53220   0.53534   0.53851   0.55670
 Alpha virt. eigenvalues --    0.56108   0.57408   0.57512   0.59458   0.59801
 Alpha virt. eigenvalues --    0.60123   0.60615   0.60885   0.61061   0.61524
 Alpha virt. eigenvalues --    0.62392   0.62821   0.63155   0.63236   0.64128
 Alpha virt. eigenvalues --    0.64196   0.65722   0.66050   0.66773   0.67127
 Alpha virt. eigenvalues --    0.67619   0.69180   0.69596   0.69957   0.70945
 Alpha virt. eigenvalues --    0.72098   0.72307   0.73632   0.74260   0.75871
 Alpha virt. eigenvalues --    0.76355   0.76716   0.79042   0.79259   0.80218
 Alpha virt. eigenvalues --    0.81610   0.82233   0.82636   0.83070   0.83487
 Alpha virt. eigenvalues --    0.83860   0.83902   0.84096   0.84349   0.84768
 Alpha virt. eigenvalues --    0.85419   0.85996   0.86549   0.86673   0.87751
 Alpha virt. eigenvalues --    0.87855   0.88842   0.90136   0.90518   0.91020
 Alpha virt. eigenvalues --    0.91194   0.91540   0.92059   0.92320   0.92833
 Alpha virt. eigenvalues --    0.93338   0.93461   0.93792   0.94010   0.94868
 Alpha virt. eigenvalues --    0.95114   0.95762   0.95839   0.96299   0.96692
 Alpha virt. eigenvalues --    0.97146   0.97772   0.97958   0.98206   0.98869
 Alpha virt. eigenvalues --    0.99269   0.99346   0.99434   0.99935   1.00697
 Alpha virt. eigenvalues --    1.01793   1.03308   1.04502   1.07217   1.08774
 Alpha virt. eigenvalues --    1.09451   1.10573   1.12095   1.16094   1.19962
 Alpha virt. eigenvalues --    1.21060   1.24148   1.26992   1.28569   1.30538
 Alpha virt. eigenvalues --    1.32031   1.34267   1.35937   1.36335   1.37552
 Alpha virt. eigenvalues --    1.39179   1.40925   1.41594   1.42178   1.43597
 Alpha virt. eigenvalues --    1.45325   1.46384   1.47626   1.50511   1.51574
 Alpha virt. eigenvalues --    1.53617   1.55626   1.57076   1.60215   1.62291
 Alpha virt. eigenvalues --    1.64353   1.66385   1.69454   1.72667   1.74994
 Alpha virt. eigenvalues --    1.76096   1.77915   1.78590   1.80841   1.81798
 Alpha virt. eigenvalues --    1.82217   1.84141   1.84976   1.85459   1.86219
 Alpha virt. eigenvalues --    1.87632   1.88914   1.89038   1.91425   1.92482
 Alpha virt. eigenvalues --    1.93535   1.94170   1.95680   1.95845   1.96918
 Alpha virt. eigenvalues --    1.97589   1.97943   1.98630   1.99772   1.99983
 Alpha virt. eigenvalues --    2.00729   2.01041   2.01622   2.02100   2.03330
 Alpha virt. eigenvalues --    2.04175   2.04933   2.05697   2.06656   2.07750
 Alpha virt. eigenvalues --    2.08135   2.08548   2.09183   2.10117   2.10298
 Alpha virt. eigenvalues --    2.10338   2.11533   2.12438   2.13061   2.13671
 Alpha virt. eigenvalues --    2.14718   2.17373   2.17994   2.20593   2.21656
 Alpha virt. eigenvalues --    2.23390   2.24338   2.25343   2.26220   2.26384
 Alpha virt. eigenvalues --    2.28004   2.28959   2.29712   2.30065   2.31396
 Alpha virt. eigenvalues --    2.31897   2.32509   2.33508   2.33961   2.34783
 Alpha virt. eigenvalues --    2.35894   2.36388   2.37436   2.37721   2.39115
 Alpha virt. eigenvalues --    2.40654   2.42426   2.48141   2.51712   2.57601
 Alpha virt. eigenvalues --    2.58244   2.59105   2.60819   2.61031   2.61864
 Alpha virt. eigenvalues --    2.64904   2.65301   2.67682   2.68007   2.69969
 Alpha virt. eigenvalues --    2.70765   2.75458   2.80138   2.83775   2.85457
 Alpha virt. eigenvalues --    2.86719   2.88041   2.88576   2.92511   2.95063
 Alpha virt. eigenvalues --    3.04672   3.94193   4.09478   4.10093   4.11359
 Alpha virt. eigenvalues --    4.14220   4.17935   4.21625   4.23932   4.26964
 Alpha virt. eigenvalues --    4.30747   4.34231   4.37147   4.39319   4.40844
 Alpha virt. eigenvalues --    4.42459   4.45028   4.48601   4.52697   4.56623
 Alpha virt. eigenvalues --    4.59549   4.60692
          Condensed to atoms (all electrons):
 Mulliken charges:
               1
     1  O   -0.446493
     2  C    0.561513
     3  O   -0.463354
     4  C   -0.205338
     5  C   -0.314329
     6  C   -0.261930
     7  C   -0.252753
     8  C   -0.251492
     9  C   -0.248710
    10  C   -0.249036
    11  C   -0.248862
    12  C   -0.247874
    13  C   -0.248579
    14  C   -0.248015
    15  C   -0.247838
    16  C   -0.248179
    17  C   -0.247653
    18  C   -0.248015
    19  C   -0.256240
    20  C   -0.242129
    21  C   -0.450789
    22  H    0.159781
    23  H    0.152186
    24  H    0.177935
    25  H    0.138324
    26  H    0.174141
    27  H    0.158780
    28  H    0.146304
    29  H    0.127868
    30  H    0.131076
    31  H    0.130588
    32  H    0.128610
    33  H    0.124998
    34  H    0.125918
    35  H    0.126083
    36  H    0.125374
    37  H    0.124392
    38  H    0.124874
    39  H    0.124961
    40  H    0.124554
    41  H    0.124054
    42  H    0.124383
    43  H    0.124455
    44  H    0.124196
    45  H    0.123958
    46  H    0.124163
    47  H    0.124418
    48  H    0.124244
    49  H    0.123900
    50  H    0.124096
    51  H    0.124354
    52  H    0.124318
    53  H    0.126633
    54  H    0.127341
    55  H    0.132440
    56  H    0.131218
    57  H    0.142477
    58  H    0.142816
    59  H    0.145888
 Sum of Mulliken charges =  -0.00000
 Mulliken charges with hydrogens summed into heavy atoms:
               1
     1  O   -0.446493
     2  C    0.561513
     3  O   -0.463354
     4  C    0.284563
     5  C   -0.001864
     6  C    0.043154
     7  C    0.006191
     8  C    0.007706
     9  C    0.002205
    10  C    0.002420
    11  C    0.000404
    12  C    0.001641
    13  C   -0.000143
    14  C    0.000636
    15  C    0.000283
    16  C    0.000482
    17  C    0.000343
    18  C    0.000657
    19  C   -0.002266
    20  C    0.021529
    21  C   -0.019608
 Electronic spatial extent (au):  <R**2>=          34470.7831
 Charge=             -0.0000 electrons
 Dipole moment (field-independent basis, Debye):
    X=              1.0310    Y=              3.0641    Z=              1.1259  Tot=              3.4234
 Quadrupole moment (field-independent basis, Debye-Ang):
   XX=           -151.4772   YY=           -134.4944   ZZ=           -139.5587
   XY=            -33.8426   XZ=            -11.2588   YZ=             -5.7884
 Traceless Quadrupole moment (field-independent basis, Debye-Ang):
   XX=             -9.6338   YY=              7.3490   ZZ=              2.2848
   XY=            -33.8426   XZ=            -11.2588   YZ=             -5.7884
 Octapole moment (field-independent basis, Debye-Ang**2):
  XXX=            -63.4019  YYY=              8.2702  ZZZ=             -2.3126  XYY=             -1.7624
  XXY=            348.1832  XXZ=             90.7757  XZZ=            -35.1792  YZZ=             -1.5464
  YYZ=             -1.0474  XYZ=             -8.6028
 Hexadecapole moment (field-independent basis, Debye-Ang**3):
 XXXX=         -46273.7867 YYYY=           -494.6613 ZZZZ=           -418.9055 XXXY=          -3865.1202
 XXXZ=          -1009.0555 YYYX=           -103.2318 YYYZ=             -8.2411 ZZZX=             25.3041
 ZZZY=            -19.2031 XXYY=          -7628.3710 XXZZ=          -7734.2935 YYZZ=           -153.4077
 XXYZ=           -276.2614 YYXZ=             16.7534 ZZXY=             25.3806
 N-N= 1.455117643824D+03 E-N=-4.990335771609D+03  KE= 8.887961925177D+02
 No NMR shielding tensors so no spin-rotation constants.
 Leave Link  601 at Mon Oct 14 00:44:31 2019, MaxMem= 10737418240 cpu:               3.2 elap:               0.2
 (Enter /apps/cent7/gaussian/g16-A.03/g16-haswell/g16/l701.exe)
 ... and contract with generalized density number  0.
 Compute integral first derivatives.
 Leave Link  701 at Mon Oct 14 00:44:31 2019, MaxMem= 10737418240 cpu:               4.2 elap:               0.2
 (Enter /apps/cent7/gaussian/g16-A.03/g16-haswell/g16/l702.exe)
 L702 exits ... SP integral derivatives will be done elsewhere.
 Leave Link  702 at Mon Oct 14 00:44:31 2019, MaxMem= 10737418240 cpu:               0.6 elap:               0.0
 (Enter /apps/cent7/gaussian/g16-A.03/g16-haswell/g16/l703.exe)
 Integral derivatives from FoFJK, PRISM(SPDF).
 Compute integral first derivatives, UseDBF=F ICtDFT=           0.
 Calling FoFJK, ICntrl=      2127 FMM=F ISym2X=0 I1Cent= 0 IOpClX= 0 NMat=1 NMatS=1 NMatT=0.
 FoFJK:  IHMeth= 1 ICntrl=    2127 DoSepK=F KAlg= 0 I1Cent=           0 FoldK=F
 IRaf=         0 NMat=       1 IRICut=       1 DoRegI=T DoRafI=F ISym2E= 0 IDoP0=0 IntGTp=1.
 FoFCou: FMM=F IPFlag=           0 FMFlag=      100000 FMFlg1=         800
         NFxFlg=           0 DoJE=F BraDBF=F KetDBF=F FulRan=T
         wScrn=  0.000000 ICntrl=      2127 IOpCl=  0 I1Cent=           0 NGrid=           0
         NMat0=    1 NMatS0=      1 NMatT0=    0 NMatD0=    1 NMtDS0=    0 NMtDT0=    0
 Symmetry not used in FoFCou.
 Leave Link  703 at Mon Oct 14 00:44:34 2019, MaxMem= 10737418240 cpu:              70.7 elap:               3.0
 (Enter /apps/cent7/gaussian/g16-A.03/g16-haswell/g16/l716.exe)
 Dipole        = 4.05625522D-01 1.20551152D+00 4.42973917D-01
 ***** Axes restored to original set *****
 -------------------------------------------------------------------
 Center     Atomic                   Forces (Hartrees/Bohr)
 Number     Number              X              Y              Z
 -------------------------------------------------------------------
      1        8          -0.027737671   -0.025033544   -0.039951811
      2        6           0.052645936    0.046930587    0.051730546
      3        8          -0.008185241    0.008958763   -0.007133933
      4        6          -0.003936208   -0.008390852    0.009452436
      5        6          -0.014905845    0.004238402   -0.006855653
      6        6          -0.004864703   -0.021473186   -0.000638299
      7        6          -0.002189026    0.025106199    0.002807592
      8        6           0.003989827   -0.027295422   -0.003086824
      9        6          -0.003454258    0.026761816    0.003551140
     10        6           0.004311897   -0.027296453   -0.003662393
     11        6          -0.003080816    0.028435477    0.003395189
     12        6           0.003687150   -0.028370705   -0.003566058
     13        6          -0.003440132    0.029092377    0.003509955
     14        6           0.004096207   -0.029245743   -0.003821386
     15        6          -0.002329676    0.029538728    0.003165177
     16        6           0.003986833   -0.029524735   -0.003873727
     17        6          -0.003890483    0.029383515    0.003825937
     18        6           0.003056122   -0.029854761   -0.003410180
     19        6          -0.002146654    0.030768388    0.004146403
     20        6           0.007995217   -0.024969194   -0.005680201
     21        6           0.007153671    0.004353046   -0.001610360
     22        1           0.004795867   -0.001997647   -0.001408082
     23        1          -0.000925652   -0.003397537   -0.004341061
     24        1          -0.000951259    0.003641912    0.001549157
     25        1           0.000198455   -0.018630406    0.004975165
     26        1          -0.000708594   -0.013767221   -0.007245137
     27        1          -0.001772659    0.018898812   -0.005665034
     28        1           0.000739199    0.017643453    0.008200238
     29        1           0.003522019   -0.019826759    0.003567661
     30        1          -0.000286933   -0.018517059   -0.008072987
     31        1          -0.004107266    0.019190992   -0.003711405
     32        1           0.000023341    0.018603136    0.007995286
     33        1           0.004506671   -0.019780563    0.003293839
     34        1           0.000229240   -0.018563905   -0.008202417
     35        1          -0.004676635    0.019426430   -0.003353809
     36        1          -0.000413177    0.018683728    0.008152845
     37        1           0.004526634   -0.019442038    0.003302559
     38        1           0.000240126   -0.018480607   -0.008106610
     39        1          -0.004463271    0.019506756   -0.003397436
     40        1          -0.000165245    0.018620563    0.008075187
     41        1           0.004278342   -0.019446860    0.003381828
     42        1           0.000022820   -0.018564709   -0.007951664
     43        1          -0.004271975    0.019453587   -0.003429328
     44        1           0.000030359    0.018531385    0.008008567
     45        1           0.004321699   -0.019427066    0.003393192
     46        1           0.000054224   -0.018536755   -0.007994856
     47        1          -0.004370024    0.019334225   -0.003350230
     48        1          -0.000086400    0.018414596    0.008032859
     49        1           0.004493949   -0.019402117    0.003313837
     50        1           0.000203724   -0.018479860   -0.008089299
     51        1          -0.004546266    0.019367361   -0.003232766
     52        1          -0.000367843    0.018430655    0.008099942
     53        1           0.004113507   -0.019183441    0.003493435
     54        1           0.000152411   -0.018601319   -0.007981618
     55        1          -0.003845575    0.020528328   -0.005958875
     56        1           0.002517043    0.018289953    0.008570905
     57        1          -0.004181823   -0.005242197    0.001888755
     58        1          -0.005154240   -0.003627700    0.001963527
     59        1          -0.004436939   -0.005762806   -0.000059719
 -------------------------------------------------------------------
 Cartesian Forces:  Max     0.052645936 RMS     0.014382267
 Leave Link  716 at Mon Oct 14 00:44:34 2019, MaxMem= 10737418240 cpu:               0.6 elap:               0.0
 (Enter /apps/cent7/gaussian/g16-A.03/g16-haswell/g16/l103.exe)

 GradGradGradGradGradGradGradGradGradGradGradGradGradGradGradGradGradGrad
 Berny optimization.
 FormGI is forming the generalized inverse of G from B-inverse, IUseBI=4.
 GSVD:  received Info=                   1 from GESDD.
 Internal  Forces:  Max     0.054671725 RMS     0.006799436
 Search for a local minimum.
 Step number   1 out of a maximum of  335
 All quantities printed in internal units (Hartrees-Bohrs-Radians)
[...]
 .00000004,0.00000023,-0.00000008,0.00000001,0.,0.00000008,-0.00000008,
 -0.00000005,0.,0.,-0.00000008,-0.00000004,0.00000007,-0.00000002,0.000
 00006,0.,0.,0.00000001,0.00000001,0.00000002,0.,-0.00000002,0.00000010
 ,-0.00000010,0.00000009,0.00000006,0.00000014,0.00000009,0.00000003,0.
 ,0.,0.00000002,-0.00000002,-0.00000002,0.00000013,-0.00000017,0.000000
 14,0.00000012,0.00000026,0.00000017,0.00000005,0.00000006,-0.00000006,
 0.00000003,-0.00000006,-0.00000004,0.00000016,-0.00000025,0.00000020,0
 .00000025,0.00000047,0.00000035,0.00000008,0.00000023,-0.00000026,0.,-
 0.00000016,-0.00000008,0.00000010,-0.00000035,0.00000027,0.00000054,0.
 00000087,0.00000080,0.00000008,0.00000067,-0.00000094,-0.00000023,-0.0
 0000044,-0.00000041,-0.00000053,-0.00000070,0.00000081,0.00000149,0.00
 000143,0.00000256,0.00000543,0.00000407,-0.00000584,-0.00000517,0.0000
 0054,0.00000118,-0.00004615,0.00002240,0.00000230,0.00002136,0.0000051
 8,0.00000919,-0.00006021,0.00017229,-0.00016464,-0.00010160,0.00007594
 ,-0.00000271,-0.00023617,0.00033938,-0.00047738,0.00095707,0.00089464,
 -0.00042844,-0.00316515,-0.00365999,0.00172662,0.08009785,-0.00000181,
 -0.00000102,-0.00000103,0.00000224,0.00000191,0.00000096,-0.00000093,-
 0.00000039,-0.00000043,0.00000093,-0.00000001,0.00000016,-0.00000094,-
 0.00000071,0.00000046,0.00000029,0.00000038,0.00000013,0.00000023,-0.0
 0000101,0.00000034,-0.00000023,0.00000113,0.00000052,0.00000033,-0.000
 00200,0.00000052,-0.00000055,0.00000235,0.00000090,0.00000048,-0.00000
 408,0.00000088,-0.00000144,0.00000496,0.00000174,0.00000082,-0.0000087
 6,0.00000156,-0.00000354,0.00001081,0.00000416,0.00000117,-0.00002071,
 0.00000456,0.00000185,0.00002504,0.00000801,-0.00002497,-0.00000145,-0
 .00005686,-0.00010467,0.00008007,-0.00019687,0.00128498,0.00044783,-0.
 00056735,0.00752402,-0.01396188,0.01851757,0.04653848,-0.12955278,0.10
 988232,0.00000002,0.00000007,-0.00000006,-0.00000035,0.00000005,0.0000
 0002,0.00000005,-0.00000008,0.00000004,0.00000006,-0.00000004,-0.00000
 001,0.00000005,0.00000010,-0.00000012,0.00000003,-0.00000014,0.0000000
 2,-0.00000003,0.00000009,-0.00000017,-0.00000002,-0.00000004,-0.000000
 01,-0.00000027,0.00000029,-0.00000025,-0.00000007,-0.00000029,-0.00000
 013,-0.00000006,0.00000019,-0.00000029,-0.00000003,-0.00000005,-0.0000
 0002,-0.00000045,0.00000052,-0.00000043,-0.00000014,-0.00000053,-0.000
 00023,-0.00000009,0.00000028,-0.00000049,-0.00000006,-0.00000002,-0.00
 000002,-0.00000084,0.00000095,-0.00000074,-0.00000025,-0.00000104,-0.0
 0000041,-0.00000007,0.00000046,-0.00000094,-0.00000011,0.00000010,-0.0
 0000002,-0.00000181,0.00000200,-0.00000137,-0.00000057,-0.00000239,-0.
 00000080,0.,0.00000083,-0.00000216,-0.00000021,0.00000041,-0.00000038,
 -0.00000397,0.00000450,-0.00000259,-0.00000198,-0.00000783,-0.00000152
 ,0.00000174,-0.00000012,-0.00000671,-0.00000386,0.00000441,0.00000109,
 -0.00004718,0.00002331,0.00000587,0.00000326,-0.00005255,0.00000388,0.
 00014922,0.00014310,-0.00017104,-0.00010446,0.00008731,-0.00004835,-0.
 00077319,0.00065440,-0.00010354,0.00068737,0.00042841,-0.00048075,-0.0
 0407624,-0.00248531,0.00090953,-0.04852186,0.13987646,0.00000064,-0.00
 000016,0.00000084,-0.00000036,0.00000031,-0.00000157,0.00000026,-0.000
 00051,0.00000116,-0.00000063,0.00000023,-0.00000042,0.00000006,0.00000
 018,-0.00000011,-0.00000011,0.00000006,-0.00000022,-0.00000025,0.00000
 056,-0.00000028,0.00000005,-0.00000003,-0.00000041,-0.00000040,0.00000
 101,-0.00000047,0.00000023,-0.00000025,-0.00000067,-0.00000069,0.00000
 202,-0.00000084,0.00000086,-0.00000094,-0.00000119,-0.00000128,0.00000
 474,-0.00000178,0.00000335,-0.00000340,-0.00000246,-0.00000114,0.00001
 516,-0.00000714,0.00001321,-0.00001898,0.00000007,0.00002168,0.0000471
 8,-0.00001959,0.00030388,-0.00019714,0.00023382,-0.00099980,0.00007163
 ,-0.00008294,-0.00218790,0.00439482,-0.00643655,-0.06350658,0.10997733
 ,-0.20303615,0.00000010,-0.00000012,0.00000002,0.00000022,0.00000009,-
 0.00000008,-0.00000012,0.,0.00000009,-0.00000003,0.00000004,-0.0000001
 1,0.00000009,-0.00000006,0.00000017,-0.00000006,0.00000004,-0.00000009
 ,0.00000006,-0.00000022,0.00000033,-0.00000001,0.,-0.00000015,0.000000
 32,-0.00000028,0.00000037,-0.00000007,0.00000004,-0.00000010,0.0000000
 8,-0.00000039,0.00000053,0.,0.,-0.00000024,0.00000055,-0.00000048,0.00
 000063,-0.00000012,0.00000006,-0.00000014,0.00000009,-0.00000066,0.000
 00086,0.,0.,-0.00000044,0.00000103,-0.00000083,0.00000111,-0.00000024,
 0.00000009,-0.00000022,0.00000005,-0.00000125,0.00000154,0.00000002,0.
 ,-0.00000090,0.00000223,-0.00000160,0.00000220,-0.00000051,0.00000020,
 -0.00000031,-0.00000028,-0.00000274,0.00000310,-0.00000019,0.00000029,
 -0.00000185,0.00000538,-0.00000312,0.00000547,-0.00000168,0.00000047,-
 0.00000043,-0.00000408,-0.00000799,0.00000695,0.00000207,-0.00000016,-
 0.00000826,0.00004579,-0.00001317,0.00001727,-0.00002835,-0.00001381,-
 0.00001625,-0.00014959,-0.00017127,0.00010523,0.00001322,0.00005794,-0
 .00004647,0.00085026,-0.00027651,0.00018701,0.00044176,-0.00009689,0.0
 0085316,0.00149234,0.00104624,0.00116237,0.06952993,-0.12357273,0.2178
 2860,-0.00000602,-0.00000465,0.,0.00000928,0.00001060,-0.00000460,-0.0
 0000361,-0.00000394,0.00000515,0.00000184,-0.00000012,-0.00000212,-0.0
 0000464,-0.00000322,0.00000171,0.00000092,0.00000214,-0.00000061,0.000
 00021,-0.00000380,0.00000019,-0.00000154,0.00000570,0.00000039,0.00000
 014,-0.00000798,0.00000025,-0.00000336,0.00001179,0.00000086,-0.000000
 53,-0.00001738,0.00000076,-0.00000893,0.00002614,0.00000241,-0.0000040
 6,-0.00004302,0.00000268,-0.00003035,0.00006961,0.00000858,-0.00002498
 ,-0.00013743,0.00001098,-0.00015086,0.00026041,0.00004303,-0.00020255,
 -0.00066193,0.00008728,-0.00078399,0.00149804,0.00041772,-0.00181456,-
 0.00552184,0.00086916,-0.01872688,0.01170373,0.00548843,-0.23726270,0.
 10220025,0.05998339,0.00000043,0.00000027,-0.00000013,-0.00000085,0.00
 000060,-0.00000023,-0.00000026,-0.00000052,0.00000065,0.00000025,0.000
 00019,-0.00000006,0.00000055,0.00000011,-0.00000013,0.00000009,-0.0000
 0019,0.,0.00000009,-0.00000042,0.00000040,-0.00000014,0.00000024,0.000
 00018,-0.00000021,0.00000021,-0.00000007,-0.00000029,-0.00000059,-0.00
 000046,0.00000003,-0.00000056,0.00000060,-0.00000020,0.00000044,0.0000
 0030,-0.00000035,0.00000048,-0.00000017,-0.00000058,-0.00000119,-0.000
 00084,0.00000003,-0.00000108,0.00000105,-0.00000030,0.00000098,0.00000
 065,-0.00000067,0.00000103,-0.00000043,-0.00000110,-0.00000242,-0.0000
 0172,0.00000016,-0.00000222,0.00000207,-0.00000035,0.00000230,0.000001
 63,-0.00000132,0.00000233,-0.00000123,-0.00000214,-0.00000531,-0.00000
 430,0.00000092,-0.00000497,0.00000481,0.00000025,0.00000619,0.00000553
 ,-0.00000330,0.00000615,-0.00000459,-0.00000323,-0.00001219,-0.0000147
 9,0.00000684,-0.00001032,0.00001287,0.00001582,0.00001972,0.00002289,0
 .00000088,0.00002053,-0.00002719,-0.00002625,-0.00004659,-0.00009769,-
 0.00000520,-0.00007795,0.00009927,0.00025743,0.00005525,0.00010739,0.0
 0042838,-0.00013487,-0.00015764,0.00050724,0.00011836,-0.00076299,0.00
 102428,-0.00004691,0.00027823,-0.00847806,0.00446956,0.00251907,0.2579
 7747,0.00000025,0.00000021,-0.00000003,-0.00000040,-0.00000034,0.00000
 020,0.00000020,0.00000018,-0.00000012,-0.00000011,-0.00000011,0.000000
 02,0.00000005,-0.00000006,-0.00000003,-0.00000015,0.00000019,0.0000000
 6,-0.00000004,-0.00000053,0.00000003,-0.00000035,0.00000064,0.00000011
 ,-0.00000011,-0.00000146,0.00000008,-0.00000104,0.00000199,0.00000030,
 -0.00000054,-0.00000435,0.00000032,-0.00000377,0.00000659,0.00000109,-
 0.00000313,-0.00001527,0.00000153,-0.00001828,0.00002651,0.00000539,-0
 .00002454,-0.00007272,0.00001043,-0.00011670,0.00014145,0.00003496,-0.
 00023153,-0.00047361,0.00009320,-0.00118872,0.00104114,0.00038752,-0.0
 0226194,-0.00380164,0.00089447,-0.02169293,0.01236050,0.00688722,0.102
 81200,-0.10438407,-0.03298222,-0.00000004,0.00000002,0.00000001,0.0000
 0005,-0.00000003,-0.00000002,0.,0.00000003,-0.00000003,0.,0.,0.0000000
 5,-0.00000003,0.,-0.00000002,0.00000002,0.,0.00000002,0.,0.00000002,-0
 .00000004,0.,0.00000006,0.00000010,-0.00000006,0.00000005,-0.00000008,
 0.00000003,0.,0.00000003,0.,0.,-0.00000004,0.,0.00000013,0.00000020,-0
 .00000013,0.00000013,-0.00000016,0.00000004,-0.00000004,0.,0.00000003,
 -0.00000004,-0.00000002,-0.00000002,0.00000032,0.00000046,-0.00000030,
 0.00000030,-0.00000037,0.00000006,-0.00000019,-0.00000016,0.00000015,-
 0.00000018,0.00000009,0.00000002,0.00000088,0.00000127,-0.00000077,0.0
 0000081,-0.00000107,0.00000023,-0.00000054,-0.00000109,0.00000084,-0.0
 0000047,0.00000074,0.00000132,0.00000228,0.00000426,-0.00000157,0.0000
 0203,-0.00000427,-0.00000051,-0.00000295,-0.00000795,0.00000449,-0.000
 00239,0.00000665,0.00001880,0.00000385,0.00001886,0.00000370,0.0000026
 1,-0.00002639,0.00005308,0.00003818,-0.00007821,0.00008467,0.00003798,
 0.00002800,0.00002165,0.00003416,0.00031018,-0.00014375,-0.00000141,-0
 .00025273,0.00076423,0.00099388,-0.00038682,0.00083820,0.00098123,-0.0
 0021514,0.01456903,-0.00876369,-0.00604062,-0.11040146,0.11128003,0.00
 000179,0.00000142,-0.00000052,-0.00000298,-0.00000364,0.00000251,0.000
 00115,0.00000147,-0.00000251,-0.00000040,0.00000014,0.00000106,0.00000
 158,0.00000111,-0.00000054,-0.00000027,-0.00000073,0.00000033,-0.00000
 003,0.00000130,0.00000004,0.00000060,-0.00000194,0.00000008,0.,0.00000
 275,0.00000003,0.00000129,-0.00000404,0.00000004,0.00000022,0.00000601
 ,-0.00000019,0.00000337,-0.00000902,-0.00000016,0.00000142,0.00001503,
 -0.00000113,0.00001140,-0.00002433,-0.00000144,0.00000740,0.00004862,-
 0.00000948,0.00005513,-0.00009254,-0.00001458,0.00007357,0.00023878,-0
 .00003950,0.00050424,-0.00052086,0.00044045,0.00076468,0.00199693,-0.0
 0009183,0.00657011,-0.00439750,-0.00344430,0.05996465,-0.03277608,-0.0
 6916306,-0.00000017,-0.00000012,0.00000003,0.00000023,-0.00000023,0.00
 000010,0.00000012,0.00000020,-0.00000026,-0.00000008,-0.00000012,-0.00
 000002,-0.00000020,0.,0.00000002,-0.00000005,0.00000002,-0.00000003,-0
 .00000005,0.00000020,-0.00000020,0.00000006,-0.00000016,-0.00000013,0.
 00000003,0.,-0.00000002,0.00000006,0.00000011,0.00000007,-0.00000003,0
 .00000027,-0.00000030,0.00000008,-0.00000026,-0.00000020,0.00000006,-0
 .00000007,0.,0.00000014,0.00000028,0.00000016,-0.00000005,0.00000049,-
 0.00000050,0.00000012,-0.00000050,-0.00000035,0.00000015,-0.00000021,0
 .00000007,0.00000028,0.00000065,0.00000038,-0.00000012,0.00000091,-0.0
 0000093,0.00000012,-0.00000102,-0.00000066,0.00000042,-0.00000061,0.00
 000039,0.00000058,0.00000167,0.00000109,-0.00000047,0.00000181,-0.0000
 0205,0.00000024,-0.00000266,-0.00000170,0.00000105,-0.00000163,0.00000
 213,-0.00000070,0.00000247,0.00000349,-0.00000213,0.00000517,-0.000007
 16,-0.00000749,-0.00001068,-0.00000348,0.00000368,-0.00000290,0.000012
 73,0.00006736,0.00007512,-0.00000855,-0.00007439,-0.00003671,-0.000029
 45,-0.00038677,0.00029197,0.00033973,0.00033755,-0.00024913,0.00020430
 ,-0.00042546,0.00026084,0.00039406,-0.00011020,-0.00034641,-0.00010797
 ,-0.02287136,0.01173346,0.00845714,-0.06733633,0.03526409,0.06974753,0
 .00000090,0.00000091,0.00000027,-0.00000140,-0.00000159,0.00000019,0.0
 0000052,0.00000065,-0.00000030,-0.00000030,-0.00000022,0.00000007,0.00
 000062,0.00000035,-0.00000029,-0.00000015,-0.00000030,0.00000006,0.,0.
 00000022,-0.00000014,0.00000006,-0.00000073,-0.00000009,0.00000002,0.0
 0000047,-0.00000023,0.00000008,-0.00000135,-0.00000017,0.00000012,0.00
 000095,-0.00000049,0.00000014,-0.00000258,-0.00000029,0.00000054,0.000
 00194,-0.00000128,0.00000040,-0.00000575,-0.00000085,0.00000015,0.0000
 0411,-0.00000464,0.00001467,-0.00000960,0.00000249,0.00002196,0.000061
 86,0.00003921,-0.00006190,-0.00005631,0.00022190,0.00137003,-0.0005742
 3,-0.00177362,-0.00553064,-0.01438766,-0.01909853,-0.06019022,-0.03046
 127,-0.04020008,-0.00000009,0.00000006,0.00000003,0.00000012,-0.000000
 10,0.00000003,0.00000005,0.00000005,-0.00000009,-0.00000004,0.00000002
 ,0.00000011,-0.00000010,-0.00000003,-0.00000003,0.00000005,0.00000009,
 0.00000008,-0.00000002,0.00000006,-0.00000012,0.,0.00000009,0.00000019
 ,-0.00000003,0.,-0.00000007,0.00000016,0.00000024,0.00000023,-0.000000
 01,0.00000010,-0.00000018,-0.00000002,0.00000017,0.00000034,-0.0000000
 6,-0.00000002,-0.00000012,0.00000031,0.00000047,0.00000042,0.,0.000000
 17,-0.00000030,-0.00000008,0.00000032,0.00000067,-0.00000013,-0.000000
 06,-0.00000020,0.00000069,0.00000099,0.00000081,0.00000002,0.00000031,
 -0.00000057,-0.00000033,0.00000074,0.00000158,-0.00000030,-0.00000015,
 -0.00000037,0.00000171,0.00000231,0.00000177,0.00000008,0.00000056,-0.
 00000116,-0.00000130,0.00000147,0.00000420,-0.00000053,-0.00000057,-0.
 00000057,0.00001050,0.00000842,0.00000234,0.00000036,0.00000084,-0.000
 00327,-0.00004567,0.00002705,0.00004401,-0.00000787,0.00000018,-0.0000
 0154,0.00014303,0.00024767,0.00011380,0.00001660,0.00001194,-0.0000351
 3,-0.00025636,0.00046495,0.00078104,-0.00008844,0.00002317,0.00003117,
 -0.00298299,-0.00346154,0.00171264,0.00088051,0.00080002,0.00033813,-0
 .00288053,-0.00698995,-0.00836438,0.00732083,0.01691979,0.02284478,0.0
 6226430,-0.00000081,-0.00000041,0.00000132,0.00000165,0.00000227,-0.00
 000337,-0.00000067,-0.00000097,0.00000311,-0.00000007,-0.00000052,-0.0
 0000140,-0.00000105,-0.00000083,0.00000021,0.00000014,0.00000042,-0.00
 000038,0.,-0.00000107,-0.00000035,-0.00000054,0.00000112,-0.00000035,-
 0.00000001,-0.00000212,-0.00000054,-0.00000107,0.00000235,-0.00000054,
 -0.00000008,-0.00000430,-0.00000082,-0.00000240,0.00000500,-0.00000081
 ,-0.00000013,-0.00000924,-0.00000135,-0.00000585,0.00001099,-0.0000017
 4,-0.00000166,-0.00002217,-0.00000344,-0.00000501,0.00002611,-0.000008
 41,0.00001197,-0.00000278,0.00005912,0.00002842,0.00011045,0.00023557,
 0.00137473,0.00046249,-0.00035870,-0.00496894,-0.01511630,-0.01837493,
 -0.03063275,-0.14448708,-0.12069805,0.00000009,0.00000025,0.00000001,-
 0.00000008,0.00000015,-0.00000010,-0.00000011,-0.00000021,0.00000021,0
 .00000005,0.00000019,0.00000017,0.00000013,-0.00000005,-0.00000004,0.0
 0000014,0.00000013,0.00000017,0.00000003,-0.00000022,0.00000012,-0.000
 00007,0.00000035,0.00000042,0.,-0.00000006,0.00000001,0.00000015,0.000
 00023,0.00000027,0.00000003,-0.00000030,0.00000018,-0.00000012,0.00000
 059,0.00000066,-0.00000001,-0.00000005,0.00000003,0.00000025,0.0000003
 5,0.00000046,0.00000004,-0.00000053,0.00000030,-0.00000025,0.00000107,
 0.00000115,-0.00000004,-0.00000002,0.00000003,0.00000055,0.00000059,0.
 00000082,0.00000007,-0.00000103,0.00000054,-0.00000068,0.00000222,0.00
 000227,-0.00000011,0.00000010,0.00000003,0.00000140,0.00000110,0.00000
 177,0.00000010,-0.00000236,0.00000111,-0.00000171,0.00000494,0.0000046
 6,0.,0.00000043,0.00000030,0.00000573,0.00000062,0.00000439,-0.0000004
 3,-0.00000774,0.00000285,-0.00004220,0.00002425,0.00002450,-0.00000410
 ,0.00000439,0.00000088,0.00022867,0.00015603,0.00003276,0.00000181,-0.
 00005197,-0.00000351,-0.00059902,0.00068375,0.00054119,-0.00005559,0.0
 0008710,0.00009361,-0.00369465,-0.00243135,0.00198513,0.00081776,0.000
 43296,0.00000047,0.00351427,0.01306622,0.01480563,-0.00333829,-0.00943
 231,-0.01146920,0.03737032,0.15648678,-0.00000033,0.00000016,0.0000011
 4,0.00000074,0.00000103,-0.00000251,-0.00000037,-0.00000039,0.00000229
 ,-0.00000006,-0.00000061,-0.00000107,-0.00000058,-0.00000054,0.0000000
 4,0.00000009,0.00000015,-0.00000025,0.00000003,-0.00000082,-0.00000033
 ,-0.00000037,0.00000049,-0.00000024,0.00000005,-0.00000153,-0.00000051
 ,-0.00000073,0.00000114,-0.00000032,0.,-0.00000305,-0.00000081,-0.0000
 0173,0.00000273,-0.00000031,-0.00000037,-0.00000695,-0.00000136,-0.000
 00521,0.00000780,0.00000064,-0.00000395,-0.00002118,-0.00000313,-0.000
 02452,0.00002969,0.00000752,-0.00005323,-0.00010744,-0.00003392,-0.000
 08566,0.00030781,0.00026485,-0.00020205,0.00028654,0.00053784,0.001972
 10,0.00604056,0.00814586,-0.04050156,-0.12093583,-0.20392845,0.0000000
 1,0.00000027,0.00000002,-0.00000006,0.00000006,-0.00000004,-0.00000003
 ,-0.00000015,0.00000011,0.00000004,0.00000016,0.00000023,0.00000005,-0
 .00000006,-0.00000008,0.00000014,0.00000016,0.00000020,0.,-0.00000010,
 -0.00000002,-0.00000004,0.00000032,0.00000047,-0.00000007,-0.00000002,
 -0.00000010,0.00000018,0.00000032,0.00000033,0.,-0.00000010,-0.0000000
 2,-0.00000006,0.00000050,0.00000074,-0.00000013,0.,-0.00000016,0.00000
 029,0.00000051,0.00000052,0.,-0.00000017,-0.00000002,-0.00000012,0.000
 00084,0.00000125,-0.00000023,0.00000002,-0.00000029,0.00000054,0.00000
 088,0.00000080,0.00000005,-0.00000029,0.,-0.00000029,0.00000151,0.0000
 0243,-0.00000047,0.00000006,-0.00000061,0.00000118,0.00000181,0.000001
 20,0.00000021,-0.00000054,0.00000011,-0.00000017,0.00000299,0.00000584
 ,-0.00000081,-0.00000009,-0.00000156,0.00000077,0.00000397,0.00000113,
 0.00000113,-0.00000073,0.00000061,0.00000497,-0.00000345,0.00001595,-0
 .00000211,-0.00000082,-0.00000561,0.00010022,0.00001881,-0.00011093,0.
 00000296,0.00001029,-0.00001190,-0.00047795,-0.00002196,0.00018031,0.0
 0002181,-0.00010073,-0.00006067,0.00196647,0.00162679,0.00092621,-0.00
 052635,-0.00044827,0.00092543,-0.00396874,-0.01585987,-0.01920122,-0.0
 0156222,-0.00395429,-0.00667472,0.04334651,0.13312161,0.21901709\\-0.0
 0000159,0.00000254,-0.00000074,0.00000113,-0.00001016,0.00000497,0.000
 00242,-0.00000105,-0.00000286,-0.00000390,0.00000335,-0.00000084,0.000
 00055,0.00000720,-0.00000114,-0.00000332,-0.00000254,-0.00000009,0.000
 00268,0.00000068,-0.00000012,-0.00000067,-0.00000065,0.00000060,-0.000
 00031,0.00000104,0.00000026,0.00000054,-0.00000078,-0.00000001,-0.0000
 0019,0.00000086,0.00000015,0.00000022,-0.00000095,0.00000007,-0.000000
 10,0.00000094,0.00000007,0.00000010,-0.00000096,0.00000008,-0.00000014
 ,0.00000093,0.00000004,0.00000011,-0.00000098,0.00000007,-0.00000004,0
 .00000096,-0.00000021,0.00000052,-0.00000093,-0.00000028,-0.00000044,0
 .00000162,-0.00000006,0.00000162,-0.00000047,-0.00000026,-0.00000098,-
 0.00000124,0.00000070,0.00000185,-0.00000056,0.,0.00000207,-0.00000132
 ,-0.00000039,-0.00000143,0.00000036,-0.00000053,0.00000125,-0.00000016
 ,0.00000085,-0.00000140,0.00000117,0.00000152,0.00000028,0.00000067,-0
 .00000006,0.00000027,0.00000027,0.00000022,-0.00000014,0.00000002,0.00
 000089,-0.00000038,0.,-0.00000026,-0.00000012,0.00000025,-0.00000035,0
 .00000018,-0.00000010,-0.00000013,0.00000011,-0.00000023,0.00000051,0.
 00000007,0.00000028,-0.00000032,-0.00000022,0.00000037,-0.00000038,-0.
 00000004,-0.00000002,0.00000003,0.00000013,-0.00000024,0.00000055,0.00
 000002,0.00000022,-0.00000030,-0.00000021,0.00000029,-0.00000042,0.000
 00001,-0.00000005,0.00000002,0.00000011,-0.00000028,0.00000051,0.,0.00
 000016,-0.00000028,-0.00000020,0.00000026,-0.00000047,0.,-0.00000009,0
 .00000003,0.00000011,-0.00000028,0.00000045,0.,0.00000011,-0.00000026,
 -0.00000019,0.00000021,-0.00000053,-0.00000003,-0.00000012,0.00000003,
 0.00000013,-0.00000031,0.00000040,0.00000004,0.00000008,-0.00000025,-0
 .00000049,-0.00000008,-0.00000050,0.00000003,-0.00000013,0.,0.00000020
 ,-0.00000028,0.00000034,-0.00000007,0.00000022,-0.00000034,0.00000020,
 0.00000089,-0.00000040,0.00000051,-0.00000041,0.00000026,-0.00000027,0
 .00000057,-0.00000054,-0.00000013,-0.00000027,-0.00000045,-0.00000044,
 -0.00000086,0.00000015\\\@


 LIVE PURE, SPEAK TRUE, RIGHT WRONG, FOLLOW THE KING...
 ELSE, WHEREFORE BORN......
           IDYLLS OF THE KING, TENNYSON
 Job cpu time:       0 days  1 hours  9 minutes 37.8 seconds.
 Elapsed time:       0 days  0 hours  2 minutes 59.5 seconds.
 File lengths (MBytes):  RWF=   1035 Int=      0 D2E=      0 Chk=     16 Scr=      1
 Normal termination of Gaussian 16 at Mon Oct 14 00:51:40 2019.
real 443.44
user 10191.02
sys 87.73
Machine:
brown-a516
brown-a516
brown-a516
brown-a516
brown-a516
brown-a516
brown-a516
brown-a516
brown-a516
brown-a516
brown-a516
brown-a516
brown-a516
brown-a516
brown-a516
brown-a516
brown-a516
brown-a516
brown-a516
brown-a516
brown-a516
brown-a516
brown-a516
brown-a516
