 Entering Gaussian System, Link 0=/apps/cent7/gaussian/g16-A.03/g16-haswell/g16/g16
 Initial command:
 /apps/cent7/gaussian/g16-A.03/g16-haswell/g16/l1.exe "/scratch/brown/finej/gaussian/Gau-115643.inp" -scrdir="/scratch/brown/finej/gaussian/"
 Entering Link 1 = /apps/cent7/gaussian/g16-A.03/g16-haswell/g16/l1.exe PID=    115644.
  
 Copyright (c) 1988,1990,1992,1993,1995,1998,2003,2009,2016,
            Gaussian, Inc.  All Rights Reserved.
  
 This is part of the Gaussian(R) 16 program.  It is based on
 the Gaussian(R) 09 system (copyright 2009, Gaussian, Inc.),
 the Gaussian(R) 03 system (copyright 2003, Gaussian, Inc.),
 the Gaussian(R) 98 system (copyright 1998, Gaussian, Inc.),
 the Gaussian(R) 94 system (copyright 1995, Gaussian, Inc.),
 the Gaussian 92(TM) system (copyright 1992, Gaussian, Inc.),
 the Gaussian 90(TM) system (copyright 1990, Gaussian, Inc.),
 the Gaussian 88(TM) system (copyright 1988, Gaussian, Inc.),
 the Gaussian 86(TM) system (copyright 1986, Carnegie Mellon
 University), and the Gaussian 82(TM) system (copyright 1983,
 Carnegie Mellon University). Gaussian is a federally registered
 trademark of Gaussian, Inc.
  
 This software contains proprietary and confidential information,
 including trade secrets, belonging to Gaussian, Inc.
  
 This software is provided under written license and may be
 used, copied, transmitted, or stored only in accord with that
 written license.
  
 The following legend is applicable only to US Government
 contracts under FAR:
  
                    RESTRICTED RIGHTS LEGEND
  
 Use, reproduction and disclosure by the US Government is
 subject to restrictions as set forth in subparagraphs (a)
 and (c) of the Commercial Computer Software - Restricted
 Rights clause in FAR 52.227-19.
  
 Gaussian, Inc.
 340 Quinnipiac St., Bldg. 40, Wallingford CT 06492
  
  
 ---------------------------------------------------------------
 Warning -- This program may not be used in any manner that
 competes with the business of Gaussian, Inc. or will provide
 assistance to any competitor of Gaussian, Inc.  The licensee
 of this program is prohibited from giving any competitor of
 Gaussian, Inc. access to this program.  By using this program,
 the user acknowledges that Gaussian, Inc. is engaged in the
 business of creating and licensing software in the field of
 computational chemistry and represents and warrants to the
 licensee that it is not a competitor of Gaussian, Inc. and that
 it will not use this program in any manner prohibited above.
 ---------------------------------------------------------------
  

 Cite this work as:
 Gaussian 16, Revision A.03,
 M. J. Frisch, G. W. Trucks, H. B. Schlegel, G. E. Scuseria, 
 M. A. Robb, J. R. Cheeseman, G. Scalmani, V. Barone, 
 G. A. Petersson, H. Nakatsuji, X. Li, M. Caricato, A. V. Marenich, 
 J. Bloino, B. G. Janesko, R. Gomperts, B. Mennucci, H. P. Hratchian, 
 J. V. Ortiz, A. F. Izmaylov, J. L. Sonnenberg, D. Williams-Young, 
 F. Ding, F. Lipparini, F. Egidi, J. Goings, B. Peng, A. Petrone, 
 T. Henderson, D. Ranasinghe, V. G. Zakrzewski, J. Gao, N. Rega, 
 G. Zheng, W. Liang, M. Hada, M. Ehara, K. Toyota, R. Fukuda, 
 J. Hasegawa, M. Ishida, T. Nakajima, Y. Honda, O. Kitao, H. Nakai, 
 T. Vreven, K. Throssell, J. A. Montgomery, Jr., J. E. Peralta, 
 F. Ogliaro, M. J. Bearpark, J. J. Heyd, E. N. Brothers, K. N. Kudin, 
 V. N. Staroverov, T. A. Keith, R. Kobayashi, J. Normand, 
 K. Raghavachari, A. P. Rendell, J. C. Burant, S. S. Iyengar, 
 J. Tomasi, M. Cossi, J. M. Millam, M. Klene, C. Adamo, R. Cammi, 
 J. W. Ochterski, R. L. Martin, K. Morokuma, O. Farkas, 
 J. B. Foresman, and D. J. Fox, Gaussian, Inc., Wallingford CT, 2016.
 
 ******************************************
 Gaussian 16:  ES64L-G16RevA.03 25-Dec-2016
                14-Oct-2019 
 ******************************************
 %chk=17_p.chk
 %nprocshared=24
 Will use up to   24 processors via shared memory.
 %mem=80GB
 --------------------------------------------------------------
 #P opt freq b3lyp/6-31g(d) geom=connectivity temperature=0.001
 --------------------------------------------------------------
 1/18=20,19=15,26=3,38=1,57=2,112=-1000/1,3;
 2/9=110,12=2,17=6,18=5,40=1/2;
 3/5=1,6=6,7=1,11=2,25=1,30=1,71=1,74=-5/1,2,3;
 4//1;
 5/5=2,38=5/2;
 6/7=2,8=2,9=2,10=2,28=1/1;
 7//1,2,3,16;
 1/18=20,19=15,26=3/3(2);
 2/9=110/2;
 99//99;
 2/9=110/2;
 3/5=1,6=6,7=1,11=2,25=1,30=1,71=1,74=-5/1,2,3;
 4/5=5,16=3,69=1/1;
 5/5=2,38=5/2;
 7//1,2,3,16;
 1/18=20,19=15,26=3/3(-5);
 2/9=110/2;
 6/7=2,8=2,9=2,10=2,19=2,28=1/1;
 99/9=1/99;
 Leave Link    1 at Mon Oct 14 00:44:24 2019, MaxMem= 10737418240 cpu:               0.9 elap:               0.0
 (Enter /apps/cent7/gaussian/g16-A.03/g16-haswell/g16/l101.exe)
 -------------------
 Title Card Required
 -------------------
 Symbolic Z-matrix:
 Charge =  1 Multiplicity = 1
 O                     2.4576    0.2295   -0.0454 
 C                     1.7876   -0.3309   -0.9427 
 O                     1.91      0.11     -2.2228 
 C                     2.6851   -0.5479   -3.2246 
 C                     0.7745   -1.3463   -0.5955 
 C                    -0.5318   -0.6788   -0.0878 
 C                    -1.6572   -1.7033    0.2052 
 C                    -2.9629   -1.0333    0.7163 
 C                    -4.067    -2.0766    1.0353 
 C                    -5.3747   -1.4369    1.5731 
 C                    -6.4657   -2.4915    1.9014 
 C                    -7.7679   -1.8438    2.4423 
 C                    -8.8641   -2.8906    2.7732 
 C                    -10.1633  -2.2332    3.3125 
 C                    -11.262   -3.2766    3.6435 
 C                    -12.5576  -2.6174    4.1811 
 C                    -13.6471  -3.669     4.5078 
 C                    -14.9465  -3.0195    5.0461 
 C                    -16.0348  -4.0751    5.372 
 C                    -17.3387  -3.4332    5.9114 
 C                    -18.4237  -4.4832    6.2365 
 H                     3.4323   -1.1821   -2.7476 
 H                     2.0315   -1.1605   -3.8456 
 H                     3.1833    0.1966   -3.8456 
 H                     0.5377   -1.8539   -1.5306 
 H                     1.1975   -1.9077    0.2375 
 H                    -0.2844   -0.2215    0.8702 
 H                    -0.894    -0.0608   -0.9093 
 H                    -1.906    -2.159    -0.7532 
 H                    -1.2939   -2.3228    1.0252 
 H                    -2.7108   -0.5578    1.6642 
 H                    -3.3416   -0.4329   -0.1109 
 H                    -4.3283   -2.5379    0.0829 
 H                    -3.676    -2.6886    1.8482 
 H                    -5.1133   -0.9672    2.5214 
 H                    -5.7733   -0.8335    0.7576 
 H                    -6.7308   -2.9594    0.9533 
 H                    -6.0674   -3.0972    2.7155 
 H                    -7.5014   -1.3758    3.39 
 H                    -8.1648   -1.2379    1.6278 
 H                    -9.1314   -3.3594    1.8262 
 H                    -8.4689   -3.4962    3.5887 
 H                    -9.8957   -1.7649    4.2597 
 H                    -10.5577  -1.6269    2.497 
 H                    -11.5305  -3.7454    2.6968 
 H                    -10.869   -3.8829    4.4596 
 H                    -12.2916  -2.1491    5.1287 
 H                    -12.9531  -2.0115    3.3658 
 H                    -13.9116  -4.137     3.5596 
 H                    -13.2501  -4.2747    5.3225 
 H                    -14.6823  -2.5515    5.9943 
 H                    -15.3437  -2.4139    4.2314 
 H                    -16.2974  -4.5428    4.4231 
 H                    -15.636   -4.6804    6.186 
 H                    -17.0773  -2.9657    6.8607 
 H                    -17.7388  -2.8281    5.0978 
 H                    -18.5235  -4.5797    7.3177 
 H                    -19.3756  -4.1658    5.8107 
 H                    -18.1378  -5.4449    5.8107 
 H                     3.41679   0.20868  -0.07874 
 
 ITRead=  0  0  0  0  0  0  0  0  0  0  0  0  0  0  0  0  0  0  0  0
 ITRead=  0  0  0  0  0  0  0  0  0  0  0  0  0  0  0  0  0  0  0  0
 ITRead=  0  0  0  0  0  0  0  0  0  0  0  0  0  0  0  0  0  0  0  0
 MicOpt= -1 -1 -1 -1 -1 -1 -1 -1 -1 -1 -1 -1 -1 -1 -1 -1 -1 -1 -1 -1
 MicOpt= -1 -1 -1 -1 -1 -1 -1 -1 -1 -1 -1 -1 -1 -1 -1 -1 -1 -1 -1 -1
 MicOpt= -1 -1 -1 -1 -1 -1 -1 -1 -1 -1 -1 -1 -1 -1 -1 -1 -1 -1 -1 -1
 NAtoms=     60 NQM=       60 NQMF=       0 NMMI=      0 NMMIF=      0
                NMic=       0 NMicF=      0.
                    Isotopes and Nuclear Properties:
 (Nuclear quadrupole moments (NQMom) in fm**2, nuclear magnetic moments (NMagM)
  in nuclear magnetons)

  Atom         1           2           3           4           5           6           7           8           9          10
 IAtWgt=          16          12          16          12          12          12          12          12          12          12
 AtmWgt=  15.9949146  12.0000000  15.9949146  12.0000000  12.0000000  12.0000000  12.0000000  12.0000000  12.0000000  12.0000000
 NucSpn=           0           0           0           0           0           0           0           0           0           0
 AtZEff=  -0.0000000  -0.0000000  -0.0000000  -0.0000000  -0.0000000  -0.0000000  -0.0000000  -0.0000000  -0.0000000  -0.0000000
 NQMom=    0.0000000   0.0000000   0.0000000   0.0000000   0.0000000   0.0000000   0.0000000   0.0000000   0.0000000   0.0000000
 NMagM=    0.0000000   0.0000000   0.0000000   0.0000000   0.0000000   0.0000000   0.0000000   0.0000000   0.0000000   0.0000000
 AtZNuc=   8.0000000   6.0000000   8.0000000   6.0000000   6.0000000   6.0000000   6.0000000   6.0000000   6.0000000   6.0000000

  Atom        11          12          13          14          15          16          17          18          19          20
 IAtWgt=          12          12          12          12          12          12          12          12          12          12
 AtmWgt=  12.0000000  12.0000000  12.0000000  12.0000000  12.0000000  12.0000000  12.0000000  12.0000000  12.0000000  12.0000000
 NucSpn=           0           0           0           0           0           0           0           0           0           0
 AtZEff=  -0.0000000  -0.0000000  -0.0000000  -0.0000000  -0.0000000  -0.0000000  -0.0000000  -0.0000000  -0.0000000  -0.0000000
 NQMom=    0.0000000   0.0000000   0.0000000   0.0000000   0.0000000   0.0000000   0.0000000   0.0000000   0.0000000   0.0000000
 NMagM=    0.0000000   0.0000000   0.0000000   0.0000000   0.0000000   0.0000000   0.0000000   0.0000000   0.0000000   0.0000000
 AtZNuc=   6.0000000   6.0000000   6.0000000   6.0000000   6.0000000   6.0000000   6.0000000   6.0000000   6.0000000   6.0000000

  Atom        21          22          23          24          25          26          27          28          29          30
 IAtWgt=          12           1           1           1           1           1           1           1           1           1
 AtmWgt=  12.0000000   1.0078250   1.0078250   1.0078250   1.0078250   1.0078250   1.0078250   1.0078250   1.0078250   1.0078250
 NucSpn=           0           1           1           1           1           1           1           1           1           1
 AtZEff=  -0.0000000  -0.0000000  -0.0000000  -0.0000000  -0.0000000  -0.0000000  -0.0000000  -0.0000000  -0.0000000  -0.0000000
 NQMom=    0.0000000   0.0000000   0.0000000   0.0000000   0.0000000   0.0000000   0.0000000   0.0000000   0.0000000   0.0000000
 NMagM=    0.0000000   2.7928460   2.7928460   2.7928460   2.7928460   2.7928460   2.7928460   2.7928460   2.7928460   2.7928460
 AtZNuc=   6.0000000   1.0000000   1.0000000   1.0000000   1.0000000   1.0000000   1.0000000   1.0000000   1.0000000   1.0000000

  Atom        31          32          33          34          35          36          37          38          39          40
 IAtWgt=           1           1           1           1           1           1           1           1           1           1
 AtmWgt=   1.0078250   1.0078250   1.0078250   1.0078250   1.0078250   1.0078250   1.0078250   1.0078250   1.0078250   1.0078250
 NucSpn=           1           1           1           1           1           1           1           1           1           1
 AtZEff=  -0.0000000  -0.0000000  -0.0000000  -0.0000000  -0.0000000  -0.0000000  -0.0000000  -0.0000000  -0.0000000  -0.0000000
 NQMom=    0.0000000   0.0000000   0.0000000   0.0000000   0.0000000   0.0000000   0.0000000   0.0000000   0.0000000   0.0000000
 NMagM=    2.7928460   2.7928460   2.7928460   2.7928460   2.7928460   2.7928460   2.7928460   2.7928460   2.7928460   2.7928460
 AtZNuc=   1.0000000   1.0000000   1.0000000   1.0000000   1.0000000   1.0000000   1.0000000   1.0000000   1.0000000   1.0000000

  Atom        41          42          43          44          45          46          47          48          49          50
 IAtWgt=           1           1           1           1           1           1           1           1           1           1
 AtmWgt=   1.0078250   1.0078250   1.0078250   1.0078250   1.0078250   1.0078250   1.0078250   1.0078250   1.0078250   1.0078250
 NucSpn=           1           1           1           1           1           1           1           1           1           1
 AtZEff=  -0.0000000  -0.0000000  -0.0000000  -0.0000000  -0.0000000  -0.0000000  -0.0000000  -0.0000000  -0.0000000  -0.0000000
 NQMom=    0.0000000   0.0000000   0.0000000   0.0000000   0.0000000   0.0000000   0.0000000   0.0000000   0.0000000   0.0000000
 NMagM=    2.7928460   2.7928460   2.7928460   2.7928460   2.7928460   2.7928460   2.7928460   2.7928460   2.7928460   2.7928460
 AtZNuc=   1.0000000   1.0000000   1.0000000   1.0000000   1.0000000   1.0000000   1.0000000   1.0000000   1.0000000   1.0000000

  Atom        51          52          53          54          55          56          57          58          59          60
 IAtWgt=           1           1           1           1           1           1           1           1           1           1
 AtmWgt=   1.0078250   1.0078250   1.0078250   1.0078250   1.0078250   1.0078250   1.0078250   1.0078250   1.0078250   1.0078250
 NucSpn=           1           1           1           1           1           1           1           1           1           1
 AtZEff=  -0.0000000  -0.0000000  -0.0000000  -0.0000000  -0.0000000  -0.0000000  -0.0000000  -0.0000000  -0.0000000  -0.0000000
 NQMom=    0.0000000   0.0000000   0.0000000   0.0000000   0.0000000   0.0000000   0.0000000   0.0000000   0.0000000   0.0000000
 NMagM=    2.7928460   2.7928460   2.7928460   2.7928460   2.7928460   2.7928460   2.7928460   2.7928460   2.7928460   2.7928460
 AtZNuc=   1.0000000   1.0000000   1.0000000   1.0000000   1.0000000   1.0000000   1.0000000   1.0000000   1.0000000   1.0000000
 Leave Link  101 at Mon Oct 14 00:44:24 2019, MaxMem= 10737418240 cpu:               9.0 elap:               0.4
 (Enter /apps/cent7/gaussian/g16-A.03/g16-haswell/g16/l103.exe)

 GradGradGradGradGradGradGradGradGradGradGradGradGradGradGradGradGradGrad
 Berny optimization.
 Initialization pass.
                           ----------------------------
                           !    Initial Parameters    !
                           ! (Angstroms and Degrees)  !
 --------------------------                            --------------------------
 ! Name  Definition              Value          Derivative Info.                !
 --------------------------------------------------------------------------------
 ! R1    R(1,2)                  1.2522         estimate D2E/DX2                !
 ! R2    R(1,60)                 0.96           estimate D2E/DX2                !
 ! R3    R(2,3)                  1.3594         estimate D2E/DX2                !
 ! R4    R(2,5)                  1.4758         estimate D2E/DX2                !
 ! R5    R(3,4)                  1.4273         estimate D2E/DX2                !
 ! R6    R(4,22)                 1.09           estimate D2E/DX2                !
 ! R7    R(4,23)                 1.09           estimate D2E/DX2                !
 ! R8    R(4,24)                 1.09           estimate D2E/DX2                !
 ! R9    R(5,6)                  1.5523         estimate D2E/DX2                !
 ! R10   R(5,25)                 1.09           estimate D2E/DX2                !
 ! R11   R(5,26)                 1.0899         estimate D2E/DX2                !
 ! R12   R(6,7)                  1.5498         estimate D2E/DX2                !
 ! R13   R(6,27)                 1.09           estimate D2E/DX2                !
 ! R14   R(6,28)                 1.0899         estimate D2E/DX2                !
 ! R15   R(7,8)                  1.554          estimate D2E/DX2                !
 ! R16   R(7,29)                 1.09           estimate D2E/DX2                !
 ! R17   R(7,30)                 1.09           estimate D2E/DX2                !
 ! R18   R(8,9)                  1.5522         estimate D2E/DX2                !
 ! R19   R(8,31)                 1.09           estimate D2E/DX2                !
 ! R20   R(8,32)                 1.09           estimate D2E/DX2                !
 ! R21   R(9,10)                 1.5519         estimate D2E/DX2                !
 ! R22   R(9,33)                 1.09           estimate D2E/DX2                !
 ! R23   R(9,34)                 1.0901         estimate D2E/DX2                !
 ! R24   R(10,11)                1.5525         estimate D2E/DX2                !
 ! R25   R(10,35)                1.0901         estimate D2E/DX2                !
 ! R26   R(10,36)                1.09           estimate D2E/DX2                !
 ! R27   R(11,12)                1.5517         estimate D2E/DX2                !
 ! R28   R(11,37)                1.09           estimate D2E/DX2                !
 ! R29   R(11,38)                1.0901         estimate D2E/DX2                !
 ! R30   R(12,13)                1.5514         estimate D2E/DX2                !
 ! R31   R(12,39)                1.09           estimate D2E/DX2                !
 ! R32   R(12,40)                1.09           estimate D2E/DX2                !
 ! R33   R(13,14)                1.5527         estimate D2E/DX2                !
 ! R34   R(13,41)                1.09           estimate D2E/DX2                !
 ! R35   R(13,42)                1.0899         estimate D2E/DX2                !
 ! R36   R(14,15)                1.5509         estimate D2E/DX2                !
 ! R37   R(14,43)                1.09           estimate D2E/DX2                !
 ! R38   R(14,44)                1.09           estimate D2E/DX2                !
 ! R39   R(15,16)                1.5499         estimate D2E/DX2                !
 ! R40   R(15,45)                1.09           estimate D2E/DX2                !
 ! R41   R(15,46)                1.09           estimate D2E/DX2                !
 ! R42   R(16,17)                1.5491         estimate D2E/DX2                !
 ! R43   R(16,47)                1.09           estimate D2E/DX2                !
 ! R44   R(16,48)                1.0901         estimate D2E/DX2                !
 ! R45   R(17,18)                1.5492         estimate D2E/DX2                !
 ! R46   R(17,49)                1.09           estimate D2E/DX2                !
 ! R47   R(17,50)                1.0901         estimate D2E/DX2                !
 ! R48   R(18,19)                1.5508         estimate D2E/DX2                !
 ! R49   R(18,51)                1.0899         estimate D2E/DX2                !
 ! R50   R(18,52)                1.0901         estimate D2E/DX2                !
 ! R51   R(19,20)                1.5502         estimate D2E/DX2                !
 ! R52   R(19,53)                1.09           estimate D2E/DX2                !
 ! R53   R(19,54)                1.09           estimate D2E/DX2                !
 ! R54   R(20,21)                1.5445         estimate D2E/DX2                !
 ! R55   R(20,55)                1.09           estimate D2E/DX2                !
 ! R56   R(20,56)                1.09           estimate D2E/DX2                !
 ! R57   R(21,57)                1.0901         estimate D2E/DX2                !
 ! R58   R(21,58)                1.09           estimate D2E/DX2                !
 ! R59   R(21,59)                1.0899         estimate D2E/DX2                !
 ! A1    A(2,1,60)             120.0            estimate D2E/DX2                !
 ! A2    A(1,2,3)              118.7788         estimate D2E/DX2                !
 ! A3    A(1,2,5)              120.4394         estimate D2E/DX2                !
 ! A4    A(3,2,5)              120.4307         estimate D2E/DX2                !
 ! A5    A(2,3,4)              124.0782         estimate D2E/DX2                !
 ! A6    A(3,4,22)             109.4696         estimate D2E/DX2                !
 ! A7    A(3,4,23)             109.4693         estimate D2E/DX2                !
 ! A8    A(3,4,24)             109.4662         estimate D2E/DX2                !
 ! A9    A(22,4,23)            109.4738         estimate D2E/DX2                !
 ! A10   A(22,4,24)            109.4761         estimate D2E/DX2                !
 ! A11   A(23,4,24)            109.4724         estimate D2E/DX2                !
 ! A12   A(2,5,6)              111.0245         estimate D2E/DX2                !
 ! A13   A(2,5,25)             105.5282         estimate D2E/DX2                !
 ! A14   A(2,5,26)             105.5318         estimate D2E/DX2                !
 ! A15   A(6,5,25)             107.3376         estimate D2E/DX2                !
 ! A16   A(6,5,26)             107.3439         estimate D2E/DX2                !
 ! A17   A(25,5,26)            120.0059         estimate D2E/DX2                !
 ! A18   A(5,6,7)              112.87           estimate D2E/DX2                !
 ! A19   A(5,6,27)             106.0725         estimate D2E/DX2                !
 ! A20   A(5,6,28)             106.0781         estimate D2E/DX2                !
 ! A21   A(7,6,27)             106.0211         estimate D2E/DX2                !
 ! A22   A(7,6,28)             106.0214         estimate D2E/DX2                !
 ! A23   A(27,6,28)            119.9987         estimate D2E/DX2                !
 ! A24   A(6,7,8)              112.7859         estimate D2E/DX2                !
 ! A25   A(6,7,29)             106.0147         estimate D2E/DX2                !
 ! A26   A(6,7,30)             106.0151         estimate D2E/DX2                !
 ! A27   A(8,7,29)             106.1198         estimate D2E/DX2                !
 ! A28   A(8,7,30)             106.1202         estimate D2E/DX2                !
 ! A29   A(29,7,30)            119.9947         estimate D2E/DX2                !
 ! A30   A(7,8,9)              112.0527         estimate D2E/DX2                !
 ! A31   A(7,8,31)             106.2457         estimate D2E/DX2                !
 ! A32   A(7,8,32)             106.2481         estimate D2E/DX2                !
 ! A33   A(9,8,31)             106.2007         estimate D2E/DX2                !
 ! A34   A(9,8,32)             106.2043         estimate D2E/DX2                !
 ! A35   A(31,8,32)            120.0001         estimate D2E/DX2                !
 ! A36   A(8,9,10)             113.1748         estimate D2E/DX2                !
 ! A37   A(8,9,33)             105.9861         estimate D2E/DX2                !
 ! A38   A(8,9,34)             105.9909         estimate D2E/DX2                !
 ! A39   A(10,9,33)            105.9757         estimate D2E/DX2                !
 ! A40   A(10,9,34)            105.9764         estimate D2E/DX2                !
 ! A41   A(33,9,34)            119.9981         estimate D2E/DX2                !
 ! A42   A(9,10,11)            112.67           estimate D2E/DX2                !
 ! A43   A(9,10,35)            106.0822         estimate D2E/DX2                !
 ! A44   A(9,10,36)            106.085          estimate D2E/DX2                !
 ! A45   A(11,10,35)           106.0966         estimate D2E/DX2                !
 ! A46   A(11,10,36)           106.0979         estimate D2E/DX2                !
 ! A47   A(35,10,36)           120.0032         estimate D2E/DX2                !
 ! A48   A(10,11,12)           112.3281         estimate D2E/DX2                !
 ! A49   A(10,11,37)           106.1752         estimate D2E/DX2                !
 ! A50   A(10,11,38)           106.1769         estimate D2E/DX2                !
 ! A51   A(12,11,37)           106.1575         estimate D2E/DX2                !
 ! A52   A(12,11,38)           106.1549         estimate D2E/DX2                !
 ! A53   A(37,11,38)           119.9965         estimate D2E/DX2                !
 ! A54   A(11,12,13)           112.6851         estimate D2E/DX2                !
 ! A55   A(11,12,39)           106.0874         estimate D2E/DX2                !
 ! A56   A(11,12,40)           106.0891         estimate D2E/DX2                !
 ! A57   A(13,12,39)           106.0814         estimate D2E/DX2                !
 ! A58   A(13,12,40)           106.091          estimate D2E/DX2                !
 ! A59   A(39,12,40)           120.0031         estimate D2E/DX2                !
 ! A60   A(12,13,14)           112.3099         estimate D2E/DX2                !
 ! A61   A(12,13,41)           106.1511         estimate D2E/DX2                !
 ! A62   A(12,13,42)           106.1579         estimate D2E/DX2                !
 ! A63   A(14,13,41)           106.181          estimate D2E/DX2                !
 ! A64   A(14,13,42)           106.1862         estimate D2E/DX2                !
 ! A65   A(41,13,42)           120.0005         estimate D2E/DX2                !
 ! A66   A(13,14,15)           112.46           estimate D2E/DX2                !
 ! A67   A(13,14,43)           106.159          estimate D2E/DX2                !
 ! A68   A(13,14,44)           106.1643         estimate D2E/DX2                !
 ! A69   A(15,14,43)           106.1109         estimate D2E/DX2                !
 ! A70   A(15,14,44)           106.1139         estimate D2E/DX2                !
 ! A71   A(43,14,44)           119.9988         estimate D2E/DX2                !
 ! A72   A(14,15,16)           112.3384         estimate D2E/DX2                !
 ! A73   A(14,15,45)           106.17           estimate D2E/DX2                !
 ! A74   A(14,15,46)           106.176          estimate D2E/DX2                !
 ! A75   A(16,15,45)           106.1572         estimate D2E/DX2                !
 ! A76   A(16,15,46)           106.1574         estimate D2E/DX2                !
 ! A77   A(45,15,46)           119.9914         estimate D2E/DX2                !
 ! A78   A(15,16,17)           111.8609         estimate D2E/DX2                !
 ! A79   A(15,16,47)           106.2778         estimate D2E/DX2                !
 ! A80   A(15,16,48)           106.2764         estimate D2E/DX2                !
 ! A81   A(17,16,47)           106.2579         estimate D2E/DX2                !
 ! A82   A(17,16,48)           106.2539         estimate D2E/DX2                !
 ! A83   A(47,16,48)           119.9986         estimate D2E/DX2                !
 ! A84   A(16,17,18)           112.2462         estimate D2E/DX2                !
 ! A85   A(16,17,49)           106.1816         estimate D2E/DX2                !
 ! A86   A(16,17,50)           106.182          estimate D2E/DX2                !
 ! A87   A(18,17,49)           106.1852         estimate D2E/DX2                !
 ! A88   A(18,17,50)           106.1849         estimate D2E/DX2                !
 ! A89   A(49,17,50)           119.9981         estimate D2E/DX2                !
 ! A90   A(17,18,19)           112.1022         estimate D2E/DX2                !
 ! A91   A(17,18,51)           106.2001         estimate D2E/DX2                !
 ! A92   A(17,18,52)           106.1915         estimate D2E/DX2                !
 ! A93   A(19,18,51)           106.2345         estimate D2E/DX2                !
 ! A94   A(19,18,52)           106.2313         estimate D2E/DX2                !
 ! A95   A(51,18,52)           119.9987         estimate D2E/DX2                !
 ! A96   A(18,19,20)           112.4292         estimate D2E/DX2                !
 ! A97   A(18,19,53)           106.1524         estimate D2E/DX2                !
 ! A98   A(18,19,54)           106.1523         estimate D2E/DX2                !
 ! A99   A(20,19,53)           106.1374         estimate D2E/DX2                !
 ! A100  A(20,19,54)           106.1316         estimate D2E/DX2                !
 ! A101  A(53,19,54)           119.9998         estimate D2E/DX2                !
 ! A102  A(19,20,21)           112.4961         estimate D2E/DX2                !
 ! A103  A(19,20,55)           106.1962         estimate D2E/DX2                !
 ! A104  A(19,20,56)           106.1935         estimate D2E/DX2                !
 ! A105  A(21,20,55)           106.0657         estimate D2E/DX2                !
 ! A106  A(21,20,56)           106.0603         estimate D2E/DX2                !
 ! A107  A(55,20,56)           119.9997         estimate D2E/DX2                !
 ! A108  A(20,21,57)           109.4678         estimate D2E/DX2                !
 ! A109  A(20,21,58)           109.469          estimate D2E/DX2                !
 ! A110  A(20,21,59)           109.4727         estimate D2E/DX2                !
 ! A111  A(57,21,58)           109.4678         estimate D2E/DX2                !
 ! A112  A(57,21,59)           109.475          estimate D2E/DX2                !
 ! A113  A(58,21,59)           109.475          estimate D2E/DX2                !
 ! D1    D(60,1,2,3)           -62.0008         estimate D2E/DX2                !
 ! D2    D(60,1,2,5)           124.7729         estimate D2E/DX2                !
 ! D3    D(1,2,3,4)            101.836          estimate D2E/DX2                !
 ! D4    D(5,2,3,4)            -84.9371         estimate D2E/DX2                !
 ! D5    D(1,2,5,6)             78.6554         estimate D2E/DX2                !
 ! D6    D(1,2,5,25)          -165.359          estimate D2E/DX2                !
 ! D7    D(1,2,5,26)           -37.3396         estimate D2E/DX2                !
 ! D8    D(3,2,5,6)            -94.4585         estimate D2E/DX2                !
 ! D9    D(3,2,5,25)            21.5271         estimate D2E/DX2                !
 ! D10   D(3,2,5,26)           149.5465         estimate D2E/DX2                !
 ! D11   D(2,3,4,22)           -21.6472         estimate D2E/DX2                !
 ! D12   D(2,3,4,23)            98.3537         estimate D2E/DX2                !
 ! D13   D(2,3,4,24)          -141.6491         estimate D2E/DX2                !
 ! D14   D(2,5,6,7)            176.3968         estimate D2E/DX2                !
 ! D15   D(2,5,6,27)           -67.9293         estimate D2E/DX2                !
 ! D16   D(2,5,6,28)            60.7191         estimate D2E/DX2                !
 ! D17   D(25,5,6,7)            61.534          estimate D2E/DX2                !
 ! D18   D(25,5,6,27)          177.2079         estimate D2E/DX2                !
 ! D19   D(25,5,6,28)          -54.1437         estimate D2E/DX2                !
 ! D20   D(26,5,6,7)           -68.7325         estimate D2E/DX2                !
 ! D21   D(26,5,6,27)           46.9414         estimate D2E/DX2                !
 ! D22   D(26,5,6,28)          175.5898         estimate D2E/DX2                !
 ! D23   D(5,6,7,8)            179.8726         estimate D2E/DX2                !
 ! D24   D(5,6,7,29)           -64.4135         estimate D2E/DX2                !
 ! D25   D(5,6,7,30)            64.158          estimate D2E/DX2                !
 ! D26   D(27,6,7,8)            64.168          estimate D2E/DX2                !
 ! D27   D(27,6,7,29)          179.8819         estimate D2E/DX2                !
 ! D28   D(27,6,7,30)          -51.5467         estimate D2E/DX2                !
 ! D29   D(28,6,7,8)           -64.4158         estimate D2E/DX2                !
 ! D30   D(28,6,7,29)           51.2981         estimate D2E/DX2                !
 ! D31   D(28,6,7,30)          179.8696         estimate D2E/DX2                !
 ! D32   D(6,7,8,9)           -178.6845         estimate D2E/DX2                !
 ! D33   D(6,7,8,31)           -63.1161         estimate D2E/DX2                !
 ! D34   D(6,7,8,32)            65.7415         estimate D2E/DX2                !
 ! D35   D(29,7,8,9)            65.6646         estimate D2E/DX2                !
 ! D36   D(29,7,8,31)         -178.767          estimate D2E/DX2                !
 ! D37   D(29,7,8,32)          -49.9095         estimate D2E/DX2                !
 ! D38   D(30,7,8,9)           -63.0328         estimate D2E/DX2                !
 ! D39   D(30,7,8,31)           52.5356         estimate D2E/DX2                !
 ! D40   D(30,7,8,32)         -178.6068         estimate D2E/DX2                !
 ! D41   D(7,8,9,10)           178.9382         estimate D2E/DX2                !
 ! D42   D(7,8,9,33)           -65.3357         estimate D2E/DX2                !
 ! D43   D(7,8,9,34)            63.2084         estimate D2E/DX2                !
 ! D44   D(31,8,9,10)           63.3424         estimate D2E/DX2                !
 ! D45   D(31,8,9,33)          179.0686         estimate D2E/DX2                !
 ! D46   D(31,8,9,34)          -52.3874         estimate D2E/DX2                !
 ! D47   D(32,8,9,10)          -65.4611         estimate D2E/DX2                !
 ! D48   D(32,8,9,33)           50.265          estimate D2E/DX2                !
 ! D49   D(32,8,9,34)          178.8091         estimate D2E/DX2                !
 ! D50   D(8,9,10,11)         -179.4351         estimate D2E/DX2                !
 ! D51   D(8,9,10,35)          -63.7686         estimate D2E/DX2                !
 ! D52   D(8,9,10,36)           64.8952         estimate D2E/DX2                !
 ! D53   D(33,9,10,11)          64.8326         estimate D2E/DX2                !
 ! D54   D(33,9,10,35)        -179.5009         estimate D2E/DX2                !
 ! D55   D(33,9,10,36)         -50.8371         estimate D2E/DX2                !
 ! D56   D(34,9,10,11)         -63.6967         estimate D2E/DX2                !
 ! D57   D(34,9,10,35)          51.9698         estimate D2E/DX2                !
 ! D58   D(34,9,10,36)        -179.3664         estimate D2E/DX2                !
 ! D59   D(9,10,11,12)         179.8303         estimate D2E/DX2                !
 ! D60   D(9,10,11,37)         -64.5522         estimate D2E/DX2                !
 ! D61   D(9,10,11,38)          64.2149         estimate D2E/DX2                !
 ! D62   D(35,10,11,12)         64.1724         estimate D2E/DX2                !
 ! D63   D(35,10,11,37)        179.7899         estimate D2E/DX2                !
 ! D64   D(35,10,11,38)        -51.443          estimate D2E/DX2                !
 ! D65   D(36,10,11,12)        -64.5078         estimate D2E/DX2                !
 ! D66   D(36,10,11,37)         51.1097         estimate D2E/DX2                !
 ! D67   D(36,10,11,38)        179.8768         estimate D2E/DX2                !
 ! D68   D(10,11,12,13)       -179.9988         estimate D2E/DX2                !
 ! D69   D(10,11,12,39)        -64.3396         estimate D2E/DX2                !
 ! D70   D(10,11,12,40)         64.3295         estimate D2E/DX2                !
 ! D71   D(37,11,12,13)         64.373          estimate D2E/DX2                !
 ! D72   D(37,11,12,39)       -179.9678         estimate D2E/DX2                !
 ! D73   D(37,11,12,40)        -51.2986         estimate D2E/DX2                !
 ! D74   D(38,11,12,13)        -64.3701         estimate D2E/DX2                !
 ! D75   D(38,11,12,39)         51.2891         estimate D2E/DX2                !
 ! D76   D(38,11,12,40)        179.9583         estimate D2E/DX2                !
 ! D77   D(11,12,13,14)       -179.9543         estimate D2E/DX2                !
 ! D78   D(11,12,13,41)        -64.3323         estimate D2E/DX2                !
 ! D79   D(11,12,13,42)         64.4136         estimate D2E/DX2                !
 ! D80   D(39,12,13,14)         64.3831         estimate D2E/DX2                !
 ! D81   D(39,12,13,41)       -179.995          estimate D2E/DX2                !
 ! D82   D(39,12,13,42)        -51.2491         estimate D2E/DX2                !
 ! D83   D(40,12,13,14)        -64.2838         estimate D2E/DX2                !
 ! D84   D(40,12,13,41)         51.3382         estimate D2E/DX2                !
 ! D85   D(40,12,13,42)       -179.9159         estimate D2E/DX2                !
 ! D86   D(12,13,14,15)        179.9588         estimate D2E/DX2                !
 ! D87   D(12,13,14,43)        -64.4208         estimate D2E/DX2                !
 ! D88   D(12,13,14,44)         64.3317         estimate D2E/DX2                !
 ! D89   D(41,13,14,15)         64.355          estimate D2E/DX2                !
 ! D90   D(41,13,14,43)        179.9753         estimate D2E/DX2                !
 ! D91   D(41,13,14,44)        -51.2722         estimate D2E/DX2                !
 ! D92   D(42,13,14,15)        -64.4261         estimate D2E/DX2                !
 ! D93   D(42,13,14,43)         51.1942         estimate D2E/DX2                !
 ! D94   D(42,13,14,44)        179.9468         estimate D2E/DX2                !
 ! D95   D(13,14,15,16)       -179.9818         estimate D2E/DX2                !
 ! D96   D(13,14,15,45)        -64.3623         estimate D2E/DX2                !
 ! D97   D(13,14,15,46)         64.395          estimate D2E/DX2                !
 ! D98   D(43,14,15,16)         64.3689         estimate D2E/DX2                !
 ! D99   D(43,14,15,45)        179.9883         estimate D2E/DX2                !
 ! D100  D(43,14,15,46)        -51.2544         estimate D2E/DX2                !
 ! D101  D(44,14,15,16)        -64.3243         estimate D2E/DX2                !
 ! D102  D(44,14,15,45)         51.2952         estimate D2E/DX2                !
 ! D103  D(44,14,15,46)       -179.9475         estimate D2E/DX2                !
 ! D104  D(14,15,16,17)        179.9923         estimate D2E/DX2                !
 ! D105  D(14,15,16,47)        -64.4512         estimate D2E/DX2                !
 ! D106  D(14,15,16,48)         64.4413         estimate D2E/DX2                !
 ! D107  D(45,15,16,17)         64.3651         estimate D2E/DX2                !
 ! D108  D(45,15,16,47)        179.9217         estimate D2E/DX2                !
 ! D109  D(45,15,16,48)        -51.1858         estimate D2E/DX2                !
 ! D110  D(46,15,16,17)        -64.3732         estimate D2E/DX2                !
 ! D111  D(46,15,16,47)         51.1833         estimate D2E/DX2                !
 ! D112  D(46,15,16,48)       -179.9242         estimate D2E/DX2                !
 ! D113  D(15,16,17,18)        179.9988         estimate D2E/DX2                !
 ! D114  D(15,16,17,49)        -64.3891         estimate D2E/DX2                !
 ! D115  D(15,16,17,50)         64.3869         estimate D2E/DX2                !
 ! D116  D(47,16,17,18)         64.4301         estimate D2E/DX2                !
 ! D117  D(47,16,17,49)       -179.9578         estimate D2E/DX2                !
 ! D118  D(47,16,17,50)        -51.1817         estimate D2E/DX2                !
 ! D119  D(48,16,17,18)        -64.4364         estimate D2E/DX2                !
 ! D120  D(48,16,17,49)         51.1756         estimate D2E/DX2                !
 ! D121  D(48,16,17,50)        179.9517         estimate D2E/DX2                !
 ! D122  D(16,17,18,19)        179.9986         estimate D2E/DX2                !
 ! D123  D(16,17,18,51)        -64.3938         estimate D2E/DX2                !
 ! D124  D(16,17,18,52)         64.3999         estimate D2E/DX2                !
 ! D125  D(49,17,18,19)         64.3887         estimate D2E/DX2                !
 ! D126  D(49,17,18,51)        179.9963         estimate D2E/DX2                !
 ! D127  D(49,17,18,52)        -51.21           estimate D2E/DX2                !
 ! D128  D(50,17,18,19)        -64.3912         estimate D2E/DX2                !
 ! D129  D(50,17,18,51)         51.2163         estimate D2E/DX2                !
 ! D130  D(50,17,18,52)       -179.9899         estimate D2E/DX2                !
 ! D131  D(17,18,19,20)        179.9998         estimate D2E/DX2                !
 ! D132  D(17,18,19,53)        -64.3678         estimate D2E/DX2                !
 ! D133  D(17,18,19,54)         64.3746         estimate D2E/DX2                !
 ! D134  D(51,18,19,20)         64.4131         estimate D2E/DX2                !
 ! D135  D(51,18,19,53)       -179.9545         estimate D2E/DX2                !
 ! D136  D(51,18,19,54)        -51.2121         estimate D2E/DX2                !
 ! D137  D(52,18,19,20)        -64.4257         estimate D2E/DX2                !
 ! D138  D(52,18,19,53)         51.2067         estimate D2E/DX2                !
 ! D139  D(52,18,19,54)        179.9491         estimate D2E/DX2                !
 ! D140  D(18,19,20,21)       -180.0            estimate D2E/DX2                !
 ! D141  D(18,19,20,55)        -64.3928         estimate D2E/DX2                !
 ! D142  D(18,19,20,56)         64.4009         estimate D2E/DX2                !
 ! D143  D(53,19,20,21)         64.3586         estimate D2E/DX2                !
 ! D144  D(53,19,20,55)        179.9658         estimate D2E/DX2                !
 ! D145  D(53,19,20,56)        -51.2405         estimate D2E/DX2                !
 ! D146  D(54,19,20,21)        -64.3623         estimate D2E/DX2                !
 ! D147  D(54,19,20,55)         51.2449         estimate D2E/DX2                !
 ! D148  D(54,19,20,56)       -179.9614         estimate D2E/DX2                !
 ! D149  D(19,20,21,57)        107.2251         estimate D2E/DX2                !
 ! D150  D(19,20,21,58)       -132.7825         estimate D2E/DX2                !
 ! D151  D(19,20,21,59)        -12.7783         estimate D2E/DX2                !
 ! D152  D(55,20,21,57)         -8.4606         estimate D2E/DX2                !
 ! D153  D(55,20,21,58)        111.5318         estimate D2E/DX2                !
 ! D154  D(55,20,21,59)       -128.4641         estimate D2E/DX2                !
 ! D155  D(56,20,21,57)       -137.0956         estimate D2E/DX2                !
 ! D156  D(56,20,21,58)        -17.1032         estimate D2E/DX2                !
 ! D157  D(56,20,21,59)        102.901          estimate D2E/DX2                !
 --------------------------------------------------------------------------------
 Trust Radius=3.00D-01 FncErr=1.00D-07 GrdErr=1.00D-06 EigMax=2.50D+02 EigMin=1.00D-04
 Number of steps in this run=    339 maximum allowed number of steps=    360.
 GradGradGradGradGradGradGradGradGradGradGradGradGradGradGradGradGradGrad

 Leave Link  103 at Mon Oct 14 00:44:24 2019, MaxMem= 10737418240 cpu:               0.7 elap:               0.1
 (Enter /apps/cent7/gaussian/g16-A.03/g16-haswell/g16/l202.exe)
 Stoichiometry    C19H39O2(1+)
 Framework group  C1[X(C19H39O2)]
 Deg. of freedom   174
 Full point group                 C1      NOp   1
 Largest Abelian subgroup         C1      NOp   1
 Largest concise Abelian subgroup C1      NOp   1
                         Standard orientation:                         
 ---------------------------------------------------------------------
 Center     Atomic      Atomic             Coordinates (Angstroms)
 Number     Number       Type             X           Y           Z
 ---------------------------------------------------------------------
      1          8           0       -9.669259   -1.530052   -0.066235
      2          6           0       -9.270340   -0.343410   -0.037259
      3          8           0       -9.904060    0.579115   -0.808867
      4          6           0      -10.857441    1.518082   -0.312256
      5          6           0       -8.044283    0.015381    0.701667
      6          6           0       -6.775206   -0.352937   -0.112900
      7          6           0       -5.462999    0.086586    0.584888
      8          6           0       -4.193710   -0.285870   -0.230683
      9          6           0       -2.888903    0.132566    0.498470
     10          6           0       -1.603352   -0.250969   -0.281777
     11          6           0       -0.305476    0.160291    0.464296
     12          6           0        0.974739   -0.230565   -0.320621
     13          6           0        2.277004    0.176695    0.417746
     14          6           0        3.552262   -0.217353   -0.375590
     15          6           0        4.856295    0.189134    0.359021
     16          6           0        6.127338   -0.205067   -0.435455
     17          6           0        7.422768    0.206030    0.307824
     18          6           0        8.699192   -0.183975   -0.478748
     19          6           0        9.993910    0.229087    0.268234
     20          6           0       11.276146   -0.157719   -0.512405
     21          6           0       12.566600    0.252981    0.230204
     22          1           0      -11.273097    1.151824    0.626431
     23          1           0      -10.368446    2.477488   -0.143331
     24          1           0      -11.658742    1.641939   -1.040748
     25          1           0       -8.066812    1.101196    0.794631
     26          1           0       -8.049093   -0.608422    1.595442
     27          1           0       -6.745992   -1.441908   -0.150077
     28          1           0       -6.831963    0.222545   -1.036791
     29          1           0       -5.491332    1.175646    0.620091
     30          1           0       -5.407527   -0.487272    1.509971
     31          1           0       -4.175416   -1.374334   -0.286185
     32          1           0       -4.234282    0.305880   -1.145199
     33          1           0       -2.902675    1.221814    0.537076
     34          1           0       -2.862707   -0.445235    1.422424
     35          1           0       -1.592517   -1.339936   -0.329253
     36          1           0       -1.622001    0.334496   -1.200959
     37          1           0       -0.313133    1.249341    0.509152
     38          1           0       -0.286652   -0.422957    1.385025
     39          1           0        0.980950   -1.319668   -0.365295
     40          1           0        0.954452    0.352591   -1.241258
     41          1           0        2.271910    1.265706    0.463137
     42          1           0        2.299158   -0.407015    1.337945
     43          1           0        3.557234   -1.306423   -0.420381
     44          1           0        3.529254    0.365872   -1.296194
     45          1           0        4.852412    1.278195    0.404166
     46          1           0        4.880803   -0.394254    1.279416
     47          1           0        6.133924   -1.294070   -0.480575
     48          1           0        6.105480    0.378427   -1.355948
     49          1           0        7.414540    1.295051    0.352910
     50          1           0        7.443000   -0.377407    1.228373
     51          1           0        8.707697   -1.272918   -0.523920
     52          1           0        8.679161    0.399553   -1.399264
     53          1           0        9.983635    1.318110    0.313369
     54          1           0       10.012171   -0.354361    1.188712
     55          1           0       11.287700   -1.246701   -0.557574
     56          1           0       11.259257    0.425796   -1.432946
     57          1           0       13.052110   -0.635733    0.633608
     58          1           0       13.242163    0.752375   -0.464333
     59          1           0       12.316338    0.931931    1.045254
     60          1           0      -10.561677   -1.743467    0.215977
 ---------------------------------------------------------------------
 Rotational constants (GHZ):           2.4471687           0.0297785           0.0297020
 Leave Link  202 at Mon Oct 14 00:44:24 2019, MaxMem= 10737418240 cpu:               0.3 elap:               0.0
 (Enter /apps/cent7/gaussian/g16-A.03/g16-haswell/g16/l301.exe)
 Standard basis: 6-31G(d) (6D, 7F)
 Ernie: Thresh=  0.10000D-02 Tol=  0.10000D-05 Strict=F.
 There are   393 symmetry adapted cartesian basis functions of A   symmetry.
 There are   393 symmetry adapted basis functions of A   symmetry.
   393 basis functions,   744 primitive gaussians,   393 cartesian basis functions
    84 alpha electrons       84 beta electrons
       nuclear repulsion energy      1471.9513711239 Hartrees.
 IExCor=  402 DFT=T Ex+Corr=B3LYP ExCW=0 ScaHFX=  0.200000
 ScaDFX=  0.800000  0.720000  1.000000  0.810000 ScalE2=  1.000000  1.000000
 IRadAn=      5 IRanWt=     -1 IRanGd=            0 ICorTp=0 IEmpDi=  4
 NAtoms=   60 NActive=   60 NUniq=   60 SFac= 1.00D+00 NAtFMM=   60 NAOKFM=T Big=T
 Integral buffers will be    131072 words long.
 Raffenetti 2 integral format.
 Two-electron integral symmetry is turned on.
 Leave Link  301 at Mon Oct 14 00:44:24 2019, MaxMem= 10737418240 cpu:               1.3 elap:               0.1
 (Enter /apps/cent7/gaussian/g16-A.03/g16-haswell/g16/l302.exe)
 NPDir=0 NMtPBC=     1 NCelOv=     1 NCel=       1 NClECP=     1 NCelD=      1
         NCelK=      1 NCelE2=     1 NClLst=     1 CellRange=     0.0.
 One-electron integrals computed using PRISM.
 One-electron integral symmetry used in STVInt
 NBasis=   393 RedAO= T EigKep=  2.38D-03  NBF=   393
 NBsUse=   393 1.00D-06 EigRej= -1.00D+00 NBFU=   393
 Precomputing XC quadrature grid using
 IXCGrd= 4 IRadAn=           5 IRanWt=          -1 IRanGd=           0 AccXCQ= 0.00D+00.
 Generated NRdTot=       0 NPtTot=           0 NUsed=           0 NTot=          32
 NSgBfM=   325   325   325   325   325 MxSgAt=    60 MxSgA2=    60.
 Leave Link  302 at Mon Oct 14 00:44:25 2019, MaxMem= 10737418240 cpu:              10.0 elap:               0.4
 (Enter /apps/cent7/gaussian/g16-A.03/g16-haswell/g16/l303.exe)
 DipDrv:  MaxL=1.
 Leave Link  303 at Mon Oct 14 00:44:25 2019, MaxMem= 10737418240 cpu:               1.2 elap:               0.1
 (Enter /apps/cent7/gaussian/g16-A.03/g16-haswell/g16/l401.exe)
 ExpMin= 1.61D-01 ExpMax= 5.48D+03 ExpMxC= 8.25D+02 IAcc=3 IRadAn=         5 AccDes= 0.00D+00
 Harris functional with IExCor=  402 and IRadAn=       5 diagonalized for initial guess.
 HarFok:  IExCor=  402 AccDes= 0.00D+00 IRadAn=         5 IDoV= 1 UseB2=F ITyADJ=14
 ICtDFT=  3500011 ScaDFX=  1.000000  1.000000  1.000000  1.000000
 FoFCou: FMM=F IPFlag=           0 FMFlag=      100000 FMFlg1=        2001
         NFxFlg=           0 DoJE=T BraDBF=F KetDBF=T FulRan=T
         wScrn=  0.000000 ICntrl=       500 IOpCl=  0 I1Cent=   200000004 NGrid=           0
         NMat0=    1 NMatS0=      1 NMatT0=    0 NMatD0=    1 NMtDS0=    0 NMtDT0=    0
 Petite list used in FoFCou.
 Harris En= -897.823594816397    
 JPrj=0 DoOrth=F DoCkMO=F.
 Leave Link  401 at Mon Oct 14 00:44:26 2019, MaxMem= 10737418240 cpu:              21.0 elap:               0.9
 (Enter /apps/cent7/gaussian/g16-A.03/g16-haswell/g16/l502.exe)
 Integral symmetry usage will be decided dynamically.
 Closed shell SCF:
 Using DIIS extrapolation, IDIIS=  1040.
 NGot= 10737418240 LenX= 10737094965 LenY= 10736940075
 Requested convergence on RMS density matrix=1.00D-08 within 128 cycles.
 Requested convergence on MAX density matrix=1.00D-06.
 Requested convergence on             energy=1.00D-06.
 No special actions if energy rises.
 Fock matrices will be formed incrementally for  20 cycles.
 Integral accuracy reduced to 1.0D-05 until final iterations.

 Cycle   1  Pass 0  IDiag  1:
 FoFJK:  IHMeth= 1 ICntrl=       0 DoSepK=F KAlg= 0 I1Cent=           0 FoldK=F
 IRaf= 730000000 NMat=       1 IRICut=       1 DoRegI=T DoRafI=F ISym2E= 0 IDoP0=0 IntGTp=1.
 FoFCou: FMM=T IPFlag=           0 FMFlag=      100000 FMFlg1=        2001
         NFxFlg=           0 DoJE=F BraDBF=F KetDBF=F FulRan=T
         wScrn=  0.000000 ICntrl=         0 IOpCl=  0 I1Cent=           0 NGrid=           0
         NMat0=    1 NMatS0=      1 NMatT0=    0 NMatD0=    1 NMtDS0=    0 NMtDT0=    0
 Symmetry not used in FoFCou.
 FMM levels:  10  Number of levels for PrismC:   9
 E= -896.837013896638    
 DIIS: error= 4.21D-02 at cycle   1 NSaved=   1.
 NSaved= 1 IEnMin= 1 EnMin= -896.837013896638     IErMin= 1 ErrMin= 4.21D-02
 ErrMax= 4.21D-02  0.00D+00 EMaxC= 1.00D-01 BMatC= 7.02D-01 BMatP= 7.02D-01
 IDIUse=3 WtCom= 5.79D-01 WtEn= 4.21D-01
 Coeff-Com:  0.100D+01
 Coeff-En:   0.100D+01
 Coeff:      0.100D+01
 Gap=     0.123 Goal=   None    Shift=    0.000
 GapD=    0.123 DampG=1.000 DampE=0.500 DampFc=0.5000 IDamp=-1.
 Damping current iteration by 5.00D-01
 RMSDP=5.93D-03 MaxDP=3.67D-01              OVMax= 7.06D-01

 Cycle   2  Pass 0  IDiag  1:
 RMSU=  2.92D-03    CP:  9.68D-01
 E= -896.897510445853     Delta-E=       -0.060496549214 Rises=F Damp=T
 DIIS: error= 1.32D-02 at cycle   2 NSaved=   2.
 NSaved= 2 IEnMin= 2 EnMin= -896.897510445853     IErMin= 2 ErrMin= 1.32D-02
 ErrMax= 1.32D-02  0.00D+00 EMaxC= 1.00D-01 BMatC= 1.26D-01 BMatP= 7.02D-01
 IDIUse=3 WtCom= 8.68D-01 WtEn= 1.32D-01
 Coeff-Com:  0.220D+00 0.780D+00
 Coeff-En:   0.467D+00 0.533D+00
 Coeff:      0.252D+00 0.748D+00
 Gap=     0.421 Goal=   None    Shift=    0.000
 RMSDP=2.23D-03 MaxDP=1.97D-01 DE=-6.05D-02 OVMax= 5.58D-01

 Cycle   3  Pass 0  IDiag  1:
 RMSU=  1.84D-03    CP:  9.69D-01  5.66D-01
 E= -897.430434702428     Delta-E=       -0.532924256575 Rises=F Damp=F
 DIIS: error= 1.93D-02 at cycle   3 NSaved=   3.
 NSaved= 3 IEnMin= 3 EnMin= -897.430434702428     IErMin= 2 ErrMin= 1.32D-02
 ErrMax= 1.93D-02  0.00D+00 EMaxC= 1.00D-01 BMatC= 1.56D-01 BMatP= 1.26D-01
 IDIUse=2 WtCom= 0.00D+00 WtEn= 1.00D+00
 Coeff-En:   0.000D+00 0.562D-01 0.944D+00
 Coeff:      0.000D+00 0.562D-01 0.944D+00
 Gap=     0.179 Goal=   None    Shift=    0.000
 RMSDP=3.74D-03 MaxDP=3.94D-01 DE=-5.33D-01 OVMax= 6.32D-01

 Cycle   4  Pass 0  IDiag  1:
 RMSU=  1.46D-03    CP:  9.65D-01  1.21D+00 -5.69D-01
 E= -895.858999844795     Delta-E=        1.571434857633 Rises=F Damp=F
 DIIS: error= 3.79D-02 at cycle   4 NSaved=   4.
 NSaved= 4 IEnMin= 3 EnMin= -897.430434702428     IErMin= 2 ErrMin= 1.32D-02
 ErrMax= 3.79D-02  0.00D+00 EMaxC= 1.00D-01 BMatC= 9.48D-01 BMatP= 1.26D-01
 IDIUse=2 WtCom= 0.00D+00 WtEn= 1.00D+00
 Coeff-En:   0.000D+00 0.000D+00 0.833D+00 0.167D+00
 Coeff:      0.000D+00 0.000D+00 0.833D+00 0.167D+00
 Gap=     0.018 Goal=   None    Shift=    0.000
 RMSDP=3.14D-03 MaxDP=3.35D-01 DE= 1.57D+00 OVMax= 9.48D-01

 Cycle   5  Pass 0  IDiag  1:
 RMSU=  1.12D-03    CP:  9.75D-01  5.87D-01  4.39D-01  7.46D-02
 E= -897.587763365534     Delta-E=       -1.728763520739 Rises=F Damp=F
 DIIS: error= 6.07D-03 at cycle   5 NSaved=   5.
 NSaved= 5 IEnMin= 5 EnMin= -897.587763365534     IErMin= 5 ErrMin= 6.07D-03
 ErrMax= 6.07D-03  0.00D+00 EMaxC= 1.00D-01 BMatC= 1.78D-02 BMatP= 1.26D-01
 IDIUse=3 WtCom= 9.39D-01 WtEn= 6.07D-02
 Coeff-Com: -0.226D-01 0.110D+00 0.270D+00 0.105D-01 0.633D+00
 Coeff-En:   0.000D+00 0.000D+00 0.000D+00 0.000D+00 0.100D+01
 Coeff:     -0.212D-01 0.103D+00 0.253D+00 0.988D-02 0.655D+00
 Gap=     0.059 Goal=   None    Shift=    0.000
 RMSDP=4.30D-04 MaxDP=2.30D-02 DE=-1.73D+00 OVMax= 2.57D-02

 Cycle   6  Pass 0  IDiag  1:
 RMSU=  3.23D-04    CP:  9.72D-01  6.22D-01  5.50D-01  2.67D-02  8.68D-01
 E= -897.602119577918     Delta-E=       -0.014356212384 Rises=F Damp=F
 DIIS: error= 2.77D-03 at cycle   6 NSaved=   6.
 NSaved= 6 IEnMin= 6 EnMin= -897.602119577918     IErMin= 6 ErrMin= 2.77D-03
 ErrMax= 2.77D-03  0.00D+00 EMaxC= 1.00D-01 BMatC= 2.94D-03 BMatP= 1.78D-02
 IDIUse=3 WtCom= 9.72D-01 WtEn= 2.77D-02
 Coeff-Com: -0.256D-01 0.683D-01 0.493D-01-0.152D-01 0.337D+00 0.587D+00
 Coeff-En:   0.000D+00 0.000D+00 0.000D+00 0.000D+00 0.146D-01 0.985D+00
 Coeff:     -0.249D-01 0.664D-01 0.479D-01-0.148D-01 0.328D+00 0.598D+00
 Gap=     0.034 Goal=   None    Shift=    0.000
 RMSDP=1.75D-04 MaxDP=9.39D-03 DE=-1.44D-02 OVMax= 1.55D-02

 Cycle   7  Pass 0  IDiag  1:
 RMSU=  1.18D-04    CP:  9.72D-01  6.34D-01  5.15D-01  2.70D-02  9.56D-01
                    CP:  8.74D-01
 E= -897.605099195929     Delta-E=       -0.002979618011 Rises=F Damp=F
 DIIS: error= 7.22D-04 at cycle   7 NSaved=   7.
 NSaved= 7 IEnMin= 7 EnMin= -897.605099195929     IErMin= 7 ErrMin= 7.22D-04
 ErrMax= 7.22D-04  0.00D+00 EMaxC= 1.00D-01 BMatC= 2.30D-04 BMatP= 2.94D-03
 IDIUse=3 WtCom= 9.93D-01 WtEn= 7.22D-03
 Coeff-Com: -0.807D-02 0.165D-01-0.184D-01-0.452D-02 0.495D-01 0.286D+00
 Coeff-Com:  0.678D+00
 Coeff-En:   0.000D+00 0.000D+00 0.000D+00 0.000D+00 0.000D+00 0.000D+00
 Coeff-En:   0.100D+01
 Coeff:     -0.801D-02 0.164D-01-0.183D-01-0.449D-02 0.492D-01 0.284D+00
 Coeff:      0.681D+00
 Gap=     0.031 Goal=   None    Shift=    0.000
 RMSDP=5.57D-05 MaxDP=4.14D-03 DE=-2.98D-03 OVMax= 5.45D-03

 Cycle   8  Pass 0  IDiag  1:
 RMSU=  4.46D-05    CP:  9.72D-01  6.38D-01  5.10D-01  2.75D-02  9.72D-01
                    CP:  9.46D-01  9.97D-01
 E= -897.605271139664     Delta-E=       -0.000171943735 Rises=F Damp=F
 DIIS: error= 3.75D-04 at cycle   8 NSaved=   8.
 NSaved= 8 IEnMin= 8 EnMin= -897.605271139664     IErMin= 8 ErrMin= 3.75D-04
 ErrMax= 3.75D-04  0.00D+00 EMaxC= 1.00D-01 BMatC= 6.18D-05 BMatP= 2.30D-04
 IDIUse=3 WtCom= 9.96D-01 WtEn= 3.75D-03
 Coeff-Com: -0.223D-02 0.233D-02-0.161D-01-0.183D-03-0.725D-02 0.112D+00
 Coeff-Com:  0.426D+00 0.485D+00
 Coeff-En:   0.000D+00 0.000D+00 0.000D+00 0.000D+00 0.000D+00 0.000D+00
 Coeff-En:   0.874D-01 0.913D+00
 Coeff:     -0.222D-02 0.232D-02-0.160D-01-0.182D-03-0.723D-02 0.111D+00
 Coeff:      0.425D+00 0.487D+00
 Gap=     0.032 Goal=   None    Shift=    0.000
 RMSDP=1.86D-05 MaxDP=1.55D-03 DE=-1.72D-04 OVMax= 1.37D-03

 Cycle   9  Pass 0  IDiag  1:
 RMSU=  1.31D-05    CP:  9.72D-01  6.39D-01  5.09D-01  2.76D-02  9.73D-01
                    CP:  9.62D-01  1.03D+00  7.44D-01
 E= -897.605320619269     Delta-E=       -0.000049479605 Rises=F Damp=F
 DIIS: error= 6.65D-05 at cycle   9 NSaved=   9.
 NSaved= 9 IEnMin= 9 EnMin= -897.605320619269     IErMin= 9 ErrMin= 6.65D-05
 ErrMax= 6.65D-05  0.00D+00 EMaxC= 1.00D-01 BMatC= 1.69D-06 BMatP= 6.18D-05
 IDIUse=1 WtCom= 1.00D+00 WtEn= 0.00D+00
 Coeff-Com: -0.158D-03-0.184D-03-0.457D-02 0.207D-03-0.657D-02 0.175D-01
 Coeff-Com:  0.101D+00 0.180D+00 0.713D+00
 Coeff:     -0.158D-03-0.184D-03-0.457D-02 0.207D-03-0.657D-02 0.175D-01
 Coeff:      0.101D+00 0.180D+00 0.713D+00
 Gap=     0.032 Goal=   None    Shift=    0.000
 RMSDP=5.31D-06 MaxDP=3.18D-04 DE=-4.95D-05 OVMax= 7.20D-04

 Initial convergence to 1.0D-05 achieved.  Increase integral accuracy.
 Cycle  10  Pass 1  IDiag  1:
 E= -897.605124494928     Delta-E=        0.000196124342 Rises=F Damp=F
 DIIS: error= 4.44D-05 at cycle   1 NSaved=   1.
 NSaved= 1 IEnMin= 1 EnMin= -897.605124494928     IErMin= 1 ErrMin= 4.44D-05
 ErrMax= 4.44D-05  0.00D+00 EMaxC= 1.00D-01 BMatC= 9.35D-07 BMatP= 9.35D-07
 IDIUse=1 WtCom= 1.00D+00 WtEn= 0.00D+00
 Coeff-Com:  0.100D+01
 Coeff:      0.100D+01
 Gap=     0.032 Goal=   None    Shift=    0.000
 RMSDP=5.31D-06 MaxDP=3.18D-04 DE= 1.96D-04 OVMax= 3.88D-04

 Cycle  11  Pass 1  IDiag  1:
 RMSU=  9.76D-06    CP:  1.00D+00
 E= -897.605123895821     Delta-E=        0.000000599107 Rises=F Damp=F
 DIIS: error= 7.60D-05 at cycle   2 NSaved=   2.
 NSaved= 2 IEnMin= 1 EnMin= -897.605124494928     IErMin= 1 ErrMin= 4.44D-05
 ErrMax= 7.60D-05  0.00D+00 EMaxC= 1.00D-01 BMatC= 1.79D-06 BMatP= 9.35D-07
 IDIUse=1 WtCom= 1.00D+00 WtEn= 0.00D+00
 Coeff-Com:  0.587D+00 0.413D+00
 Coeff:      0.587D+00 0.413D+00
 Gap=     0.032 Goal=   None    Shift=    0.000
 RMSDP=2.87D-06 MaxDP=2.85D-04 DE= 5.99D-07 OVMax= 2.68D-04

 Cycle  12  Pass 1  IDiag  1:
 RMSU=  2.59D-06    CP:  1.00D+00  8.73D-01
 E= -897.605125281800     Delta-E=       -0.000001385979 Rises=F Damp=F
 DIIS: error= 1.08D-05 at cycle   3 NSaved=   3.
 NSaved= 3 IEnMin= 3 EnMin= -897.605125281800     IErMin= 3 ErrMin= 1.08D-05
 ErrMax= 1.08D-05  0.00D+00 EMaxC= 1.00D-01 BMatC= 3.91D-08 BMatP= 9.35D-07
 IDIUse=1 WtCom= 1.00D+00 WtEn= 0.00D+00
 Coeff-Com:  0.966D-01 0.148D+00 0.756D+00
 Coeff:      0.966D-01 0.148D+00 0.756D+00
 Gap=     0.032 Goal=   None    Shift=    0.000
 RMSDP=6.54D-07 MaxDP=4.75D-05 DE=-1.39D-06 OVMax= 5.78D-05

 Cycle  13  Pass 1  IDiag  1:
 RMSU=  6.16D-07    CP:  1.00D+00  8.85D-01  9.27D-01
 E= -897.605125295704     Delta-E=       -0.000000013904 Rises=F Damp=F
 DIIS: error= 6.15D-06 at cycle   4 NSaved=   4.
 NSaved= 4 IEnMin= 4 EnMin= -897.605125295704     IErMin= 4 ErrMin= 6.15D-06
 ErrMax= 6.15D-06  0.00D+00 EMaxC= 1.00D-01 BMatC= 1.86D-08 BMatP= 3.91D-08
 IDIUse=1 WtCom= 1.00D+00 WtEn= 0.00D+00
 Coeff-Com: -0.284D-02 0.490D-01 0.485D+00 0.469D+00
 Coeff:     -0.284D-02 0.490D-01 0.485D+00 0.469D+00
 Gap=     0.032 Goal=   None    Shift=    0.000
 RMSDP=3.20D-07 MaxDP=2.55D-05 DE=-1.39D-08 OVMax= 2.28D-05

 Cycle  14  Pass 1  IDiag  1:
 RMSU=  1.06D-07    CP:  1.00D+00  8.90D-01  9.30D-01  5.18D-01
 E= -897.605125311511     Delta-E=       -0.000000015807 Rises=F Damp=F
 DIIS: error= 7.27D-07 at cycle   5 NSaved=   5.
 NSaved= 5 IEnMin= 5 EnMin= -897.605125311511     IErMin= 5 ErrMin= 7.27D-07
 ErrMax= 7.27D-07  0.00D+00 EMaxC= 1.00D-01 BMatC= 3.07D-10 BMatP= 1.86D-08
 IDIUse=1 WtCom= 1.00D+00 WtEn= 0.00D+00
 Coeff-Com: -0.288D-02 0.255D-01 0.262D+00 0.266D+00 0.449D+00
 Coeff:     -0.288D-02 0.255D-01 0.262D+00 0.266D+00 0.449D+00
 Gap=     0.032 Goal=   None    Shift=    0.000
 RMSDP=4.90D-08 MaxDP=2.68D-06 DE=-1.58D-08 OVMax= 6.92D-06

 Cycle  15  Pass 1  IDiag  1:
 RMSU=  4.61D-08    CP:  1.00D+00  8.91D-01  9.28D-01  5.07D-01  9.00D-01
 E= -897.605125311783     Delta-E=       -0.000000000272 Rises=F Damp=F
 DIIS: error= 1.28D-07 at cycle   6 NSaved=   6.
 NSaved= 6 IEnMin= 6 EnMin= -897.605125311783     IErMin= 6 ErrMin= 1.28D-07
 ErrMax= 1.28D-07  0.00D+00 EMaxC= 1.00D-01 BMatC= 8.10D-12 BMatP= 3.07D-10
 IDIUse=1 WtCom= 1.00D+00 WtEn= 0.00D+00
 Coeff-Com: -0.405D-03 0.103D-02 0.117D-01 0.145D-01 0.138D+00 0.835D+00
 Coeff:     -0.405D-03 0.103D-02 0.117D-01 0.145D-01 0.138D+00 0.835D+00
 Gap=     0.032 Goal=   None    Shift=    0.000
 RMSDP=1.45D-08 MaxDP=6.22D-07 DE=-2.72D-10 OVMax= 2.69D-06

 Cycle  16  Pass 1  IDiag  1:
 RMSU=  9.12D-09    CP:  1.00D+00  8.91D-01  9.29D-01  5.12D-01  9.93D-01
                    CP:  1.06D+00
 E= -897.605125311783     Delta-E=        0.000000000000 Rises=F Damp=F
 DIIS: error= 2.92D-08 at cycle   7 NSaved=   7.
 NSaved= 7 IEnMin= 6 EnMin= -897.605125311783     IErMin= 7 ErrMin= 2.92D-08
 ErrMax= 2.92D-08  0.00D+00 EMaxC= 1.00D-01 BMatC= 1.15D-12 BMatP= 8.10D-12
 IDIUse=1 WtCom= 1.00D+00 WtEn= 0.00D+00
 Coeff-Com:  0.977D-04-0.221D-02-0.221D-01-0.212D-01 0.205D-01 0.373D+00
 Coeff-Com:  0.652D+00
 Coeff:      0.977D-04-0.221D-02-0.221D-01-0.212D-01 0.205D-01 0.373D+00
 Coeff:      0.652D+00
 Gap=     0.032 Goal=   None    Shift=    0.000
 RMSDP=4.64D-09 MaxDP=1.88D-07 DE= 4.55D-13 OVMax= 5.44D-07

 SCF Done:  E(RB3LYP) =  -897.605125312     A.U. after   16 cycles
            NFock= 16  Conv=0.46D-08     -V/T= 2.0094
 KE= 8.892100831072D+02 PE=-5.007647827932D+03 EE= 1.748881248389D+03
 Leave Link  502 at Mon Oct 14 00:44:38 2019, MaxMem= 10737418240 cpu:             285.2 elap:              12.0
 (Enter /apps/cent7/gaussian/g16-A.03/g16-haswell/g16/l601.exe)
 Copying SCF densities to generalized density rwf, IOpCl= 0 IROHF=0.

 **********************************************************************

            Population analysis using the SCF density.

 **********************************************************************

 Orbital symmetries:
       Occupied  (A) (A) (A) (A) (A) (A) (A) (A) (A) (A) (A) (A)
                 (A) (A) (A) (A) (A) (A) (A) (A) (A) (A) (A) (A)
                 (A) (A) (A) (A) (A) (A) (A) (A) (A) (A) (A) (A)
                 (A) (A) (A) (A) (A) (A) (A) (A) (A) (A) (A) (A)
                 (A) (A) (A) (A) (A) (A) (A) (A) (A) (A) (A) (A)
                 (A) (A) (A) (A) (A) (A) (A) (A) (A) (A) (A) (A)
                 (A) (A) (A) (A) (A) (A) (A) (A) (A) (A) (A) (A)
       Virtual   (A) (A) (A) (A) (A) (A) (A) (A) (A) (A) (A) (A)
                 (A) (A) (A) (A) (A) (A) (A) (A) (A) (A) (A) (A)
                 (A) (A) (A) (A) (A) (A) (A) (A) (A) (A) (A) (A)
                 (A) (A) (A) (A) (A) (A) (A) (A) (A) (A) (A) (A)
                 (A) (A) (A) (A) (A) (A) (A) (A) (A) (A) (A) (A)
                 (A) (A) (A) (A) (A) (A) (A) (A) (A) (A) (A) (A)
                 (A) (A) (A) (A) (A) (A) (A) (A) (A) (A) (A) (A)
                 (A) (A) (A) (A) (A) (A) (A) (A) (A) (A) (A) (A)
                 (A) (A) (A) (A) (A) (A) (A) (A) (A) (A) (A) (A)
                 (A) (A) (A) (A) (A) (A) (A) (A) (A) (A) (A) (A)
                 (A) (A) (A) (A) (A) (A) (A) (A) (A) (A) (A) (A)
                 (A) (A) (A) (A) (A) (A) (A) (A) (A) (A) (A) (A)
                 (A) (A) (A) (A) (A) (A) (A) (A) (A) (A) (A) (A)
                 (A) (A) (A) (A) (A) (A) (A) (A) (A) (A) (A) (A)
                 (A) (A) (A) (A) (A) (A) (A) (A) (A) (A) (A) (A)
                 (A) (A) (A) (A) (A) (A) (A) (A) (A) (A) (A) (A)
                 (A) (A) (A) (A) (A) (A) (A) (A) (A) (A) (A) (A)
                 (A) (A) (A) (A) (A) (A) (A) (A) (A) (A) (A) (A)
                 (A) (A) (A) (A) (A) (A) (A) (A) (A) (A) (A) (A)
                 (A) (A) (A) (A) (A) (A) (A) (A) (A) (A) (A) (A)
                 (A) (A) (A) (A) (A) (A) (A) (A) (A) (A) (A) (A)
                 (A) (A) (A) (A) (A) (A) (A) (A) (A) (A) (A) (A)
                 (A) (A) (A) (A) (A) (A) (A) (A) (A) (A) (A) (A)
                 (A) (A) (A) (A) (A) (A) (A) (A) (A) (A) (A) (A)
                 (A) (A) (A) (A) (A) (A) (A) (A) (A) (A) (A) (A)
                 (A) (A) (A) (A) (A) (A) (A) (A) (A)
 The electronic state is 1-A.
 Alpha  occ. eigenvalues --  -19.43648 -19.39394 -10.58154 -10.42161 -10.38649
 Alpha  occ. eigenvalues --  -10.34983 -10.30854 -10.28382 -10.26471 -10.25000
 Alpha  occ. eigenvalues --  -10.23901 -10.22998 -10.22303 -10.21728 -10.21247
 Alpha  occ. eigenvalues --  -10.20862 -10.20538 -10.20254 -10.20094 -10.20008
 Alpha  occ. eigenvalues --  -10.19163  -1.36599  -1.26339  -1.00110  -0.93226
 Alpha  occ. eigenvalues --   -0.90072  -0.87810  -0.86177  -0.84515  -0.83184
 Alpha  occ. eigenvalues --   -0.81550  -0.79520  -0.77170  -0.75463  -0.74247
 Alpha  occ. eigenvalues --   -0.71797  -0.70368  -0.68790  -0.68074  -0.66129
 Alpha  occ. eigenvalues --   -0.65559  -0.63967  -0.63676  -0.62651  -0.61999
 Alpha  occ. eigenvalues --   -0.60481  -0.59808  -0.59322  -0.58706  -0.57634
 Alpha  occ. eigenvalues --   -0.56504  -0.55686  -0.54648  -0.53701  -0.53345
 Alpha  occ. eigenvalues --   -0.52053  -0.50525  -0.50312  -0.48846  -0.48739
 Alpha  occ. eigenvalues --   -0.47381  -0.47106  -0.45458  -0.45373  -0.44876
 Alpha  occ. eigenvalues --   -0.43668  -0.43628  -0.42872  -0.42039  -0.41747
 Alpha  occ. eigenvalues --   -0.40570  -0.39816  -0.39440  -0.39253  -0.38103
 Alpha  occ. eigenvalues --   -0.37984  -0.37162  -0.36290  -0.35915  -0.35519
 Alpha  occ. eigenvalues --   -0.34760  -0.33502  -0.32431  -0.31630
 Alpha virt. eigenvalues --   -0.28442  -0.13412  -0.07698  -0.06386  -0.04117
 Alpha virt. eigenvalues --   -0.02091  -0.01329   0.00092   0.00860   0.01178
 Alpha virt. eigenvalues --    0.02036   0.02673   0.03362   0.03771   0.04473
 Alpha virt. eigenvalues --    0.05185   0.05519   0.06364   0.06875   0.07064
 Alpha virt. eigenvalues --    0.07689   0.08286   0.08387   0.08937   0.09560
 Alpha virt. eigenvalues --    0.09980   0.10747   0.10825   0.11494   0.11773
 Alpha virt. eigenvalues --    0.11922   0.12805   0.13035   0.13300   0.13928
 Alpha virt. eigenvalues --    0.14017   0.14312   0.14736   0.14955   0.15445
 Alpha virt. eigenvalues --    0.15863   0.16135   0.16506   0.16831   0.17043
 Alpha virt. eigenvalues --    0.17132   0.17433   0.17944   0.18498   0.18635
 Alpha virt. eigenvalues --    0.19266   0.19884   0.20519   0.21374   0.22509
 Alpha virt. eigenvalues --    0.23521   0.24158   0.25373   0.29075   0.29280
 Alpha virt. eigenvalues --    0.29971   0.32801   0.33107   0.35675   0.36378
 Alpha virt. eigenvalues --    0.38515   0.39327   0.42012   0.42366   0.43659
 Alpha virt. eigenvalues --    0.44827   0.45462   0.46664   0.47334   0.48624
 Alpha virt. eigenvalues --    0.50013   0.50838   0.51870   0.52553   0.53176
 Alpha virt. eigenvalues --    0.53686   0.54036   0.55536   0.55793   0.55976
 Alpha virt. eigenvalues --    0.56884   0.57315   0.57794   0.58086   0.58998
 Alpha virt. eigenvalues --    0.59289   0.59851   0.60448   0.61255   0.61730
 Alpha virt. eigenvalues --    0.62870   0.63912   0.64422   0.64727   0.66080
 Alpha virt. eigenvalues --    0.66272   0.66920   0.67407   0.68738   0.68923
 Alpha virt. eigenvalues --    0.69606   0.70137   0.70963   0.71549   0.72404
 Alpha virt. eigenvalues --    0.72929   0.73701   0.74292   0.74944   0.75656
 Alpha virt. eigenvalues --    0.76131   0.76527   0.77892   0.77947   0.78573
 Alpha virt. eigenvalues --    0.79124   0.79884   0.80041   0.80337   0.80382
 Alpha virt. eigenvalues --    0.81356   0.82071   0.82676   0.82706   0.83620
 Alpha virt. eigenvalues --    0.84181   0.85272   0.85429   0.85982   0.86449
 Alpha virt. eigenvalues --    0.86601   0.87110   0.87724   0.88156   0.88481
 Alpha virt. eigenvalues --    0.88884   0.89398   0.89855   0.90307   0.90605
 Alpha virt. eigenvalues --    0.90877   0.91798   0.92532   0.92681   0.93862
 Alpha virt. eigenvalues --    0.94296   0.95058   0.95280   0.95336   0.96031
 Alpha virt. eigenvalues --    0.96261   0.97242   0.98024   1.03955   1.04236
 Alpha virt. eigenvalues --    1.04605   1.07057   1.11505   1.12535   1.13839
 Alpha virt. eigenvalues --    1.17694   1.19767   1.22482   1.23628   1.25395
 Alpha virt. eigenvalues --    1.27545   1.29813   1.30722   1.32350   1.33594
 Alpha virt. eigenvalues --    1.33971   1.35361   1.36633   1.38157   1.39245
 Alpha virt. eigenvalues --    1.40597   1.41940   1.44075   1.44918   1.46074
 Alpha virt. eigenvalues --    1.47715   1.50781   1.53236   1.54551   1.55993
 Alpha virt. eigenvalues --    1.56542   1.59971   1.62399   1.63327   1.65293
 Alpha virt. eigenvalues --    1.68713   1.69925   1.71218   1.73713   1.74073
 Alpha virt. eigenvalues --    1.75408   1.77560   1.77634   1.80753   1.80827
 Alpha virt. eigenvalues --    1.81654   1.83449   1.84369   1.85845   1.85970
 Alpha virt. eigenvalues --    1.86793   1.88016   1.88502   1.89084   1.90270
 Alpha virt. eigenvalues --    1.90709   1.92133   1.92791   1.93572   1.93968
 Alpha virt. eigenvalues --    1.94841   1.95047   1.95999   1.96704   1.97732
 Alpha virt. eigenvalues --    1.97821   1.99092   2.00099   2.01321   2.02273
 Alpha virt. eigenvalues --    2.02637   2.03602   2.04135   2.05191   2.05670
 Alpha virt. eigenvalues --    2.06353   2.06920   2.07956   2.09273   2.09432
 Alpha virt. eigenvalues --    2.11022   2.11996   2.13992   2.14817   2.15334
 Alpha virt. eigenvalues --    2.16867   2.18082   2.19134   2.19215   2.21149
 Alpha virt. eigenvalues --    2.22113   2.22436   2.24210   2.24862   2.24929
 Alpha virt. eigenvalues --    2.26123   2.27110   2.28200   2.29898   2.30131
 Alpha virt. eigenvalues --    2.31099   2.32857   2.33608   2.35761   2.37850
 Alpha virt. eigenvalues --    2.39906   2.44955   2.46651   2.49679   2.50396
 Alpha virt. eigenvalues --    2.52969   2.54464   2.55430   2.57661   2.58484
 Alpha virt. eigenvalues --    2.61690   2.62059   2.63697   2.64939   2.68117
 Alpha virt. eigenvalues --    2.68639   2.71167   2.72907   2.76748   2.79132
 Alpha virt. eigenvalues --    2.79810   2.83118   2.84303   3.70580   3.88227
 Alpha virt. eigenvalues --    3.93661   4.03409   4.06311   4.08119   4.10685
 Alpha virt. eigenvalues --    4.14131   4.17925   4.21825   4.25640   4.29087
 Alpha virt. eigenvalues --    4.31967   4.34259   4.36170   4.38322   4.41036
 Alpha virt. eigenvalues --    4.44175   4.47786   4.51759   4.55659
          Condensed to atoms (all electrons):
 Mulliken charges:
               1
     1  O   -0.440090
     2  C    0.626978
     3  O   -0.410527
     4  C   -0.252781
     5  C   -0.330682
     6  C   -0.291422
     7  C   -0.262898
     8  C   -0.260906
     9  C   -0.254895
    10  C   -0.253617
    11  C   -0.252250
    12  C   -0.250428
    13  C   -0.250443
    14  C   -0.249482
    15  C   -0.248940
    16  C   -0.249084
    17  C   -0.248393
    18  C   -0.248658
    19  C   -0.256947
    20  C   -0.242538
    21  C   -0.451260
    22  H    0.187226
    23  H    0.219240
    24  H    0.239392
    25  H    0.215186
    26  H    0.222476
    27  H    0.186476
    28  H    0.184017
    29  H    0.153032
    30  H    0.154375
    31  H    0.144472
    32  H    0.144986
    33  H    0.137490
    34  H    0.137066
    35  H    0.133346
    36  H    0.133815
    37  H    0.130843
    38  H    0.130621
    39  H    0.128896
    40  H    0.129036
    41  H    0.127636
    42  H    0.127611
    43  H    0.126719
    44  H    0.126745
    45  H    0.126084
    46  H    0.126086
    47  H    0.125820
    48  H    0.125817
    49  H    0.125243
    50  H    0.125307
    51  H    0.125304
    52  H    0.125378
    53  H    0.127619
    54  H    0.128253
    55  H    0.133276
    56  H    0.132115
    57  H    0.144695
    58  H    0.145685
    59  H    0.146153
    60  H    0.495724
 Sum of Mulliken charges =   1.00000
 Mulliken charges with hydrogens summed into heavy atoms:
               1
     1  O    0.055635
     2  C    0.626978
     3  O   -0.410527
     4  C    0.393077
     5  C    0.106981
     6  C    0.079071
     7  C    0.044508
     8  C    0.028553
     9  C    0.019660
    10  C    0.013545
    11  C    0.009214
    12  C    0.007503
    13  C    0.004804
    14  C    0.003982
    15  C    0.003230
    16  C    0.002553
    17  C    0.002157
    18  C    0.002024
    19  C   -0.001075
    20  C    0.022854
    21  C   -0.014726
 Electronic spatial extent (au):  <R**2>=          34538.6332
 Charge=              1.0000 electrons
 Dipole moment (field-independent basis, Debye):
    X=            -42.4345    Y=             -0.2114    Z=              1.5254  Tot=             42.4624
 Quadrupole moment (field-independent basis, Debye-Ang):
   XX=            295.4084   YY=           -121.8208   ZZ=           -136.4842
   XY=              0.8417   XZ=            -14.1227   YZ=             -6.8479
 Traceless Quadrupole moment (field-independent basis, Debye-Ang):
   XX=            283.0406   YY=           -134.1886   ZZ=           -148.8520
   XY=              0.8417   XZ=            -14.1227   YZ=             -6.8479
 Octapole moment (field-independent basis, Debye-Ang**2):
  XXX=          -4496.6116  YYY=             -1.4579  ZZZ=             -1.5104  XYY=           -131.9522
  XXY=            -14.3795  XXZ=            110.7912  XZZ=            -67.1201  YZZ=             -1.5604
  YYZ=              0.1993  XYZ=              4.8043
 Hexadecapole moment (field-independent basis, Debye-Ang**3):
 XXXX=            763.1734 YYYY=           -447.3045 ZZZZ=           -409.5787 XXXY=            -38.1796
 XXXZ=          -1171.8495 YYYX=             -1.1569 YYYZ=            -12.2207 ZZZX=             23.0218
 ZZZY=            -21.4177 XXYY=          -6342.7919 XXZZ=          -7527.7770 YYZZ=           -148.9171
 XXYZ=           -422.1019 YYXZ=              5.4497 ZZXY=             25.2733
 N-N= 1.471951371124D+03 E-N=-5.007647830601D+03  KE= 8.892100831072D+02
 No NMR shielding tensors so no spin-rotation constants.
 Leave Link  601 at Mon Oct 14 00:44:38 2019, MaxMem= 10737418240 cpu:               3.3 elap:               0.2
 (Enter /apps/cent7/gaussian/g16-A.03/g16-haswell/g16/l701.exe)
 ... and contract with generalized density number  0.
 Compute integral first derivatives.
 Leave Link  701 at Mon Oct 14 00:44:38 2019, MaxMem= 10737418240 cpu:               3.9 elap:               0.2
 (Enter /apps/cent7/gaussian/g16-A.03/g16-haswell/g16/l702.exe)
 L702 exits ... SP integral derivatives will be done elsewhere.
 Leave Link  702 at Mon Oct 14 00:44:39 2019, MaxMem= 10737418240 cpu:               0.4 elap:               0.0
 (Enter /apps/cent7/gaussian/g16-A.03/g16-haswell/g16/l703.exe)
 Integral derivatives from FoFJK, PRISM(SPDF).
 Compute integral first derivatives, UseDBF=F ICtDFT=           0.
 Calling FoFJK, ICntrl=      2127 FMM=T ISym2X=0 I1Cent= 0 IOpClX= 0 NMat=1 NMatS=1 NMatT=0.
 FoFJK:  IHMeth= 1 ICntrl=    2127 DoSepK=F KAlg= 0 I1Cent=           0 FoldK=F
 IRaf=         0 NMat=       1 IRICut=       1 DoRegI=T DoRafI=F ISym2E= 0 IDoP0=0 IntGTp=1.
 FoFCou: FMM=T IPFlag=           0 FMFlag=      100000 FMFlg1=        2001
         NFxFlg=           0 DoJE=F BraDBF=F KetDBF=F FulRan=T
         wScrn=  0.000000 ICntrl=      2127 IOpCl=  0 I1Cent=           0 NGrid=           0
         NMat0=    1 NMatS0=      1 NMatT0=    0 NMatD0=    1 NMtDS0=    0 NMtDT0=    0
 Symmetry not used in FoFCou.
 FMM levels:  10  Number of levels for PrismC:   9
 Leave Link  703 at Mon Oct 14 00:44:41 2019, MaxMem= 10737418240 cpu:              66.5 elap:               2.8
 (Enter /apps/cent7/gaussian/g16-A.03/g16-haswell/g16/l716.exe)
 Dipole        =-1.66950068D+01-8.31697153D-02 6.00147481D-01
 ***** Axes restored to original set *****
 -------------------------------------------------------------------
 Center     Atomic                   Forces (Hartrees/Bohr)
 Number     Number              X              Y              Z
 -------------------------------------------------------------------
      1        8           0.005330936    0.003727303    0.045874330
      2        6          -0.026609334   -0.008842078   -0.076243644
      3        8          -0.003904924    0.000867245    0.058995680
      4        6           0.008988438   -0.018780109   -0.017554380
      5        6           0.008866657    0.014208232   -0.006740796
      6        6          -0.018528806   -0.008179279    0.005527045
      7        6          -0.000873882    0.016602287    0.001978926
      8        6           0.004658318   -0.020526685   -0.002948644
      9        6          -0.002792743    0.022264302    0.002963633
     10        6           0.004418239   -0.024243287   -0.003485480
     11        6          -0.002508290    0.026385688    0.003010558
     12        6           0.003723641   -0.026867489   -0.003478858
     13        6          -0.003136169    0.028060739    0.003306906
     14        6           0.004133022   -0.028440935   -0.003781116
     15        6          -0.002165123    0.028959808    0.003053500
     16        6           0.004015359   -0.029058680   -0.003853092
     17        6          -0.003792116    0.029040493    0.003759287
     18        6           0.003079975   -0.029555164   -0.003400553
     19        6          -0.002111982    0.030516433    0.004099176
     20        6           0.007971617   -0.024789737   -0.005655918
     21        6           0.007183720    0.004293196   -0.001604042
     22        1           0.002963414   -0.001015864   -0.001229143
     23        1          -0.001281695   -0.000941242   -0.001108128
     24        1          -0.002566959    0.004135839    0.003330638
     25        1           0.002267758   -0.012598499    0.004063493
     26        1          -0.001067510   -0.012451390   -0.004357810
     27        1          -0.002611552    0.018254497   -0.005376858
     28        1           0.001535516    0.016634629    0.008462033
     29        1           0.003699772   -0.019292490    0.003874880
     30        1          -0.000423541   -0.018072400   -0.008341803
     31        1          -0.004420488    0.018930622   -0.003752810
     32        1          -0.000093910    0.018303995    0.008240582
     33        1           0.004541121   -0.019578589    0.003529493
     34        1           0.000079665   -0.018384764   -0.008317675
     35        1          -0.004784689    0.019306765   -0.003436934
[...]
 000079,-0.00000065,0.00000080,-0.00000063,-0.00000120,-0.00000216,-0.0
 0000186,0.00000018,-0.00000192,0.00000224,-0.00000022,0.00000203,0.000
 00181,-0.00000132,0.00000202,-0.00000148,-0.00000229,-0.00000495,-0.00
 000442,0.00000088,-0.00000451,0.00000503,0.00000037,0.00000569,0.00000
 568,-0.00000329,0.00000558,-0.00000487,-0.00000356,-0.00001152,-0.0000
 1466,0.00000647,-0.00000942,0.00001310,0.00001542,0.00001861,0.0000229
 2,0.00000068,0.00001912,-0.00002730,-0.00002630,-0.00004423,-0.0000958
 4,-0.00000568,-0.00007378,0.00009841,0.00025120,0.00005155,0.00010673,
 0.00042079,-0.00013831,-0.00015305,0.00050887,0.00012179,-0.00075463,0
 .00101836,-0.00003413,0.00027370,-0.00838276,0.00444675,0.00243142,0.2
 5866712,0.00000006,0.00000003,-0.00000012,-0.00000027,-0.00000005,0.00
 000008,0.00000017,0.00000004,0.00000020,-0.00000013,-0.00000010,-0.000
 00008,0.,-0.00000011,-0.00000001,-0.00000012,0.00000021,0.00000005,-0.
 00000006,-0.00000050,0.00000004,-0.00000037,0.00000051,0.00000012,-0.0
 0000016,-0.00000127,0.00000010,-0.00000105,0.00000177,0.00000030,-0.00
 000069,-0.00000408,0.00000039,-0.00000382,0.00000627,0.00000107,-0.000
 00347,-0.00001485,0.00000173,-0.00001859,0.00002586,0.00000530,-0.0000
 2539,-0.00007173,0.00001112,-0.00011857,0.00013950,0.00003437,-0.00023
 577,-0.00046848,0.00009747,-0.00118692,0.00103607,0.00038103,-0.002306
 25,-0.00377509,0.00093354,-0.02167812,0.01235285,0.00672182,0.10372295
 ,-0.10514179,-0.03257466,-0.00000005,-0.00000001,0.00000002,0.,-0.0000
 0004,-0.00000002,-0.00000002,0.,0.00000003,-0.00000002,-0.00000003,0.,
 -0.00000002,-0.00000004,0.00000002,0.00000002,0.,0.00000002,0.,0.00000
 002,-0.00000004,0.,0.00000003,0.00000009,-0.00000006,0.00000002,-0.000
 00006,0.00000003,0.00000001,0.00000002,0.00000001,0.00000002,-0.000000
 04,-0.00000001,0.00000010,0.00000019,-0.00000013,0.00000009,-0.0000001
 5,0.00000003,-0.00000003,-0.00000002,0.00000004,-0.00000002,0.,-0.0000
 0002,0.00000028,0.00000046,-0.00000030,0.00000025,-0.00000037,0.000000
 04,-0.00000017,-0.00000019,0.00000015,-0.00000015,0.00000013,0.0000000
 2,0.00000080,0.00000128,-0.00000077,0.00000072,-0.00000108,0.00000017,
 -0.00000048,-0.00000114,0.00000083,-0.00000039,0.00000081,0.00000127,0
 .00000211,0.00000429,-0.00000162,0.00000180,-0.00000429,-0.00000064,-0
 .00000275,-0.00000801,0.00000441,-0.00000205,0.00000678,0.00001838,0.0
 0000321,0.00001893,0.00000353,0.00000170,-0.00002614,0.00005233,0.0000
 3869,-0.00007813,0.00008275,0.00003843,0.00002823,0.00001874,0.0000341
 3,0.00031026,-0.00013873,-0.00000971,-0.00024987,0.00075384,0.00099426
 ,-0.00038919,0.00083027,0.00097885,-0.00021743,0.01439784,-0.00870686,
 -0.00586128,-0.11126379,0.11208779,0.00000227,0.00000183,0.00000080,-0
 .00000462,-0.00000551,0.00000234,0.00000105,0.00000232,-0.00000363,0.0
 0000019,0.00000019,0.00000167,0.00000342,0.00000049,-0.00000110,-0.000
 00135,0.00000087,0.00000060,0.00000002,0.,0.00000002,0.00000073,-0.000
 00039,-0.00000002,0.00000006,0.00000140,0.00000004,0.00000120,-0.00000
 288,0.00000007,0.00000044,0.00000496,-0.00000026,0.00000329,-0.0000079
 5,-0.00000009,0.00000167,0.00001388,-0.00000125,0.00001133,-0.00002289
 ,-0.00000126,0.00000805,0.00004668,-0.00000990,0.00005519,-0.00008966,
 -0.00001378,0.00007562,0.00023458,-0.00004102,0.00051192,-0.00050965,0
 .00044101,0.00077505,0.00198711,-0.00011323,0.00669557,-0.00446718,-0.
 00344076,0.05892713,-0.03234937,-0.06838212,-0.00000031,-0.00000008,0.
 00000008,-0.00000007,-0.00000027,0.00000009,0.00000001,0.00000003,0.00
 000011,-0.00000036,0.00000002,0.00000004,-0.00000046,0.00000009,0.0000
 0019,0.00000004,-0.00000006,0.00000004,-0.00000002,0.00000006,-0.00000
 023,0.00000001,-0.00000007,-0.00000017,0.00000003,0.00000006,0.0000000
 6,0.00000003,0.00000001,0.00000014,-0.00000006,0.00000016,-0.00000031,
 0.00000005,-0.00000018,-0.00000024,0.00000004,0.00000001,0.00000005,0.
 00000015,0.00000019,0.00000021,-0.00000004,0.00000039,-0.00000054,0.00
 000008,-0.00000043,-0.00000040,0.00000014,-0.00000013,0.00000014,0.000
 00030,0.00000055,0.00000043,-0.00000011,0.00000081,-0.00000099,0.00000
 009,-0.00000094,-0.00000074,0.00000041,-0.00000049,0.00000047,0.000000
 60,0.00000152,0.00000114,-0.00000044,0.00000166,-0.00000214,0.00000017
 ,-0.00000252,-0.00000180,0.00000105,-0.00000140,0.00000220,-0.00000057
 ,0.00000218,0.00000347,-0.00000204,0.00000487,-0.00000728,-0.00000767,
 -0.00001042,-0.00000364,0.00000384,-0.00000217,0.00001266,0.00006599,0
 .00007326,-0.00000862,-0.00007369,-0.00003818,-0.00002909,-0.00038353,
 0.00029412,0.00033107,0.00033823,-0.00024524,0.00020520,-0.00043164,0.
 00025170,0.00038928,-0.00011012,-0.00035642,-0.00010152,-0.02304564,0.
 01190184,0.00835265,-0.06614545,0.03475201,0.06892928,0.00000116,0.000
 00109,0.00000072,-0.00000209,-0.00000243,0.00000018,0.00000051,0.00000
 095,-0.00000078,-0.00000008,-0.00000012,0.00000028,0.00000132,0.000000
 18,-0.00000045,-0.00000053,0.00000029,0.00000015,-0.00000002,-0.000000
 22,-0.00000011,0.00000015,-0.00000020,-0.00000013,0.,0.00000007,-0.000
 00020,0.00000011,-0.00000103,-0.00000016,0.00000015,0.00000074,-0.0000
 0047,0.00000020,-0.00000241,-0.00000027,0.00000057,0.00000186,-0.00000
 125,0.00000050,-0.00000576,-0.00000081,0.00000037,0.00000425,-0.000004
 67,0.00001525,-0.00000969,0.00000233,0.00002015,0.00006380,0.00004025,
 -0.00005203,-0.00005372,0.00021881,0.00136225,-0.00058700,-0.00175901,
 -0.00553501,-0.01455034,-0.01899848,-0.06005629,-0.03062913,-0.0397372
 5,-0.00000015,-0.00000003,0.00000001,-0.00000002,-0.00000016,0.0000000
 2,0.00000001,-0.00000002,0.00000004,-0.00000018,-0.00000003,0.00000006
 ,-0.00000019,-0.00000004,0.00000004,0.00000010,0.00000003,0.00000007,-
 0.00000001,0.,-0.00000013,-0.00000004,0.00000007,0.00000014,-0.0000000
 3,0.,-0.00000004,0.00000016,0.00000018,0.00000022,-0.00000002,0.000000
 05,-0.00000019,-0.00000005,0.00000015,0.00000029,-0.00000006,-0.000000
 01,-0.00000009,0.00000033,0.00000042,0.00000040,0.,0.00000014,-0.00000
 033,-0.00000012,0.00000030,0.00000062,-0.00000013,-0.00000005,-0.00000
 017,0.00000072,0.00000095,0.00000078,0.00000002,0.00000029,-0.00000060
 ,-0.00000038,0.00000070,0.00000150,-0.00000030,-0.00000015,-0.00000034
 ,0.00000175,0.00000226,0.00000173,0.00000008,0.00000055,-0.00000121,-0
 .00000141,0.00000136,0.00000404,-0.00000052,-0.00000057,-0.00000054,0.
 00001061,0.00000825,0.00000220,0.00000040,0.00000085,-0.00000335,-0.00
 004606,0.00002664,0.00004316,-0.00000787,0.00000008,-0.00000157,0.0001
 4322,0.00024713,0.00011111,0.00001696,0.00001136,-0.00003535,-0.000262
 13,0.00046458,0.00076855,-0.00008799,0.00002285,0.00002843,-0.00298788
 ,-0.00344754,0.00172422,0.00087713,0.00080574,0.00032717,-0.00285714,-
 0.00700006,-0.00824562,0.00731597,0.01709815,0.02272381,0.06212897,-0.
 00000111,-0.00000070,0.00000027,0.00000292,0.00000362,-0.00000324,-0.0
 0000063,-0.00000168,0.00000390,-0.00000045,-0.00000043,-0.00000195,-0.
 00000247,-0.00000035,0.00000075,0.00000099,-0.00000075,-0.00000061,-0.
 00000007,-0.00000013,-0.00000029,-0.00000061,0.00000006,-0.00000028,-0
 .00000008,-0.00000120,-0.00000051,-0.00000099,0.00000161,-0.00000054,-
 0.00000026,-0.00000366,-0.00000073,-0.00000233,0.00000444,-0.00000083,
 -0.00000033,-0.00000875,-0.00000121,-0.00000589,0.00001047,-0.00000177
 ,-0.00000181,-0.00002179,-0.00000321,-0.00000533,0.00002584,-0.0000083
 8,0.00000942,-0.00000223,0.00005966,0.00003267,0.00011675,0.00023420,0
 .00135762,0.00046116,-0.00035684,-0.00489242,-0.01519523,-0.01815797,-
 0.03079013,-0.14648592,-0.12128862,0.00000020,0.00000006,-0.00000010,0
 .00000005,0.00000013,-0.00000011,-0.00000001,-0.00000009,-0.00000011,0
 .00000020,-0.00000004,0.00000003,0.00000033,-0.00000014,-0.00000020,0.
 00000009,0.00000014,0.00000005,0.,-0.00000013,0.00000014,-0.00000009,0
 .00000022,0.00000039,0.,-0.00000011,-0.00000007,0.00000020,0.00000026,
 0.00000016,0.00000003,-0.00000023,0.00000019,-0.00000015,0.00000049,0.
 00000065,0.,-0.00000010,-0.00000004,0.00000027,0.00000037,0.00000036,0
 .00000001,-0.00000048,0.00000034,-0.00000028,0.00000099,0.00000115,-0.
 00000002,-0.00000006,-0.00000004,0.00000057,0.00000061,0.00000071,0.00
 000004,-0.00000098,0.00000060,-0.00000072,0.00000213,0.00000227,-0.000
 00009,0.00000005,-0.00000006,0.00000142,0.00000113,0.00000160,0.000000
 06,-0.00000229,0.00000121,-0.00000180,0.00000482,0.00000467,0.00000003
 ,0.00000036,0.00000017,0.00000582,0.00000064,0.00000407,-0.00000051,-0
 .00000764,0.00000304,-0.00004248,0.00002392,0.00002430,-0.00000404,0.0
 0000424,0.00000072,0.00022979,0.00015522,0.00002965,0.00000192,-0.0000
 5195,-0.00000291,-0.00060602,0.00068330,0.00053396,-0.00005605,0.00008
 617,0.00009275,-0.00367710,-0.00239592,0.00199175,0.00080832,0.0004281
 7,0.00000367,0.00346710,0.01307053,0.01455532,-0.00335137,-0.00954556,
 -0.01146494,0.03752480,0.15864065,-0.00000044,-0.00000001,0.00000048,0
 .00000146,0.00000170,-0.00000240,-0.00000030,-0.00000084,0.00000269,-0
 .00000030,-0.00000046,-0.00000139,-0.00000144,-0.00000018,0.00000039,0
 .00000064,-0.00000055,-0.00000039,-0.00000005,-0.00000022,-0.00000027,
 -0.00000036,-0.00000017,-0.00000020,-0.00000003,-0.00000092,-0.0000004
 7,-0.00000063,0.00000064,-0.00000033,-0.00000013,-0.00000255,-0.000000
 73,-0.00000161,0.00000226,-0.00000033,-0.00000052,-0.00000639,-0.00000
 124,-0.00000506,0.00000713,0.00000059,-0.00000418,-0.00002022,-0.00000
 284,-0.00002441,0.00002845,0.00000740,-0.00005416,-0.00010591,-0.00003
 351,-0.00008744,0.00030602,0.00026132,-0.00021396,0.00028581,0.0005380
 0,0.00200843,0.00623391,0.00822435,-0.04002952,-0.12155322,-0.20235646
 ,0.00000008,0.00000003,-0.00000009,0.00000003,0.,-0.00000004,0.0000000
 4,-0.00000010,-0.00000007,0.00000011,-0.00000008,0.00000008,0.00000018
 ,-0.00000017,-0.00000016,0.00000012,0.00000014,0.00000008,0.,-0.000000
 06,0.,-0.00000007,0.00000019,0.00000043,-0.00000006,-0.00000008,-0.000
 00014,0.00000022,0.00000031,0.00000024,0.00000001,-0.00000007,-0.00000
 001,-0.00000009,0.00000040,0.00000071,-0.00000011,-0.00000005,-0.00000
 019,0.00000031,0.00000051,0.00000043,0.,-0.00000014,0.,-0.00000015,0.0
 0000075,0.00000123,-0.00000022,-0.00000003,-0.00000033,0.00000055,0.00
 000088,0.00000071,0.00000005,-0.00000025,0.00000002,-0.00000032,0.0000
 0140,0.00000240,-0.00000046,0.,-0.00000065,0.00000119,0.00000183,0.000
 00108,0.00000021,-0.00000046,0.00000014,-0.00000024,0.00000282,0.00000
 576,-0.00000079,-0.00000020,-0.00000163,0.00000075,0.00000407,0.000000
 95,0.00000114,-0.00000054,0.00000062,0.00000503,-0.00000382,0.00001581
 ,-0.00000201,-0.00000104,-0.00000574,0.00009863,0.00001738,-0.00011061
 ,0.00000319,0.00001131,-0.00001195,-0.00047787,-0.00002847,0.00017884,
 0.00002321,-0.00010166,-0.00006186,0.00199597,0.00165734,0.00090024,-0
 .00053604,-0.00044283,0.00092861,-0.00396202,-0.01613657,-0.01919272,-
 0.00152939,-0.00389997,-0.00650952,0.04279236,0.13374326,0.21722301,-0
 .18686255,-0.18424947,0.06817794,-0.02208059,-0.02490494,0.00125693,-0
 .00026882,0.00340927,0.00805863,-0.00119588,0.00014155,-0.00170722,0.0
 0516990,-0.00410541,-0.00604428,0.00038133,0.00202992,0.00016565,0.000
 11529,-0.00094196,-0.00004651,0.00006349,0.00060798,-0.00003616,0.0000
 6889,-0.00035182,-0.00000967,-0.00000229,0.00020745,-0.00000336,0.0000
 3420,-0.00012582,-0.00000382,-0.00000221,0.00007857,-0.00000044,0.0000
 1298,-0.00004956,-0.00000104,-0.00000082,0.00003238,0.00000017,0.00000
 541,-0.00002186,-0.00000002,-0.00000059,0.00001496,0.00000041,0.000002
 44,-0.00001093,0.00000026,-0.00000049,0.00000794,0.00000042,0.00000138
 ,-0.00000660,0.00000026,-0.00000161,0.00000489,0.00000074,0.00000104,-
 0.00000308,0.,0.00031187,0.00015030,0.00056311,0.00007370,0.00003196,0
 .00015823,0.00016835,0.00008952,0.00020178,-0.00085327,-0.00064276,0.0
 0094358,0.00007814,0.00001319,0.00063370,-0.00014023,0.00003356,0.0001
 6827,-0.00013849,-0.00004755,-0.00001471,0.00004738,0.00008863,0.00006
 113,0.00003807,0.00006233,-0.00004894,-0.00002189,-0.00001807,0.000004
 04,-0.00002236,-0.00001406,0.00000472,0.00000746,0.00001721,0.00001007
 ,-0.00000274,0.00001968,-0.00001591,-0.00000059,-0.00000996,-0.0000036
 2,0.00000131,-0.00000686,0.00000130,0.00000211,0.00000676,0.00000395,-
 0.00000163,0.00000862,-0.00000691,0.00000064,-0.00000459,-0.00000231,0
 .00000079,-0.00000270,0.00000030,0.00000114,0.00000296,0.00000152,-0.0
 0000041,0.00000430,-0.00000351,0.00000050,-0.00000229,-0.00000128,0.00
 000045,-0.00000110,-0.00000010,0.00000064,0.00000138,0.00000062,-0.000
 00015,0.00000227,-0.00000190,0.00000035,-0.00000125,-0.00000076,0.0000
 0026,-0.00000046,-0.00000018,0.00000038,0.00000069,0.00000028,-0.00000
 007,0.00000131,-0.00000113,0.00000022,-0.00000076,-0.00000050,0.000000
 15,-0.00000021,-0.00000016,0.00000025,0.00000042,0.00000016,-0.0000000
 6,0.00000087,-0.00000076,0.00000027,-0.00000050,-0.00000033,0.00000023
 ,-0.00000007,-0.00000023,-0.00000079,0.00000104,-0.00000046,0.00000347
 ,-0.00000010,-0.00000108,-0.00000044,0.00000073,0.00000047,0.20500449,
 -0.19197615,-0.23554136,0.08510286,-0.01875234,-0.01596079,-0.00091117
 ,0.00456219,-0.00207036,0.00700656,-0.00022130,-0.00077600,-0.00147182
 ,-0.00068469,0.00406466,-0.00159022,-0.00167324,-0.00020512,0.00024648
 ,-0.00015236,-0.00006889,0.00017025,0.00005531,0.00018572,0.00003688,-
 0.00000198,-0.00013910,0.00001005,-0.00001001,0.00009767,0.00000365,0.
 00001852,-0.00005688,-0.00000412,-0.00000439,0.00004330,0.00000231,0.0
 0000772,-0.00002241,-0.00000095,-0.00000136,0.00001851,0.00000109,0.00
 000325,-0.00000900,-0.00000017,-0.00000072,0.00000846,0.00000069,0.000
 00146,-0.00000383,0.00000007,-0.00000046,0.00000435,0.00000049,0.00000
 077,-0.00000196,0.00000012,-0.00000069,0.00000257,0.00000046,0.0000004
 4,-0.00000075,0.00000003,0.00005514,-0.00001076,0.00008128,0.00022190,
 0.00014143,0.00048419,0.00017354,0.00015359,0.00025742,-0.00059525,0.0
 0050573,-0.00023876,0.00040912,0.00055502,-0.00027928,-0.00009210,0.00
 006918,-0.00000323,0.00016078,-0.00000083,0.00005660,0.00005880,0.0000
 2555,-0.00004533,-0.00001779,-0.00000686,0.00002651,-0.00001435,-0.000
 01249,-0.00001546,0.00001044,-0.00000991,0.00000955,-0.00000365,-0.000
 00286,-0.00000476,0.00000100,0.00000458,0.00000180,0.00000265,-0.00000
 897,-0.00001301,0.00000555,-0.00000482,0.00000633,-0.00000279,-0.00000
 168,-0.00000208,-0.00000089,0.00000139,0.00000138,0.00000065,-0.000004
 39,-0.00000617,0.00000292,-0.00000241,0.00000314,-0.00000108,-0.000000
 92,-0.00000156,-0.00000013,0.00000062,0.00000081,0.00000025,-0.0000023
 6,-0.00000327,0.00000146,-0.00000121,0.00000167,-0.00000060,-0.0000007
 0,-0.00000114,0.00000007,0.00000023,0.00000060,0.00000013,-0.00000138,
 -0.00000192,0.00000084,-0.00000066,0.00000097,-0.00000037,-0.00000053,
 -0.00000084,0.00000010,0.00000007,0.00000045,0.00000005,-0.00000087,-0
 .00000123,0.00000051,-0.00000039,0.00000062,-0.00000022,-0.00000040,-0
 .00000062,0.00000010,0.00000002,0.00000033,-0.00000003,-0.00000061,-0.
 00000082,0.00000033,-0.00000025,0.00000044,-0.00000024,0.00000025,0.00
 000027,0.00000151,-0.00000008,-0.00000044,-0.00000040,-0.00000003,-0.0
 0000029,0.20845209,0.24904993,0.10285870,0.12100278,-0.09496209,-0.030
 24893,-0.03328851,0.01432001,0.00266958,0.00205484,-0.00038103,-0.0002
 4411,-0.00037648,-0.00166947,-0.00215220,0.00003319,-0.00289670,-0.000
 18558,-0.00045089,0.00002078,-0.00011425,0.00014733,0.00002147,-0.0000
 0229,-0.00003734,0.00005356,-0.00000666,0.00001183,0.00000726,0.000000
 39,0.00000033,0.00001158,0.00000148,-0.00000042,0.00000307,0.00000087,
 0.00000265,0.00000506,0.00000135,-0.00000082,0.00000220,0.00000063,0.0
 0000165,0.00000274,0.00000084,-0.00000040,0.00000150,0.00000041,0.0000
 0090,0.00000166,0.00000052,-0.00000013,0.00000104,0.00000028,0.0000004
 9,0.00000109,0.00000034,-0.00000002,0.00000075,0.00000020,0.00000028,0
 .00000073,0.00000016,0.00000003,0.00000036,0.00012832,0.00011549,0.000
 18944,0.00019954,0.00019722,0.00037004,0.00002720,0.00006471,0.0000287
 4,-0.00055385,-0.00061273,0.00030329,0.00017906,-0.00008214,-0.0000721
 4,-0.00006390,0.00008096,-0.00000739,-0.00005063,0.00006072,-0.0000143
 2,0.00001813,-0.00000537,-0.00001680,0.00000935,0.00001004,0.00000238,
 -0.00000006,-0.00000861,-0.00001105,-0.00000304,0.00000575,-0.00001047
 ,-0.00000366,-0.00000836,-0.00000642,0.00000045,0.00000640,-0.00000226
 ,0.00000166,-0.00000561,-0.00000667,-0.00000224,0.00000278,-0.00000311
 ,-0.00000192,-0.00000384,-0.00000309,-0.00000022,0.00000312,-0.0000017
 1,0.00000049,-0.00000290,-0.00000334,-0.00000109,0.00000150,-0.0000014
 2,-0.00000094,-0.00000206,-0.00000176,-0.00000025,0.00000165,-0.000001
 07,0.00000017,-0.00000166,-0.00000188,-0.00000062,0.00000091,-0.000000
 80,-0.00000053,-0.00000125,-0.00000110,-0.00000019,0.00000097,-0.00000
 068,0.00000007,-0.00000103,-0.00000115,-0.00000039,0.00000060,-0.00000
 050,-0.00000032,-0.00000082,-0.00000073,-0.00000014,0.00000061,-0.0000
 0045,0.00000002,-0.00000068,-0.00000075,-0.00000026,0.00000042,-0.0000
 0034,-0.00000020,-0.00000057,-0.00000052,-0.00000011,0.00000042,-0.000
 00031,-0.00000006,-0.00000050,-0.00000050,-0.00000014,0.00000032,-0.00
 000025,-0.00000012,0.00000030,-0.00000019,0.00000014,0.,0.00000012,-0.
 00000011,-0.00000037,-0.00000035,-0.07246136,-0.08891766,0.08473393\\-
 0.00000194,0.00000526,0.00001231,0.00002375,-0.00000040,-0.00001295,-0
 .00001190,-0.00001420,0.00000565,0.00000170,0.00000939,-0.00001326,-0.
 00001789,0.00001809,0.00000882,0.00000468,-0.00001345,-0.00000255,0.00
 000042,0.00000595,0.00000028,-0.00000059,-0.00000334,0.,-0.00000066,0.
 00000313,0.00000032,0.00000016,-0.00000252,-0.00000040,-0.00000058,0.0
 0000242,-0.00000012,0.00000016,-0.00000221,-0.00000048,-0.00000033,0.0
 0000225,-0.00000008,0.00000034,-0.00000219,-0.00000037,-0.00000010,0.0
 0000230,-0.00000002,0.00000068,-0.00000244,-0.00000030,0.00000028,0.00
 000277,-0.00000051,0.00000072,-0.00000156,-0.00000133,-0.00000074,0.00
 000446,-0.00000189,0.00000312,0.00000020,0.00000228,-0.00000438,-0.000
 00384,-0.00000004,-0.00000064,-0.00000108,0.00000532,-0.00000008,-0.00
 000325,-0.00000014,-0.00000167,-0.00000165,0.00000086,0.00000487,-0.00
 000256,-0.00000406,0.00000223,-0.00000046,-0.00000009,-0.00000093,0.00
 000149,0.00000002,-0.00000128,0.00000042,0.00000079,0.00000177,-0.0000
 0020,-0.00000027,-0.00000072,0.00000051,0.00000079,-0.00000001,0.00000
 045,-0.00000032,-0.00000015,-0.00000029,0.00000029,0.00000093,0.,0.000
 00052,-0.00000046,0.,0.00000084,0.00000015,0.00000040,-0.00000047,-0.0
 0000028,-0.00000018,0.00000018,0.00000059,-0.00000020,0.00000061,-0.00
 000014,0.00000023,0.00000055,0.00000002,0.00000038,-0.00000054,-0.0000
 0026,-0.00000017,0.00000006,0.00000051,-0.00000023,0.00000058,-0.00000
 011,0.00000021,0.00000041,-0.00000009,0.00000035,-0.00000060,-0.000000
 22,-0.00000020,-0.00000005,0.00000037,-0.00000021,0.00000060,-0.000000
 03,0.00000016,0.00000027,-0.00000017,0.00000029,-0.00000068,-0.0000002
 6,-0.00000033,-0.00000008,0.00000031,-0.00000033,0.00000055,0.00000020
 ,0.00000022,0.00000010,-0.00000054,0.00000002,-0.00000085,0.00000040,-
 0.00000003,-0.00000022,-0.00000035,-0.00000044,0.00000072,-0.00000200,
 0.00000122,0.00000036,0.00000267,0.00000169,-0.00000143,0.00000296,-0.
 00000040,0.00000015,-0.00000172,0.00000075,0.00000013,-0.00000085,-0.0
 0000167,-0.00000094,-0.00000098,-0.00000230,0.00000162,-0.00000097,-0.
 00000269,-0.00000092\\\@


 Statistics are no substitute for judgment.
                            -- Henry Clay
 Job cpu time:       0 days  1 hours  8 minutes 10.6 seconds.
 Elapsed time:       0 days  0 hours  2 minutes 51.6 seconds.
 File lengths (MBytes):  RWF=    995 Int=      0 D2E=      0 Chk=     16 Scr=      1
 Normal termination of Gaussian 16 at Mon Oct 14 00:51:49 2019.
real 444.77
user 10357.97
sys 38.50
Machine:
brown-a275
brown-a275
brown-a275
brown-a275
brown-a275
brown-a275
brown-a275
brown-a275
brown-a275
brown-a275
brown-a275
brown-a275
brown-a275
brown-a275
brown-a275
brown-a275
brown-a275
brown-a275
brown-a275
brown-a275
brown-a275
brown-a275
brown-a275
brown-a275
