Title Card Required                                                     
Freq      RB3LYP                                                      6-31G(d)            
Number of atoms                            I               16
Info1-9                                    I   N=           9
          42          42        1002           0           0         100
           6          18        -502
Full Title                                 C   N=           2
Title Card Required     
Route                                      C   N=           6
#P opt freq b3lyp/6-31g(d) geom=connectivity temperature=0.0
01          
Charge                                     I                0
Multiplicity                               I                1
Number of electrons                        I               42
Number of alpha electrons                  I               21
Number of beta electrons                   I               21
Number of basis functions                  I               97
Number of independent functions            I               97
Number of point charges in /Mol/           I                0
Number of translation vectors              I                0
Atomic numbers                             I   N=          16
           6           6           6           6           7           1
           1           1           1           1           1           1
           1           1           1           1
Nuclear charges                            R   N=          16
  6.00000000E+00  6.00000000E+00  6.00000000E+00  6.00000000E+00  7.00000000E+00
  1.00000000E+00  1.00000000E+00  1.00000000E+00  1.00000000E+00  1.00000000E+00
  1.00000000E+00  1.00000000E+00  1.00000000E+00  1.00000000E+00  1.00000000E+00
  1.00000000E+00
Current cartesian coordinates              R   N=          48
 -4.79929382E+00 -5.79841253E-01 -2.42466918E-02 -2.36908679E+00  9.91658470E-01
  6.46460277E-02  3.42476292E-02 -6.22028527E-01 -6.74222046E-02  2.46895656E+00
  9.33570890E-01  3.74145848E-02  4.69298163E+00 -7.11107710E-01 -1.87221086E-01
 -4.88919014E+00 -1.91021491E+00  1.56315657E+00 -6.48259335E+00  6.23475654E-01
  6.71303975E-02 -4.90993582E+00 -1.68762119E+00 -1.77259653E+00 -2.36836641E+00
  2.34977484E+00 -1.50744692E+00 -2.34497803E+00  2.12731647E+00  1.80430675E+00
  2.99684690E-02 -1.98564677E+00  1.50490710E+00  4.81785043E-02 -1.74666901E+00
 -1.81050688E+00  2.50398446E+00  2.25332570E+00 -1.56345781E+00  2.45391083E+00
  2.10741118E+00  1.76835559E+00  4.80334638E+00 -1.84968022E+00  1.36404912E+00
  6.29586219E+00  3.56124735E-01 -1.69700082E-01
Number of symbols in /Mol/                 I                0
Force Field                                I                0
Atom Types                                 C   N=          16
                                                            
                                                            
                                                            
            
Int Atom Types                             I   N=          16
           0           0           0           0           0           0
           0           0           0           0           0           0
           0           0           0           0
MM charges                                 R   N=          16
  0.00000000E+00  0.00000000E+00  0.00000000E+00  0.00000000E+00  0.00000000E+00
  0.00000000E+00  0.00000000E+00  0.00000000E+00  0.00000000E+00  0.00000000E+00
  0.00000000E+00  0.00000000E+00  0.00000000E+00  0.00000000E+00  0.00000000E+00
  0.00000000E+00
Integer atomic weights                     I   N=          16
          12          12          12          12          14           1
           1           1           1           1           1           1
           1           1           1           1
Real atomic weights                        R   N=          16
  1.20000000E+01  1.20000000E+01  1.20000000E+01  1.20000000E+01  1.40030740E+01
  1.00782504E+00  1.00782504E+00  1.00782504E+00  1.00782504E+00  1.00782504E+00
  1.00782504E+00  1.00782504E+00  1.00782504E+00  1.00782504E+00  1.00782504E+00
  1.00782504E+00
Atom fragment info                         I   N=          16
           0           0           0           0           0           0
           0           0           0           0           0           0
           0           0           0           0
Atom residue num                           I   N=          16
           0           0           0           0           0           0
           0           0           0           0           0           0
           0           0           0           0
Nuclear spins                              I   N=          16
           0           0           0           0           2           1
           1           1           1           1           1           1
           1           1           1           1
Nuclear ZEff                               R   N=          16
 -3.60000000E+00 -3.60000000E+00 -3.60000000E+00 -3.60000000E+00 -4.55000000E+00
 -1.00000000E+00 -1.00000000E+00 -1.00000000E+00 -1.00000000E+00 -1.00000000E+00
 -1.00000000E+00 -1.00000000E+00 -1.00000000E+00 -1.00000000E+00 -1.00000000E+00
 -1.00000000E+00
Nuclear ZNuc                               R   N=          16
  6.00000000E+00  6.00000000E+00  6.00000000E+00  6.00000000E+00  7.00000000E+00
  1.00000000E+00  1.00000000E+00  1.00000000E+00  1.00000000E+00  1.00000000E+00
  1.00000000E+00  1.00000000E+00  1.00000000E+00  1.00000000E+00  1.00000000E+00
  1.00000000E+00
Nuclear QMom                               R   N=          16
  0.00000000E+00  0.00000000E+00  0.00000000E+00  0.00000000E+00  2.04400000E+00
  0.00000000E+00  0.00000000E+00  0.00000000E+00  0.00000000E+00  0.00000000E+00
  0.00000000E+00  0.00000000E+00  0.00000000E+00  0.00000000E+00  0.00000000E+00
  0.00000000E+00
Nuclear GFac                               R   N=          16
  0.00000000E+00  0.00000000E+00  0.00000000E+00  0.00000000E+00  4.03761000E-01
  2.79284600E+00  2.79284600E+00  2.79284600E+00  2.79284600E+00  2.79284600E+00
  2.79284600E+00  2.79284600E+00  2.79284600E+00  2.79284600E+00  2.79284600E+00
  2.79284600E+00
MicOpt                                     I   N=          16
          -1          -1          -1          -1          -1          -1
          -1          -1          -1          -1          -1          -1
          -1          -1          -1          -1
Number of residues                         I                0
Number of secondary structures             I                0
Redundant internal dimensions              I   N=           4
          75          15          27          33
Redundant internal coordinate indices      I   N=         300
           1           2           0           0           1           6
           0           0           1           7           0           0
           1           8           0           0           2           3
           0           0           2           9           0           0
           2          10           0           0           3           4
           0           0           3          11           0           0
           3          12           0           0           4           5
           0           0           4          13           0           0
           4          14           0           0           5          15
           0           0           5          16           0           0
           2           1           6           0           2           1
           7           0           2           1           8           0
           6           1           7           0           6           1
           8           0           7           1           8           0
           1           2           3           0           1           2
           9           0           1           2          10           0
           3           2           9           0           3           2
          10           0           9           2          10           0
           2           3           4           0           2           3
          11           0           2           3          12           0
           4           3          11           0           4           3
          12           0          11           3          12           0
           3           4           5           0           3           4
          13           0           3           4          14           0
           5           4          13           0           5           4
          14           0          13           4          14           0
           4           5          15           0           4           5
          16           0          15           5          16           0
           6           1           2           3           6           1
           2           9           6           1           2          10
           7           1           2           3           7           1
           2           9           7           1           2          10
           8           1           2           3           8           1
           2           9           8           1           2          10
           1           2           3           4           1           2
           3          11           1           2           3          12
           9           2           3           4           9           2
           3          11           9           2           3          12
          10           2           3           4          10           2
           3          11          10           2           3          12
           2           3           4           5           2           3
           4          13           2           3           4          14
          11           3           4           5          11           3
           4          13          11           3           4          14
          12           3           4           5          12           3
           4          13          12           3           4          14
           3           4           5          15           3           4
           5          16          13           4           5          15
          13           4           5          16          14           4
           5          15          14           4           5          16
Redundant internal coordinates             R   N=          75
  2.89541353E+00  2.07311952E+00  2.07118775E+00  2.07271445E+00  2.89783438E+00
  2.07748811E+00  2.07767171E+00  2.89113955E+00  2.08127184E+00  2.07445281E+00
  2.77519664E+00  2.07503545E+00  2.09147894E+00  1.92742496E+00  1.92575133E+00
  1.94033704E+00  1.94492110E+00  1.93990073E+00  1.87948082E+00  1.87610705E+00
  1.88004182E+00  1.97410667E+00  1.90908551E+00  1.90934275E+00  1.90631669E+00
  1.91019160E+00  1.85072179E+00  1.97920354E+00  1.90573446E+00  1.92384416E+00
  1.90378021E+00  1.89285017E+00  1.85417606E+00  1.93164569E+00  1.90546181E+00
  1.90279859E+00  1.87648435E+00  1.98818140E+00  1.85631693E+00  1.90797237E+00
  1.91544219E+00  1.84667214E+00  1.04799701E+00 -3.10625163E+00 -1.08610249E+00
 -3.13838507E+00 -1.00944840E+00  1.01070074E+00 -1.04116605E+00  1.08777062E+00
  3.10791976E+00 -3.13516902E+00 -1.00844898E+00  1.02214395E+00  1.01752902E+00
 -3.13893624E+00 -1.10834331E+00 -1.00154366E+00  1.12517639E+00 -3.12741600E+00
 -3.10659842E+00 -1.04448269E+00  9.76703154E-01  1.04877682E+00  3.11089254E+00
 -1.15110692E+00 -9.63514944E-01  1.09860078E+00  3.11978663E+00 -1.15423884E+00
  3.11086545E+00  3.04924637E+00  1.03116536E+00  9.97043673E-01 -1.02103734E+00
ZRed-IntVec                                I   N=          75
           0           0           0           0           0           0
           0           0           0           0           0           0
           0           0           0           0           0           0
           0           0           0           0           0           0
           0           0           0           0           0           0
           0           0           0           0           0           0
           0           0           0           0           0           0
           0           0           0           0           0           0
           0           0           0           0           0           0
           0           0           0           0           0           0
           0           0           0           0           0           0
           0           0           0           0           0           0
           0           0           0
ZRed-FPVec                                 R   N=          75
  0.00000000E+00  0.00000000E+00  0.00000000E+00  0.00000000E+00  0.00000000E+00
  0.00000000E+00  0.00000000E+00  0.00000000E+00  0.00000000E+00  0.00000000E+00
  0.00000000E+00  0.00000000E+00  0.00000000E+00  0.00000000E+00  0.00000000E+00
  0.00000000E+00  0.00000000E+00  0.00000000E+00  0.00000000E+00  0.00000000E+00
  0.00000000E+00  0.00000000E+00  0.00000000E+00  0.00000000E+00  0.00000000E+00
  0.00000000E+00  0.00000000E+00  0.00000000E+00  0.00000000E+00  0.00000000E+00
  0.00000000E+00  0.00000000E+00  0.00000000E+00  0.00000000E+00  0.00000000E+00
  0.00000000E+00  0.00000000E+00  0.00000000E+00  0.00000000E+00  0.00000000E+00
  0.00000000E+00  0.00000000E+00  0.00000000E+00  0.00000000E+00  0.00000000E+00
  0.00000000E+00  0.00000000E+00  0.00000000E+00  0.00000000E+00  0.00000000E+00
  0.00000000E+00  0.00000000E+00  0.00000000E+00  0.00000000E+00  0.00000000E+00
  0.00000000E+00  0.00000000E+00  0.00000000E+00  0.00000000E+00  0.00000000E+00
  0.00000000E+00  0.00000000E+00  0.00000000E+00  0.00000000E+00  0.00000000E+00
  0.00000000E+00  0.00000000E+00  0.00000000E+00  0.00000000E+00  0.00000000E+00
  0.00000000E+00  0.00000000E+00  0.00000000E+00  0.00000000E+00  0.00000000E+00
ZRed-Constraint1                           R   N=          75
  2.89541353E+00  2.07311952E+00  2.07118775E+00  2.07271445E+00  2.89783438E+00
  2.07748811E+00  2.07767171E+00  2.89113955E+00  2.08127184E+00  2.07445281E+00
  2.77519664E+00  2.07503545E+00  2.09147894E+00  1.92742496E+00  1.92575133E+00
  1.94033704E+00  1.94492110E+00  1.93990073E+00  1.87948082E+00  1.87610705E+00
  1.88004182E+00  1.97410667E+00  1.90908551E+00  1.90934275E+00  1.90631669E+00
  1.91019160E+00  1.85072179E+00  1.97920354E+00  1.90573446E+00  1.92384416E+00
  1.90378021E+00  1.89285017E+00  1.85417606E+00  1.93164569E+00  1.90546181E+00
  1.90279859E+00  1.87648435E+00  1.98818140E+00  1.85631693E+00  1.90797237E+00
  1.91544219E+00  1.84667214E+00  1.04799701E+00 -3.10625163E+00 -1.08610249E+00
 -3.13838507E+00 -1.00944840E+00  1.01070074E+00 -1.04116605E+00  1.08777062E+00
  3.10791976E+00 -3.13516902E+00 -1.00844898E+00  1.02214395E+00  1.01752902E+00
 -3.13893624E+00 -1.10834331E+00 -1.00154366E+00  1.12517639E+00 -3.12741600E+00
 -3.10659842E+00 -1.04448269E+00  9.76703154E-01  1.04877682E+00  3.11089254E+00
 -1.15110692E+00 -9.63514944E-01  1.09860078E+00  3.11978663E+00 -1.15423884E+00
  3.11086545E+00  3.04924637E+00  1.03116536E+00  9.97043673E-01 -1.02103734E+00
ZRed-Constraint2                           R   N=          75
  2.92213097E+00  2.05968141E+00  2.05986214E+00  2.05987701E+00  2.93229792E+00
  2.05977500E+00  2.05977543E+00  2.92509460E+00  2.05987783E+00  2.05979041E+00
  2.76869007E+00  2.05974358E+00  2.05984182E+00  1.90873999E+00  1.90848949E+00
  1.91069876E+00  1.91063951E+00  1.91060390E+00  1.91068510E+00  1.91061793E+00
  1.91055420E+00  1.96381362E+00  1.85116252E+00  1.85112131E+00  1.85326984E+00
  1.85331771E+00  2.09438156E+00  1.97138410E+00  1.85140126E+00  1.85139481E+00
  1.84976838E+00  1.84977775E+00  2.09435199E+00  1.92752997E+00  1.87678148E+00
  1.87668443E+00  1.84291814E+00  1.84290205E+00  2.09446126E+00  2.09439543E+00
  2.09440102E+00  2.09438886E+00  1.51473133E+00 -2.74942005E+00 -5.04335389E-01
 -2.67395137E+00 -6.54917449E-01  1.59016721E+00 -5.79667190E-01  1.43936674E+00
 -2.59873391E+00  3.13960403E+00 -1.12467034E+00  1.12068571E+00  1.12183902E+00
  3.14074996E+00 -8.97079298E-01 -1.12583711E+00  8.93073833E-01  3.13842988E+00
 -3.13086620E+00 -1.12823510E+00  1.14976106E+00  1.13243343E+00  3.13506453E+00
 -8.70124614E-01 -1.11098259E+00  8.91648504E-01 -3.11354064E+00 -6.12509921E-01
  2.52910838E+00 -2.63639702E+00  5.05221281E-01  1.41125429E+00 -1.73031271E+00
SymInf integers                            I   N=          26
           1           1           1           1           1           0
           0           0           0           0           0           0
           0           0           0           0           0           0
           0           0           0           0           0           0
           0           0
RotTr to input orientation                 R   N=          12
  6.65759184E-02  8.56409192E-01  5.11987249E-01 -9.72574946E-01 -5.89089284E-02
  2.25006029E-01  2.22857852E-01 -5.12925954E-01  8.29000207E-01  3.18598847E+00
  2.81456828E+00 -1.14178083E-01
Number of contracted shells                I               42
Number of primitive shells                 I               99
Pure/Cartesian d shells                    I                1
Pure/Cartesian f shells                    I                0
Highest angular momentum                   I                2
Largest degree of contraction              I                6
Shell types                                I   N=          42
           0          -1          -1           2           0          -1
          -1           2           0          -1          -1           2
           0          -1          -1           2           0          -1
          -1           2           0           0           0           0
           0           0           0           0           0           0
           0           0           0           0           0           0
           0           0           0           0           0           0
Number of primitives per shell             I   N=          42
           6           3           1           1           6           3
           1           1           6           3           1           1
           6           3           1           1           6           3
           1           1           3           1           3           1
           3           1           3           1           3           1
           3           1           3           1           3           1
           3           1           3           1           3           1
Shell to atom map                          I   N=          42
           1           1           1           1           2           2
           2           2           3           3           3           3
           4           4           4           4           5           5
           5           5           6           6           7           7
           8           8           9           9          10          10
          11          11          12          12          13          13
          14          14          15          15          16          16
Primitive exponents                        R   N=          99
  3.04752488E+03  4.57369518E+02  1.03948685E+02  2.92101553E+01  9.28666296E+00
  3.16392696E+00  7.86827235E+00  1.88128854E+00  5.44249258E-01  1.68714478E-01
  8.00000000E-01  3.04752488E+03  4.57369518E+02  1.03948685E+02  2.92101553E+01
  9.28666296E+00  3.16392696E+00  7.86827235E+00  1.88128854E+00  5.44249258E-01
  1.68714478E-01  8.00000000E-01  3.04752488E+03  4.57369518E+02  1.03948685E+02
  2.92101553E+01  9.28666296E+00  3.16392696E+00  7.86827235E+00  1.88128854E+00
  5.44249258E-01  1.68714478E-01  8.00000000E-01  3.04752488E+03  4.57369518E+02
  1.03948685E+02  2.92101553E+01  9.28666296E+00  3.16392696E+00  7.86827235E+00
  1.88128854E+00  5.44249258E-01  1.68714478E-01  8.00000000E-01  4.17351146E+03
  6.27457911E+02  1.42902093E+02  4.02343293E+01  1.28202129E+01  4.39043701E+00
  1.16263619E+01  2.71627981E+00  7.72218397E-01  2.12031498E-01  8.00000000E-01
  1.87311370E+01  2.82539436E+00  6.40121692E-01  1.61277759E-01  1.87311370E+01
  2.82539436E+00  6.40121692E-01  1.61277759E-01  1.87311370E+01  2.82539436E+00
  6.40121692E-01  1.61277759E-01  1.87311370E+01  2.82539436E+00  6.40121692E-01
  1.61277759E-01  1.87311370E+01  2.82539436E+00  6.40121692E-01  1.61277759E-01
  1.87311370E+01  2.82539436E+00  6.40121692E-01  1.61277759E-01  1.87311370E+01
  2.82539436E+00  6.40121692E-01  1.61277759E-01  1.87311370E+01  2.82539436E+00
  6.40121692E-01  1.61277759E-01  1.87311370E+01  2.82539436E+00  6.40121692E-01
  1.61277759E-01  1.87311370E+01  2.82539436E+00  6.40121692E-01  1.61277759E-01
  1.87311370E+01  2.82539436E+00  6.40121692E-01  1.61277759E-01
Contraction coefficients                   R   N=          99
  1.83473713E-03  1.40373228E-02  6.88426223E-02  2.32184443E-01  4.67941348E-01
  3.62311985E-01 -1.19332420E-01 -1.60854152E-01  1.14345644E+00  1.00000000E+00
  1.00000000E+00  1.83473713E-03  1.40373228E-02  6.88426223E-02  2.32184443E-01
  4.67941348E-01  3.62311985E-01 -1.19332420E-01 -1.60854152E-01  1.14345644E+00
  1.00000000E+00  1.00000000E+00  1.83473713E-03  1.40373228E-02  6.88426223E-02
  2.32184443E-01  4.67941348E-01  3.62311985E-01 -1.19332420E-01 -1.60854152E-01
  1.14345644E+00  1.00000000E+00  1.00000000E+00  1.83473713E-03  1.40373228E-02
  6.88426223E-02  2.32184443E-01  4.67941348E-01  3.62311985E-01 -1.19332420E-01
 -1.60854152E-01  1.14345644E+00  1.00000000E+00  1.00000000E+00  1.83477216E-03
  1.39946270E-02  6.85865518E-02  2.32240873E-01  4.69069948E-01  3.60455199E-01
 -1.14961182E-01 -1.69117479E-01  1.14585195E+00  1.00000000E+00  1.00000000E+00
  3.34946043E-02  2.34726953E-01  8.13757326E-01  1.00000000E+00  3.34946043E-02
  2.34726953E-01  8.13757326E-01  1.00000000E+00  3.34946043E-02  2.34726953E-01
  8.13757326E-01  1.00000000E+00  3.34946043E-02  2.34726953E-01  8.13757326E-01
  1.00000000E+00  3.34946043E-02  2.34726953E-01  8.13757326E-01  1.00000000E+00
  3.34946043E-02  2.34726953E-01  8.13757326E-01  1.00000000E+00  3.34946043E-02
  2.34726953E-01  8.13757326E-01  1.00000000E+00  3.34946043E-02  2.34726953E-01
  8.13757326E-01  1.00000000E+00  3.34946043E-02  2.34726953E-01  8.13757326E-01
  1.00000000E+00  3.34946043E-02  2.34726953E-01  8.13757326E-01  1.00000000E+00
  3.34946043E-02  2.34726953E-01  8.13757326E-01  1.00000000E+00
P(S=P) Contraction coefficients            R   N=          99
  0.00000000E+00  0.00000000E+00  0.00000000E+00  0.00000000E+00  0.00000000E+00
  0.00000000E+00  6.89990666E-02  3.16423961E-01  7.44308291E-01  1.00000000E+00
  0.00000000E+00  0.00000000E+00  0.00000000E+00  0.00000000E+00  0.00000000E+00
  0.00000000E+00  0.00000000E+00  6.89990666E-02  3.16423961E-01  7.44308291E-01
  1.00000000E+00  0.00000000E+00  0.00000000E+00  0.00000000E+00  0.00000000E+00
  0.00000000E+00  0.00000000E+00  0.00000000E+00  6.89990666E-02  3.16423961E-01
  7.44308291E-01  1.00000000E+00  0.00000000E+00  0.00000000E+00  0.00000000E+00
  0.00000000E+00  0.00000000E+00  0.00000000E+00  0.00000000E+00  6.89990666E-02
  3.16423961E-01  7.44308291E-01  1.00000000E+00  0.00000000E+00  0.00000000E+00
  0.00000000E+00  0.00000000E+00  0.00000000E+00  0.00000000E+00  0.00000000E+00
  6.75797439E-02  3.23907296E-01  7.40895140E-01  1.00000000E+00  0.00000000E+00
  0.00000000E+00  0.00000000E+00  0.00000000E+00  0.00000000E+00  0.00000000E+00
  0.00000000E+00  0.00000000E+00  0.00000000E+00  0.00000000E+00  0.00000000E+00
  0.00000000E+00  0.00000000E+00  0.00000000E+00  0.00000000E+00  0.00000000E+00
  0.00000000E+00  0.00000000E+00  0.00000000E+00  0.00000000E+00  0.00000000E+00
  0.00000000E+00  0.00000000E+00  0.00000000E+00  0.00000000E+00  0.00000000E+00
  0.00000000E+00  0.00000000E+00  0.00000000E+00  0.00000000E+00  0.00000000E+00
  0.00000000E+00  0.00000000E+00  0.00000000E+00  0.00000000E+00  0.00000000E+00
  0.00000000E+00  0.00000000E+00  0.00000000E+00  0.00000000E+00  0.00000000E+00
  0.00000000E+00  0.00000000E+00  0.00000000E+00  0.00000000E+00
Coordinates of each shell                  R   N=         126
 -4.79929382E+00 -5.79841253E-01 -2.42466918E-02 -4.79929382E+00 -5.79841253E-01
 -2.42466918E-02 -4.79929382E+00 -5.79841253E-01 -2.42466918E-02 -4.79929382E+00
 -5.79841253E-01 -2.42466918E-02 -2.36908679E+00  9.91658470E-01  6.46460277E-02
 -2.36908679E+00  9.91658470E-01  6.46460277E-02 -2.36908679E+00  9.91658470E-01
  6.46460277E-02 -2.36908679E+00  9.91658470E-01  6.46460277E-02  3.42476292E-02
 -6.22028527E-01 -6.74222046E-02  3.42476292E-02 -6.22028527E-01 -6.74222046E-02
  3.42476292E-02 -6.22028527E-01 -6.74222046E-02  3.42476292E-02 -6.22028527E-01
 -6.74222046E-02  2.46895656E+00  9.33570890E-01  3.74145848E-02  2.46895656E+00
  9.33570890E-01  3.74145848E-02  2.46895656E+00  9.33570890E-01  3.74145848E-02
  2.46895656E+00  9.33570890E-01  3.74145848E-02  4.69298163E+00 -7.11107710E-01
 -1.87221086E-01  4.69298163E+00 -7.11107710E-01 -1.87221086E-01  4.69298163E+00
 -7.11107710E-01 -1.87221086E-01  4.69298163E+00 -7.11107710E-01 -1.87221086E-01
 -4.88919014E+00 -1.91021491E+00  1.56315657E+00 -4.88919014E+00 -1.91021491E+00
  1.56315657E+00 -6.48259335E+00  6.23475654E-01  6.71303975E-02 -6.48259335E+00
  6.23475654E-01  6.71303975E-02 -4.90993582E+00 -1.68762119E+00 -1.77259653E+00
 -4.90993582E+00 -1.68762119E+00 -1.77259653E+00 -2.36836641E+00  2.34977484E+00
 -1.50744692E+00 -2.36836641E+00  2.34977484E+00 -1.50744692E+00 -2.34497803E+00
  2.12731647E+00  1.80430675E+00 -2.34497803E+00  2.12731647E+00  1.80430675E+00
  2.99684690E-02 -1.98564677E+00  1.50490710E+00  2.99684690E-02 -1.98564677E+00
  1.50490710E+00  4.81785043E-02 -1.74666901E+00 -1.81050688E+00  4.81785043E-02
 -1.74666901E+00 -1.81050688E+00  2.50398446E+00  2.25332570E+00 -1.56345781E+00
  2.50398446E+00  2.25332570E+00 -1.56345781E+00  2.45391083E+00  2.10741118E+00
  1.76835559E+00  2.45391083E+00  2.10741118E+00  1.76835559E+00  4.80334638E+00
 -1.84968022E+00  1.36404912E+00  4.80334638E+00 -1.84968022E+00  1.36404912E+00
  6.29586219E+00  3.56124735E-01 -1.69700082E-01  6.29586219E+00  3.56124735E-01
 -1.69700082E-01
Num ILSW                                   I              100
ILSW                                       I   N=         100
           0           1           0           0           2           0
           0           0           0           0         402          -1
           5           0           0           0           2           0
           0           0           0           0           1           0
           1           0           0           0           0           0
           0           0      100000           0          -1           0
           0           0           0           0           0           0
           0           0           0           1           0           0
           0 -2000000000           1           0           0           0
           0           0           4          52           0           0
           0           0           5           0           0           0
           0           0           0          16           0           1
           0           0           0           0           0           0
           0           0           0           0           0           0
           0           0           0           0           0           0
           0           0           0           0           0           0
           0           0           0           0
Num RLSW                                   I               52
RLSW                                       R   N=          52
  8.00000000E-01  7.20000000E-01  1.00000000E+00  8.10000000E-01  2.00000000E-01
  0.00000000E+00  0.00000000E+00  1.00000000E+00  0.00000000E+00  0.00000000E+00
  0.00000000E+00  0.00000000E+00  1.00000000E+00  0.00000000E+00  0.00000000E+00
  0.00000000E+00  0.00000000E+00  1.00000000E+00  0.00000000E+00  0.00000000E+00
  0.00000000E+00  0.00000000E+00  1.00000000E+00  0.00000000E+00  0.00000000E+00
  0.00000000E+00  0.00000000E+00  1.00000000E+00  0.00000000E+00  0.00000000E+00
  0.00000000E+00  0.00000000E+00  1.00000000E+00  0.00000000E+00  0.00000000E+00
  0.00000000E+00  0.00000000E+00  0.00000000E+00  1.00000000E+00  1.00000000E+00
  0.00000000E+00  1.00000000E+00  0.00000000E+00  0.00000000E+00  0.00000000E+00
  0.00000000E+00  0.00000000E+00  0.00000000E+00  0.00000000E+00  0.00000000E+00
  0.00000000E+00  0.00000000E+00
MxBond                                     I                4
NBond                                      I   N=          16
           4           4           4           4           3           1
           1           1           1           1           1           1
           1           1           1           1
IBond                                      I   N=          64
           2           6           7           8           1           3
           9          10           2           4          11          12
           3           5          13          14           4          15
          16           0           1           0           0           0
           1           0           0           0           1           0
           0           0           2           0           0           0
           2           0           0           0           3           0
           0           0           3           0           0           0
           4           0           0           0           4           0
           0           0           5           0           0           0
           5           0           0           0
RBond                                      R   N=          64
  1.00000000E+00  1.00000000E+00  1.00000000E+00  1.00000000E+00  1.00000000E+00