 Entering Gaussian System, Link 0=/apps/cent7/gaussian/g16-A.03/g16-haswell/g16/g16
 Initial command:
 /apps/cent7/gaussian/g16-A.03/g16-haswell/g16/l1.exe "/scratch/brown/finej/gaussian/Gau-291930.inp" -scrdir="/scratch/brown/finej/gaussian/"
 Entering Link 1 = /apps/cent7/gaussian/g16-A.03/g16-haswell/g16/l1.exe PID=    291931.
  
 Copyright (c) 1988,1990,1992,1993,1995,1998,2003,2009,2016,
            Gaussian, Inc.  All Rights Reserved.
  
 This is part of the Gaussian(R) 16 program.  It is based on
 the Gaussian(R) 09 system (copyright 2009, Gaussian, Inc.),
 the Gaussian(R) 03 system (copyright 2003, Gaussian, Inc.),
 the Gaussian(R) 98 system (copyright 1998, Gaussian, Inc.),
 the Gaussian(R) 94 system (copyright 1995, Gaussian, Inc.),
 the Gaussian 92(TM) system (copyright 1992, Gaussian, Inc.),
 the Gaussian 90(TM) system (copyright 1990, Gaussian, Inc.),
 the Gaussian 88(TM) system (copyright 1988, Gaussian, Inc.),
 the Gaussian 86(TM) system (copyright 1986, Carnegie Mellon
 University), and the Gaussian 82(TM) system (copyright 1983,
 Carnegie Mellon University). Gaussian is a federally registered
 trademark of Gaussian, Inc.
  
 This software contains proprietary and confidential information,
 including trade secrets, belonging to Gaussian, Inc.
  
 This software is provided under written license and may be
 used, copied, transmitted, or stored only in accord with that
 written license.
  
 The following legend is applicable only to US Government
 contracts under FAR:
  
                    RESTRICTED RIGHTS LEGEND
  
 Use, reproduction and disclosure by the US Government is
 subject to restrictions as set forth in subparagraphs (a)
 and (c) of the Commercial Computer Software - Restricted
 Rights clause in FAR 52.227-19.
  
 Gaussian, Inc.
 340 Quinnipiac St., Bldg. 40, Wallingford CT 06492
  
  
 ---------------------------------------------------------------
 Warning -- This program may not be used in any manner that
 competes with the business of Gaussian, Inc. or will provide
 assistance to any competitor of Gaussian, Inc.  The licensee
 of this program is prohibited from giving any competitor of
 Gaussian, Inc. access to this program.  By using this program,
 the user acknowledges that Gaussian, Inc. is engaged in the
 business of creating and licensing software in the field of
 computational chemistry and represents and warrants to the
 licensee that it is not a competitor of Gaussian, Inc. and that
 it will not use this program in any manner prohibited above.
 ---------------------------------------------------------------
  

 Cite this work as:
 Gaussian 16, Revision A.03,
 M. J. Frisch, G. W. Trucks, H. B. Schlegel, G. E. Scuseria, 
 M. A. Robb, J. R. Cheeseman, G. Scalmani, V. Barone, 
 G. A. Petersson, H. Nakatsuji, X. Li, M. Caricato, A. V. Marenich, 
 J. Bloino, B. G. Janesko, R. Gomperts, B. Mennucci, H. P. Hratchian, 
 J. V. Ortiz, A. F. Izmaylov, J. L. Sonnenberg, D. Williams-Young, 
 F. Ding, F. Lipparini, F. Egidi, J. Goings, B. Peng, A. Petrone, 
 T. Henderson, D. Ranasinghe, V. G. Zakrzewski, J. Gao, N. Rega, 
 G. Zheng, W. Liang, M. Hada, M. Ehara, K. Toyota, R. Fukuda, 
 J. Hasegawa, M. Ishida, T. Nakajima, Y. Honda, O. Kitao, H. Nakai, 
 T. Vreven, K. Throssell, J. A. Montgomery, Jr., J. E. Peralta, 
 F. Ogliaro, M. J. Bearpark, J. J. Heyd, E. N. Brothers, K. N. Kudin, 
 V. N. Staroverov, T. A. Keith, R. Kobayashi, J. Normand, 
 K. Raghavachari, A. P. Rendell, J. C. Burant, S. S. Iyengar, 
 J. Tomasi, M. Cossi, J. M. Millam, M. Klene, C. Adamo, R. Cammi, 
 J. W. Ochterski, R. L. Martin, K. Morokuma, O. Farkas, 
 J. B. Foresman, and D. J. Fox, Gaussian, Inc., Wallingford CT, 2016.
 
 ******************************************
 Gaussian 16:  ES64L-G16RevA.03 25-Dec-2016
                14-Oct-2019 
 ******************************************
 %chk=18.chk
 %nprocshared=24
 Will use up to   24 processors via shared memory.
 %mem=80GB
 --------------------------------------------------------------
 #P opt freq b3lyp/6-31g(d) geom=connectivity temperature=0.001
 --------------------------------------------------------------
 1/18=20,19=15,26=3,38=1,57=2,112=-1000/1,3;
 2/9=110,12=2,17=6,18=5,40=1/2;
 3/5=1,6=6,7=1,11=2,25=1,30=1,71=1,74=-5/1,2,3;
 4//1;
 5/5=2,38=5/2;
 6/7=2,8=2,9=2,10=2,28=1/1;
 7//1,2,3,16;
 1/18=20,19=15,26=3/3(2);
 2/9=110/2;
 99//99;
 2/9=110/2;
 3/5=1,6=6,7=1,11=2,25=1,30=1,71=1,74=-5/1,2,3;
 4/5=5,16=3,69=1/1;
 5/5=2,38=5/2;
 7//1,2,3,16;
 1/18=20,19=15,26=3/3(-5);
 2/9=110/2;
 6/7=2,8=2,9=2,10=2,19=2,28=1/1;
 99/9=1/99;
 Leave Link    1 at Mon Oct 14 00:44:31 2019, MaxMem= 10737418240 cpu:               1.6 elap:               0.1
 (Enter /apps/cent7/gaussian/g16-A.03/g16-haswell/g16/l101.exe)
 -------------------
 Title Card Required
 -------------------
 Symbolic Z-matrix:
 Charge =  0 Multiplicity = 1
 C                     1.829    -0.6552   -1.4686 
 C                     1.0852    0.321    -0.5279 
 C                     1.9673    1.5247   -0.1027 
 C                     1.2314    2.5101    0.8372 
 N                     2.1073    3.6298    1.1917 
 H                     2.3827   -1.3818   -0.8741 
 H                     1.1064   -1.1753   -2.0975 
 H                     2.5222   -0.0965   -2.0975 
 H                     0.2648    0.7371   -1.1126 
 H                     0.8757   -0.2391    0.3834 
 H                     2.7865    1.1068    0.4825 
 H                     2.1784    2.0816   -1.0156 
 H                     0.4084    2.9491    0.2733 
 H                     1.0331    1.9859    1.7721 
 H                     3.0982    3.4768    1.3139 
 H                     1.7203    4.5546    1.3139 
 
 ITRead=  0  0  0  0  0  0  0  0  0  0  0  0  0  0  0  0
 MicOpt= -1 -1 -1 -1 -1 -1 -1 -1 -1 -1 -1 -1 -1 -1 -1 -1
 NAtoms=     16 NQM=       16 NQMF=       0 NMMI=      0 NMMIF=      0
                NMic=       0 NMicF=      0.
                    Isotopes and Nuclear Properties:
 (Nuclear quadrupole moments (NQMom) in fm**2, nuclear magnetic moments (NMagM)
  in nuclear magnetons)

  Atom         1           2           3           4           5           6           7           8           9          10
 IAtWgt=          12          12          12          12          14           1           1           1           1           1
 AtmWgt=  12.0000000  12.0000000  12.0000000  12.0000000  14.0030740   1.0078250   1.0078250   1.0078250   1.0078250   1.0078250
 NucSpn=           0           0           0           0           2           1           1           1           1           1
 AtZEff=  -0.0000000  -0.0000000  -0.0000000  -0.0000000  -0.0000000  -0.0000000  -0.0000000  -0.0000000  -0.0000000  -0.0000000
 NQMom=    0.0000000   0.0000000   0.0000000   0.0000000   2.0440000   0.0000000   0.0000000   0.0000000   0.0000000   0.0000000
 NMagM=    0.0000000   0.0000000   0.0000000   0.0000000   0.4037610   2.7928460   2.7928460   2.7928460   2.7928460   2.7928460
 AtZNuc=   6.0000000   6.0000000   6.0000000   6.0000000   7.0000000   1.0000000   1.0000000   1.0000000   1.0000000   1.0000000

  Atom        11          12          13          14          15          16
 IAtWgt=           1           1           1           1           1           1
 AtmWgt=   1.0078250   1.0078250   1.0078250   1.0078250   1.0078250   1.0078250
 NucSpn=           1           1           1           1           1           1
 AtZEff=  -0.0000000  -0.0000000  -0.0000000  -0.0000000  -0.0000000  -0.0000000
 NQMom=    0.0000000   0.0000000   0.0000000   0.0000000   0.0000000   0.0000000
 NMagM=    2.7928460   2.7928460   2.7928460   2.7928460   2.7928460   2.7928460
 AtZNuc=   1.0000000   1.0000000   1.0000000   1.0000000   1.0000000   1.0000000
 Leave Link  101 at Mon Oct 14 00:44:32 2019, MaxMem= 10737418240 cpu:              13.3 elap:               0.6
 (Enter /apps/cent7/gaussian/g16-A.03/g16-haswell/g16/l103.exe)

 GradGradGradGradGradGradGradGradGradGradGradGradGradGradGradGradGradGrad
 Berny optimization.
 Initialization pass.
                           ----------------------------
                           !    Initial Parameters    !
                           ! (Angstroms and Degrees)  !
 --------------------------                            --------------------------
 ! Name  Definition              Value          Derivative Info.                !
 --------------------------------------------------------------------------------
 ! R1    R(1,2)                  1.5463         estimate D2E/DX2                !
 ! R2    R(1,6)                  1.0899         estimate D2E/DX2                !
 ! R3    R(1,7)                  1.09           estimate D2E/DX2                !
 ! R4    R(1,8)                  1.09           estimate D2E/DX2                !
 ! R5    R(2,3)                  1.5517         estimate D2E/DX2                !
 ! R6    R(2,9)                  1.09           estimate D2E/DX2                !
 ! R7    R(2,10)                 1.09           estimate D2E/DX2                !
 ! R8    R(3,4)                  1.5479         estimate D2E/DX2                !
 ! R9    R(3,11)                 1.09           estimate D2E/DX2                !
 ! R10   R(3,12)                 1.09           estimate D2E/DX2                !
 ! R11   R(4,5)                  1.4651         estimate D2E/DX2                !
 ! R12   R(4,13)                 1.09           estimate D2E/DX2                !
 ! R13   R(4,14)                 1.09           estimate D2E/DX2                !
 ! R14   R(5,15)                 1.0101         estimate D2E/DX2                !
 ! R15   R(5,16)                 1.0099         estimate D2E/DX2                !
 ! A1    A(2,1,6)              109.475          estimate D2E/DX2                !
 ! A2    A(2,1,7)              109.4716         estimate D2E/DX2                !
 ! A3    A(2,1,8)              109.4695         estimate D2E/DX2                !
 ! A4    A(6,1,7)              109.4742         estimate D2E/DX2                !
 ! A5    A(6,1,8)              109.4703         estimate D2E/DX2                !
 ! A6    A(7,1,8)              109.4667         estimate D2E/DX2                !
 ! A7    A(1,2,3)              112.5182         estimate D2E/DX2                !
 ! A8    A(1,2,9)              106.0638         estimate D2E/DX2                !
 ! A9    A(1,2,10)             106.0614         estimate D2E/DX2                !
 ! A10   A(3,2,9)              106.1845         estimate D2E/DX2                !
 ! A11   A(3,2,10)             106.1873         estimate D2E/DX2                !
 ! A12   A(9,2,10)             119.9992         estimate D2E/DX2                !
 ! A13   A(2,3,4)              112.952          estimate D2E/DX2                !
 ! A14   A(2,3,11)             106.0775         estimate D2E/DX2                !
 ! A15   A(2,3,12)             106.0771         estimate D2E/DX2                !
 ! A16   A(4,3,11)             105.9839         estimate D2E/DX2                !
 ! A17   A(4,3,12)             105.9845         estimate D2E/DX2                !
 ! A18   A(11,3,12)            119.9975         estimate D2E/DX2                !
 ! A19   A(3,4,5)              110.4393         estimate D2E/DX2                !
 ! A20   A(3,4,13)             107.5317         estimate D2E/DX2                !
 ! A21   A(3,4,14)             107.5261         estimate D2E/DX2                !
 ! A22   A(5,4,13)             105.5914         estimate D2E/DX2                !
 ! A23   A(5,4,14)             105.5905         estimate D2E/DX2                !
 ! A24   A(13,4,14)            120.0038         estimate D2E/DX2                !
 ! A25   A(4,5,15)             120.0            estimate D2E/DX2                !
 ! A26   A(4,5,16)             120.0003         estimate D2E/DX2                !
 ! A27   A(15,5,16)            119.9996         estimate D2E/DX2                !
 ! D1    D(6,1,2,3)             86.7877         estimate D2E/DX2                !
 ! D2    D(6,1,2,9)           -157.5302         estimate D2E/DX2                !
 ! D3    D(6,1,2,10)           -28.8963         estimate D2E/DX2                !
 ! D4    D(7,1,2,3)           -153.2061         estimate D2E/DX2                !
 ! D5    D(7,1,2,9)            -37.524          estimate D2E/DX2                !
 ! D6    D(7,1,2,10)            91.1099         estimate D2E/DX2                !
 ! D7    D(8,1,2,3)            -33.2125         estimate D2E/DX2                !
 ! D8    D(8,1,2,9)             82.4696         estimate D2E/DX2                !
 ! D9    D(8,1,2,10)          -148.8965         estimate D2E/DX2                !
 ! D10   D(1,2,3,4)            179.8861         estimate D2E/DX2                !
 ! D11   D(1,2,3,11)           -64.4389         estimate D2E/DX2                !
 ! D12   D(1,2,3,12)            64.2106         estimate D2E/DX2                !
 ! D13   D(9,2,3,4)             64.2766         estimate D2E/DX2                !
 ! D14   D(9,2,3,11)           179.9517         estimate D2E/DX2                !
 ! D15   D(9,2,3,12)           -51.3989         estimate D2E/DX2                !
 ! D16   D(10,2,3,4)           -64.5057         estimate D2E/DX2                !
 ! D17   D(10,2,3,11)           51.1694         estimate D2E/DX2                !
 ! D18   D(10,2,3,12)          179.8188         estimate D2E/DX2                !
 ! D19   D(2,3,4,5)           -179.3854         estimate D2E/DX2                !
 ! D20   D(2,3,4,13)           -64.6431         estimate D2E/DX2                !
 ! D21   D(2,3,4,14)            65.8765         estimate D2E/DX2                !
 ! D22   D(11,3,4,5)            64.8837         estimate D2E/DX2                !
 ! D23   D(11,3,4,13)          179.626          estimate D2E/DX2                !
 ! D24   D(11,3,4,14)          -49.8545         estimate D2E/DX2                !
 ! D25   D(12,3,4,5)           -63.6546         estimate D2E/DX2                !
 ! D26   D(12,3,4,13)           51.0877         estimate D2E/DX2                !
 ! D27   D(12,3,4,14)         -178.3927         estimate D2E/DX2                !
 ! D28   D(3,4,5,15)           -35.0942         estimate D2E/DX2                !
 ! D29   D(3,4,5,16)           144.9072         estimate D2E/DX2                !
 ! D30   D(13,4,5,15)         -151.0544         estimate D2E/DX2                !
 ! D31   D(13,4,5,16)           28.947          estimate D2E/DX2                !
 ! D32   D(14,4,5,15)           80.8589         estimate D2E/DX2                !
 ! D33   D(14,4,5,16)          -99.1396         estimate D2E/DX2                !
 --------------------------------------------------------------------------------
 Trust Radius=3.00D-01 FncErr=1.00D-07 GrdErr=1.00D-06 EigMax=2.50D+02 EigMin=1.00D-04
 Number of steps in this run=     85 maximum allowed number of steps=    100.
 GradGradGradGradGradGradGradGradGradGradGradGradGradGradGradGradGradGrad

 Leave Link  103 at Mon Oct 14 00:44:32 2019, MaxMem= 10737418240 cpu:               0.2 elap:               0.0
 (Enter /apps/cent7/gaussian/g16-A.03/g16-haswell/g16/l202.exe)
                          Input orientation:                          
 ---------------------------------------------------------------------
 Center     Atomic      Atomic             Coordinates (Angstroms)
 Number     Number       Type             X           Y           Z
 ---------------------------------------------------------------------
      1          6           0        1.829000   -0.655200   -1.468600
      2          6           0        1.085200    0.321000   -0.527900
      3          6           0        1.967300    1.524700   -0.102700
      4          6           0        1.231400    2.510100    0.837200
      5          7           0        2.107300    3.629800    1.191700
      6          1           0        2.382700   -1.381800   -0.874100
      7          1           0        1.106400   -1.175300   -2.097500
      8          1           0        2.522200   -0.096500   -2.097500
      9          1           0        0.264800    0.737100   -1.112600
     10          1           0        0.875700   -0.239100    0.383400
     11          1           0        2.786500    1.106800    0.482500
     12          1           0        2.178400    2.081600   -1.015600
     13          1           0        0.408400    2.949100    0.273300
     14          1           0        1.033100    1.985900    1.772100
     15          1           0        3.098200    3.476800    1.313900
     16          1           0        1.720300    4.554600    1.313900
 ---------------------------------------------------------------------
                    Distance matrix (angstroms):
                    1          2          3          4          5
     1  C    0.000000
     2  C    1.546325   0.000000
     3  C    2.576194   1.551705   0.000000
     4  C    3.961435   2.583995   1.547893   0.000000
     5  N    5.051324   3.866506   2.475180   1.465128   0.000000
     6  H    1.089936   2.168614   3.035681   4.404648   5.427662
     7  H    1.090032   2.168642   3.465599   4.712776   5.908437
     8  H    1.090040   2.168622   2.629721   4.131948   4.987614
     9  H    2.124137   1.089986   2.130427   2.807056   4.131866
    10  H    2.124105   1.089986   2.130463   2.809014   4.139876
    11  H    2.797899   2.129040   1.090040   2.124476   2.707361
    12  H    2.795955   2.129002   1.089994   2.124450   2.697064
    13  H    4.247740   2.829645   2.144868   1.089969   2.047699
    14  H    4.255702   2.839825   2.144833   1.090021   2.047725
    15  H    5.140681   4.171747   2.663904   2.155619   1.010062
    16  H    5.907295   4.660359   3.353813   2.155515   1.009929
                    6          7          8          9         10
     6  H    0.000000
     7  H    1.779970   0.000000
     8  H    1.779934   1.779972   0.000000
     9  H    3.005349   2.309890   2.600148   0.000000
    10  H    2.271149   2.661683   2.980967   1.887904   0.000000
    11  H    2.862961   3.832377   2.859053   3.006658   2.339321
    12  H    3.472305   3.595426   2.456181   2.340717   3.006639
    13  H    4.896027   4.808178   4.400514   2.614246   3.224145
    14  H    4.490568   4.997235   4.639786   3.235936   2.627525
    15  H    5.376363   6.103028   4.973721   4.628392   4.428685
    16  H    6.361365   6.696736   5.823523   4.751809   4.955677
                   11         12         13         14         15
    11  H    0.000000
    12  H    1.887942   0.000000
    13  H    3.015492   2.355147   0.000000
    14  H    2.347402   3.015318   1.887963   0.000000
    15  H    2.530866   2.866912   2.931952   2.587927   0.000000
    16  H    3.703422   3.428142   2.319819   2.698224   1.749360
                   16
    16  H    0.000000
 Stoichiometry    C4H11N
 Framework group  C1[X(C4H11N)]
 Deg. of freedom    42
 Full point group                 C1      NOp   1
 Largest Abelian subgroup         C1      NOp   1
 Largest concise Abelian subgroup C1      NOp   1
                         Standard orientation:                         
 ---------------------------------------------------------------------
 Center     Atomic      Atomic             Coordinates (Angstroms)
 Number     Number       Type             X           Y           Z
 ---------------------------------------------------------------------
      1          6           0       -2.553621   -0.323038   -0.033589
      2          6           0       -1.270188    0.536787    0.034400
      3          6           0        0.022524   -0.319915   -0.018010
      4          6           0        1.313773    0.531248    0.046577
      5          7           0        2.497684   -0.329179   -0.021379
      6          1           0       -2.829208   -0.644600    0.970707
      7          1           0       -3.364093    0.267102   -0.461421
      8          1           0       -2.372254   -1.197763   -0.658209
      9          1           0       -1.267422    1.146517   -0.869088
     10          1           0       -1.278707    1.014369    1.014152
     11          1           0        0.018428   -0.928200    0.886512
     12          1           0        0.027570   -0.799142   -0.996991
     13          1           0        1.346772    1.146509   -0.852533
     14          1           0        1.348735    1.000544    1.029778
     15          1           0        2.484689   -1.241279    0.412359
     16          1           0        3.326773   -0.010296   -0.501881
 ---------------------------------------------------------------------
 Rotational constants (GHZ):          18.0373575           1.9250978           1.8337450
 Leave Link  202 at Mon Oct 14 00:44:32 2019, MaxMem= 10737418240 cpu:               0.3 elap:               0.0
 (Enter /apps/cent7/gaussian/g16-A.03/g16-haswell/g16/l301.exe)
 Standard basis: 6-31G(d) (6D, 7F)
 Ernie: Thresh=  0.10000D-02 Tol=  0.10000D-05 Strict=F.
 There are    97 symmetry adapted cartesian basis functions of A   symmetry.
 There are    97 symmetry adapted basis functions of A   symmetry.
    97 basis functions,   184 primitive gaussians,    97 cartesian basis functions
    21 alpha electrons       21 beta electrons
       nuclear repulsion energy       184.8923847751 Hartrees.
 IExCor=  402 DFT=T Ex+Corr=B3LYP ExCW=0 ScaHFX=  0.200000
 ScaDFX=  0.800000  0.720000  1.000000  0.810000 ScalE2=  1.000000  1.000000
 IRadAn=      5 IRanWt=     -1 IRanGd=            0 ICorTp=0 IEmpDi=  4
 NAtoms=   16 NActive=   16 NUniq=   16 SFac= 1.00D+00 NAtFMM=   60 NAOKFM=F Big=F
 Integral buffers will be    131072 words long.
 Raffenetti 2 integral format.
 Two-electron integral symmetry is turned on.
 Leave Link  301 at Mon Oct 14 00:44:32 2019, MaxMem= 10737418240 cpu:               1.2 elap:               0.1
 (Enter /apps/cent7/gaussian/g16-A.03/g16-haswell/g16/l302.exe)
 NPDir=0 NMtPBC=     1 NCelOv=     1 NCel=       1 NClECP=     1 NCelD=      1
         NCelK=      1 NCelE2=     1 NClLst=     1 CellRange=     0.0.
 One-electron integrals computed using PRISM.
 One-electron integral symmetry used in STVInt
 NBasis=    97 RedAO= T EigKep=  3.57D-03  NBF=    97
 NBsUse=    97 1.00D-06 EigRej= -1.00D+00 NBFU=    97
 Precomputing XC quadrature grid using
 IXCGrd= 4 IRadAn=           5 IRanWt=          -1 IRanGd=           0 AccXCQ= 0.00D+00.
 Generated NRdTot=       0 NPtTot=           0 NUsed=           0 NTot=          32
 NSgBfM=    97    97    97    97    97 MxSgAt=    16 MxSgA2=    16.
 Leave Link  302 at Mon Oct 14 00:44:32 2019, MaxMem= 10737418240 cpu:               2.9 elap:               0.1
 (Enter /apps/cent7/gaussian/g16-A.03/g16-haswell/g16/l303.exe)
 DipDrv:  MaxL=1.
 Leave Link  303 at Mon Oct 14 00:44:32 2019, MaxMem= 10737418240 cpu:               0.9 elap:               0.1
 (Enter /apps/cent7/gaussian/g16-A.03/g16-haswell/g16/l401.exe)
 ExpMin= 1.61D-01 ExpMax= 4.17D+03 ExpMxC= 6.27D+02 IAcc=3 IRadAn=         5 AccDes= 0.00D+00
 Harris functional with IExCor=  402 and IRadAn=       5 diagonalized for initial guess.
 HarFok:  IExCor=  402 AccDes= 0.00D+00 IRadAn=         5 IDoV= 1 UseB2=F ITyADJ=14
 ICtDFT=  3500011 ScaDFX=  1.000000  1.000000  1.000000  1.000000
 FoFCou: FMM=F IPFlag=           0 FMFlag=      100000 FMFlg1=           0
         NFxFlg=           0 DoJE=T BraDBF=F KetDBF=T FulRan=T
         wScrn=  0.000000 ICntrl=       500 IOpCl=  0 I1Cent=   200000004 NGrid=           0
         NMat0=    1 NMatS0=      1 NMatT0=    0 NMatD0=    1 NMtDS0=    0 NMtDT0=    0
 Petite list used in FoFCou.
 Harris En= -213.830670664538    
 JPrj=0 DoOrth=F DoCkMO=F.
 Leave Link  401 at Mon Oct 14 00:44:33 2019, MaxMem= 10737418240 cpu:               5.2 elap:               0.3
 (Enter /apps/cent7/gaussian/g16-A.03/g16-haswell/g16/l502.exe)
 Integral symmetry usage will be decided dynamically.
 Closed shell SCF:
 Using DIIS extrapolation, IDIIS=  1040.
 NGot= 10737418240 LenX= 10737395705 LenY= 10737385855
 Requested convergence on RMS density matrix=1.00D-08 within 128 cycles.
 Requested convergence on MAX density matrix=1.00D-06.
 Requested convergence on             energy=1.00D-06.
 No special actions if energy rises.
 Fock matrices will be formed incrementally for  20 cycles.
 Integral accuracy reduced to 1.0D-05 until final iterations.

 Cycle   1  Pass 0  IDiag  1:
 FoFJK:  IHMeth= 1 ICntrl=       0 DoSepK=F KAlg= 0 I1Cent=           0 FoldK=F
 IRaf= 970000000 NMat=       1 IRICut=       1 DoRegI=T DoRafI=F ISym2E= 0 IDoP0=0 IntGTp=1.
 FoFCou: FMM=F IPFlag=           0 FMFlag=      100000 FMFlg1=           0
         NFxFlg=           0 DoJE=F BraDBF=F KetDBF=F FulRan=T
         wScrn=  0.000000 ICntrl=         0 IOpCl=  0 I1Cent=           0 NGrid=           0
         NMat0=    1 NMatS0=      1 NMatT0=    0 NMatD0=    1 NMtDS0=    0 NMtDT0=    0
 Symmetry not used in FoFCou.
 E= -213.540660502202    
 DIIS: error= 5.14D-02 at cycle   1 NSaved=   1.
 NSaved= 1 IEnMin= 1 EnMin= -213.540660502202     IErMin= 1 ErrMin= 5.14D-02
 ErrMax= 5.14D-02  0.00D+00 EMaxC= 1.00D-01 BMatC= 2.16D-01 BMatP= 2.16D-01
 IDIUse=3 WtCom= 4.86D-01 WtEn= 5.14D-01
 Coeff-Com:  0.100D+01
 Coeff-En:   0.100D+01
 Coeff:      0.100D+01
 Gap=     0.195 Goal=   None    Shift=    0.000
 GapD=    0.195 DampG=1.000 DampE=0.500 DampFc=0.5000 IDamp=-1.
 Damping current iteration by 5.00D-01
 RMSDP=1.07D-02 MaxDP=1.66D-01              OVMax= 1.86D-01

 Cycle   2  Pass 0  IDiag  1:
 RMSU=  5.25D-03    CP:  9.66D-01
 E= -213.641810376594     Delta-E=       -0.101149874392 Rises=F Damp=T
 DIIS: error= 1.11D-02 at cycle   2 NSaved=   2.
 NSaved= 2 IEnMin= 2 EnMin= -213.641810376594     IErMin= 2 ErrMin= 1.11D-02
 ErrMax= 1.11D-02  0.00D+00 EMaxC= 1.00D-01 BMatC= 8.20D-03 BMatP= 2.16D-01
 IDIUse=3 WtCom= 8.89D-01 WtEn= 1.11D-01
 Coeff-Com:  0.846D-01 0.915D+00
 Coeff-En:   0.133D+00 0.867D+00
 Coeff:      0.899D-01 0.910D+00
 Gap=     0.280 Goal=   None    Shift=    0.000
 RMSDP=1.35D-03 MaxDP=1.76D-02 DE=-1.01D-01 OVMax= 9.50D-02

 Cycle   3  Pass 0  IDiag  1:
 RMSU=  1.26D-03    CP:  9.67D-01  9.08D-01
 E= -213.768292833852     Delta-E=       -0.126482457258 Rises=F Damp=F
 DIIS: error= 2.26D-03 at cycle   3 NSaved=   3.
 NSaved= 3 IEnMin= 3 EnMin= -213.768292833852     IErMin= 3 ErrMin= 2.26D-03
 ErrMax= 2.26D-03  0.00D+00 EMaxC= 1.00D-01 BMatC= 7.12D-04 BMatP= 8.20D-03
 IDIUse=3 WtCom= 9.77D-01 WtEn= 2.26D-02
 Coeff-Com:  0.539D-02 0.161D+00 0.833D+00
 Coeff-En:   0.000D+00 0.000D+00 0.100D+01
 Coeff:      0.527D-02 0.157D+00 0.837D+00
 Gap=     0.273 Goal=   None    Shift=    0.000
 RMSDP=4.11D-04 MaxDP=9.01D-03 DE=-1.26D-01 OVMax= 9.53D-03

 Cycle   4  Pass 0  IDiag  1:
 RMSU=  3.72D-04    CP:  9.67D-01  9.02D-01  8.62D-01
 E= -213.768494438731     Delta-E=       -0.000201604879 Rises=F Damp=F
 DIIS: error= 1.92D-03 at cycle   4 NSaved=   4.
 NSaved= 4 IEnMin= 4 EnMin= -213.768494438731     IErMin= 4 ErrMin= 1.92D-03
 ErrMax= 1.92D-03  0.00D+00 EMaxC= 1.00D-01 BMatC= 4.82D-04 BMatP= 7.12D-04
 IDIUse=3 WtCom= 9.81D-01 WtEn= 1.92D-02
 Coeff-Com: -0.733D-03 0.272D-01 0.455D+00 0.519D+00
 Coeff-En:   0.000D+00 0.000D+00 0.405D+00 0.595D+00
 Coeff:     -0.718D-03 0.266D-01 0.454D+00 0.520D+00
 Gap=     0.279 Goal=   None    Shift=    0.000
 RMSDP=2.08D-04 MaxDP=4.61D-03 DE=-2.02D-04 OVMax= 4.96D-03

 Cycle   5  Pass 0  IDiag  1:
 RMSU=  8.26D-05    CP:  9.67D-01  9.08D-01  9.09D-01  5.20D-01
 E= -213.768907062158     Delta-E=       -0.000412623427 Rises=F Damp=F
 DIIS: error= 1.94D-04 at cycle   5 NSaved=   5.
 NSaved= 5 IEnMin= 5 EnMin= -213.768907062158     IErMin= 5 ErrMin= 1.94D-04
 ErrMax= 1.94D-04  0.00D+00 EMaxC= 1.00D-01 BMatC= 7.73D-06 BMatP= 4.82D-04
 IDIUse=3 WtCom= 9.98D-01 WtEn= 1.94D-03
 Coeff-Com: -0.222D-03 0.145D-03 0.112D+00 0.184D+00 0.704D+00
 Coeff-En:   0.000D+00 0.000D+00 0.000D+00 0.000D+00 0.100D+01
 Coeff:     -0.222D-03 0.145D-03 0.112D+00 0.183D+00 0.705D+00
 Gap=     0.278 Goal=   None    Shift=    0.000
 RMSDP=3.39D-05 MaxDP=4.61D-04 DE=-4.13D-04 OVMax= 5.71D-04

 Cycle   6  Pass 0  IDiag  1:
 RMSU=  1.38D-05    CP:  9.67D-01  9.07D-01  9.13D-01  5.52D-01  6.69D-01
 E= -213.768913788995     Delta-E=       -0.000006726837 Rises=F Damp=F
 DIIS: error= 4.58D-05 at cycle   6 NSaved=   6.
 NSaved= 6 IEnMin= 6 EnMin= -213.768913788995     IErMin= 6 ErrMin= 4.58D-05
 ErrMax= 4.58D-05  0.00D+00 EMaxC= 1.00D-01 BMatC= 3.79D-07 BMatP= 7.73D-06
 IDIUse=1 WtCom= 1.00D+00 WtEn= 0.00D+00
 Coeff-Com: -0.244D-04-0.614D-03 0.418D-01 0.733D-01 0.323D+00 0.562D+00
 Coeff:     -0.244D-04-0.614D-03 0.418D-01 0.733D-01 0.323D+00 0.562D+00
 Gap=     0.278 Goal=   None    Shift=    0.000
 RMSDP=6.76D-06 MaxDP=1.07D-04 DE=-6.73D-06 OVMax= 1.51D-04

 Initial convergence to 1.0D-05 achieved.  Increase integral accuracy.
 Cycle   7  Pass 1  IDiag  1:
 E= -213.768903493998     Delta-E=        0.000010294998 Rises=F Damp=F
 DIIS: error= 1.20D-05 at cycle   1 NSaved=   1.
 NSaved= 1 IEnMin= 1 EnMin= -213.768903493998     IErMin= 1 ErrMin= 1.20D-05
 ErrMax= 1.20D-05  0.00D+00 EMaxC= 1.00D-01 BMatC= 2.41D-08 BMatP= 2.41D-08
 IDIUse=1 WtCom= 1.00D+00 WtEn= 0.00D+00
 Coeff-Com:  0.100D+01
 Coeff:      0.100D+01
 Gap=     0.278 Goal=   None    Shift=    0.000
 RMSDP=6.76D-06 MaxDP=1.07D-04 DE= 1.03D-05 OVMax= 6.67D-05

 Cycle   8  Pass 1  IDiag  1:
 RMSU=  3.50D-06    CP:  1.00D+00
 E= -213.768903486300     Delta-E=        0.000000007698 Rises=F Damp=F
 DIIS: error= 1.45D-05 at cycle   2 NSaved=   2.
 NSaved= 2 IEnMin= 1 EnMin= -213.768903493998     IErMin= 1 ErrMin= 1.20D-05
 ErrMax= 1.45D-05  0.00D+00 EMaxC= 1.00D-01 BMatC= 3.17D-08 BMatP= 2.41D-08
 IDIUse=1 WtCom= 1.00D+00 WtEn= 0.00D+00
 Coeff-Com:  0.535D+00 0.465D+00
 Coeff:      0.535D+00 0.465D+00
 Gap=     0.278 Goal=   None    Shift=    0.000
 RMSDP=1.72D-06 MaxDP=2.70D-05 DE= 7.70D-09 OVMax= 3.90D-05

 Cycle   9  Pass 1  IDiag  1:
 RMSU=  8.65D-07    CP:  1.00D+00  5.75D-01
 E= -213.768903516799     Delta-E=       -0.000000030499 Rises=F Damp=F
 DIIS: error= 9.78D-07 at cycle   3 NSaved=   3.
 NSaved= 3 IEnMin= 3 EnMin= -213.768903516799     IErMin= 3 ErrMin= 9.78D-07
 ErrMax= 9.78D-07  0.00D+00 EMaxC= 1.00D-01 BMatC= 2.05D-10 BMatP= 2.41D-08
 IDIUse=1 WtCom= 1.00D+00 WtEn= 0.00D+00
 Coeff-Com:  0.991D-01 0.122D+00 0.779D+00
 Coeff:      0.991D-01 0.122D+00 0.779D+00
 Gap=     0.278 Goal=   None    Shift=    0.000
 RMSDP=2.12D-07 MaxDP=2.95D-06 DE=-3.05D-08 OVMax= 3.42D-06

 Cycle  10  Pass 1  IDiag  1:
 RMSU=  1.74D-07    CP:  1.00D+00  5.93D-01  8.80D-01
 E= -213.768903516972     Delta-E=       -0.000000000173 Rises=F Damp=F
 DIIS: error= 5.92D-07 at cycle   4 NSaved=   4.
 NSaved= 4 IEnMin= 4 EnMin= -213.768903516972     IErMin= 4 ErrMin= 5.92D-07
 ErrMax= 5.92D-07  0.00D+00 EMaxC= 1.00D-01 BMatC= 3.36D-11 BMatP= 2.05D-10
 IDIUse=1 WtCom= 1.00D+00 WtEn= 0.00D+00
 Coeff-Com:  0.103D-01 0.245D-01 0.336D+00 0.630D+00
 Coeff:      0.103D-01 0.245D-01 0.336D+00 0.630D+00
 Gap=     0.278 Goal=   None    Shift=    0.000
 RMSDP=6.37D-08 MaxDP=1.71D-06 DE=-1.73D-10 OVMax= 1.69D-06

 Cycle  11  Pass 1  IDiag  1:
 RMSU=  3.99D-08    CP:  1.00D+00  5.94D-01  9.06D-01  7.44D-01
 E= -213.768903516996     Delta-E=       -0.000000000024 Rises=F Damp=F
 DIIS: error= 2.04D-07 at cycle   5 NSaved=   5.
 NSaved= 5 IEnMin= 5 EnMin= -213.768903516996     IErMin= 5 ErrMin= 2.04D-07
 ErrMax= 2.04D-07  0.00D+00 EMaxC= 1.00D-01 BMatC= 4.46D-12 BMatP= 3.36D-11
 IDIUse=1 WtCom= 1.00D+00 WtEn= 0.00D+00
 Coeff-Com: -0.241D-02 0.337D-02 0.119D+00 0.336D+00 0.543D+00
 Coeff:     -0.241D-02 0.337D-02 0.119D+00 0.336D+00 0.543D+00
 Gap=     0.278 Goal=   None    Shift=    0.000
 RMSDP=1.93D-08 MaxDP=4.58D-07 DE=-2.44D-11 OVMax= 4.48D-07

 Cycle  12  Pass 1  IDiag  1:
 RMSU=  7.18D-09    CP:  1.00D+00  5.95D-01  9.10D-01  7.51D-01  5.75D-01
 E= -213.768903517001     Delta-E=       -0.000000000005 Rises=F Damp=F
 DIIS: error= 7.98D-09 at cycle   6 NSaved=   6.
 NSaved= 6 IEnMin= 6 EnMin= -213.768903517001     IErMin= 6 ErrMin= 7.98D-09
 ErrMax= 7.98D-09  0.00D+00 EMaxC= 1.00D-01 BMatC= 9.50D-15 BMatP= 4.46D-12
 IDIUse=1 WtCom= 1.00D+00 WtEn= 0.00D+00
 Coeff-Com: -0.602D-03 0.184D-03 0.156D-01 0.482D-01 0.984D-01 0.838D+00
 Coeff:     -0.602D-03 0.184D-03 0.156D-01 0.482D-01 0.984D-01 0.838D+00
 Gap=     0.278 Goal=   None    Shift=    0.000
 RMSDP=1.98D-09 MaxDP=2.18D-08 DE=-5.00D-12 OVMax= 3.47D-08

 SCF Done:  E(RB3LYP) =  -213.768903517     A.U. after   12 cycles
            NFock= 12  Conv=0.20D-08     -V/T= 2.0099
 KE= 2.116680549185D+02 PE=-8.647642690370D+02 EE= 2.544349258264D+02
 Leave Link  502 at Mon Oct 14 00:44:34 2019, MaxMem= 10737418240 cpu:              35.8 elap:               1.5
 (Enter /apps/cent7/gaussian/g16-A.03/g16-haswell/g16/l601.exe)
 Copying SCF densities to generalized density rwf, IOpCl= 0 IROHF=0.

 **********************************************************************

            Population analysis using the SCF density.

 **********************************************************************

 Orbital symmetries:
       Occupied  (A) (A) (A) (A) (A) (A) (A) (A) (A) (A) (A) (A)
                 (A) (A) (A) (A) (A) (A) (A) (A) (A)
       Virtual   (A) (A) (A) (A) (A) (A) (A) (A) (A) (A) (A) (A)
                 (A) (A) (A) (A) (A) (A) (A) (A) (A) (A) (A) (A)
                 (A) (A) (A) (A) (A) (A) (A) (A) (A) (A) (A) (A)
                 (A) (A) (A) (A) (A) (A) (A) (A) (A) (A) (A) (A)
                 (A) (A) (A) (A) (A) (A) (A) (A) (A) (A) (A) (A)
                 (A) (A) (A) (A) (A) (A) (A) (A) (A) (A) (A) (A)
                 (A) (A) (A) (A)
 The electronic state is 1-A.
 Alpha  occ. eigenvalues --  -14.28636 -10.19691 -10.17389 -10.16993 -10.16671
 Alpha  occ. eigenvalues --   -0.85185  -0.77578  -0.69665  -0.60989  -0.56383
 Alpha  occ. eigenvalues --   -0.49614  -0.47101  -0.42628  -0.41915  -0.40816
 Alpha  occ. eigenvalues --   -0.36632  -0.35385  -0.33446  -0.32038  -0.30461
 Alpha  occ. eigenvalues --   -0.19095
 Alpha virt. eigenvalues --    0.08714   0.09720   0.13147   0.13284   0.14706
 Alpha virt. eigenvalues --    0.16051   0.17931   0.19135   0.19698   0.21568
 Alpha virt. eigenvalues --    0.21936   0.23053   0.25530   0.26474   0.28872
 Alpha virt. eigenvalues --    0.51296   0.51979   0.54554   0.57101   0.61514
 Alpha virt. eigenvalues --    0.62528   0.64866   0.67694   0.69060   0.73240
 Alpha virt. eigenvalues --    0.74933   0.77351   0.79163   0.83955   0.85150
 Alpha virt. eigenvalues --    0.87381   0.90264   0.91487   0.92551   0.93929
 Alpha virt. eigenvalues --    0.94695   0.95416   0.96312   0.98262   1.00489
 Alpha virt. eigenvalues --    1.05645   1.20843   1.24286   1.35323   1.39423
 Alpha virt. eigenvalues --    1.48223   1.49894   1.67828   1.70592   1.83954
 Alpha virt. eigenvalues --    1.87210   1.88781   1.92840   1.98649   2.01454
 Alpha virt. eigenvalues --    2.04755   2.06982   2.08444   2.14811   2.15652
 Alpha virt. eigenvalues --    2.23330   2.26813   2.29587   2.33222   2.38749
 Alpha virt. eigenvalues --    2.41055   2.54054   2.58413   2.61601   2.75524
 Alpha virt. eigenvalues --    2.81387   3.79066   4.14663   4.27728   4.40261
 Alpha virt. eigenvalues --    4.52430
          Condensed to atoms (all electrons):
               1          2          3          4          5          6
     1  C    5.087225   0.360418  -0.037183   0.003927  -0.000090   0.378679
     2  C    0.360418   4.987938   0.368545  -0.037340   0.004001  -0.032116
     3  C   -0.037183   0.368545   5.042672   0.390735  -0.054759  -0.001438
     4  C    0.003927  -0.037340   0.390735   4.812788   0.305038  -0.000090
     5  N   -0.000090   0.004001  -0.054759   0.305038   6.983625   0.000002
     6  H    0.378679  -0.032116  -0.001438  -0.000090   0.000002   0.573515
     7  H    0.374775  -0.029831   0.003743  -0.000132   0.000001  -0.029671
     8  H    0.377318  -0.042206  -0.007449   0.000095  -0.000008  -0.029039
     9  H   -0.047355   0.381383  -0.044401  -0.004758  -0.000002   0.005217
    10  H   -0.045654   0.379009  -0.046070  -0.003684  -0.000007  -0.008705
    11  H   -0.002288  -0.047751   0.376235  -0.045956  -0.003787   0.002624
    12  H   -0.006625  -0.037473   0.359769  -0.043429   0.006722  -0.000186
    13  H   -0.000017  -0.004836  -0.032222   0.378540  -0.045607   0.000004
    14  H   -0.000148   0.000231  -0.057238   0.381740  -0.071868   0.000008
    15  H   -0.000001  -0.000068  -0.004318  -0.034869   0.331998   0.000000
    16  H    0.000002  -0.000137   0.003555  -0.027482   0.333414  -0.000000
               7          8          9         10         11         12
     1  C    0.374775   0.377318  -0.047355  -0.045654  -0.002288  -0.006625
     2  C   -0.029831  -0.042206   0.381383   0.379009  -0.047751  -0.037473
     3  C    0.003743  -0.007449  -0.044401  -0.046070   0.376235   0.359769
     4  C   -0.000132   0.000095  -0.004758  -0.003684  -0.045956  -0.043429
     5  N    0.000001  -0.000008  -0.000002  -0.000007  -0.003787   0.006722
     6  H   -0.029671  -0.029039   0.005217  -0.008705   0.002624  -0.000186
     7  H    0.575013  -0.030162  -0.007653   0.000968  -0.000049   0.000150
     8  H   -0.030162   0.575050   0.001031   0.005883   0.000422   0.006416
     9  H   -0.007653   0.001031   0.601413  -0.022481   0.006640  -0.004978
    10  H    0.000968   0.005883  -0.022481   0.600264  -0.005140   0.006563
    11  H   -0.000049   0.000422   0.006640  -0.005140   0.614818  -0.025099
    12  H    0.000150   0.006416  -0.004978   0.006563  -0.025099   0.601397
    13  H    0.000002   0.000013   0.005312  -0.000378   0.006523  -0.007180
    14  H    0.000007   0.000011  -0.000371   0.005554  -0.007733   0.007548
    15  H    0.000000   0.000002   0.000019   0.000012   0.005119   0.000523
    16  H   -0.000000   0.000000   0.000004   0.000002  -0.000038   0.000175
              13         14         15         16
     1  C   -0.000017  -0.000148  -0.000001   0.000002
     2  C   -0.004836   0.000231  -0.000068  -0.000137
     3  C   -0.032222  -0.057238  -0.004318   0.003555
     4  C    0.378540   0.381740  -0.034869  -0.027482
     5  N   -0.045607  -0.071868   0.331998   0.333414
     6  H    0.000004   0.000008   0.000000  -0.000000
     7  H    0.000002   0.000007   0.000000  -0.000000
     8  H    0.000013   0.000011   0.000002   0.000000
     9  H    0.005312  -0.000371   0.000019   0.000004
    10  H   -0.000378   0.005554   0.000012   0.000002
    11  H    0.006523  -0.007733   0.005119  -0.000038
    12  H   -0.007180   0.007548   0.000523   0.000175
    13  H    0.604211  -0.033621   0.005302  -0.005109
    14  H   -0.033621   0.647620   0.001632   0.002349
    15  H    0.005302   0.001632   0.419885  -0.029026
    16  H   -0.005109   0.002349  -0.029026   0.415382
 Mulliken charges:
               1
     1  C   -0.442982
     2  C   -0.249765
     3  C   -0.260174
     4  C   -0.075121
     5  N   -0.788674
     6  H    0.141198
     7  H    0.142841
     8  H    0.142623
     9  H    0.130979
    10  H    0.133863
    11  H    0.125460
    12  H    0.135708
    13  H    0.129065
    14  H    0.124281
    15  H    0.303789
    16  H    0.306909
 Sum of Mulliken charges =  -0.00000
 Mulliken charges with hydrogens summed into heavy atoms:
               1
     1  C   -0.016320
     2  C    0.015077
     3  C    0.000995
     4  C    0.178224
     5  N   -0.177976
 Electronic spatial extent (au):  <R**2>=            696.6876
 Charge=              0.0000 electrons
 Dipole moment (field-independent basis, Debye):
    X=              0.1611    Y=             -0.1086    Z=             -0.1052  Tot=              0.2210
 Quadrupole moment (field-independent basis, Debye-Ang):
   XX=            -32.8783   YY=            -33.8596   ZZ=            -32.9611
   XY=             -0.7355   XZ=             -1.0805   YZ=             -1.5258
 Traceless Quadrupole moment (field-independent basis, Debye-Ang):
   XX=              0.3547   YY=             -0.6266   ZZ=              0.2719
   XY=             -0.7355   XZ=             -1.0805   YZ=             -1.5258
 Octapole moment (field-independent basis, Debye-Ang**2):
  XXX=             20.3951  YYY=             -3.8146  ZZZ=              0.3032  XYY=              5.4742
  XXY=             -0.3389  XXZ=             -5.6109  XZZ=              0.6373  YZZ=              0.2697
  YYZ=              0.5516  XYZ=             -2.7632
 Hexadecapole moment (field-independent basis, Debye-Ang**3):
 XXXX=           -707.5798 YYYY=           -106.6169 ZZZZ=            -64.5659 XXXY=            -13.3018
 XXXZ=            -22.9376 YYYX=             -7.8868 YYYZ=             -2.7787 ZZZX=             -2.4377
 ZZZY=             -1.4322 XXYY=           -137.6112 XXZZ=           -135.9559 YYZZ=            -26.9488
 XXYZ=             -9.0549 YYXZ=              3.1555 ZZXY=              0.1463
 N-N= 1.848923847751D+02 E-N=-8.647642703861D+02  KE= 2.116680549185D+02
 No NMR shielding tensors so no spin-rotation constants.
 Leave Link  601 at Mon Oct 14 00:44:34 2019, MaxMem= 10737418240 cpu:               2.2 elap:               0.1
 (Enter /apps/cent7/gaussian/g16-A.03/g16-haswell/g16/l701.exe)
 ... and contract with generalized density number  0.
 Compute integral first derivatives.
 Leave Link  701 at Mon Oct 14 00:44:34 2019, MaxMem= 10737418240 cpu:               2.5 elap:               0.1
 (Enter /apps/cent7/gaussian/g16-A.03/g16-haswell/g16/l702.exe)
 L702 exits ... SP integral derivatives will be done elsewhere.
 Leave Link  702 at Mon Oct 14 00:44:34 2019, MaxMem= 10737418240 cpu:               0.9 elap:               0.1
 (Enter /apps/cent7/gaussian/g16-A.03/g16-haswell/g16/l703.exe)
 Integral derivatives from FoFJK, PRISM(SPDF).
 Compute integral first derivatives, UseDBF=F ICtDFT=           0.
 Calling FoFJK, ICntrl=      2127 FMM=F ISym2X=0 I1Cent= 0 IOpClX= 0 NMat=1 NMatS=1 NMatT=0.
 FoFJK:  IHMeth= 1 ICntrl=    2127 DoSepK=F KAlg= 0 I1Cent=           0 FoldK=F
 IRaf=         0 NMat=       1 IRICut=       1 DoRegI=T DoRafI=F ISym2E= 0 IDoP0=0 IntGTp=1.
 FoFCou: FMM=F IPFlag=           0 FMFlag=      100000 FMFlg1=         800
         NFxFlg=           0 DoJE=F BraDBF=F KetDBF=F FulRan=T
         wScrn=  0.000000 ICntrl=      2127 IOpCl=  0 I1Cent=           0 NGrid=           0
         NMat0=    1 NMatS0=      1 NMatT0=    0 NMatD0=    1 NMtDS0=    0 NMtDT0=    0
 Symmetry not used in FoFCou.
 Leave Link  703 at Mon Oct 14 00:44:35 2019, MaxMem= 10737418240 cpu:               9.1 elap:               0.4
 (Enter /apps/cent7/gaussian/g16-A.03/g16-haswell/g16/l716.exe)
 Dipole        = 6.34005228D-02-4.27253076D-02-4.13834454D-02
 ***** Axes restored to original set *****
 -------------------------------------------------------------------
 Center     Atomic                   Forces (Hartrees/Bohr)
 Number     Number              X              Y              Z
 -------------------------------------------------------------------
      1        6          -0.003501313    0.008884913    0.008445332
      2        6           0.026629346    0.006605935   -0.005827906
      3        6          -0.030106892   -0.005527436    0.005882656
      4        6           0.037435689    0.010494233   -0.002103492
      5        7          -0.002141487    0.000432134   -0.008996421
      6        1           0.004641160   -0.003727474   -0.002648695
      7        1           0.001199295   -0.004759873   -0.002671471
      8        1           0.003102433   -0.002100584   -0.005481908
      9        1          -0.014838347   -0.004469699    0.011286376
     10        1          -0.021762390    0.001577893   -0.000165383
     11        1           0.016139449    0.005796593   -0.009625346
     12        1           0.019367772    0.000235602    0.000872620
     13        1          -0.013537874   -0.006293709    0.010120664
     14        1          -0.023884049   -0.006717172   -0.000672677
     15        1          -0.004937136    0.004064481    0.001198438
     16        1           0.006194344   -0.004495835    0.000387213
 -------------------------------------------------------------------
 Cartesian Forces:  Max     0.037435689 RMS     0.011446438
 Leave Link  716 at Mon Oct 14 00:44:35 2019, MaxMem= 10737418240 cpu:               1.0 elap:               0.1
 (Enter /apps/cent7/gaussian/g16-A.03/g16-haswell/g16/l103.exe)

 GradGradGradGradGradGradGradGradGradGradGradGradGradGradGradGradGradGrad
 Berny optimization.
 FormGI is forming the generalized inverse of G from B-inverse, IUseBI=4.
 Internal  Forces:  Max     0.013047572 RMS     0.005558875
 Search for a local minimum.
 Step number   1 out of a maximum of   85
 All quantities printed in internal units (Hartrees-Bohrs-Radians)
 RMS Force = .55589D-02 SwitMx=.10000D-02 MixMth= 1
 Mixed Optimization -- RFO/linear search
 Second derivative matrix not updated -- first step.
 ITU=  0
     Eigenvalues ---    0.00230   0.00230   0.00230   0.00830   0.00830
     Eigenvalues ---    0.03907   0.03951   0.04856   0.05128   0.05142
     Eigenvalues ---    0.05637   0.05715   0.05715   0.07784   0.07852
     Eigenvalues ---    0.08884   0.11804   0.11857   0.12336   0.16000
     Eigenvalues ---    0.16000   0.16000   0.16000   0.16000   0.22496
     Eigenvalues ---    0.22510   0.22520   0.27507   0.27831   0.27966
     Eigenvalues ---    0.34808   0.34808   0.34809   0.34810   0.34813
     Eigenvalues ---    0.34814   0.34814   0.34816   0.34820   0.36330
     Eigenvalues ---    0.45962   0.45984
 RFO step:  Lambda=-2.12987466D-02 EMin= 2.30000000D-03
 Linear search not attempted -- first point.
 Maximum step size (   0.300) exceeded in Quadratic search.
    -- Step size scaled by   0.971
 Iteration  1 RMS(Cart)=  0.04875236 RMS(Int)=  0.00187189
 Iteration  2 RMS(Cart)=  0.00183167 RMS(Int)=  0.00039315
 Iteration  3 RMS(Cart)=  0.00000170 RMS(Int)=  0.00039315
 Iteration  4 RMS(Cart)=  0.00000000 RMS(Int)=  0.00039315
 ITry= 1 IFail=0 DXMaxC= 1.78D-01 DCOld= 1.00D+10 DXMaxT= 3.00D-01 DXLimC= 3.00D+00 Rises=F
 Variable       Old X    -DE/DX   Delta X   Delta X   Delta X     New X
                                 (Linear)    (Quad)   (Total)
    R1        2.92213   0.00513   0.00000   0.01654   0.01654   2.93868
    R2        2.05968   0.00340   0.00000   0.00893   0.00893   2.06861
    R3        2.05986   0.00302   0.00000   0.00793   0.00793   2.06780
    R4        2.05988   0.00406   0.00000   0.01067   0.01067   2.07055
    R5        2.93230   0.00021   0.00000   0.00069   0.00069   2.93299
    R6        2.05978   0.00341   0.00000   0.00896   0.00896   2.06873
    R7        2.05978   0.00323   0.00000   0.00850   0.00850   2.06828
    R8        2.92509  -0.00123   0.00000  -0.00398  -0.00398   2.92111
    R9        2.05988   0.00474   0.00000   0.01246   0.01246   2.07234
   R10        2.05979   0.00314   0.00000   0.00826   0.00826   2.06805
   R11        2.76869  -0.00232   0.00000  -0.00586  -0.00586   2.76283
   R12        2.05974   0.00245   0.00000   0.00644   0.00644   2.06619
   R13        2.05984   0.00700   0.00000   0.01840   0.01840   2.07824
   R14        1.90874  -0.00531   0.00000  -0.01073  -0.01073   1.89801
   R15        1.90849  -0.00644   0.00000  -0.01301  -0.01301   1.89548
    A1        1.91070   0.00581   0.00000   0.03130   0.03088   1.94158
    A2        1.91064   0.00421   0.00000   0.02219   0.02185   1.93249
    A3        1.91060   0.00534   0.00000   0.02882   0.02841   1.93902
    A4        1.91069  -0.00508   0.00000  -0.02759  -0.02792   1.88276
    A5        1.91062  -0.00544   0.00000  -0.02834  -0.02882   1.88180
    A6        1.91055  -0.00485   0.00000  -0.02639  -0.02668   1.88387
    A7        1.96381  -0.01000   0.00000  -0.01401  -0.01446   1.94935
    A8        1.85116   0.00585   0.00000   0.04346   0.04328   1.89444
    A9        1.85112   0.00568   0.00000   0.04209   0.04192   1.89304
   A10        1.85327   0.00481   0.00000   0.03355   0.03329   1.88656
   A11        1.85332   0.00494   0.00000   0.03428   0.03403   1.88735
   A12        2.09438  -0.01261   0.00000  -0.14102  -0.14045   1.95393
   A13        1.97138  -0.01046   0.00000  -0.01758  -0.01784   1.95354
   A14        1.85140   0.00541   0.00000   0.03857   0.03856   1.88996
   A15        1.85139   0.00650   0.00000   0.04874   0.04863   1.90003
   A16        1.84977   0.00481   0.00000   0.03055   0.03048   1.88025
   A17        1.84978   0.00431   0.00000   0.02970   0.02949   1.87927
   A18        2.09435  -0.01202   0.00000  -0.13297  -0.13255   1.96180
   A19        1.92753  -0.00722   0.00000  -0.00221  -0.00312   1.92441
   A20        1.87678   0.00435   0.00000   0.01139   0.01093   1.88771
   A21        1.87668   0.00132   0.00000   0.00972   0.00757   1.88425
   A22        1.84292   0.00314   0.00000   0.02635   0.02654   1.86946
   A23        1.84290   0.01104   0.00000   0.10283   0.10216   1.94507
   A24        2.09446  -0.01305   0.00000  -0.14147  -0.14200   1.95246
   A25        2.09440   0.00193   0.00000   0.01032   0.01022   2.10462
   A26        2.09440   0.00298   0.00000   0.01599   0.01590   2.11030
   A27        2.09439  -0.00491   0.00000  -0.02631  -0.02640   2.06799
    D1        1.51473  -0.00081   0.00000  -0.03658  -0.03654   1.47819
    D2       -2.74942   0.00327   0.00000   0.02243   0.02264  -2.72678
    D3       -0.50434  -0.00495   0.00000  -0.09565  -0.09577  -0.60011
    D4       -2.67395  -0.00089   0.00000  -0.03761  -0.03760  -2.71156
    D5       -0.65492   0.00319   0.00000   0.02140   0.02157  -0.63334
    D6        1.59017  -0.00504   0.00000  -0.09668  -0.09683   1.49334
    D7       -0.57967  -0.00098   0.00000  -0.03869  -0.03874  -0.61841
    D8        1.43937   0.00310   0.00000   0.02032   0.02044   1.45980
    D9       -2.59873  -0.00512   0.00000  -0.09776  -0.09797  -2.69670
   D10        3.13960   0.00021   0.00000   0.00851   0.00855  -3.13504
   D11       -1.12467   0.00383   0.00000   0.05961   0.05971  -1.06496
   D12        1.12069  -0.00346   0.00000  -0.04775  -0.04788   1.07281
   D13        1.12184  -0.00449   0.00000  -0.05648  -0.05657   1.06527
   D14        3.14075  -0.00087   0.00000  -0.00538  -0.00540   3.13535
   D15       -0.89708  -0.00816   0.00000  -0.11274  -0.11300  -1.01008
   D16       -1.12584   0.00479   0.00000   0.07231   0.07247  -1.05337
   D17        0.89307   0.00841   0.00000   0.12341   0.12363   1.01671
   D18        3.13843   0.00112   0.00000   0.01605   0.01604  -3.12872
   D19       -3.13087   0.00215   0.00000   0.02273   0.02272  -3.10815
   D20       -1.12824   0.00454   0.00000   0.05919   0.05893  -1.06930
   D21        1.14976  -0.00793   0.00000  -0.10357  -0.10332   1.04645
   D22        1.13243  -0.00184   0.00000  -0.03314  -0.03322   1.09921
   D23        3.13506   0.00055   0.00000   0.00331   0.00299   3.13806
   D24       -0.87012  -0.01192   0.00000  -0.15945  -0.15926  -1.02938
   D25       -1.11098   0.00714   0.00000   0.09035   0.09041  -1.02057
   D26        0.89165   0.00952   0.00000   0.12680   0.12663   1.01828
   D27       -3.11354  -0.00294   0.00000  -0.03596  -0.03562   3.13402
   D28       -0.61251  -0.00088   0.00000  -0.03370  -0.03439  -0.64690
   D29        2.52911  -0.00009   0.00000  -0.00778  -0.00847   2.52064
   D30       -2.63640  -0.00416   0.00000  -0.06050  -0.06067  -2.69706
   D31        0.50522  -0.00337   0.00000  -0.03458  -0.03475   0.47047
   D32        1.41125   0.00319   0.00000   0.03322   0.03407   1.44532
   D33       -1.73031   0.00398   0.00000   0.05914   0.05999  -1.67032
         Item               Value     Threshold  Converged?
 Maximum Force            0.013048     0.000450     NO 
 RMS     Force            0.005559     0.000300     NO 
 Maximum Displacement     0.177869     0.001800     NO 
 RMS     Displacement     0.048732     0.001200     NO 
 Predicted change in Energy=-1.324643D-02
 Lowest energy point so far.  Saving SCF results.
 GradGradGradGradGradGradGradGradGradGradGradGradGradGradGradGradGradGrad

 Leave Link  103 at Mon Oct 14 00:44:35 2019, MaxMem= 10737418240 cpu:               0.8 elap:               0.1
 (Enter /apps/cent7/gaussian/g16-A.03/g16-haswell/g16/l202.exe)
                          Input orientation:                          
 ---------------------------------------------------------------------
 Center     Atomic      Atomic             Coordinates (Angstroms)
 Number     Number       Type             X           Y           Z
 ---------------------------------------------------------------------
      1          6           0        1.829335   -0.647007   -1.463917
      2          6           0        1.080508    0.337306   -0.521229
      3          6           0        1.983314    1.527743   -0.100846
      4          6           0        1.247263    2.504986    0.843973
      5          7           0        2.113825    3.633525    1.180112
      6          1           0        2.418369   -1.372050   -0.893269
      7          1           0        1.120512   -1.203964   -2.084166
      8          1           0        2.512989   -0.110732   -2.131419
      9          1           0        0.214018    0.739905   -1.055584
     10          1           0        0.787730   -0.204394    0.383613
     11          1           0        2.849370    1.128389    0.440516
     12          1           0        2.272524    2.086027   -0.996563
     13          1           0        0.383849    2.910375    0.309506
     14          1           0        0.947464    1.946611    1.742755
     15          1           0        3.099230    3.497586    1.318969
     16          1           0        1.736600    4.555293    1.299049
 ---------------------------------------------------------------------
                    Distance matrix (angstroms):
                    1          2          3          4          5
     1  C    0.000000
     2  C    1.555080   0.000000
     3  C    2.571227   1.552070   0.000000
     4  C    3.949712   2.567181   1.545787   0.000000
     5  N    5.039323   3.850631   2.468239   1.462025   0.000000
     6  H    1.094663   2.202313   3.037434   4.406916   5.426549
     7  H    1.094231   2.195424   3.484280   4.727195   5.919753
     8  H    1.095688   2.201239   2.662402   4.158967   5.014482
     9  H    2.167835   1.094727   2.159311   2.791313   4.120757
    10  H    2.166614   1.094485   2.159727   2.786367   4.137941
    11  H    2.796312   2.163247   1.096635   2.150475   2.713620
    12  H    2.807901   2.169070   1.094363   2.148083   2.675416
    13  H    4.229589   2.792156   2.153682   1.093379   2.067297
    14  H    4.217498   2.780860   2.155760   1.099759   2.126650
    15  H    5.151187   4.177192   2.672344   2.154218   1.004382
    16  H    5.891222   4.640612   3.344642   2.156456   1.003046
                    6          7          8          9         10
     6  H    0.000000
     7  H    1.769441   0.000000
     8  H    1.769998   1.770983   0.000000
     9  H    3.057100   2.378726   2.676989   0.000000
    10  H    2.377569   2.683248   3.051341   1.814424   0.000000
    11  H    2.866521   3.847445   2.874617   3.055211   2.455588
    12  H    3.462692   3.651581   2.484244   2.460279   3.058681
    13  H    4.891329   4.816650   4.429270   2.569680   3.141718
    14  H    4.486167   4.959979   4.657548   3.134451   2.549432
    15  H    5.391746   6.131983   5.026810   4.644110   4.463471
    16  H    6.356450   6.707812   5.843174   4.734949   4.938927
                   11         12         13         14         15
    11  H    0.000000
    12  H    1.820718   0.000000
    13  H    3.044902   2.439766   0.000000
    14  H    2.445928   3.046159   1.816784   0.000000
    15  H    2.539134   2.835072   2.955862   2.686115   0.000000
    16  H    3.703917   3.413843   2.348380   2.761310   1.725080
                   16
    16  H    0.000000
 Stoichiometry    C4H11N
 Framework group  C1[X(C4H11N)]
 Deg. of freedom    42
 Full point group                 C1      NOp   1
 RotChk:  IX=0 Diff= 2.81D-02
 Largest Abelian subgroup         C1      NOp   1
 Largest concise Abelian subgroup C1      NOp   1
                         Standard orientation:                         
 ---------------------------------------------------------------------
 Center     Atomic      Atomic             Coordinates (Angstroms)
 Number     Number       Type             X           Y           Z
 ---------------------------------------------------------------------
      1          6           0       -2.546869   -0.324350   -0.028859
      2          6           0       -1.257478    0.543682    0.018745
      3          6           0        0.024260   -0.331180   -0.007409
      4          6           0        1.309461    0.525862    0.049106
      5          7           0        2.492447   -0.330189   -0.023268
      6          1           0       -2.831586   -0.666850    0.971100
      7          1           0       -3.384293    0.248377   -0.438792
      8          1           0       -2.403300   -1.209658   -0.658263
      9          1           0       -1.243052    1.194246   -0.861588
     10          1           0       -1.259759    1.116908    0.951110
     11          1           0        0.016239   -0.979807    0.876800
     12          1           0        0.045220   -0.900240   -0.941948
     13          1           0        1.326370    1.173165   -0.831911
     14          1           0        1.289446    1.105899    0.983251
     15          1           0        2.503920   -1.225606    0.431574
     16          1           0        3.317417   -0.029198   -0.507964
 ---------------------------------------------------------------------
 Rotational constants (GHZ):          17.6419255           1.9375558           1.8355107
 Leave Link  202 at Mon Oct 14 00:44:35 2019, MaxMem= 10737418240 cpu:               0.3 elap:               0.0
 (Enter /apps/cent7/gaussian/g16-A.03/g16-haswell/g16/l301.exe)
 Standard basis: 6-31G(d) (6D, 7F)
 Ernie: Thresh=  0.10000D-02 Tol=  0.10000D-05 Strict=F.
 There are    97 symmetry adapted cartesian basis functions of A   symmetry.
 There are    97 symmetry adapted basis functions of A   symmetry.
    97 basis functions,   184 primitive gaussians,    97 cartesian basis functions
    21 alpha electrons       21 beta electrons
       nuclear repulsion energy       184.5766525011 Hartrees.
 IExCor=  402 DFT=T Ex+Corr=B3LYP ExCW=0 ScaHFX=  0.200000
 ScaDFX=  0.800000  0.720000  1.000000  0.810000 ScalE2=  1.000000  1.000000
 IRadAn=      5 IRanWt=     -1 IRanGd=            0 ICorTp=0 IEmpDi=  4
 NAtoms=   16 NActive=   16 NUniq=   16 SFac= 1.00D+00 NAtFMM=   60 NAOKFM=F Big=F
 Integral buffers will be    131072 words long.
 Raffenetti 2 integral format.
 Two-electron integral symmetry is turned on.
 Leave Link  301 at Mon Oct 14 00:44:35 2019, MaxMem= 10737418240 cpu:               1.2 elap:               0.1
 (Enter /apps/cent7/gaussian/g16-A.03/g16-haswell/g16/l302.exe)
 NPDir=0 NMtPBC=     1 NCelOv=     1 NCel=       1 NClECP=     1 NCelD=      1
         NCelK=      1 NCelE2=     1 NClLst=     1 CellRange=     0.0.
 One-electron integrals computed using PRISM.
 One-electron integral symmetry used in STVInt
 NBasis=    97 RedAO= T EigKep=  3.74D-03  NBF=    97
 NBsUse=    97 1.00D-06 EigRej= -1.00D+00 NBFU=    97
 Precomputing XC quadrature grid using
 IXCGrd= 4 IRadAn=           5 IRanWt=          -1 IRanGd=           0 AccXCQ= 0.00D+00.
 Generated NRdTot=       0 NPtTot=           0 NUsed=           0 NTot=          32
 NSgBfM=    97    97    97    97    97 MxSgAt=    16 MxSgA2=    16.
 Leave Link  302 at Mon Oct 14 00:44:35 2019, MaxMem= 10737418240 cpu:               3.3 elap:               0.2
 (Enter /apps/cent7/gaussian/g16-A.03/g16-haswell/g16/l303.exe)
 DipDrv:  MaxL=1.
 Leave Link  303 at Mon Oct 14 00:44:35 2019, MaxMem= 10737418240 cpu:               0.5 elap:               0.0
 (Enter /apps/cent7/gaussian/g16-A.03/g16-haswell/g16/l401.exe)
 Initial guess from the checkpoint file:  "18.chk"
 B after Tr=    -0.000000    0.000000   -0.000000
         Rot=    0.999958    0.009129    0.000150   -0.000102 Ang=   1.05 deg.
 Guess basis will be translated and rotated to current coordinates.
 JPrj=2 DoOrth=T DoCkMO=T.
 Generating alternative initial guess.
 ExpMin= 1.61D-01 ExpMax= 4.17D+03 ExpMxC= 6.27D+02 IAcc=2 IRadAn=         4 AccDes= 0.00D+00
 Harris functional with IExCor=  402 and IRadAn=       4 diagonalized for initial guess.
 HarFok:  IExCor=  402 AccDes= 0.00D+00 IRadAn=         4 IDoV= 1 UseB2=F ITyADJ=14
 ICtDFT=  3500011 ScaDFX=  1.000000  1.000000  1.000000  1.000000
 FoFCou: FMM=F IPFlag=           0 FMFlag=      100000 FMFlg1=           0
         NFxFlg=           0 DoJE=T BraDBF=F KetDBF=T FulRan=T
         wScrn=  0.000000 ICntrl=       500 IOpCl=  0 I1Cent=   200000004 NGrid=           0
         NMat0=    1 NMatS0=      1 NMatT0=    0 NMatD0=    1 NMtDS0=    0 NMtDT0=    0
 Petite list used in FoFCou.
 Harris En= -213.840368036442    
 Leave Link  401 at Mon Oct 14 00:44:36 2019, MaxMem= 10737418240 cpu:               5.2 elap:               0.2
 (Enter /apps/cent7/gaussian/g16-A.03/g16-haswell/g16/l502.exe)
 Integral symmetry usage will be decided dynamically.
 Closed shell SCF:
 Using DIIS extrapolation, IDIIS=  1040.
 NGot= 10737418240 LenX= 10737395705 LenY= 10737385855
 Requested convergence on RMS density matrix=1.00D-08 within 128 cycles.
 Requested convergence on MAX density matrix=1.00D-06.
 Requested convergence on             energy=1.00D-06.
 No special actions if energy rises.
 Fock matrices will be formed incrementally for  20 cycles.
 Integral accuracy reduced to 1.0D-05 until final iterations.

 Cycle   1  Pass 0  IDiag  1:
 FoFJK:  IHMeth= 1 ICntrl=       0 DoSepK=F KAlg= 0 I1Cent=           0 FoldK=F
 IRaf= 970000000 NMat=       1 IRICut=       1 DoRegI=T DoRafI=F ISym2E= 0 IDoP0=0 IntGTp=1.
 FoFCou: FMM=F IPFlag=           0 FMFlag=      100000 FMFlg1=           0
         NFxFlg=           0 DoJE=F BraDBF=F KetDBF=F FulRan=T
         wScrn=  0.000000 ICntrl=         0 IOpCl=  0 I1Cent=           0 NGrid=           0
         NMat0=    1 NMatS0=      1 NMatT0=    0 NMatD0=    1 NMtDS0=    0 NMtDT0=    0
 Symmetry not used in FoFCou.
 E= -213.781044238737    
 DIIS: error= 3.41D-03 at cycle   1 NSaved=   1.
 NSaved= 1 IEnMin= 1 EnMin= -213.781044238737     IErMin= 1 ErrMin= 3.41D-03
 ErrMax= 3.41D-03  0.00D+00 EMaxC= 1.00D-01 BMatC= 1.26D-03 BMatP= 1.26D-03
 IDIUse=3 WtCom= 9.66D-01 WtEn= 3.41D-02
 Coeff-Com:  0.100D+01
 Coeff-En:   0.100D+01
 Coeff:      0.100D+01
 Gap=     1.822 Goal=   None    Shift=    0.000
 GapD=    1.822 DampG=2.000 DampE=1.000 DampFc=2.0000 IDamp=-1.
 RMSDP=6.23D-04 MaxDP=6.67D-03              OVMax= 1.30D-02

 Cycle   2  Pass 0  IDiag  1:
 RMSU=  6.22D-04    CP:  9.99D-01
 E= -213.782878782574     Delta-E=       -0.001834543837 Rises=F Damp=F
 DIIS: error= 7.81D-04 at cycle   2 NSaved=   2.
 NSaved= 2 IEnMin= 2 EnMin= -213.782878782574     IErMin= 2 ErrMin= 7.81D-04
 ErrMax= 7.81D-04  0.00D+00 EMaxC= 1.00D-01 BMatC= 8.86D-05 BMatP= 1.26D-03
 IDIUse=3 WtCom= 9.92D-01 WtEn= 7.81D-03
 Coeff-Com:  0.949D-01 0.905D+00
 Coeff-En:   0.000D+00 0.100D+01
 Coeff:      0.942D-01 0.906D+00
 Gap=     0.286 Goal=   None    Shift=    0.000
 RMSDP=1.59D-04 MaxDP=3.51D-03 DE=-1.83D-03 OVMax= 3.68D-03

 Cycle   3  Pass 0  IDiag  1:
 RMSU=  1.58D-04    CP:  1.00D+00  9.85D-01
 E= -213.782893259855     Delta-E=       -0.000014477281 Rises=F Damp=F
 DIIS: error= 8.37D-04 at cycle   3 NSaved=   3.
 NSaved= 3 IEnMin= 3 EnMin= -213.782893259855     IErMin= 2 ErrMin= 7.81D-04
 ErrMax= 8.37D-04  0.00D+00 EMaxC= 1.00D-01 BMatC= 8.03D-05 BMatP= 8.86D-05
 IDIUse=3 WtCom= 9.92D-01 WtEn= 8.37D-03
 Coeff-Com: -0.898D-02 0.488D+00 0.521D+00
 Coeff-En:   0.000D+00 0.450D+00 0.550D+00
 Coeff:     -0.891D-02 0.488D+00 0.521D+00
 Gap=     0.288 Goal=   None    Shift=    0.000
 RMSDP=8.46D-05 MaxDP=2.06D-03 DE=-1.45D-05 OVMax= 2.08D-03

 Cycle   4  Pass 0  IDiag  1:
 RMSU=  4.16D-05    CP:  9.99D-01  1.02D+00  5.52D-01
 E= -213.782961020472     Delta-E=       -0.000067760617 Rises=F Damp=F
 DIIS: error= 1.31D-04 at cycle   4 NSaved=   4.
 NSaved= 4 IEnMin= 4 EnMin= -213.782961020472     IErMin= 4 ErrMin= 1.31D-04
 ErrMax= 1.31D-04  0.00D+00 EMaxC= 1.00D-01 BMatC= 1.79D-06 BMatP= 8.03D-05
 IDIUse=3 WtCom= 9.99D-01 WtEn= 1.31D-03
 Coeff-Com: -0.945D-02 0.116D+00 0.194D+00 0.699D+00
 Coeff-En:   0.000D+00 0.000D+00 0.000D+00 0.100D+01
 Coeff:     -0.943D-02 0.116D+00 0.194D+00 0.699D+00
 Gap=     0.288 Goal=   None    Shift=    0.000
 RMSDP=1.60D-05 MaxDP=3.12D-04 DE=-6.78D-05 OVMax= 3.71D-04

 Cycle   5  Pass 0  IDiag  1:
 RMSU=  9.58D-06    CP:  9.99D-01  1.03D+00  5.89D-01  7.51D-01
 E= -213.782962514433     Delta-E=       -0.000001493961 Rises=F Damp=F
 DIIS: error= 2.67D-05 at cycle   5 NSaved=   5.
 NSaved= 5 IEnMin= 5 EnMin= -213.782962514433     IErMin= 5 ErrMin= 2.67D-05
 ErrMax= 2.67D-05  0.00D+00 EMaxC= 1.00D-01 BMatC= 1.11D-07 BMatP= 1.79D-06
 IDIUse=1 WtCom= 1.00D+00 WtEn= 0.00D+00
 Coeff-Com: -0.376D-02 0.316D-01 0.648D-01 0.306D+00 0.602D+00
 Coeff:     -0.376D-02 0.316D-01 0.648D-01 0.306D+00 0.602D+00
 Gap=     0.288 Goal=   None    Shift=    0.000
 RMSDP=3.59D-06 MaxDP=7.13D-05 DE=-1.49D-06 OVMax= 7.21D-05

 Initial convergence to 1.0D-05 achieved.  Increase integral accuracy.
 Cycle   6  Pass 1  IDiag  1:
 E= -213.782947385393     Delta-E=        0.000015129041 Rises=F Damp=F
 DIIS: error= 8.61D-06 at cycle   1 NSaved=   1.
 NSaved= 1 IEnMin= 1 EnMin= -213.782947385393     IErMin= 1 ErrMin= 8.61D-06
 ErrMax= 8.61D-06  0.00D+00 EMaxC= 1.00D-01 BMatC= 9.09D-09 BMatP= 9.09D-09
 IDIUse=1 WtCom= 1.00D+00 WtEn= 0.00D+00
 Coeff-Com:  0.100D+01
 Coeff:      0.100D+01
 Gap=     0.288 Goal=   None    Shift=    0.000
 RMSDP=3.59D-06 MaxDP=7.13D-05 DE= 1.51D-05 OVMax= 3.51D-05

 Cycle   7  Pass 1  IDiag  1:
 RMSU=  2.11D-06    CP:  1.00D+00
 E= -213.782947384933     Delta-E=        0.000000000459 Rises=F Damp=F
 DIIS: error= 9.02D-06 at cycle   2 NSaved=   2.
 NSaved= 2 IEnMin= 1 EnMin= -213.782947385393     IErMin= 1 ErrMin= 8.61D-06
 ErrMax= 9.02D-06  0.00D+00 EMaxC= 1.00D-01 BMatC= 9.55D-09 BMatP= 9.09D-09
 IDIUse=1 WtCom= 1.00D+00 WtEn= 0.00D+00
 Coeff-Com:  0.507D+00 0.493D+00
 Coeff:      0.507D+00 0.493D+00
 Gap=     0.288 Goal=   None    Shift=    0.000
 RMSDP=9.02D-07 MaxDP=2.05D-05 DE= 4.59D-10 OVMax= 2.01D-05

 Cycle   8  Pass 1  IDiag  1:
 RMSU=  6.28D-07    CP:  1.00D+00  6.94D-01
 E= -213.782947393965     Delta-E=       -0.000000009032 Rises=F Damp=F
 DIIS: error= 8.86D-07 at cycle   3 NSaved=   3.
 NSaved= 3 IEnMin= 3 EnMin= -213.782947393965     IErMin= 3 ErrMin= 8.86D-07
 ErrMax= 8.86D-07  0.00D+00 EMaxC= 1.00D-01 BMatC= 1.35D-10 BMatP= 9.09D-09
 IDIUse=1 WtCom= 1.00D+00 WtEn= 0.00D+00
 Coeff-Com:  0.499D-01 0.123D+00 0.827D+00
 Coeff:      0.499D-01 0.123D+00 0.827D+00
 Gap=     0.288 Goal=   None    Shift=    0.000
 RMSDP=1.63D-07 MaxDP=2.66D-06 DE=-9.03D-09 OVMax= 3.39D-06

 Cycle   9  Pass 1  IDiag  1:
 RMSU=  1.40D-07    CP:  1.00D+00  7.30D-01  9.40D-01
 E= -213.782947394065     Delta-E=       -0.000000000100 Rises=F Damp=F
 DIIS: error= 3.77D-07 at cycle   4 NSaved=   4.
 NSaved= 4 IEnMin= 4 EnMin= -213.782947394065     IErMin= 4 ErrMin= 3.77D-07
 ErrMax= 3.77D-07  0.00D+00 EMaxC= 1.00D-01 BMatC= 2.82D-11 BMatP= 1.35D-10
 IDIUse=1 WtCom= 1.00D+00 WtEn= 0.00D+00
 Coeff-Com:  0.982D-03 0.378D-01 0.412D+00 0.549D+00
 Coeff:      0.982D-03 0.378D-01 0.412D+00 0.549D+00
 Gap=     0.288 Goal=   None    Shift=    0.000
 RMSDP=5.80D-08 MaxDP=9.95D-07 DE=-9.98D-11 OVMax= 1.29D-06

 Cycle  10  Pass 1  IDiag  1:
 RMSU=  3.14D-08    CP:  1.00D+00  7.31D-01  9.48D-01  6.53D-01
 E= -213.782947394090     Delta-E=       -0.000000000025 Rises=F Damp=F
 DIIS: error= 8.95D-08 at cycle   5 NSaved=   5.
 NSaved= 5 IEnMin= 5 EnMin= -213.782947394090     IErMin= 5 ErrMin= 8.95D-08
 ErrMax= 8.95D-08  0.00D+00 EMaxC= 1.00D-01 BMatC= 1.41D-12 BMatP= 2.82D-11
 IDIUse=1 WtCom= 1.00D+00 WtEn= 0.00D+00
 Coeff-Com: -0.314D-02 0.976D-02 0.143D+00 0.258D+00 0.593D+00
 Coeff:     -0.314D-02 0.976D-02 0.143D+00 0.258D+00 0.593D+00
 Gap=     0.288 Goal=   None    Shift=    0.000
 RMSDP=1.21D-08 MaxDP=2.23D-07 DE=-2.48D-11 OVMax= 2.43D-07

 Cycle  11  Pass 1  IDiag  1:
 RMSU=  8.15D-09    CP:  1.00D+00  7.31D-01  9.50D-01  6.69D-01  7.33D-01
 E= -213.782947394092     Delta-E=       -0.000000000002 Rises=F Damp=F
 DIIS: error= 8.82D-09 at cycle   6 NSaved=   6.
 NSaved= 6 IEnMin= 6 EnMin= -213.782947394092     IErMin= 6 ErrMin= 8.82D-09
 ErrMax= 8.82D-09  0.00D+00 EMaxC= 1.00D-01 BMatC= 1.25D-14 BMatP= 1.41D-12
 IDIUse=1 WtCom= 1.00D+00 WtEn= 0.00D+00
 Coeff-Com: -0.654D-03 0.435D-03 0.115D-01 0.242D-01 0.100D+00 0.864D+00
 Coeff:     -0.654D-03 0.435D-03 0.115D-01 0.242D-01 0.100D+00 0.864D+00
 Gap=     0.288 Goal=   None    Shift=    0.000
 RMSDP=2.03D-09 MaxDP=2.67D-08 DE=-2.27D-12 OVMax= 3.97D-08

 SCF Done:  E(RB3LYP) =  -213.782947394     A.U. after   11 cycles
            NFock= 11  Conv=0.20D-08     -V/T= 2.0104
 KE= 2.115841065906D+02 PE=-8.640637502070D+02 EE= 2.541200437212D+02
 Leave Link  502 at Mon Oct 14 00:44:37 2019, MaxMem= 10737418240 cpu:              32.0 elap:               1.4
 (Enter /apps/cent7/gaussian/g16-A.03/g16-haswell/g16/l701.exe)
 ... and contract with generalized density number  0.
 Compute integral first derivatives.
 Leave Link  701 at Mon Oct 14 00:44:37 2019, MaxMem= 10737418240 cpu:               2.3 elap:               0.1
 (Enter /apps/cent7/gaussian/g16-A.03/g16-haswell/g16/l702.exe)
 L702 exits ... SP integral derivatives will be done elsewhere.
 Leave Link  702 at Mon Oct 14 00:44:37 2019, MaxMem= 10737418240 cpu:               0.7 elap:               0.0
 (Enter /apps/cent7/gaussian/g16-A.03/g16-haswell/g16/l703.exe)
 Integral derivatives from FoFJK, PRISM(SPDF).
 Compute integral first derivatives, UseDBF=F ICtDFT=           0.
 Calling FoFJK, ICntrl=      2127 FMM=F ISym2X=0 I1Cent= 0 IOpClX= 0 NMat=1 NMatS=1 NMatT=0.
 FoFJK:  IHMeth= 1 ICntrl=    2127 DoSepK=F KAlg= 0 I1Cent=           0 FoldK=F
 IRaf=         0 NMat=       1 IRICut=       1 DoRegI=T DoRafI=F ISym2E= 0 IDoP0=0 IntGTp=1.
 FoFCou: FMM=F IPFlag=           0 FMFlag=      100000 FMFlg1=         800
         NFxFlg=           0 DoJE=F BraDBF=F KetDBF=F FulRan=T
         wScrn=  0.000000 ICntrl=      2127 IOpCl=  0 I1Cent=           0 NGrid=           0
         NMat0=    1 NMatS0=      1 NMatT0=    0 NMatD0=    1 NMtDS0=    0 NMtDT0=    0
 Symmetry not used in FoFCou.
 Leave Link  703 at Mon Oct 14 00:44:38 2019, MaxMem= 10737418240 cpu:               8.8 elap:               0.4
 (Enter /apps/cent7/gaussian/g16-A.03/g16-haswell/g16/l716.exe)
 Dipole        = 9.12844423D-02-5.40115792D-02-3.58735675D-02
 ***** Axes restored to original set *****
 -------------------------------------------------------------------
 Center     Atomic                   Forces (Hartrees/Bohr)
 Number     Number              X              Y              Z
 -------------------------------------------------------------------
      1        6          -0.005234699    0.004399439    0.005057994
      2        6           0.021821369    0.001953098   -0.006897607
      3        6          -0.020873713   -0.004664461    0.005505112
      4        6           0.025072136    0.008810384   -0.003394294
      5        7          -0.007874542   -0.007085321   -0.006183452
      6        1           0.001497478    0.000059439   -0.000046554
      7        1           0.000327221   -0.002014021   -0.000347839
      8        1          -0.000577903    0.000022142   -0.001172402
      9        1          -0.004892385   -0.001918635    0.004553798
     10        1          -0.008979451    0.000724584   -0.001240397
     11        1           0.005957254    0.002484766   -0.005096832
     12        1           0.007558320   -0.000932998    0.001007206
     13        1          -0.006101725   -0.002414482    0.004518893
     14        1          -0.008509747   -0.000370797    0.000053820
     15        1          -0.000242488    0.000478408    0.001984842
     16        1           0.001052875    0.000468455    0.001697713
 -------------------------------------------------------------------
 Cartesian Forces:  Max     0.025072136 RMS     0.007021246
 Leave Link  716 at Mon Oct 14 00:44:38 2019, MaxMem= 10737418240 cpu:               1.1 elap:               0.1
 (Enter /apps/cent7/gaussian/g16-A.03/g16-haswell/g16/l103.exe)

 GradGradGradGradGradGradGradGradGradGradGradGradGradGradGradGradGradGrad
 Berny optimization.
 Using GEDIIS/GDIIS optimizer.
 FormGI is forming the generalized inverse of G from B-inverse, IUseBI=4.
 Internal  Forces:  Max     0.009500090 RMS     0.002354241
 Search for a local minimum.
 Step number   2 out of a maximum of   85
 All quantities printed in internal units (Hartrees-Bohrs-Radians)
 RMS Force = .23542D-02 SwitMx=.10000D-02 MixMth= 1
 Mixed Optimization -- RFO/linear search
 Update second derivatives using D2CorX and points    1    2
 DE= -1.40D-02 DEPred=-1.32D-02 R= 1.06D+00
 TightC=F SS=  1.41D+00  RLast= 4.92D-01 DXNew= 5.0454D-01 1.4762D+00
 Trust test= 1.06D+00 RLast= 4.92D-01 DXMaxT set to 5.05D-01
 ITU=  1  0
 Use linear search instead of GDIIS.
     Eigenvalues ---    0.00230   0.00230   0.00231   0.00823   0.00831
     Eigenvalues ---    0.03722   0.03726   0.04094   0.04685   0.04925
     Eigenvalues ---    0.05401   0.05446   0.05452   0.07918   0.07950
     Eigenvalues ---    0.08918   0.11904   0.11918   0.12534   0.15856
     Eigenvalues ---    0.16000   0.16000   0.16000   0.16162   0.21996
     Eigenvalues ---    0.22124   0.22521   0.27583   0.27821   0.29104
     Eigenvalues ---    0.34418   0.34808   0.34809   0.34811   0.34813
     Eigenvalues ---    0.34814   0.34814   0.34819   0.34838   0.37191
     Eigenvalues ---    0.45969   0.46192
 RFO step:  Lambda=-4.11183694D-03 EMin= 2.29775275D-03
 Quartic linear search produced a step of  0.54949.
 Iteration  1 RMS(Cart)=  0.07102707 RMS(Int)=  0.00432046
 Iteration  2 RMS(Cart)=  0.00456768 RMS(Int)=  0.00125420
 Iteration  3 RMS(Cart)=  0.00001527 RMS(Int)=  0.00125413
 Iteration  4 RMS(Cart)=  0.00000000 RMS(Int)=  0.00125413
 ITry= 1 IFail=0 DXMaxC= 2.13D-01 DCOld= 1.00D+10 DXMaxT= 5.05D-01 DXLimC= 3.00D+00 Rises=F
 Variable       Old X    -DE/DX   Delta X   Delta X   Delta X     New X
                                 (Linear)    (Quad)   (Total)
    R1        2.93868  -0.00560   0.00909  -0.03792  -0.02883   2.90984
    R2        2.06861   0.00074   0.00491  -0.00099   0.00392   2.07253
    R3        2.06780   0.00101   0.00436   0.00064   0.00500   2.07279
    R4        2.07055   0.00036   0.00587  -0.00344   0.00242   2.07297
    R5        2.93299  -0.00475   0.00038  -0.02625  -0.02587   2.90711
    R6        2.06873   0.00094   0.00492  -0.00013   0.00479   2.07353
    R7        2.06828   0.00102   0.00467   0.00040   0.00508   2.07335
    R8        2.92111  -0.00250  -0.00219  -0.01157  -0.01375   2.90736
    R9        2.07234   0.00128   0.00685  -0.00031   0.00654   2.07888
   R10        2.06805   0.00070   0.00454  -0.00087   0.00367   2.07172
   R11        2.76283  -0.00950  -0.00322  -0.03662  -0.03984   2.72299
   R12        2.06619   0.00171   0.00354   0.00438   0.00792   2.07411
   R13        2.07824   0.00255   0.01011   0.00238   0.01249   2.09074
   R14        1.89801  -0.00003  -0.00590   0.00488  -0.00102   1.89699
   R15        1.89548   0.00024  -0.00715   0.00680  -0.00035   1.89513
    A1        1.94158   0.00028   0.01697  -0.01331   0.00339   1.94497
    A2        1.93249   0.00186   0.01201   0.00822   0.01999   1.95248
    A3        1.93902  -0.00003   0.01561  -0.01550  -0.00012   1.93890
    A4        1.88276  -0.00097  -0.01534   0.00743  -0.00816   1.87460
    A5        1.88180  -0.00037  -0.01584   0.00796  -0.00812   1.87368
    A6        1.88387  -0.00089  -0.01466   0.00637  -0.00847   1.87540
    A7        1.94935   0.00027  -0.00795   0.02845   0.01918   1.96853
    A8        1.89444   0.00108   0.02378   0.00009   0.02299   1.91743
    A9        1.89304   0.00085   0.02303  -0.00500   0.01737   1.91041
   A10        1.88656   0.00103   0.01829   0.00544   0.02282   1.90937
   A11        1.88735   0.00102   0.01870   0.00189   0.01993   1.90728
   A12        1.95393  -0.00432  -0.07718  -0.03074  -0.10710   1.84682
   A13        1.95354   0.00006  -0.00980   0.02880   0.01781   1.97136
   A14        1.88996   0.00077   0.02119  -0.00419   0.01640   1.90635
   A15        1.90003   0.00130   0.02672  -0.00103   0.02493   1.92496
   A16        1.88025   0.00122   0.01675   0.00683   0.02302   1.90327
   A17        1.87927   0.00088   0.01620   0.00488   0.02021   1.89947
   A18        1.96180  -0.00432  -0.07283  -0.03503  -0.10713   1.85468
   A19        1.92441   0.00207  -0.00171   0.03517   0.03156   1.95597
   A20        1.88771   0.00097   0.00600   0.01236   0.01712   1.90483
   A21        1.88425   0.00049   0.00416   0.00554   0.00746   1.89171
   A22        1.86946   0.00043   0.01458   0.00910   0.02300   1.89246
   A23        1.94507   0.00078   0.05614  -0.02871   0.02641   1.97148
   A24        1.95246  -0.00466  -0.07803  -0.03140  -0.10924   1.84322
   A25        2.10462   0.00009   0.00562  -0.00561  -0.00548   2.09914
   A26        2.11030   0.00132   0.00874   0.00302   0.00627   2.11657
   A27        2.06799  -0.00145  -0.01451  -0.00146  -0.02159   2.04640
    D1        1.47819  -0.00100  -0.02008  -0.11647  -0.13660   1.34159
    D2       -2.72678   0.00113   0.01244  -0.09247  -0.07973  -2.80652
    D3       -0.60011  -0.00295  -0.05262  -0.13276  -0.18564  -0.78575
    D4       -2.71156  -0.00079  -0.02066  -0.11042  -0.13111  -2.84267
    D5       -0.63334   0.00133   0.01185  -0.08643  -0.07425  -0.70759
    D6        1.49334  -0.00275  -0.05321  -0.12671  -0.18016   1.31318
    D7       -0.61841  -0.00070  -0.02129  -0.10716  -0.12852  -0.74692
    D8        1.45980   0.00143   0.01123  -0.08317  -0.07165   1.38815
    D9       -2.69670  -0.00266  -0.05383  -0.12346  -0.17756  -2.87426
   D10       -3.13504   0.00021   0.00470   0.02127   0.02608  -3.10896
   D11       -1.06496   0.00224   0.03281   0.04418   0.07723  -0.98773
   D12        1.07281  -0.00177  -0.02631  -0.00176  -0.02834   1.04447
   D13        1.06527  -0.00194  -0.03109   0.00065  -0.03063   1.03463
   D14        3.13535   0.00009  -0.00297   0.02356   0.02051  -3.12733
   D15       -1.01008  -0.00391  -0.06209  -0.02238  -0.08505  -1.09513
   D16       -1.05337   0.00206   0.03982   0.03335   0.07351  -0.97986
   D17        1.01671   0.00410   0.06793   0.05626   0.12466   1.14137
   D18       -3.12872   0.00009   0.00881   0.01032   0.01910  -3.10962
   D19       -3.10815  -0.00018   0.01248  -0.04343  -0.03105  -3.13920
   D20       -1.06930   0.00204   0.03238  -0.00586   0.02658  -1.04272
   D21        1.04645  -0.00272  -0.05677  -0.03320  -0.08989   0.95656
   D22        1.09921  -0.00194  -0.01826  -0.05958  -0.07819   1.02102
   D23        3.13806   0.00028   0.00165  -0.02200  -0.02056   3.11750
   D24       -1.02938  -0.00448  -0.08751  -0.04934  -0.13703  -1.16641
   D25       -1.02057   0.00202   0.04968  -0.02442   0.02539  -0.99518
   D26        1.01828   0.00424   0.06958   0.01316   0.08301   1.10129
   D27        3.13402  -0.00051  -0.01957  -0.01418  -0.03345   3.10057
   D28       -0.64690  -0.00101  -0.01889  -0.09055  -0.10953  -0.75643
   D29        2.52064   0.00077  -0.00465   0.09514   0.08971   2.61035
   D30       -2.69706  -0.00353  -0.03334  -0.12950  -0.16303  -2.86009
   D31        0.47047  -0.00175  -0.01909   0.05619   0.03621   0.50668
   D32        1.44532   0.00148   0.01872  -0.07891  -0.05887   1.38646
   D33       -1.67032   0.00326   0.03296   0.10678   0.14037  -1.52995
         Item               Value     Threshold  Converged?
 Maximum Force            0.009500     0.000450     NO 
 RMS     Force            0.002354     0.000300     NO 
 Maximum Displacement     0.212531     0.001800     NO 
[...]
     6          3.36849075          2.45646620         -2.34039186
     6          2.49909558          4.90895880         -1.08018553
     7          4.18175902          7.00904624         -1.75841325
     1          4.42310962         -2.78226520         -2.38424559
     1          1.25262290         -3.82744182         -2.61279703
     1          2.61512137         -2.04999965         -5.09942381
     1         -0.28906234          0.64182736         -2.42543233
     1          1.50765305         -0.08255458          0.26990285
     1          5.29885688          2.01100642         -1.70246972
     1          3.49328602          2.77780301         -4.38600259
     1          0.59782541          5.38762107         -1.75976357
     1          2.32600007          4.59260690          0.97997068
     1          5.92830140          6.69525910         -1.00602085
     1          3.54748027          8.63798140         -0.95046593

 Electric dipole moment (dipole orientation):
 (Debye = 10**-18 statcoulomb cm , SI units = C m)
                  (au)            (Debye)         (10**-30 SI)
   Tot        0.537070D+00      0.136510D+01      0.455347D+01
   x          0.000000D+00      0.000000D+00      0.000000D+00
   y          0.000000D+00      0.000000D+00      0.000000D+00
   z          0.537070D+00      0.136510D+01      0.455347D+01

 Dipole polarizability, Alpha (dipole orientation).
 (esu units = cm**3 , SI units = C**2 m**2 J**-1)
 Alpha(0;0):
               (au)            (10**-24 esu)      (10**-40 SI)
   iso        0.510085D+02      0.755868D+01      0.841017D+01
   aniso      0.142961D+02      0.211846D+01      0.235710D+01
   xx         0.486153D+02      0.720404D+01      0.801558D+01
   yx         0.231752D+01      0.343421D+00      0.382108D+00
   yy         0.594646D+02      0.881174D+01      0.980438D+01
   zx        -0.124307D+00     -0.184203D-01     -0.204954D-01
   zy         0.239673D+01      0.355158D+00      0.395167D+00
   zz         0.449457D+02      0.666026D+01      0.741054D+01

 ----------------------------------------------------------------------
 1\1\GINC-BROWN-A185\Freq\RB3LYP\6-31G(d)\C4H11N1\FINEJ\14-Oct-2019\0\\
 #P Geom=AllCheck Guess=TCheck SCRF=Check GenChk RB3LYP/6-31G(d) Freq\\
 Title Card Required\\0,1\C,1.8124354349,-0.6609404729,-1.4403799448\C,
 1.0997408627,0.3672936528,-0.5558475334\C,1.9993438655,1.5426171323,-0
 .1547827062\C,1.2968715252,2.5690594735,0.7360706697\N,2.1951910576,3.
 6892129182,1.0442565209\H,2.6811689585,-1.0910755479,-0.9267659575\H,1
 .1446037479,-1.4861124197,-1.7130769805\H,2.1724873056,-0.2019970875,-
 2.3692377375\H,0.2153930028,0.7519943921,-1.0836024096\H,0.721267814,-
 0.1293765019,0.3490732116\H,2.8864258394,1.1564109406,0.3714565743\H,2
 .3730829494,2.0571124605,-1.0495875096\H,0.4300816718,2.9783155359,0.2
 004179599\H,0.8963396495,2.055821323,1.6311042676\H,2.968005415,3.3536
 630917,1.6191138884\H,1.7044609002,4.3776011093,1.6132876868\\Version=
 ES64L-G16RevA.03\State=1-A\HF=-213.7973817\RMSD=8.761e-10\RMSF=1.369e-
 05\ZeroPoint=0.1506366\Thermal=0.1506366\Dipole=-0.1585057,-0.1774372,
 0.4814941\DipoleDeriv=0.11425,-0.0351729,-0.0163329,0.0185031,0.065879
 6,-0.0479706,0.0182694,-0.0279713,0.1061734,0.1368375,0.036454,0.03763
 47,-0.01159,0.1319691,-0.0236838,0.0041251,-0.0365095,0.1531732,0.1187
 014,0.0156788,0.0410511,-0.0376884,0.0361152,-0.0737669,0.0379446,-0.0
 887893,0.0938432,0.3337998,0.1443428,-0.0244245,0.1807124,0.4985527,-0
 .0093609,0.0554456,0.0880181,0.3818378,-0.3371208,-0.2427439,0.059413,
 -0.2428969,-0.5968622,-0.020146,0.0709036,0.0561934,-0.3727717,-0.0951
 491,0.0995105,-0.054267,0.0630801,0.0126736,0.0124755,-0.0881883,0.036
 975,-0.0130149,-0.0274095,-0.1012719,-0.0298551,-0.0817827,-0.1224754,
 -0.086965,-0.0181306,-0.0787114,0.0212327,0.0213755,-0.0001519,0.07746
 19,-0.0280376,-0.0017258,0.0904005,0.0705759,0.0439705,-0.1090194,-0.1
 299335,0.0527688,-0.0757402,0.0819652,-0.0335096,0.0143057,-0.0786452,
 0.0070735,-0.0127201,-0.006419,-0.0407629,0.0642022,-0.0368957,-0.0340
 994,0.0421869,0.0896806,0.0601461,-0.137227,-0.1345694,0.0508418,-0.07
 73892,0.0629881,-0.0180902,0.0157602,-0.0987466,0.0120246,-0.0283059,-
 0.0021969,-0.0320969,0.061296,-0.0360383,-0.0106919,0.055879,0.0692033
 ,0.0578201,-0.1001983,-0.1240175,0.0455829,-0.0777424,0.0537172,-0.029
 3247,0.0079791,-0.0861708,0.0326836,-0.0216977,-0.0699282,-0.0922221,0
 .071538,-0.1148857,-0.1461719,0.0740669,0.1016302,0.0785247,-0.1660285
 ,0.1053673,0.0313513,-0.0958144,0.0972145,0.1171702,0.0480856,-0.17698
 25,-0.0007164,0.1163672,0.0964126,0.0678917,0.0389689,0.0316348,0.1305
 908,-0.0992463,0.0290855,-0.240732,0.088356\Polar=48.2397234,0.6178303
 ,56.1298158,1.0423354,6.8515362,48.6559921\Quadrupole=-0.1598776,-1.70
 02107,1.8600882,-1.3091328,0.8828182,2.147679\PG=C01 [X(C4H11N1)]\NIma
 g=0\\0.55416007,0.03433723,0.53394328,0.02707568,-0.03575778,0.5408711
 2,-0.10788833,0.03621058,0.03165311,0.53907542,0.03716551,-0.12976072,
 -0.04298595,-0.01709333,0.49302506,0.03226034,-0.04279791,-0.11900472,
 0.00877270,-0.05523883,0.55512362,0.01264970,0.01133196,0.00235544,-0.
 12294134,-0.04997098,-0.01547659,0.54028960,-0.01290030,-0.02266314,-0
 .00923392,-0.04907299,-0.13939006,-0.01838365,-0.00912415,0.50323650,-
 0.01263256,-0.01810385,-0.00669522,-0.01442503,-0.01770149,-0.08840233
 ,0.00489042,-0.05689228,0.55841434,-0.00443796,-0.00363905,-0.00090816
 ,0.01340609,-0.01252980,-0.01318301,-0.11262427,0.03365134,0.03212390,
 0.55915778,-0.00234316,-0.00229533,-0.00012187,0.00863678,-0.02052601,
 -0.01533451,0.04268328,-0.12004867,-0.03872821,-0.02941547,0.50158054,
 -0.00007372,0.00054566,-0.00061574,0.00021707,-0.00741738,-0.00561512,
 0.03670316,-0.03746227,-0.11923825,0.02515391,-0.04697520,0.54707850,0
 .00098146,0.00086812,0.00042004,-0.00230831,0.00193786,0.00207090,0.01
 152390,0.01084002,0.00132199,-0.14598140,-0.05133776,-0.00430534,0.551
 72667,-0.00188935,-0.00064710,-0.00013656,0.00449817,-0.00281764,-0.00
 217795,-0.01975757,-0.02882442,-0.01154697,-0.05086534,-0.16276369,-0.
 00327862,-0.14040310,0.49989951,-0.00078879,-0.00077937,0.00029259,0.0
 0213761,-0.00180096,-0.00183057,-0.01358418,-0.01888388,-0.00445031,-0
 .03665575,-0.04428340,-0.07280432,0.10662412,0.13847278,0.37308611,-0.
 21056721,0.07794786,-0.09837729,-0.01347629,0.00640365,-0.00744023,0.0
 0042307,-0.00107085,-0.00033056,0.00024985,-0.00018827,0.00011082,0.00
 006254,0.00010682,0.00007700,0.22821396,0.07769178,-0.08817824,0.04852
 723,0.01803928,-0.00966935,0.01136398,0.00113720,0.00098967,0.00160667
 ,-0.00004236,0.00005962,-0.00023110,-0.00013282,-0.00000538,-0.0000359
 7,-0.08881665,0.09306196,-0.09868283,0.04882217,-0.10996884,0.01703045
 ,-0.00849378,0.01049876,0.00059856,0.00069318,0.00095372,0.00032347,0.
 00000926,0.00004922,-0.00010285,0.00010755,-0.00000799,0.10738593,-0.0
 5104824,0.11660331,-0.15050875,-0.12227440,-0.03986511,0.01166822,0.01
 425688,0.00419806,-0.00173610,0.00171781,0.00177561,0.00091016,0.00056
 045,0.00024116,-0.00018145,0.00027630,0.00015154,-0.01582348,-0.019893
 84,-0.00493133,0.16074557,-0.12166040,-0.19573891,-0.04683090,-0.01437
 710,-0.01620733,-0.00408544,0.00445925,-0.00198116,-0.00300136,-0.0015
 8702,-0.00016098,0.00014498,0.00028553,-0.00064207,-0.00029235,0.00824
 916,0.01145408,0.00296965,0.13278959,0.21192861,-0.03946123,-0.0466112
 6,-0.06485068,-0.01347563,-0.01415810,-0.00534552,0.00343051,-0.001967
 02,-0.00222552,-0.00109223,-0.00068174,0.00062290,0.00025122,-0.000487
 58,-0.00024652,-0.00974851,-0.01272788,-0.00439255,0.04208428,0.054042
 52,0.06660007,-0.07693232,-0.03636148,0.06953497,-0.00608288,-0.007200
 48,0.01448362,0.00020387,-0.00055681,-0.00089595,-0.00003964,-0.000070
 61,-0.00011389,0.00003061,0.00013299,-0.00003664,0.01019837,0.01174732
 ,-0.02303736,-0.00676877,-0.00844694,0.01822088,0.07950321,-0.03659111
 ,-0.09809033,0.09535884,0.00736140,0.01051186,-0.02102504,0.00047952,0
 .00190573,-0.00041282,0.00031162,0.00009303,-0.00021216,-0.00011495,0.
 00000764,0.00014230,-0.00460077,-0.00604573,0.00954675,-0.00641784,-0.
 01055218,0.02141247,0.03819967,0.10431639,0.06954746,0.09481169,-0.234
 50883,0.00619258,0.00802527,-0.01694834,0.00019045,0.00163977,0.000311
 79,-0.00002429,-0.00018786,0.00024346,-0.00008053,-0.00019252,0.000057
 25,0.00515683,0.00667751,-0.01311666,-0.00269341,-0.00348886,0.0086187
 4,-0.07958544,-0.10272208,0.25477372,-0.01277695,0.00634144,-0.0072009
 1,-0.20831215,0.07012262,-0.09685235,-0.01769935,0.00632107,-0.0113220
 2,-0.00014434,0.00112278,0.00046288,0.00050126,-0.00030165,0.00027395,
 -0.00036264,0.00208147,0.00228862,0.00084575,0.00004931,0.00017171,0.0
 0012384,-0.00062563,-0.00005107,0.22819131,0.01889804,-0.00954138,0.01
 112268,0.07011384,-0.08077244,0.04533665,-0.02179364,0.00859453,-0.014
 30851,-0.00102362,0.00146502,-0.00006794,-0.00000203,0.00008331,0.0001
 0099,0.00214641,-0.00250155,-0.00363120,-0.00054498,0.00032947,0.00060
 861,-0.00065682,0.00103732,-0.00018606,-0.07737205,0.09004240,0.017490
 09,-0.00844066,0.01002808,-0.09739061,0.04549467,-0.11175237,-0.006808
 55,0.00258383,-0.00501286,-0.00085130,0.00102841,-0.00003066,0.0003409
 4,-0.00032271,0.00008244,0.00268502,-0.00335442,-0.00163414,-0.0005514
 9,0.00078922,0.00073369,-0.00031261,0.00072344,0.00106809,0.10759759,-
 0.04526848,0.11881054,-0.00582963,-0.00680948,0.01415824,-0.07882397,-
 0.03677295,0.06671062,-0.00774590,-0.01107748,0.01761479,0.00005591,0.
 00078955,0.00068502,0.00012907,0.00018789,-0.00027245,0.00018324,-0.00
 075074,-0.00029672,0.00062224,0.00009564,-0.00057250,-0.00079501,0.002
 36647,0.00202412,0.00986263,0.01218563,-0.02244684,0.08318574,0.008401
 73,0.01042978,-0.02129219,-0.03718191,-0.10102952,0.09550629,-0.008674
 63,-0.01381859,0.02198052,-0.00079023,0.00034921,0.00234142,0.00048858
 ,0.00027232,-0.00072467,-0.00055353,0.00093566,0.00076625,-0.00060432,
 0.00105696,0.00058947,0.00279857,-0.00279804,-0.00341163,-0.00380807,-
 0.00584533,0.00985246,0.04241410,0.11267365,0.00646230,0.00812779,-0.0
 1698760,0.06688464,0.09524322,-0.22056454,-0.00288658,-0.00418359,0.00
 782080,-0.00010861,-0.00022906,0.00045391,-0.00020315,-0.00014609,0.00
 011924,0.00008789,-0.00008842,0.00114221,-0.00064393,-0.00005176,0.000
 23835,0.00196681,-0.00353301,-0.00089864,0.00488518,0.00749620,-0.0139
 0915,-0.07604458,-0.10127221,0.24086662,0.00062961,0.00109107,0.000759
 54,-0.01793837,0.00654888,-0.01111933,-0.20437051,0.06957483,-0.094070
 15,-0.01505745,0.00677252,-0.00874164,0.00140255,-0.00107495,0.0000064
 4,0.00078047,-0.00077179,-0.00032632,0.00023734,-0.00014158,0.00035502
 ,0.00007670,-0.00009251,-0.00000496,-0.00174162,-0.00356764,-0.0006785
 6,0.00045039,0.00032917,0.00056921,0.22579417,-0.00069303,0.00171564,0
 .00015134,-0.02194985,0.00823282,-0.01424150,0.06980446,-0.08051437,0.
 04449244,0.01933682,-0.01007482,0.01153309,0.00006607,0.00153074,0.000
 94394,0.00053261,-0.00017288,0.00025401,0.00003599,0.00022549,0.000349
 59,0.00008657,-0.00010006,-0.00006042,-0.00364387,-0.00379649,-0.00196
 605,0.00078091,0.00118288,0.00038467,-0.07717824,0.08929713,-0.0005213
 6,0.00092600,0.00007490,-0.00713946,0.00312873,-0.00514119,-0.09438392
 ,0.04408285,-0.11023211,0.01738799,-0.00903904,0.00950017,0.00055036,0
 .00135182,0.00101438,0.00037365,-0.00066801,0.00001474,0.00034535,-0.0
 0011226,0.00015915,-0.00006824,0.00002960,-0.00004719,-0.00087020,-0.0
 0205207,0.00076853,0.00042396,-0.00054093,0.00074765,0.10520691,-0.044
 50437,0.11644752,0.00040023,0.00108710,0.00028385,-0.00745534,-0.01040
 236,0.01682916,-0.07798791,-0.03755694,0.06673654,-0.00704851,-0.00779
 766,0.01586739,0.00091864,-0.00033060,-0.00172380,0.00007007,-0.000026
 42,-0.00015385,-0.00009845,0.00025610,-0.00011928,0.00050250,-0.000178
 30,-0.00050654,0.00045955,0.00074873,0.00047708,-0.00188863,-0.0032561
 8,-0.00092488,0.00927829,0.01263751,-0.02253396,0.08374053,-0.00005121
 ,0.00099849,0.00160759,-0.00822331,-0.01344066,0.02101536,-0.03870171,
 -0.10559443,0.10102419,0.00814082,0.00976020,-0.02063457,0.00013938,0.
 00148197,0.00084831,0.00000991,-0.00007683,-0.00003523,0.00010852,0.00
 042842,-0.00032380,0.00036816,-0.00018759,-0.00103704,0.00036002,0.001
 13752,-0.00046342,-0.00332652,-0.00330797,-0.00205543,-0.00356122,-0.0
 0560415,0.00948074,0.04341091,0.11606283,-0.00029587,-0.00000070,0.000
 92222,-0.00309398,-0.00516670,0.00814249,0.06688404,0.09924059,-0.2219
 3564,0.00764799,0.00960903,-0.01847425,-0.00119296,0.00083682,0.001745
 44,0.00005453,-0.00003730,-0.00005415,-0.00009908,0.00014318,0.0002664
 8,-0.00004683,0.00047887,0.00021506,0.00059179,0.00042471,0.00071288,-
 0.00123296,-0.00242665,0.00064136,0.00476877,0.00739436,-0.01352253,-0
 .07604754,-0.10683399,0.24099206,0.00029268,-0.00008922,0.00030165,0.0
 0016178,-0.00089120,-0.00047231,-0.01315876,0.00769116,-0.00731589,-0.
 20001447,0.07377775,-0.09492566,-0.02155614,0.00407225,-0.01076730,0.0
 0008320,-0.00024136,-0.00010950,0.00003539,0.00004665,0.00006194,-0.00
 005256,0.00000536,0.00000344,0.00083389,0.00045693,0.00035397,0.000086
 08,0.00001529,0.00010059,-0.00069347,0.00190982,0.00211369,0.00028486,
 -0.00059803,-0.00013468,0.22481077,-0.00018122,-0.00000735,-0.00025760
 ,0.00113567,0.00091073,0.00126943,0.01791352,-0.00992307,0.01138567,0.
 08070140,-0.09016874,0.05332441,-0.02771872,0.00876578,-0.01483372,-0.
 00022101,0.00019913,0.00003698,-0.00005279,-0.00003509,-0.00005775,0.0
 0001703,0.00001627,0.00002100,-0.00078872,-0.00021327,-0.00071442,0.00
 000655,-0.00004746,-0.00004924,0.00187825,-0.00254385,-0.00358072,-0.0
 0086675,0.00104370,-0.00022462,-0.07893185,0.09956927,0.00028846,0.000
 04360,0.00009111,0.00041293,0.00062667,0.00078049,0.01661877,-0.008611
 91,0.01010980,-0.09676826,0.05101977,-0.11505448,-0.00822608,-0.000215
 17,-0.00261740,-0.00009665,0.00003175,-0.00009689,-0.00009257,0.000088
 79,0.00000109,0.00001132,0.00000358,-0.00000984,-0.00022176,0.00017867
 ,0.00007464,-0.00012968,-0.00010669,-0.00004103,0.00240875,-0.00349565
 ,-0.00146083,-0.00024628,0.00057318,0.00126137,0.10779282,-0.05092698,
 0.12139222,0.00006432,0.00024147,-0.00018023,-0.00008992,-0.00069579,-
 0.00025990,-0.00516673,-0.00615661,0.01620945,-0.07856377,-0.02860904,
 0.05986166,-0.01191943,-0.02012041,0.01437307,-0.00003367,-0.00001467,
 0.00002124,0.00001931,0.00008739,-0.00001845,0.00004096,-0.00012398,-0
 .00018767,0.00010370,0.00013744,-0.00003187,0.00055688,0.00046545,-0.0
 0022874,0.00042398,-0.00095559,-0.00046979,-0.00104682,0.00184244,0.00
 210932,0.00968391,0.01134930,-0.02124864,0.08471509,0.00017377,0.00017
 566,-0.00013932,0.00055430,0.00144007,-0.00011876,0.00749266,0.0092657
 7,-0.01954625,-0.02931324,-0.09416949,0.08466490,-0.01969583,-0.021686
 96,0.01666032,0.00000986,0.00000093,0.00001057,-0.00005937,-0.00001875
 ,0.00008971,-0.00004461,-0.00012984,0.00010231,-0.00010504,-0.00006228
 ,-0.00004951,-0.00009449,-0.00004195,0.00024066,-0.00054283,0.00085152
 ,0.00077866,0.00222056,-0.00283054,-0.00348701,-0.00332070,-0.00491317
 ,0.01266118,0.04138599,0.11033974,-0.00023719,-0.00050323,0.00031865,0
 .00063278,0.00163225,-0.00014942,0.00630810,0.00919468,-0.01849664,0.0
 5867350,0.08221845,-0.21134385,-0.00260101,-0.00441227,0.01293497,0.00
 002018,0.00004859,-0.00000851,-0.00000958,-0.00015568,-0.00005234,-0.0
 0014689,0.00018751,0.00030071,0.00001329,-0.00004143,-0.00000075,-0.00
 058610,-0.00126623,0.00041350,0.00008110,-0.00026458,0.00140079,0.0023
 7674,-0.00348407,-0.00120652,0.00495685,0.00739087,-0.01453133,-0.0703
 3084,-0.09139555,0.22728961,0.00010326,-0.00001706,0.00006590,0.000016
 15,0.00007318,0.00024863,0.00146670,0.00035195,0.00059206,-0.02202155,
 0.00784834,-0.01659571,-0.23658599,0.09034068,-0.14369227,0.00000083,-
 0.00001040,-0.00002966,-0.00002097,0.00001428,0.00000999,-0.00000493,0
 .00000747,0.00002623,0.00007553,0.00015430,0.00013245,-0.00011101,-0.0
 0011018,0.00003526,0.00051586,-0.00047522,-0.00064831,0.00002542,-0.00
 006420,0.00022006,-0.00137413,-0.00486870,-0.00029025,0.00090463,0.001
 40604,0.00094150,0.27266804,0.00014768,0.00000907,0.00003665,-0.000081
 93,-0.00028174,0.00012948,-0.00131657,0.00218135,-0.00023156,-0.028501
 09,0.00854536,-0.01824893,0.11297179,-0.10096358,0.05491921,0.00002178
 ,-0.00005321,-0.00003164,-0.00000954,0.00004735,0.00003781,-0.00000658
 ,-0.00001102,0.00001311,0.00029515,0.00003571,0.00015625,-0.00003880,0
 .00000973,-0.00001095,0.00095122,-0.00058858,0.00035271,0.00013880,-0.
 00010207,0.00015633,-0.00399580,-0.00389783,-0.00194161,0.00003855,0.0
 0105188,-0.00002945,-0.10153379,0.10388388,0.00000405,-0.00003058,0.00
 000126,0.00033394,-0.00063216,0.00008871,-0.00131420,0.00075629,-0.000
 38086,-0.00113434,0.00944389,-0.00710527,-0.19460145,0.06082658,-0.155
 27437,0.00001643,-0.00007157,0.00000158,0.00002386,0.00000479,0.000002
 71,-0.00000790,-0.00000964,-0.00004019,0.00031327,0.00023031,0.0001404
 7,0.00009914,0.00014103,-0.00005005,0.00055685,-0.00103119,0.00011191,
 -0.00011811,-0.00001843,-0.00027943,-0.00152527,-0.00270609,0.00043151
 ,0.00098958,-0.00096143,0.00172911,0.17320007,-0.05656216,0.15094909,-
 0.00034017,-0.00026614,-0.00007672,0.00098923,-0.00095169,-0.00077030,
 -0.00312596,-0.00263205,-0.00027261,0.01215357,-0.02242949,-0.01454708
 ,-0.14874398,0.13512787,0.08387744,-0.00000231,0.00000399,0.00002216,0
 .00005403,-0.00011984,-0.00009771,-0.00000396,0.00001359,-0.00000722,0
 .00003959,0.00011946,-0.00000529,0.00006197,0.00006617,0.00004860,0.00
 021207,-0.00029497,0.00023334,-0.00015442,0.00014604,-0.00013259,0.000
 57697,0.00062805,-0.00021288,0.00030757,-0.00006706,-0.00009244,-0.015
 65784,0.02091914,0.02316409,0.15363364,-0.00050594,-0.00034945,-0.0000
 4823,0.00143040,-0.00022506,-0.00121760,-0.00596257,-0.00341562,-0.000
 01620,0.01556522,-0.02164526,-0.01802627,0.11180784,-0.19369042,-0.130
 45353,0.00002304,0.00000212,0.00002371,0.00011153,-0.00013390,-0.00011
 504,-0.00000598,0.00002654,-0.00000418,-0.00004882,0.00000746,-0.00004
 861,0.00004372,-0.00002133,0.00012721,-0.00021517,0.00035899,0.0003663
 0,-0.00008449,0.00023111,-0.00010692,0.00009296,0.00124494,0.00007085,
 0.00112807,0.00072741,0.00088012,0.00688331,-0.00986630,-0.00937961,-0
 .13026308,0.22674877,-0.00043483,-0.00025155,0.00003170,0.00125692,-0.
 00055545,0.00012005,-0.00352545,-0.00257267,-0.00054070,0.00941518,0.0
 0225206,-0.00766622,0.09973381,-0.17867909,-0.15210095,0.00002497,0.00
 000719,0.00001619,0.00006663,-0.00016452,-0.00013005,0.00003415,0.0000
 3139,-0.00001911,-0.00007996,0.00005687,-0.00007944,-0.00013404,-0.000
 13624,0.00000738,0.00022837,0.00006033,0.00016412,-0.00019651,0.000336
 62,0.00057316,-0.00043433,-0.00007720,-0.00033041,-0.00060818,0.000489
 51,0.00140202,-0.01421593,0.02125475,0.00967383,-0.09113079,0.15794801
 ,0.14887844\\0.00002110,-0.00001629,-0.00000869,-0.00003239,-0.0000026
 6,0.00000448,0.00002838,-0.00000222,-0.00001304,-0.00003580,0.00002130
 ,-0.00000179,0.00003055,0.00001155,0.00000720,-0.00000243,-0.00000014,
 0.00000051,-0.00000406,0.00000649,0.00000072,0.00000059,0.00000138,0.0
 0000029,0.00000337,-0.00000155,0.00000750,0.00000148,0.00000300,-0.000
 00112,0.00000030,0.00000011,-0.00000432,-0.00000239,-0.00000241,0.0000
 0303,-0.00001227,-0.00001595,-0.00000167,-0.00001119,-0.00001324,-0.00
 000033,0.00003824,-0.00000677,0.00000467,-0.00002348,0.00001741,0.0000
 0253\\\@


 SI MONUMENTUM REQUIRIS, CIRCUMSPICE
     -- FROM SIR CHRISTOPHER WREN'S TOMBSTONE
 Job cpu time:       0 days  0 hours  3 minutes 33.2 seconds.
 Elapsed time:       0 days  0 hours  0 minutes  9.3 seconds.
 File lengths (MBytes):  RWF=     22 Int=      0 D2E=      0 Chk=      2 Scr=      1
 Normal termination of Gaussian 16 at Mon Oct 14 00:45:15 2019.
real 43.97
user 914.66
sys 14.65
Machine:
brown-a185
brown-a185
brown-a185
brown-a185
brown-a185
brown-a185
brown-a185
brown-a185
brown-a185
brown-a185
brown-a185
brown-a185
brown-a185
brown-a185
brown-a185
brown-a185
brown-a185
brown-a185
brown-a185
brown-a185
brown-a185
brown-a185
brown-a185
brown-a185
