Title Card Required                                                     
Freq      RB3LYP                                                      6-31G(d)            
Number of atoms                            I               17
Info1-9                                    I   N=           9
          44          44        1002           0           0         100
           6          18        -502
Full Title                                 C   N=           2
Title Card Required     
Route                                      C   N=           6
#P opt freq b3lyp/6-31g(d) geom=connectivity temperature=0.0
01          
Charge                                     I                1
Multiplicity                               I                1
Number of electrons                        I               42
Number of alpha electrons                  I               21
Number of beta electrons                   I               21
Number of basis functions                  I               99
Number of independent functions            I               99
Number of point charges in /Mol/           I                0
Number of translation vectors              I                0
Atomic numbers                             I   N=          17
           6           6           6           6           7           1
           1           1           1           1           1           1
           1           1           1           1           1
Nuclear charges                            R   N=          17
  6.00000000E+00  6.00000000E+00  6.00000000E+00  6.00000000E+00  7.00000000E+00
  1.00000000E+00  1.00000000E+00  1.00000000E+00  1.00000000E+00  1.00000000E+00
  1.00000000E+00  1.00000000E+00  1.00000000E+00  1.00000000E+00  1.00000000E+00
  1.00000000E+00  1.00000000E+00
Current cartesian coordinates              R   N=          51
 -4.90529446E+00 -6.24840690E-01  2.13223978E-04 -2.51102630E+00  1.00270506E+00
 -1.24017780E-04 -8.88843705E-02 -6.12208547E-01 -3.56601406E-04  2.26527864E+00
  1.04317127E+00  9.34136504E-05  4.66662415E+00 -5.79194306E-01  1.09727726E-04
 -4.99427669E+00 -1.83744828E+00  1.67629995E+00 -6.58977117E+00  5.72701486E-01
  3.96558909E-04 -4.99467118E+00 -1.83754200E+00 -1.67580802E+00 -2.50559650E+00
  2.24124848E+00 -1.66416167E+00 -2.50511880E+00  2.24122300E+00  1.66391450E+00
 -8.23448077E-02 -1.84397440E+00  1.67203162E+00 -8.22702445E-02 -1.84331299E+00
 -1.67322439E+00  2.39552450E+00  2.23638011E+00 -1.68026144E+00  2.39525473E+00
  2.23594205E+00  1.68078644E+00  4.72705163E+00 -1.73194553E+00  1.56195036E+00
  4.72762504E+00 -1.73111470E+00 -1.56232168E+00  6.28178336E+00  4.99240427E-01
  6.73556511E-04
Number of symbols in /Mol/                 I                0
Force Field                                I                0
Atom Types                                 C   N=          17
                                                            
                                                            
                                                            
                        
Int Atom Types                             I   N=          17
           0           0           0           0           0           0
           0           0           0           0           0           0
           0           0           0           0           0
MM charges                                 R   N=          17
  0.00000000E+00  0.00000000E+00  0.00000000E+00  0.00000000E+00  0.00000000E+00
  0.00000000E+00  0.00000000E+00  0.00000000E+00  0.00000000E+00  0.00000000E+00
  0.00000000E+00  0.00000000E+00  0.00000000E+00  0.00000000E+00  0.00000000E+00
  0.00000000E+00  0.00000000E+00
Integer atomic weights                     I   N=          17
          12          12          12          12          14           1
           1           1           1           1           1           1
           1           1           1           1           1
Real atomic weights                        R   N=          17
  1.20000000E+01  1.20000000E+01  1.20000000E+01  1.20000000E+01  1.40030740E+01
  1.00782504E+00  1.00782504E+00  1.00782504E+00  1.00782504E+00  1.00782504E+00
  1.00782504E+00  1.00782504E+00  1.00782504E+00  1.00782504E+00  1.00782504E+00
  1.00782504E+00  1.00782504E+00
Atom fragment info                         I   N=          17
           0           0           0           0           0           0
           0           0           0           0           0           0
           0           0           0           0           0
Atom residue num                           I   N=          17
           0           0           0           0           0           0
           0           0           0           0           0           0
           0           0           0           0           0
Nuclear spins                              I   N=          17
           0           0           0           0           2           1
           1           1           1           1           1           1
           1           1           1           1           1
Nuclear ZEff                               R   N=          17
 -3.60000000E+00 -3.60000000E+00 -3.60000000E+00 -3.60000000E+00 -4.55000000E+00
 -1.00000000E+00 -1.00000000E+00 -1.00000000E+00 -1.00000000E+00 -1.00000000E+00
 -1.00000000E+00 -1.00000000E+00 -1.00000000E+00 -1.00000000E+00 -1.00000000E+00
 -1.00000000E+00 -1.00000000E+00
Nuclear ZNuc                               R   N=          17
  6.00000000E+00  6.00000000E+00  6.00000000E+00  6.00000000E+00  7.00000000E+00
  1.00000000E+00  1.00000000E+00  1.00000000E+00  1.00000000E+00  1.00000000E+00
  1.00000000E+00  1.00000000E+00  1.00000000E+00  1.00000000E+00  1.00000000E+00
  1.00000000E+00  1.00000000E+00
Nuclear QMom                               R   N=          17
  0.00000000E+00  0.00000000E+00  0.00000000E+00  0.00000000E+00  2.04400000E+00
  0.00000000E+00  0.00000000E+00  0.00000000E+00  0.00000000E+00  0.00000000E+00
  0.00000000E+00  0.00000000E+00  0.00000000E+00  0.00000000E+00  0.00000000E+00
  0.00000000E+00  0.00000000E+00
Nuclear GFac                               R   N=          17
  0.00000000E+00  0.00000000E+00  0.00000000E+00  0.00000000E+00  4.03761000E-01
  2.79284600E+00  2.79284600E+00  2.79284600E+00  2.79284600E+00  2.79284600E+00
  2.79284600E+00  2.79284600E+00  2.79284600E+00  2.79284600E+00  2.79284600E+00
  2.79284600E+00  2.79284600E+00
MicOpt                                     I   N=          17
          -1          -1          -1          -1          -1          -1
          -1          -1          -1          -1          -1          -1
          -1          -1          -1          -1          -1
Number of residues                         I                0
Number of secondary structures             I                0
Redundant internal dimensions              I   N=           4
          82          16          30          36
Redundant internal coordinate indices      I   N=         328
           1           2           0           0           1           6
           0           0           1           7           0           0
           1           8           0           0           2           3
           0           0           2           9           0           0
           2          10           0           0           3           4
           0           0           3          11           0           0
           3          12           0           0           4           5
           0           0           4          13           0           0
           4          14           0           0           5          15
           0           0           5          16           0           0
           5          17           0           0           2           1
           6           0           2           1           7           0
           2           1           8           0           6           1
           7           0           6           1           8           0
           7           1           8           0           1           2
           3           0           1           2           9           0
           1           2          10           0           3           2
           9           0           3           2          10           0
           9           2          10           0           2           3
           4           0           2           3          11           0
           2           3          12           0           4           3
          11           0           4           3          12           0
          11           3          12           0           3           4
           5           0           3           4          13           0
           3           4          14           0           5           4
          13           0           5           4          14           0
          13           4          14           0           4           5
          15           0           4           5          16           0
           4           5          17           0          15           5
          16           0          15           5          17           0
          16           5          17           0           6           1
           2           3           6           1           2           9
           6           1           2          10           7           1
           2           3           7           1           2           9
           7           1           2          10           8           1
           2           3           8           1           2           9
           8           1           2          10           1           2
           3           4           1           2           3          11
           1           2           3          12           9           2
           3           4           9           2           3          11
           9           2           3          12          10           2
           3           4          10           2           3          11
          10           2           3          12           2           3
           4           5           2           3           4          13
           2           3           4          14          11           3
           4           5          11           3           4          13
          11           3           4          14          12           3
           4           5          12           3           4          13
          12           3           4          14           3           4
           5          15           3           4           5          16
           3           4           5          17          13           4
           5          15          13           4           5          16
          13           4           5          17          14           4
           5          15          14           4           5          16
          14           4           5          17
Redundant internal coordinates             R   N=          82
  2.89506914E+00  2.07065249E+00  2.06677746E+00  2.07067136E+00  2.91113681E+00
  2.07437716E+00  2.07436395E+00  2.87791001E+00  2.07705856E+00  2.07705285E+00
  2.89802180E+00  2.06501907E+00  2.06502421E+00  1.94212075E+00  1.94212091E+00
  1.94210222E+00  1.94427287E+00  1.92655218E+00  1.94426332E+00  1.87992069E+00
  1.88635847E+00  1.87993306E+00  1.95652885E+00  1.91549895E+00  1.91549768E+00
  1.90601236E+00  1.90594020E+00  1.86190635E+00  1.94069533E+00  1.90872403E+00
  1.90870581E+00  1.91602606E+00  1.91606883E+00  1.87232214E+00  1.93457500E+00
  1.96473664E+00  1.96476336E+00  1.84545231E+00  1.84543117E+00  1.90133820E+00
  1.93699411E+00  1.93698991E+00  1.95871154E+00  1.86914611E+00  1.87914507E+00
  1.87912818E+00  1.05389214E+00 -3.10807182E+00 -1.06723663E+00  3.14158023E+00
 -1.02038373E+00  1.02045146E+00 -1.05390767E+00  1.06731367E+00  3.10814886E+00
 -3.14130068E+00 -1.02250852E+00  1.02305105E+00  1.01522898E+00  3.13402114E+00
 -1.10360460E+00 -1.01469674E+00  1.10409542E+00 -3.13353032E+00  3.14149984E+00
 -1.07872474E+00  1.07854837E+00  1.02698145E+00  3.08994217E+00 -1.03597002E+00
 -1.02716130E+00  1.03579943E+00 -3.09011276E+00 -1.03798659E+00  1.03830343E+00
 -3.14144651E+00  3.11110221E+00 -1.09579307E+00  1.00764230E+00  1.09612907E+00
 -3.11076621E+00 -1.00733085E+00
ZRed-IntVec                                I   N=          82
           0           0           0           0           0           0
           0           0           0           0           0           0
           0           0           0           0           0           0
           0           0           0           0           0           0
           0           0           0           0           0           0
           0           0           0           0           0           0
           0           0           0           0           0           0
           0           0           0           0           0           0
           0           0           0           0           0           0
           0           0           0           0           0           0
           0           0           0           0           0           0
           0           0           0           0           0           0
           0           0           0           0           0           0
           0           0           0           0
ZRed-FPVec                                 R   N=          82
  0.00000000E+00  0.00000000E+00  0.00000000E+00  0.00000000E+00  0.00000000E+00
  0.00000000E+00  0.00000000E+00  0.00000000E+00  0.00000000E+00  0.00000000E+00
  0.00000000E+00  0.00000000E+00  0.00000000E+00  0.00000000E+00  0.00000000E+00
  0.00000000E+00  0.00000000E+00  0.00000000E+00  0.00000000E+00  0.00000000E+00
  0.00000000E+00  0.00000000E+00  0.00000000E+00  0.00000000E+00  0.00000000E+00
  0.00000000E+00  0.00000000E+00  0.00000000E+00  0.00000000E+00  0.00000000E+00
  0.00000000E+00  0.00000000E+00  0.00000000E+00  0.00000000E+00  0.00000000E+00
  0.00000000E+00  0.00000000E+00  0.00000000E+00  0.00000000E+00  0.00000000E+00
  0.00000000E+00  0.00000000E+00  0.00000000E+00  0.00000000E+00  0.00000000E+00
  0.00000000E+00  0.00000000E+00  0.00000000E+00  0.00000000E+00  0.00000000E+00
  0.00000000E+00  0.00000000E+00  0.00000000E+00  0.00000000E+00  0.00000000E+00
  0.00000000E+00  0.00000000E+00  0.00000000E+00  0.00000000E+00  0.00000000E+00
  0.00000000E+00  0.00000000E+00  0.00000000E+00  0.00000000E+00  0.00000000E+00
  0.00000000E+00  0.00000000E+00  0.00000000E+00  0.00000000E+00  0.00000000E+00
  0.00000000E+00  0.00000000E+00  0.00000000E+00  0.00000000E+00  0.00000000E+00
  0.00000000E+00  0.00000000E+00  0.00000000E+00  0.00000000E+00  0.00000000E+00
  0.00000000E+00  0.00000000E+00
ZRed-Constraint1                           R   N=          82
  2.89506914E+00  2.07065249E+00  2.06677746E+00  2.07067136E+00  2.91113681E+00
  2.07437716E+00  2.07436395E+00  2.87791001E+00  2.07705856E+00  2.07705285E+00
  2.89802180E+00  2.06501907E+00  2.06502421E+00  1.94212075E+00  1.94212091E+00
  1.94210222E+00  1.94427287E+00  1.92655218E+00  1.94426332E+00  1.87992069E+00
  1.88635847E+00  1.87993306E+00  1.95652885E+00  1.91549895E+00  1.91549768E+00
  1.90601236E+00  1.90594020E+00  1.86190635E+00  1.94069533E+00  1.90872403E+00
  1.90870581E+00  1.91602606E+00  1.91606883E+00  1.87232214E+00  1.93457500E+00
  1.96473664E+00  1.96476336E+00  1.84545231E+00  1.84543117E+00  1.90133820E+00
  1.93699411E+00  1.93698991E+00  1.95871154E+00  1.86914611E+00  1.87914507E+00
  1.87912818E+00  1.05389214E+00 -3.10807182E+00 -1.06723663E+00  3.14158023E+00
 -1.02038373E+00  1.02045146E+00 -1.05390767E+00  1.06731367E+00  3.10814886E+00
 -3.14130068E+00 -1.02250852E+00  1.02305105E+00  1.01522898E+00  3.13402114E+00
 -1.10360460E+00 -1.01469674E+00  1.10409542E+00 -3.13353032E+00  3.14149984E+00
 -1.07872474E+00  1.07854837E+00  1.02698145E+00  3.08994217E+00 -1.03597002E+00
 -1.02716130E+00  1.03579943E+00 -3.09011276E+00 -1.03798659E+00  1.03830343E+00
 -3.14144651E+00  3.11110221E+00 -1.09579307E+00  1.00764230E+00  1.09612907E+00
 -3.11076621E+00 -1.00733085E+00
ZRed-Constraint2                           R   N=          82
  2.92213097E+00  2.05968141E+00  2.05986214E+00  2.05987701E+00  2.93229792E+00
  2.05977500E+00  2.05977543E+00  2.92509460E+00  2.05987783E+00  2.05979041E+00
  2.76869007E+00  2.05974358E+00  2.05984182E+00  1.88972613E+00  1.88972613E+00
  1.88972613E+00  1.91069876E+00  1.91063951E+00  1.91060390E+00  1.91068510E+00
  1.91061793E+00  1.91055420E+00  1.96381362E+00  1.85116252E+00  1.85112131E+00
  1.85326984E+00  1.85331771E+00  2.09438156E+00  1.97138410E+00  1.85140126E+00
  1.85139481E+00  1.84976838E+00  1.84977775E+00  2.09435199E+00  1.92752997E+00
  1.87678148E+00  1.87668443E+00  1.84291814E+00  1.84290205E+00  2.09446126E+00
  1.91063324E+00  1.91063323E+00  1.91063323E+00  1.91063323E+00  1.91063324E+00
  1.91063324E+00  1.51473133E+00 -2.74942005E+00 -5.04335389E-01 -2.67395137E+00
 -6.54917449E-01  1.59016721E+00 -5.79667190E-01  1.43936674E+00 -2.59873391E+00
  3.13960403E+00 -1.12467034E+00  1.12068571E+00  1.12183902E+00  3.14074996E+00
 -8.97079298E-01 -1.12583711E+00  8.93073833E-01  3.13842988E+00 -3.13086620E+00
 -1.12823510E+00  1.14976106E+00  1.13243343E+00  3.13506453E+00 -8.70124614E-01
 -1.11098259E+00  8.91648504E-01 -3.11354064E+00 -8.81015014E-02  2.00629360E+00
 -2.18249660E+00 -2.11198860E+00 -1.75935038E-02  2.07680160E+00  1.93566271E+00
 -2.25312750E+00 -1.58732391E-01
SymInf integers                            I   N=          26
           1           1           1           1           1           0
           0           0           0           0           0           0
           0           0           0           0           0           0
           0           0           0           0           0           0
           0           0
RotTr to input orientation                 R   N=          12
  6.86720646E-02  8.33761302E-01  5.47837785E-01 -9.27954820E-01 -1.48247224E-01
  3.41939488E-01  3.66311343E-01 -5.31850404E-01  7.63512376E-01  3.16630420E+00
  2.85698591E+00  9.50249361E-03
Number of contracted shells                I               44
Number of primitive shells                 I              103
Pure/Cartesian d shells                    I                1
Pure/Cartesian f shells                    I                0
Highest angular momentum                   I                2
Largest degree of contraction              I                6
Shell types                                I   N=          44
           0          -1          -1           2           0          -1
          -1           2           0          -1          -1           2
           0          -1          -1           2           0          -1
          -1           2           0           0           0           0
           0           0           0           0           0           0
           0           0           0           0           0           0
           0           0           0           0           0           0
           0           0
Number of primitives per shell             I   N=          44
           6           3           1           1           6           3
           1           1           6           3           1           1
           6           3           1           1           6           3
           1           1           3           1           3           1
           3           1           3           1           3           1
           3           1           3           1           3           1
           3           1           3           1           3           1
           3           1
Shell to atom map                          I   N=          44
           1           1           1           1           2           2
           2           2           3           3           3           3
           4           4           4           4           5           5
           5           5           6           6           7           7
           8           8           9           9          10          10
          11          11          12          12          13          13
          14          14          15          15          16          16
          17          17
Primitive exponents                        R   N=         103
  3.04752488E+03  4.57369518E+02  1.03948685E+02  2.92101553E+01  9.28666296E+00
  3.16392696E+00  7.86827235E+00  1.88128854E+00  5.44249258E-01  1.68714478E-01
  8.00000000E-01  3.04752488E+03  4.57369518E+02  1.03948685E+02  2.92101553E+01
  9.28666296E+00  3.16392696E+00  7.86827235E+00  1.88128854E+00  5.44249258E-01
  1.68714478E-01  8.00000000E-01  3.04752488E+03  4.57369518E+02  1.03948685E+02
  2.92101553E+01  9.28666296E+00  3.16392696E+00  7.86827235E+00  1.88128854E+00
  5.44249258E-01  1.68714478E-01  8.00000000E-01  3.04752488E+03  4.57369518E+02
  1.03948685E+02  2.92101553E+01  9.28666296E+00  3.16392696E+00  7.86827235E+00
  1.88128854E+00  5.44249258E-01  1.68714478E-01  8.00000000E-01  4.17351146E+03
  6.27457911E+02  1.42902093E+02  4.02343293E+01  1.28202129E+01  4.39043701E+00
  1.16263619E+01  2.71627981E+00  7.72218397E-01  2.12031498E-01  8.00000000E-01
  1.87311370E+01  2.82539436E+00  6.40121692E-01  1.61277759E-01  1.87311370E+01
  2.82539436E+00  6.40121692E-01  1.61277759E-01  1.87311370E+01  2.82539436E+00
  6.40121692E-01  1.61277759E-01  1.87311370E+01  2.82539436E+00  6.40121692E-01
  1.61277759E-01  1.87311370E+01  2.82539436E+00  6.40121692E-01  1.61277759E-01
  1.87311370E+01  2.82539436E+00  6.40121692E-01  1.61277759E-01  1.87311370E+01
  2.82539436E+00  6.40121692E-01  1.61277759E-01  1.87311370E+01  2.82539436E+00
  6.40121692E-01  1.61277759E-01  1.87311370E+01  2.82539436E+00  6.40121692E-01
  1.61277759E-01  1.87311370E+01  2.82539436E+00  6.40121692E-01  1.61277759E-01
  1.87311370E+01  2.82539436E+00  6.40121692E-01  1.61277759E-01  1.87311370E+01
  2.82539436E+00  6.40121692E-01  1.61277759E-01
Contraction coefficients                   R   N=         103
  1.83473713E-03  1.40373228E-02  6.88426223E-02  2.32184443E-01  4.67941348E-01
  3.62311985E-01 -1.19332420E-01 -1.60854152E-01  1.14345644E+00  1.00000000E+00
  1.00000000E+00  1.83473713E-03  1.40373228E-02  6.88426223E-02  2.32184443E-01
  4.67941348E-01  3.62311985E-01 -1.19332420E-01 -1.60854152E-01  1.14345644E+00
  1.00000000E+00  1.00000000E+00  1.83473713E-03  1.40373228E-02  6.88426223E-02
  2.32184443E-01  4.67941348E-01  3.62311985E-01 -1.19332420E-01 -1.60854152E-01
  1.14345644E+00  1.00000000E+00  1.00000000E+00  1.83473713E-03  1.40373228E-02
  6.88426223E-02  2.32184443E-01  4.67941348E-01  3.62311985E-01 -1.19332420E-01
 -1.60854152E-01  1.14345644E+00  1.00000000E+00  1.00000000E+00  1.83477216E-03
  1.39946270E-02  6.85865518E-02  2.32240873E-01  4.69069948E-01  3.60455199E-01
 -1.14961182E-01 -1.69117479E-01  1.14585195E+00  1.00000000E+00  1.00000000E+00
  3.34946043E-02  2.34726953E-01  8.13757326E-01  1.00000000E+00  3.34946043E-02
  2.34726953E-01  8.13757326E-01  1.00000000E+00  3.34946043E-02  2.34726953E-01
  8.13757326E-01  1.00000000E+00  3.34946043E-02  2.34726953E-01  8.13757326E-01
  1.00000000E+00  3.34946043E-02  2.34726953E-01  8.13757326E-01  1.00000000E+00
  3.34946043E-02  2.34726953E-01  8.13757326E-01  1.00000000E+00  3.34946043E-02
  2.34726953E-01  8.13757326E-01  1.00000000E+00  3.34946043E-02  2.34726953E-01
  8.13757326E-01  1.00000000E+00  3.34946043E-02  2.34726953E-01  8.13757326E-01
  1.00000000E+00  3.34946043E-02  2.34726953E-01  8.13757326E-01  1.00000000E+00
  3.34946043E-02  2.34726953E-01  8.13757326E-01  1.00000000E+00  3.34946043E-02
  2.34726953E-01  8.13757326E-01  1.00000000E+00
P(S=P) Contraction coefficients            R   N=         103
  0.00000000E+00  0.00000000E+00  0.00000000E+00  0.00000000E+00  0.00000000E+00
  0.00000000E+00  6.89990666E-02  3.16423961E-01  7.44308291E-01  1.00000000E+00
  0.00000000E+00  0.00000000E+00  0.00000000E+00  0.00000000E+00  0.00000000E+00
  0.00000000E+00  0.00000000E+00  6.89990666E-02  3.16423961E-01  7.44308291E-01
  1.00000000E+00  0.00000000E+00  0.00000000E+00  0.00000000E+00  0.00000000E+00
  0.00000000E+00  0.00000000E+00  0.00000000E+00  6.89990666E-02  3.16423961E-01
  7.44308291E-01  1.00000000E+00  0.00000000E+00  0.00000000E+00  0.00000000E+00
  0.00000000E+00  0.00000000E+00  0.00000000E+00  0.00000000E+00  6.89990666E-02
  3.16423961E-01  7.44308291E-01  1.00000000E+00  0.00000000E+00  0.00000000E+00
  0.00000000E+00  0.00000000E+00  0.00000000E+00  0.00000000E+00  0.00000000E+00
  6.75797439E-02  3.23907296E-01  7.40895140E-01  1.00000000E+00  0.00000000E+00
  0.00000000E+00  0.00000000E+00  0.00000000E+00  0.00000000E+00  0.00000000E+00
  0.00000000E+00  0.00000000E+00  0.00000000E+00  0.00000000E+00  0.00000000E+00
  0.00000000E+00  0.00000000E+00  0.00000000E+00  0.00000000E+00  0.00000000E+00
  0.00000000E+00  0.00000000E+00  0.00000000E+00  0.00000000E+00  0.00000000E+00
  0.00000000E+00  0.00000000E+00  0.00000000E+00  0.00000000E+00  0.00000000E+00
  0.00000000E+00  0.00000000E+00  0.00000000E+00  0.00000000E+00  0.00000000E+00
  0.00000000E+00  0.00000000E+00  0.00000000E+00  0.00000000E+00  0.00000000E+00
  0.00000000E+00  0.00000000E+00  0.00000000E+00  0.00000000E+00  0.00000000E+00
  0.00000000E+00  0.00000000E+00  0.00000000E+00  0.00000000E+00  0.00000000E+00
  0.00000000E+00  0.00000000E+00  0.00000000E+00
Coordinates of each shell                  R   N=         132
 -4.90529446E+00 -6.24840690E-01  2.13223978E-04 -4.90529446E+00 -6.24840690E-01
  2.13223978E-04 -4.90529446E+00 -6.24840690E-01  2.13223978E-04 -4.90529446E+00
 -6.24840690E-01  2.13223978E-04 -2.51102630E+00  1.00270506E+00 -1.24017780E-04
 -2.51102630E+00  1.00270506E+00 -1.24017780E-04 -2.51102630E+00  1.00270506E+00
 -1.24017780E-04 -2.51102630E+00  1.00270506E+00 -1.24017780E-04 -8.88843705E-02
 -6.12208547E-01 -3.56601406E-04 -8.88843705E-02 -6.12208547E-01 -3.56601406E-04
 -8.88843705E-02 -6.12208547E-01 -3.56601406E-04 -8.88843705E-02 -6.12208547E-01
 -3.56601406E-04  2.26527864E+00  1.04317127E+00  9.34136504E-05  2.26527864E+00
  1.04317127E+00  9.34136504E-05  2.26527864E+00  1.04317127E+00  9.34136504E-05
  2.26527864E+00  1.04317127E+00  9.34136504E-05  4.66662415E+00 -5.79194306E-01
  1.09727726E-04  4.66662415E+00 -5.79194306E-01  1.09727726E-04  4.66662415E+00
 -5.79194306E-01  1.09727726E-04  4.66662415E+00 -5.79194306E-01  1.09727726E-04
 -4.99427669E+00 -1.83744828E+00  1.67629995E+00 -4.99427669E+00 -1.83744828E+00
  1.67629995E+00 -6.58977117E+00  5.72701486E-01  3.96558909E-04 -6.58977117E+00
  5.72701486E-01  3.96558909E-04 -4.99467118E+00 -1.83754200E+00 -1.67580802E+00
 -4.99467118E+00 -1.83754200E+00 -1.67580802E+00 -2.50559650E+00  2.24124848E+00
 -1.66416167E+00 -2.50559650E+00  2.24124848E+00 -1.66416167E+00 -2.50511880E+00
  2.24122300E+00  1.66391450E+00 -2.50511880E+00  2.24122300E+00  1.66391450E+00
 -8.23448077E-02 -1.84397440E+00  1.67203162E+00 -8.23448077E-02 -1.84397440E+00
  1.67203162E+00 -8.22702445E-02 -1.84331299E+00 -1.67322439E+00 -8.22702445E-02
 -1.84331299E+00 -1.67322439E+00  2.39552450E+00  2.23638011E+00 -1.68026144E+00
  2.39552450E+00  2.23638011E+00 -1.68026144E+00  2.39525473E+00  2.23594205E+00
  1.68078644E+00  2.39525473E+00  2.23594205E+00  1.68078644E+00  4.72705163E+00
 -1.73194553E+00  1.56195036E+00  4.72705163E+00 -1.73194553E+00  1.56195036E+00
  4.72762504E+00 -1.73111470E+00 -1.56232168E+00  4.72762504E+00 -1.73111470E+00
 -1.56232168E+00  6.28178336E+00  4.99240427E-01  6.73556511E-04  6.28178336E+00
  4.99240427E-01  6.73556511E-04
Num ILSW                                   I              100
ILSW                                       I   N=         100
           0           1           0           0           2           0
           0           0           0           0         402          -1
           5           0           0           0           2           0
           0           0           0           0           1           0
           1           0           0           0           0           0
           0           0      100000           0          -1           0
           0           0           0           0           0           0
           0           0           0           1           0           0
           0 -2000000000           1           0           0           0
           0           0           4          52           0           0
           0           0           5           0           0           0
           0           0           0          17           0           1
           0           0           0           0           0           0
           0           0           0           0           0           0
           0           0           0           0           0           0
           0           0           0           0           0           0
           0           0           0           0
Num RLSW                                   I               52
RLSW                                       R   N=          52
  8.00000000E-01  7.20000000E-01  1.00000000E+00  8.10000000E-01  2.00000000E-01
  0.00000000E+00  0.00000000E+00  1.00000000E+00  0.00000000E+00  0.00000000E+00
  0.00000000E+00  0.00000000E+00  1.00000000E+00  0.00000000E+00  0.00000000E+00
  0.00000000E+00  0.00000000E+00  1.00000000E+00  0.00000000E+00  0.00000000E+00
  0.00000000E+00  0.00000000E+00  1.00000000E+00  0.00000000E+00  0.00000000E+00
  0.00000000E+00  0.00000000E+00  1.00000000E+00  0.00000000E+00  0.00000000E+00
  0.00000000E+00  0.00000000E+00  1.00000000E+00  0.00000000E+00  0.00000000E+00
  0.00000000E+00  0.00000000E+00  0.00000000E+00  1.00000000E+00  1.00000000E+00