 Entering Gaussian System, Link 0=/apps/cent7/gaussian/g16-A.03/g16-haswell/g16/g16
 Initial command:
 /apps/cent7/gaussian/g16-A.03/g16-haswell/g16/l1.exe "/scratch/brown/finej/gaussian/Gau-360753.inp" -scrdir="/scratch/brown/finej/gaussian/"
 Entering Link 1 = /apps/cent7/gaussian/g16-A.03/g16-haswell/g16/l1.exe PID=    360754.
  
 Copyright (c) 1988,1990,1992,1993,1995,1998,2003,2009,2016,
            Gaussian, Inc.  All Rights Reserved.
  
 This is part of the Gaussian(R) 16 program.  It is based on
 the Gaussian(R) 09 system (copyright 2009, Gaussian, Inc.),
 the Gaussian(R) 03 system (copyright 2003, Gaussian, Inc.),
 the Gaussian(R) 98 system (copyright 1998, Gaussian, Inc.),
 the Gaussian(R) 94 system (copyright 1995, Gaussian, Inc.),
 the Gaussian 92(TM) system (copyright 1992, Gaussian, Inc.),
 the Gaussian 90(TM) system (copyright 1990, Gaussian, Inc.),
 the Gaussian 88(TM) system (copyright 1988, Gaussian, Inc.),
 the Gaussian 86(TM) system (copyright 1986, Carnegie Mellon
 University), and the Gaussian 82(TM) system (copyright 1983,
 Carnegie Mellon University). Gaussian is a federally registered
 trademark of Gaussian, Inc.
  
 This software contains proprietary and confidential information,
 including trade secrets, belonging to Gaussian, Inc.
  
 This software is provided under written license and may be
 used, copied, transmitted, or stored only in accord with that
 written license.
  
 The following legend is applicable only to US Government
 contracts under FAR:
  
                    RESTRICTED RIGHTS LEGEND
  
 Use, reproduction and disclosure by the US Government is
 subject to restrictions as set forth in subparagraphs (a)
 and (c) of the Commercial Computer Software - Restricted
 Rights clause in FAR 52.227-19.
  
 Gaussian, Inc.
 340 Quinnipiac St., Bldg. 40, Wallingford CT 06492
  
  
 ---------------------------------------------------------------
 Warning -- This program may not be used in any manner that
 competes with the business of Gaussian, Inc. or will provide
 assistance to any competitor of Gaussian, Inc.  The licensee
 of this program is prohibited from giving any competitor of
 Gaussian, Inc. access to this program.  By using this program,
 the user acknowledges that Gaussian, Inc. is engaged in the
 business of creating and licensing software in the field of
 computational chemistry and represents and warrants to the
 licensee that it is not a competitor of Gaussian, Inc. and that
 it will not use this program in any manner prohibited above.
 ---------------------------------------------------------------
  

 Cite this work as:
 Gaussian 16, Revision A.03,
 M. J. Frisch, G. W. Trucks, H. B. Schlegel, G. E. Scuseria, 
 M. A. Robb, J. R. Cheeseman, G. Scalmani, V. Barone, 
 G. A. Petersson, H. Nakatsuji, X. Li, M. Caricato, A. V. Marenich, 
 J. Bloino, B. G. Janesko, R. Gomperts, B. Mennucci, H. P. Hratchian, 
 J. V. Ortiz, A. F. Izmaylov, J. L. Sonnenberg, D. Williams-Young, 
 F. Ding, F. Lipparini, F. Egidi, J. Goings, B. Peng, A. Petrone, 
 T. Henderson, D. Ranasinghe, V. G. Zakrzewski, J. Gao, N. Rega, 
 G. Zheng, W. Liang, M. Hada, M. Ehara, K. Toyota, R. Fukuda, 
 J. Hasegawa, M. Ishida, T. Nakajima, Y. Honda, O. Kitao, H. Nakai, 
 T. Vreven, K. Throssell, J. A. Montgomery, Jr., J. E. Peralta, 
 F. Ogliaro, M. J. Bearpark, J. J. Heyd, E. N. Brothers, K. N. Kudin, 
 V. N. Staroverov, T. A. Keith, R. Kobayashi, J. Normand, 
 K. Raghavachari, A. P. Rendell, J. C. Burant, S. S. Iyengar, 
 J. Tomasi, M. Cossi, J. M. Millam, M. Klene, C. Adamo, R. Cammi, 
 J. W. Ochterski, R. L. Martin, K. Morokuma, O. Farkas, 
 J. B. Foresman, and D. J. Fox, Gaussian, Inc., Wallingford CT, 2016.
 
 ******************************************
 Gaussian 16:  ES64L-G16RevA.03 25-Dec-2016
                14-Oct-2019 
 ******************************************
 %chk=18_p.chk
 %nprocshared=24
 Will use up to   24 processors via shared memory.
 %mem=80GB
 --------------------------------------------------------------
 #P opt freq b3lyp/6-31g(d) geom=connectivity temperature=0.001
 --------------------------------------------------------------
 1/18=20,19=15,26=3,38=1,57=2,112=-1000/1,3;
 2/9=110,12=2,17=6,18=5,40=1/2;
 3/5=1,6=6,7=1,11=2,25=1,30=1,71=1,74=-5/1,2,3;
 4//1;
 5/5=2,38=5/2;
 6/7=2,8=2,9=2,10=2,28=1/1;
 7//1,2,3,16;
 1/18=20,19=15,26=3/3(2);
 2/9=110/2;
 99//99;
 2/9=110/2;
 3/5=1,6=6,7=1,11=2,25=1,30=1,71=1,74=-5/1,2,3;
 4/5=5,16=3,69=1/1;
 5/5=2,38=5/2;
 7//1,2,3,16;
 1/18=20,19=15,26=3/3(-5);
 2/9=110/2;
 6/7=2,8=2,9=2,10=2,19=2,28=1/1;
 99/9=1/99;
 Leave Link    1 at Mon Oct 14 00:45:37 2019, MaxMem= 10737418240 cpu:               1.6 elap:               0.1
 (Enter /apps/cent7/gaussian/g16-A.03/g16-haswell/g16/l101.exe)
 -------------------
 Title Card Required
 -------------------
 Symbolic Z-matrix:
 Charge =  1 Multiplicity = 1
 C                     1.829    -0.6552   -1.4686 
 C                     1.0852    0.321    -0.5279 
 C                     1.9673    1.5247   -0.1027 
 C                     1.2314    2.5101    0.8372 
 N                     2.1073    3.6298    1.1917 
 H                     2.3827   -1.3818   -0.8741 
 H                     1.1064   -1.1753   -2.0975 
 H                     2.5222   -0.0965   -2.0975 
 H                     0.2648    0.7371   -1.1126 
 H                     0.8757   -0.2391    0.3834 
 H                     2.7865    1.1068    0.4825 
 H                     2.1784    2.0816   -1.0156 
 H                     0.4084    2.9491    0.2733 
 H                     1.0331    1.9859    1.7721 
 H                     3.01976   3.47167   0.81432 
 H                     1.73335   4.47757   0.81559 
 H                     2.16662   3.7044    2.18715 
 
 ITRead=  0  0  0  0  0  0  0  0  0  0  0  0  0  0  0  0  0
 MicOpt= -1 -1 -1 -1 -1 -1 -1 -1 -1 -1 -1 -1 -1 -1 -1 -1 -1
 NAtoms=     17 NQM=       17 NQMF=       0 NMMI=      0 NMMIF=      0
                NMic=       0 NMicF=      0.
                    Isotopes and Nuclear Properties:
 (Nuclear quadrupole moments (NQMom) in fm**2, nuclear magnetic moments (NMagM)
  in nuclear magnetons)

  Atom         1           2           3           4           5           6           7           8           9          10
 IAtWgt=          12          12          12          12          14           1           1           1           1           1
 AtmWgt=  12.0000000  12.0000000  12.0000000  12.0000000  14.0030740   1.0078250   1.0078250   1.0078250   1.0078250   1.0078250
 NucSpn=           0           0           0           0           2           1           1           1           1           1
 AtZEff=  -0.0000000  -0.0000000  -0.0000000  -0.0000000  -0.0000000  -0.0000000  -0.0000000  -0.0000000  -0.0000000  -0.0000000
 NQMom=    0.0000000   0.0000000   0.0000000   0.0000000   2.0440000   0.0000000   0.0000000   0.0000000   0.0000000   0.0000000
 NMagM=    0.0000000   0.0000000   0.0000000   0.0000000   0.4037610   2.7928460   2.7928460   2.7928460   2.7928460   2.7928460
 AtZNuc=   6.0000000   6.0000000   6.0000000   6.0000000   7.0000000   1.0000000   1.0000000   1.0000000   1.0000000   1.0000000

  Atom        11          12          13          14          15          16          17
 IAtWgt=           1           1           1           1           1           1           1
 AtmWgt=   1.0078250   1.0078250   1.0078250   1.0078250   1.0078250   1.0078250   1.0078250
 NucSpn=           1           1           1           1           1           1           1
 AtZEff=  -0.0000000  -0.0000000  -0.0000000  -0.0000000  -0.0000000  -0.0000000  -0.0000000
 NQMom=    0.0000000   0.0000000   0.0000000   0.0000000   0.0000000   0.0000000   0.0000000
 NMagM=    2.7928460   2.7928460   2.7928460   2.7928460   2.7928460   2.7928460   2.7928460
 AtZNuc=   1.0000000   1.0000000   1.0000000   1.0000000   1.0000000   1.0000000   1.0000000
 Leave Link  101 at Mon Oct 14 00:45:38 2019, MaxMem= 10737418240 cpu:               8.9 elap:               0.4
 (Enter /apps/cent7/gaussian/g16-A.03/g16-haswell/g16/l103.exe)

 GradGradGradGradGradGradGradGradGradGradGradGradGradGradGradGradGradGrad
 Berny optimization.
 Initialization pass.
                           ----------------------------
                           !    Initial Parameters    !
                           ! (Angstroms and Degrees)  !
 --------------------------                            --------------------------
 ! Name  Definition              Value          Derivative Info.                !
 --------------------------------------------------------------------------------
 ! R1    R(1,2)                  1.5463         estimate D2E/DX2                !
 ! R2    R(1,6)                  1.0899         estimate D2E/DX2                !
 ! R3    R(1,7)                  1.09           estimate D2E/DX2                !
 ! R4    R(1,8)                  1.09           estimate D2E/DX2                !
 ! R5    R(2,3)                  1.5517         estimate D2E/DX2                !
 ! R6    R(2,9)                  1.09           estimate D2E/DX2                !
 ! R7    R(2,10)                 1.09           estimate D2E/DX2                !
 ! R8    R(3,4)                  1.5479         estimate D2E/DX2                !
 ! R9    R(3,11)                 1.09           estimate D2E/DX2                !
 ! R10   R(3,12)                 1.09           estimate D2E/DX2                !
 ! R11   R(4,5)                  1.4651         estimate D2E/DX2                !
 ! R12   R(4,13)                 1.09           estimate D2E/DX2                !
 ! R13   R(4,14)                 1.09           estimate D2E/DX2                !
 ! R14   R(5,15)                 1.0            estimate D2E/DX2                !
 ! R15   R(5,16)                 1.0            estimate D2E/DX2                !
 ! R16   R(5,17)                 1.0            estimate D2E/DX2                !
 ! A1    A(2,1,6)              109.475          estimate D2E/DX2                !
 ! A2    A(2,1,7)              109.4716         estimate D2E/DX2                !
 ! A3    A(2,1,8)              109.4695         estimate D2E/DX2                !
 ! A4    A(6,1,7)              109.4742         estimate D2E/DX2                !
 ! A5    A(6,1,8)              109.4703         estimate D2E/DX2                !
 ! A6    A(7,1,8)              109.4667         estimate D2E/DX2                !
 ! A7    A(1,2,3)              112.5182         estimate D2E/DX2                !
 ! A8    A(1,2,9)              106.0638         estimate D2E/DX2                !
 ! A9    A(1,2,10)             106.0614         estimate D2E/DX2                !
 ! A10   A(3,2,9)              106.1845         estimate D2E/DX2                !
 ! A11   A(3,2,10)             106.1873         estimate D2E/DX2                !
 ! A12   A(9,2,10)             119.9992         estimate D2E/DX2                !
 ! A13   A(2,3,4)              112.952          estimate D2E/DX2                !
 ! A14   A(2,3,11)             106.0775         estimate D2E/DX2                !
 ! A15   A(2,3,12)             106.0771         estimate D2E/DX2                !
 ! A16   A(4,3,11)             105.9839         estimate D2E/DX2                !
 ! A17   A(4,3,12)             105.9845         estimate D2E/DX2                !
 ! A18   A(11,3,12)            119.9975         estimate D2E/DX2                !
 ! A19   A(3,4,5)              110.4393         estimate D2E/DX2                !
 ! A20   A(3,4,13)             107.5317         estimate D2E/DX2                !
 ! A21   A(3,4,14)             107.5261         estimate D2E/DX2                !
 ! A22   A(5,4,13)             105.5914         estimate D2E/DX2                !
 ! A23   A(5,4,14)             105.5905         estimate D2E/DX2                !
 ! A24   A(13,4,14)            120.0038         estimate D2E/DX2                !
 ! A25   A(4,5,15)             109.4712         estimate D2E/DX2                !
 ! A26   A(4,5,16)             109.4712         estimate D2E/DX2                !
 ! A27   A(4,5,17)             109.4712         estimate D2E/DX2                !
 ! A28   A(15,5,16)            109.4712         estimate D2E/DX2                !
 ! A29   A(15,5,17)            109.4712         estimate D2E/DX2                !
 ! A30   A(16,5,17)            109.4712         estimate D2E/DX2                !
 ! D1    D(6,1,2,3)             86.7877         estimate D2E/DX2                !
 ! D2    D(6,1,2,9)           -157.5302         estimate D2E/DX2                !
 ! D3    D(6,1,2,10)           -28.8963         estimate D2E/DX2                !
 ! D4    D(7,1,2,3)           -153.2061         estimate D2E/DX2                !
 ! D5    D(7,1,2,9)            -37.524          estimate D2E/DX2                !
 ! D6    D(7,1,2,10)            91.1099         estimate D2E/DX2                !
 ! D7    D(8,1,2,3)            -33.2125         estimate D2E/DX2                !
 ! D8    D(8,1,2,9)             82.4696         estimate D2E/DX2                !
 ! D9    D(8,1,2,10)          -148.8965         estimate D2E/DX2                !
 ! D10   D(1,2,3,4)            179.8861         estimate D2E/DX2                !
 ! D11   D(1,2,3,11)           -64.4389         estimate D2E/DX2                !
 ! D12   D(1,2,3,12)            64.2106         estimate D2E/DX2                !
 ! D13   D(9,2,3,4)             64.2766         estimate D2E/DX2                !
 ! D14   D(9,2,3,11)           179.9517         estimate D2E/DX2                !
 ! D15   D(9,2,3,12)           -51.3989         estimate D2E/DX2                !
 ! D16   D(10,2,3,4)           -64.5057         estimate D2E/DX2                !
 ! D17   D(10,2,3,11)           51.1694         estimate D2E/DX2                !
 ! D18   D(10,2,3,12)          179.8188         estimate D2E/DX2                !
 ! D19   D(2,3,4,5)           -179.3854         estimate D2E/DX2                !
 ! D20   D(2,3,4,13)           -64.6431         estimate D2E/DX2                !
 ! D21   D(2,3,4,14)            65.8765         estimate D2E/DX2                !
 ! D22   D(11,3,4,5)            64.8837         estimate D2E/DX2                !
 ! D23   D(11,3,4,13)          179.626          estimate D2E/DX2                !
 ! D24   D(11,3,4,14)          -49.8545         estimate D2E/DX2                !
 ! D25   D(12,3,4,5)           -63.6546         estimate D2E/DX2                !
 ! D26   D(12,3,4,13)           51.0877         estimate D2E/DX2                !
 ! D27   D(12,3,4,14)         -178.3927         estimate D2E/DX2                !
 ! D28   D(3,4,5,15)            -5.0478         estimate D2E/DX2                !
 ! D29   D(3,4,5,16)           114.9522         estimate D2E/DX2                !
 ! D30   D(3,4,5,17)          -125.0478         estimate D2E/DX2                !
 ! D31   D(13,4,5,15)         -121.008          estimate D2E/DX2                !
 ! D32   D(13,4,5,16)           -1.008          estimate D2E/DX2                !
 ! D33   D(13,4,5,17)          118.992          estimate D2E/DX2                !
 ! D34   D(14,4,5,15)          110.9053         estimate D2E/DX2                !
 ! D35   D(14,4,5,16)         -129.0947         estimate D2E/DX2                !
 ! D36   D(14,4,5,17)           -9.0947         estimate D2E/DX2                !
 --------------------------------------------------------------------------------
 Trust Radius=3.00D-01 FncErr=1.00D-07 GrdErr=1.00D-06 EigMax=2.50D+02 EigMin=1.00D-04
 Number of steps in this run=     92 maximum allowed number of steps=    102.
 GradGradGradGradGradGradGradGradGradGradGradGradGradGradGradGradGradGrad

 Leave Link  103 at Mon Oct 14 00:45:38 2019, MaxMem= 10737418240 cpu:               0.2 elap:               0.0
 (Enter /apps/cent7/gaussian/g16-A.03/g16-haswell/g16/l202.exe)
                          Input orientation:                          
 ---------------------------------------------------------------------
 Center     Atomic      Atomic             Coordinates (Angstroms)
 Number     Number       Type             X           Y           Z
 ---------------------------------------------------------------------
      1          6           0        1.829000   -0.655200   -1.468600
      2          6           0        1.085200    0.321000   -0.527900
      3          6           0        1.967300    1.524700   -0.102700
      4          6           0        1.231400    2.510100    0.837200
      5          7           0        2.107300    3.629800    1.191700
      6          1           0        2.382700   -1.381800   -0.874100
      7          1           0        1.106400   -1.175300   -2.097500
      8          1           0        2.522200   -0.096500   -2.097500
      9          1           0        0.264800    0.737100   -1.112600
     10          1           0        0.875700   -0.239100    0.383400
     11          1           0        2.786500    1.106800    0.482500
     12          1           0        2.178400    2.081600   -1.015600
     13          1           0        0.408400    2.949100    0.273300
     14          1           0        1.033100    1.985900    1.772100
     15          1           0        3.019756    3.471666    0.814317
     16          1           0        1.733354    4.477567    0.815594
     17          1           0        2.166621    3.704400    2.187148
 ---------------------------------------------------------------------
                    Distance matrix (angstroms):
                    1          2          3          4          5
     1  C    0.000000
     2  C    1.546325   0.000000
     3  C    2.576194   1.551705   0.000000
     4  C    3.961435   2.583995   1.547893   0.000000
     5  N    5.051324   3.866506   2.475180   1.465128   0.000000
     6  H    1.089936   2.168614   3.035681   4.404648   5.427662
     7  H    1.090032   2.168642   3.465599   4.712776   5.908437
     8  H    1.090040   2.168622   2.629721   4.131948   4.987614
     9  H    2.124137   1.089986   2.130427   2.807056   4.131866
    10  H    2.124105   1.089986   2.130463   2.809014   4.139876
    11  H    2.797899   2.129040   1.090040   2.124476   2.707361
    12  H    2.795955   2.129002   1.089994   2.124450   2.697064
    13  H    4.247740   2.829645   2.144868   1.089969   2.047699
    14  H    4.255702   2.839825   2.144833   1.090021   2.047725
    15  H    4.864220   3.933288   2.395676   2.030604   1.000000
    16  H    5.618895   4.416121   3.101196   2.030604   1.000000
    17  H    5.699526   4.470834   3.167684   2.030604   1.000000
                    6          7          8          9         10
     6  H    0.000000
     7  H    1.779970   0.000000
     8  H    1.779934   1.779972   0.000000
     9  H    3.005349   2.309890   2.600148   0.000000
    10  H    2.271149   2.661683   2.980967   1.887904   0.000000
    11  H    2.862961   3.832377   2.859053   3.006658   2.339321
    12  H    3.472305   3.595426   2.456181   2.340717   3.006639
    13  H    4.896027   4.808178   4.400514   2.614246   3.224145
    14  H    4.490568   4.997235   4.639786   3.235936   2.627525
    15  H    5.178101   5.808090   4.632284   4.333664   4.307256
    16  H    6.132609   6.390156   5.480007   4.457093   4.813451
    17  H    5.940317   6.579799   5.738596   4.828057   4.524509
                   11         12         13         14         15
    11  H    0.000000
    12  H    1.887942   0.000000
    13  H    3.015492   2.355147   0.000000
    14  H    2.347402   3.015318   1.887963   0.000000
    15  H    2.399397   2.447195   2.717528   2.659258   0.000000
    16  H    3.547131   3.048277   2.094230   2.759287   1.632993
    17  H    3.168217   3.590433   2.706406   2.100090   1.632993
                   16         17
    16  H    0.000000
    17  H    1.632993   0.000000
 Stoichiometry    C4H12N(1+)
 Framework group  C1[X(C4H12N)]
 Deg. of freedom    45
 Full point group                 C1      NOp   1
 Largest Abelian subgroup         C1      NOp   1
 Largest concise Abelian subgroup C1      NOp   1
                         Standard orientation:                         
 ---------------------------------------------------------------------
 Center     Atomic      Atomic             Coordinates (Angstroms)
 Number     Number       Type             X           Y           Z
 ---------------------------------------------------------------------
      1          6           0       -2.610279   -0.327301   -0.001391
      2          6           0       -1.330216    0.540200   -0.002834
      3          6           0       -0.034137   -0.312961    0.006434
      4          6           0        1.253768    0.545675    0.002236
      5          7           0        2.441024   -0.312807   -0.003396
      6          1           0       -2.881937   -0.572468    1.025282
      7          1           0       -3.424275    0.225357   -0.470591
      8          1           0       -2.426942   -1.246368   -0.558070
      9          1           0       -1.332299    1.079314   -0.950157
     10          1           0       -1.338154    1.091017    0.937702
     11          1           0       -0.033388   -0.850559    0.954683
     12          1           0       -0.029663   -0.865373   -0.933197
     13          1           0        1.281907    1.090755   -0.941231
     14          1           0        1.289354    1.088664    0.946716
     15          1           0        2.161177   -1.269253    0.079650
     16          1           0        2.940793   -0.184905   -0.860060
     17          1           0        3.031443   -0.070207    0.766376
 ---------------------------------------------------------------------
 Rotational constants (GHZ):          17.3711861           1.8761485           1.7933683
 Leave Link  202 at Mon Oct 14 00:45:38 2019, MaxMem= 10737418240 cpu:               0.3 elap:               0.0
 (Enter /apps/cent7/gaussian/g16-A.03/g16-haswell/g16/l301.exe)
 Standard basis: 6-31G(d) (6D, 7F)
 Ernie: Thresh=  0.10000D-02 Tol=  0.10000D-05 Strict=F.
 There are    99 symmetry adapted cartesian basis functions of A   symmetry.
 There are    99 symmetry adapted basis functions of A   symmetry.
    99 basis functions,   188 primitive gaussians,    99 cartesian basis functions
    21 alpha electrons       21 beta electrons
       nuclear repulsion energy       195.1092592871 Hartrees.
 IExCor=  402 DFT=T Ex+Corr=B3LYP ExCW=0 ScaHFX=  0.200000
 ScaDFX=  0.800000  0.720000  1.000000  0.810000 ScalE2=  1.000000  1.000000
 IRadAn=      5 IRanWt=     -1 IRanGd=            0 ICorTp=0 IEmpDi=  4
 NAtoms=   17 NActive=   17 NUniq=   17 SFac= 1.00D+00 NAtFMM=   60 NAOKFM=F Big=F
 Integral buffers will be    131072 words long.
 Raffenetti 2 integral format.
 Two-electron integral symmetry is turned on.
 Leave Link  301 at Mon Oct 14 00:45:38 2019, MaxMem= 10737418240 cpu:               1.3 elap:               0.1
 (Enter /apps/cent7/gaussian/g16-A.03/g16-haswell/g16/l302.exe)
 NPDir=0 NMtPBC=     1 NCelOv=     1 NCel=       1 NClECP=     1 NCelD=      1
         NCelK=      1 NCelE2=     1 NClLst=     1 CellRange=     0.0.
 One-electron integrals computed using PRISM.
 One-electron integral symmetry used in STVInt
 NBasis=    99 RedAO= T EigKep=  3.45D-03  NBF=    99
 NBsUse=    99 1.00D-06 EigRej= -1.00D+00 NBFU=    99
 Precomputing XC quadrature grid using
 IXCGrd= 4 IRadAn=           5 IRanWt=          -1 IRanGd=           0 AccXCQ= 0.00D+00.
 Generated NRdTot=       0 NPtTot=           0 NUsed=           0 NTot=          32
 NSgBfM=    99    99    99    99    99 MxSgAt=    17 MxSgA2=    17.
 Leave Link  302 at Mon Oct 14 00:45:38 2019, MaxMem= 10737418240 cpu:               3.1 elap:               0.2
 (Enter /apps/cent7/gaussian/g16-A.03/g16-haswell/g16/l303.exe)
 DipDrv:  MaxL=1.
 Leave Link  303 at Mon Oct 14 00:45:38 2019, MaxMem= 10737418240 cpu:               0.8 elap:               0.1
 (Enter /apps/cent7/gaussian/g16-A.03/g16-haswell/g16/l401.exe)
 ExpMin= 1.61D-01 ExpMax= 4.17D+03 ExpMxC= 6.27D+02 IAcc=3 IRadAn=         5 AccDes= 0.00D+00
 Harris functional with IExCor=  402 and IRadAn=       5 diagonalized for initial guess.
 HarFok:  IExCor=  402 AccDes= 0.00D+00 IRadAn=         5 IDoV= 1 UseB2=F ITyADJ=14
 ICtDFT=  3500011 ScaDFX=  1.000000  1.000000  1.000000  1.000000
 FoFCou: FMM=F IPFlag=           0 FMFlag=      100000 FMFlg1=           0
         NFxFlg=           0 DoJE=T BraDBF=F KetDBF=T FulRan=T
         wScrn=  0.000000 ICntrl=       500 IOpCl=  0 I1Cent=   200000004 NGrid=           0
         NMat0=    1 NMatS0=      1 NMatT0=    0 NMatD0=    1 NMtDS0=    0 NMtDT0=    0
 Petite list used in FoFCou.
 Harris En= -214.231517535314    
 JPrj=0 DoOrth=F DoCkMO=F.
 Leave Link  401 at Mon Oct 14 00:45:39 2019, MaxMem= 10737418240 cpu:               5.6 elap:               0.3
 (Enter /apps/cent7/gaussian/g16-A.03/g16-haswell/g16/l502.exe)
 Integral symmetry usage will be decided dynamically.
 Closed shell SCF:
 Using DIIS extrapolation, IDIIS=  1040.
 NGot= 10737418240 LenX= 10737394826 LenY= 10737384584
 Requested convergence on RMS density matrix=1.00D-08 within 128 cycles.
 Requested convergence on MAX density matrix=1.00D-06.
 Requested convergence on             energy=1.00D-06.
 No special actions if energy rises.
 Fock matrices will be formed incrementally for  20 cycles.
 Integral accuracy reduced to 1.0D-05 until final iterations.

 Cycle   1  Pass 0  IDiag  1:
 FoFJK:  IHMeth= 1 ICntrl=       0 DoSepK=F KAlg= 0 I1Cent=           0 FoldK=F
 IRaf= 970000000 NMat=       1 IRICut=       1 DoRegI=T DoRafI=F ISym2E= 0 IDoP0=0 IntGTp=1.
 FoFCou: FMM=F IPFlag=           0 FMFlag=      100000 FMFlg1=           0
         NFxFlg=           0 DoJE=F BraDBF=F KetDBF=F FulRan=T
         wScrn=  0.000000 ICntrl=         0 IOpCl=  0 I1Cent=           0 NGrid=           0
         NMat0=    1 NMatS0=      1 NMatT0=    0 NMatD0=    1 NMtDS0=    0 NMtDT0=    0
 Symmetry not used in FoFCou.
 E= -213.970664717008    
 DIIS: error= 4.11D-02 at cycle   1 NSaved=   1.
 NSaved= 1 IEnMin= 1 EnMin= -213.970664717008     IErMin= 1 ErrMin= 4.11D-02
 ErrMax= 4.11D-02  0.00D+00 EMaxC= 1.00D-01 BMatC= 1.55D-01 BMatP= 1.55D-01
 IDIUse=3 WtCom= 5.89D-01 WtEn= 4.11D-01
 Coeff-Com:  0.100D+01
 Coeff-En:   0.100D+01
 Coeff:      0.100D+01
 Gap=     0.259 Goal=   None    Shift=    0.000
 GapD=    0.259 DampG=1.000 DampE=0.500 DampFc=0.5000 IDamp=-1.
 Damping current iteration by 5.00D-01
 RMSDP=9.35D-03 MaxDP=1.38D-01              OVMax= 1.80D-01

 Cycle   2  Pass 0  IDiag  1:
 RMSU=  4.60D-03    CP:  9.74D-01
 E= -214.048469959320     Delta-E=       -0.077805242312 Rises=F Damp=T
 DIIS: error= 7.94D-03 at cycle   2 NSaved=   2.
 NSaved= 2 IEnMin= 2 EnMin= -214.048469959320     IErMin= 2 ErrMin= 7.94D-03
 ErrMax= 7.94D-03  0.00D+00 EMaxC= 1.00D-01 BMatC= 7.06D-03 BMatP= 1.55D-01
 IDIUse=3 WtCom= 9.21D-01 WtEn= 7.94D-02
 Coeff-Com:  0.505D-01 0.950D+00
 Coeff-En:   0.861D-01 0.914D+00
 Coeff:      0.533D-01 0.947D+00
 Gap=     0.310 Goal=   None    Shift=    0.000
 RMSDP=1.64D-03 MaxDP=2.06D-02 DE=-7.78D-02 OVMax= 1.04D-01

 Cycle   3  Pass 0  IDiag  1:
 RMSU=  1.61D-03    CP:  9.75D-01  9.33D-01
 E= -214.141284294809     Delta-E=       -0.092814335489 Rises=F Damp=F
 DIIS: error= 2.26D-03 at cycle   3 NSaved=   3.
 NSaved= 3 IEnMin= 3 EnMin= -214.141284294809     IErMin= 3 ErrMin= 2.26D-03
 ErrMax= 2.26D-03  0.00D+00 EMaxC= 1.00D-01 BMatC= 9.39D-04 BMatP= 7.06D-03
 IDIUse=3 WtCom= 9.77D-01 WtEn= 2.26D-02
 Coeff-Com: -0.185D-01 0.208D+00 0.810D+00
 Coeff-En:   0.000D+00 0.000D+00 0.100D+01
 Coeff:     -0.181D-01 0.204D+00 0.814D+00
 Gap=     0.293 Goal=   None    Shift=    0.000
 RMSDP=4.21D-04 MaxDP=7.03D-03 DE=-9.28D-02 OVMax= 9.97D-03

 Cycle   4  Pass 0  IDiag  1:
 RMSU=  3.57D-04    CP:  9.74D-01  9.61D-01  8.88D-01
 E= -214.141879033691     Delta-E=       -0.000594738882 Rises=F Damp=F
 DIIS: error= 1.37D-03 at cycle   4 NSaved=   4.
 NSaved= 4 IEnMin= 4 EnMin= -214.141879033691     IErMin= 4 ErrMin= 1.37D-03
 ErrMax= 1.37D-03  0.00D+00 EMaxC= 1.00D-01 BMatC= 3.41D-04 BMatP= 9.39D-04
 IDIUse=3 WtCom= 9.86D-01 WtEn= 1.37D-02
 Coeff-Com: -0.123D-01 0.496D-01 0.410D+00 0.553D+00
 Coeff-En:   0.000D+00 0.000D+00 0.226D+00 0.774D+00
 Coeff:     -0.122D-01 0.489D-01 0.408D+00 0.556D+00
 Gap=     0.297 Goal=   None    Shift=    0.000
 RMSDP=1.80D-04 MaxDP=3.24D-03 DE=-5.95D-04 OVMax= 3.95D-03

 Cycle   5  Pass 0  IDiag  1:
 RMSU=  9.93D-05    CP:  9.74D-01  9.51D-01  9.10D-01  6.19D-01
 E= -214.142188767980     Delta-E=       -0.000309734288 Rises=F Damp=F
 DIIS: error= 2.63D-04 at cycle   5 NSaved=   5.
 NSaved= 5 IEnMin= 5 EnMin= -214.142188767980     IErMin= 5 ErrMin= 2.63D-04
 ErrMax= 2.63D-04  0.00D+00 EMaxC= 1.00D-01 BMatC= 1.01D-05 BMatP= 3.41D-04
 IDIUse=3 WtCom= 9.97D-01 WtEn= 2.63D-03
 Coeff-Com: -0.324D-02 0.477D-02 0.938D-01 0.213D+00 0.692D+00
 Coeff-En:   0.000D+00 0.000D+00 0.000D+00 0.000D+00 0.100D+01
 Coeff:     -0.323D-02 0.475D-02 0.935D-01 0.212D+00 0.693D+00
 Gap=     0.296 Goal=   None    Shift=    0.000
 RMSDP=3.19D-05 MaxDP=5.04D-04 DE=-3.10D-04 OVMax= 6.31D-04

 Cycle   6  Pass 0  IDiag  1:
 RMSU=  1.67D-05    CP:  9.74D-01  9.53D-01  9.15D-01  6.42D-01  7.80D-01
 E= -214.142197872755     Delta-E=       -0.000009104775 Rises=F Damp=F
 DIIS: error= 4.09D-05 at cycle   6 NSaved=   6.
 NSaved= 6 IEnMin= 6 EnMin= -214.142197872755     IErMin= 6 ErrMin= 4.09D-05
 ErrMax= 4.09D-05  0.00D+00 EMaxC= 1.00D-01 BMatC= 2.97D-07 BMatP= 1.01D-05
 IDIUse=1 WtCom= 1.00D+00 WtEn= 0.00D+00
 Coeff-Com: -0.106D-02 0.715D-03 0.273D-01 0.716D-01 0.267D+00 0.635D+00
 Coeff:     -0.106D-02 0.715D-03 0.273D-01 0.716D-01 0.267D+00 0.635D+00
 Gap=     0.296 Goal=   None    Shift=    0.000
 RMSDP=5.94D-06 MaxDP=1.30D-04 DE=-9.10D-06 OVMax= 1.60D-04

 Initial convergence to 1.0D-05 achieved.  Increase integral accuracy.
 Cycle   7  Pass 1  IDiag  1:
 E= -214.142185883319     Delta-E=        0.000011989436 Rises=F Damp=F
 DIIS: error= 1.44D-05 at cycle   1 NSaved=   1.
 NSaved= 1 IEnMin= 1 EnMin= -214.142185883319     IErMin= 1 ErrMin= 1.44D-05
 ErrMax= 1.44D-05  0.00D+00 EMaxC= 1.00D-01 BMatC= 4.26D-08 BMatP= 4.26D-08
 IDIUse=1 WtCom= 1.00D+00 WtEn= 0.00D+00
 Coeff-Com:  0.100D+01
 Coeff:      0.100D+01
 Gap=     0.296 Goal=   None    Shift=    0.000
 RMSDP=5.94D-06 MaxDP=1.30D-04 DE= 1.20D-05 OVMax= 1.21D-04

 Cycle   8  Pass 1  IDiag  1:
 RMSU=  3.60D-06    CP:  1.00D+00
 E= -214.142185866697     Delta-E=        0.000000016622 Rises=F Damp=F
 DIIS: error= 1.71D-05 at cycle   2 NSaved=   2.
 NSaved= 2 IEnMin= 1 EnMin= -214.142185883319     IErMin= 1 ErrMin= 1.44D-05
 ErrMax= 1.71D-05  0.00D+00 EMaxC= 1.00D-01 BMatC= 6.48D-08 BMatP= 4.26D-08
 IDIUse=1 WtCom= 1.00D+00 WtEn= 0.00D+00
 Coeff-Com:  0.553D+00 0.447D+00
 Coeff:      0.553D+00 0.447D+00
 Gap=     0.296 Goal=   None    Shift=    0.000
 RMSDP=1.77D-06 MaxDP=5.36D-05 DE= 1.66D-08 OVMax= 6.35D-05

 Cycle   9  Pass 1  IDiag  1:
 RMSU=  8.74D-07    CP:  1.00D+00  5.74D-01
 E= -214.142185919798     Delta-E=       -0.000000053101 Rises=F Damp=F
 DIIS: error= 8.96D-07 at cycle   3 NSaved=   3.
 NSaved= 3 IEnMin= 3 EnMin= -214.142185919798     IErMin= 3 ErrMin= 8.96D-07
 ErrMax= 8.96D-07  0.00D+00 EMaxC= 1.00D-01 BMatC= 1.34D-10 BMatP= 4.26D-08
 IDIUse=1 WtCom= 1.00D+00 WtEn= 0.00D+00
 Coeff-Com:  0.710D-01 0.752D-01 0.854D+00
 Coeff:      0.710D-01 0.752D-01 0.854D+00
 Gap=     0.296 Goal=   None    Shift=    0.000
 RMSDP=1.56D-07 MaxDP=2.77D-06 DE=-5.31D-08 OVMax= 3.32D-06

 Cycle  10  Pass 1  IDiag  1:
 RMSU=  1.52D-07    CP:  1.00D+00  5.80D-01  9.71D-01
 E= -214.142185919868     Delta-E=       -0.000000000070 Rises=F Damp=F
 DIIS: error= 5.25D-07 at cycle   4 NSaved=   4.
 NSaved= 4 IEnMin= 4 EnMin= -214.142185919868     IErMin= 4 ErrMin= 5.25D-07
 ErrMax= 5.25D-07  0.00D+00 EMaxC= 1.00D-01 BMatC= 5.73D-11 BMatP= 1.34D-10
 IDIUse=1 WtCom= 1.00D+00 WtEn= 0.00D+00
 Coeff-Com: -0.291D-02 0.603D-02 0.419D+00 0.578D+00
 Coeff:     -0.291D-02 0.603D-02 0.419D+00 0.578D+00
 Gap=     0.296 Goal=   None    Shift=    0.000
 RMSDP=7.04D-08 MaxDP=1.61D-06 DE=-7.04D-11 OVMax= 1.57D-06

 Cycle  11  Pass 1  IDiag  1:
 RMSU=  4.08D-08    CP:  1.00D+00  5.83D-01  9.93D-01  6.61D-01
 E= -214.142185919920     Delta-E=       -0.000000000052 Rises=F Damp=F
 DIIS: error= 8.86D-08 at cycle   5 NSaved=   5.
 NSaved= 5 IEnMin= 5 EnMin= -214.142185919920     IErMin= 5 ErrMin= 8.86D-08
 ErrMax= 8.86D-08  0.00D+00 EMaxC= 1.00D-01 BMatC= 1.78D-12 BMatP= 5.73D-11
 IDIUse=1 WtCom= 1.00D+00 WtEn= 0.00D+00
 Coeff-Com: -0.464D-02-0.135D-02 0.123D+00 0.234D+00 0.649D+00
 Coeff:     -0.464D-02-0.135D-02 0.123D+00 0.234D+00 0.649D+00
 Gap=     0.296 Goal=   None    Shift=    0.000
 RMSDP=1.53D-08 MaxDP=2.35D-07 DE=-5.17D-11 OVMax= 3.90D-07

 Cycle  12  Pass 1  IDiag  1:
 RMSU=  9.06D-09    CP:  1.00D+00  5.83D-01  9.97D-01  6.69D-01  7.11D-01
 E= -214.142185919921     Delta-E=       -0.000000000000 Rises=F Damp=F
 DIIS: error= 1.83D-08 at cycle   6 NSaved=   6.
 NSaved= 6 IEnMin= 6 EnMin= -214.142185919921     IErMin= 6 ErrMin= 1.83D-08
 ErrMax= 1.83D-08  0.00D+00 EMaxC= 1.00D-01 BMatC= 5.04D-14 BMatP= 1.78D-12
 IDIUse=1 WtCom= 1.00D+00 WtEn= 0.00D+00
 Coeff-Com: -0.117D-02-0.622D-03 0.162D-01 0.404D-01 0.188D+00 0.757D+00
 Coeff:     -0.117D-02-0.622D-03 0.162D-01 0.404D-01 0.188D+00 0.757D+00
 Gap=     0.296 Goal=   None    Shift=    0.000
 RMSDP=3.53D-09 MaxDP=6.68D-08 DE=-4.55D-13 OVMax= 8.04D-08

 SCF Done:  E(RB3LYP) =  -214.142185920     A.U. after   12 cycles
            NFock= 12  Conv=0.35D-08     -V/T= 2.0089
 KE= 2.122624450563D+02 PE=-8.770134115861D+02 EE= 2.554995213228D+02
 Leave Link  502 at Mon Oct 14 00:45:40 2019, MaxMem= 10737418240 cpu:              35.5 elap:               1.5
 (Enter /apps/cent7/gaussian/g16-A.03/g16-haswell/g16/l601.exe)
 Copying SCF densities to generalized density rwf, IOpCl= 0 IROHF=0.

 **********************************************************************

            Population analysis using the SCF density.

 **********************************************************************

 Orbital symmetries:
       Occupied  (A) (A) (A) (A) (A) (A) (A) (A) (A) (A) (A) (A)
                 (A) (A) (A) (A) (A) (A) (A) (A) (A)
       Virtual   (A) (A) (A) (A) (A) (A) (A) (A) (A) (A) (A) (A)
                 (A) (A) (A) (A) (A) (A) (A) (A) (A) (A) (A) (A)
                 (A) (A) (A) (A) (A) (A) (A) (A) (A) (A) (A) (A)
                 (A) (A) (A) (A) (A) (A) (A) (A) (A) (A) (A) (A)
                 (A) (A) (A) (A) (A) (A) (A) (A) (A) (A) (A) (A)
                 (A) (A) (A) (A) (A) (A) (A) (A) (A) (A) (A) (A)
                 (A) (A) (A) (A) (A) (A)
 The electronic state is 1-A.
 Alpha  occ. eigenvalues --  -14.66349 -10.42904 -10.35998 -10.32520 -10.29169
 Alpha  occ. eigenvalues --   -1.23142  -0.97064  -0.89371  -0.82902  -0.81720
 Alpha  occ. eigenvalues --   -0.78950  -0.71710  -0.68209  -0.66352  -0.59478
 Alpha  occ. eigenvalues --   -0.56938  -0.53723  -0.52777  -0.48057  -0.47460
 Alpha  occ. eigenvalues --   -0.46074
 Alpha virt. eigenvalues --   -0.16430  -0.11284  -0.11008  -0.07099  -0.02892
 Alpha virt. eigenvalues --   -0.02203  -0.01397   0.01096   0.02683   0.03331
 Alpha virt. eigenvalues --    0.04345   0.04991   0.06890   0.10052   0.11022
 Alpha virt. eigenvalues --    0.11385   0.31677   0.32500   0.36033   0.37448
 Alpha virt. eigenvalues --    0.42275   0.45446   0.45585   0.48342   0.50515
 Alpha virt. eigenvalues --    0.52904   0.55234   0.59496   0.61570   0.63301
 Alpha virt. eigenvalues --    0.64127   0.64278   0.66224   0.68246   0.70442
 Alpha virt. eigenvalues --    0.72556   0.74736   0.76399   0.78270   0.79430
 Alpha virt. eigenvalues --    0.80799   0.84391   0.86923   0.92051   1.12455
 Alpha virt. eigenvalues --    1.17822   1.18174   1.23745   1.36015   1.42421
 Alpha virt. eigenvalues --    1.55716   1.66150   1.67265   1.73977   1.79517
 Alpha virt. eigenvalues --    1.80475   1.82538   1.84497   1.88526   1.91839
 Alpha virt. eigenvalues --    1.92830   1.97246   2.05007   2.10542   2.10752
 Alpha virt. eigenvalues --    2.18136   2.20517   2.23620   2.26747   2.37457
 Alpha virt. eigenvalues --    2.41631   2.53439   2.61052   3.55488   3.98202
 Alpha virt. eigenvalues --    4.10595   4.21988   4.35501
          Condensed to atoms (all electrons):
               1          2          3          4          5          6
     1  C    5.061982   0.359495  -0.035318   0.004050  -0.000085   0.383898
     2  C    0.359495   4.964132   0.363994  -0.035110   0.003133  -0.031976
     3  C   -0.035318   0.363994   5.120047   0.330587  -0.038501  -0.002355
     4  C    0.004050  -0.035110   0.330587   5.181780   0.136709  -0.000102
     5  N   -0.000085   0.003133  -0.038501   0.136709   6.776358   0.000002
     6  H    0.383898  -0.031976  -0.002355  -0.000102   0.000002   0.532283
     7  H    0.383176  -0.028396   0.003818  -0.000132   0.000001  -0.024788
     8  H    0.380452  -0.042640  -0.009472   0.000220  -0.000003  -0.027139
     9  H   -0.041200   0.389498  -0.047543  -0.006074   0.000003   0.004624
    10  H   -0.039165   0.387851  -0.048047  -0.005224   0.000001  -0.008227
    11  H   -0.001742  -0.034707   0.374769  -0.049720  -0.004342   0.002654
    12  H   -0.003718  -0.033788   0.375541  -0.049725  -0.003662  -0.000289
    13  H   -0.000048  -0.000332  -0.037000   0.388852  -0.042960   0.000006
    14  H   -0.000065  -0.000304  -0.036378   0.389458  -0.043219  -0.000003
    15  H   -0.000018  -0.000204   0.000306  -0.029663   0.297133   0.000001
    16  H    0.000002  -0.000099   0.002131  -0.016341   0.310062   0.000000
    17  H    0.000002  -0.000100   0.002703  -0.016506   0.310142  -0.000000
               7          8          9         10         11         12
     1  C    0.383176   0.380452  -0.041200  -0.039165  -0.001742  -0.003718
     2  C   -0.028396  -0.042640   0.389498   0.387851  -0.034707  -0.033788
     3  C    0.003818  -0.009472  -0.047543  -0.048047   0.374769   0.375541
     4  C   -0.000132   0.000220  -0.006074  -0.005224  -0.049720  -0.049725
     5  N    0.000001  -0.000003   0.000003   0.000001  -0.004342  -0.003662
     6  H   -0.024788  -0.027139   0.004624  -0.008227   0.002654  -0.000289
     7  H    0.511810  -0.025817  -0.007194   0.000621  -0.000071   0.000125
     8  H   -0.025817   0.555166   0.000754   0.005217   0.000230   0.005502
     9  H   -0.007194   0.000754   0.555896  -0.019340   0.005686  -0.004529
    10  H    0.000621   0.005217  -0.019340   0.553823  -0.004626   0.005567
    11  H   -0.000071   0.000230   0.005686  -0.004626   0.551322  -0.022068
    12  H    0.000125   0.005502  -0.004529   0.005567  -0.022068   0.551601
    13  H   -0.000001   0.000011   0.004478  -0.000227   0.005077  -0.004219
    14  H    0.000002   0.000013  -0.000243   0.004182  -0.004336   0.005047
    15  H    0.000000   0.000010   0.000054   0.000050   0.006379   0.004661
    16  H   -0.000000   0.000000   0.000014   0.000002   0.000070   0.000263
    17  H   -0.000000   0.000000   0.000001   0.000014   0.000007   0.000090
              13         14         15         16         17
     1  C   -0.000048  -0.000065  -0.000018   0.000002   0.000002
     2  C   -0.000332  -0.000304  -0.000204  -0.000099  -0.000100
     3  C   -0.037000  -0.036378   0.000306   0.002131   0.002703
     4  C    0.388852   0.389458  -0.029663  -0.016341  -0.016506
     5  N   -0.042960  -0.043219   0.297133   0.310062   0.310142
     6  H    0.000006  -0.000003   0.000001   0.000000  -0.000000
     7  H   -0.000001   0.000002   0.000000  -0.000000  -0.000000
     8  H    0.000011   0.000013   0.000010   0.000000   0.000000
     9  H    0.004478  -0.000243   0.000054   0.000014   0.000001
    10  H   -0.000227   0.004182   0.000050   0.000002   0.000014
    11  H    0.005077  -0.004336   0.006379   0.000070   0.000007
    12  H   -0.004219   0.005047   0.004661   0.000263   0.000090
    13  H    0.472262  -0.013799   0.004461  -0.005743   0.001752
    14  H   -0.013799   0.471876   0.003793   0.002380  -0.005651
    15  H    0.004461   0.003793   0.305612  -0.011410  -0.012021
    16  H   -0.005743   0.002380  -0.011410   0.293817  -0.011183
    17  H    0.001752  -0.005651  -0.012021  -0.011183   0.294467
 Mulliken charges:
               1
     1  C   -0.451698
     2  C   -0.260447
     3  C   -0.319283
     4  C   -0.223059
     5  N   -0.700771
     6  H    0.171412
     7  H    0.186847
     8  H    0.157495
     9  H    0.165112
    10  H    0.167528
    11  H    0.175417
    12  H    0.173599
    13  H    0.227431
    14  H    0.227247
    15  H    0.430856
    16  H    0.436033
    17  H    0.436282
 Sum of Mulliken charges =   1.00000
 Mulliken charges with hydrogens summed into heavy atoms:
               1
     1  C    0.064055
     2  C    0.072193
     3  C    0.029733
     4  C    0.231620
     5  N    0.602399
 Electronic spatial extent (au):  <R**2>=            693.4168
 Charge=              1.0000 electrons
 Dipole moment (field-independent basis, Debye):
    X=              8.8524    Y=             -0.9277    Z=             -0.0084  Tot=              8.9009
 Quadrupole moment (field-independent basis, Debye-Ang):
   XX=             -2.7213   YY=            -30.3593   ZZ=            -28.0374
   XY=             -3.1360   XZ=             -0.0103   YZ=             -0.0102
 Traceless Quadrupole moment (field-independent basis, Debye-Ang):
   XX=             17.6514   YY=             -9.9867   ZZ=             -7.6647
   XY=             -3.1360   XZ=             -0.0103   YZ=             -0.0102
 Octapole moment (field-independent basis, Debye-Ang**2):
  XXX=             81.2961  YYY=             -4.6352  ZZZ=              0.2534  XYY=              9.6381
  XXY=             -6.1807  XXZ=             -0.3578  XZZ=             11.1379  YZZ=              0.5910
  YYZ=             -0.1503  XYZ=              0.5444
 Hexadecapole moment (field-independent basis, Debye-Ang**3):
 XXXX=           -474.9091 YYYY=            -96.7948 ZZZZ=            -57.0480 XXXY=            -26.7265
 XXXZ=              3.3982 YYYX=            -10.4978 YYYZ=              0.3429 ZZZX=             -2.8504
 ZZZY=             -0.2105 XXYY=           -126.9479 XXZZ=           -104.2112 YYZZ=            -23.7742
 XXYZ=             -0.9465 YYXZ=              1.1513 ZZXY=             -0.9064
 N-N= 1.951092592871D+02 E-N=-8.770134150958D+02  KE= 2.122624450563D+02
 No NMR shielding tensors so no spin-rotation constants.
 Leave Link  601 at Mon Oct 14 00:45:40 2019, MaxMem= 10737418240 cpu:               2.1 elap:               0.1
 (Enter /apps/cent7/gaussian/g16-A.03/g16-haswell/g16/l701.exe)
 ... and contract with generalized density number  0.
 Compute integral first derivatives.
 Leave Link  701 at Mon Oct 14 00:45:40 2019, MaxMem= 10737418240 cpu:               3.5 elap:               0.2
 (Enter /apps/cent7/gaussian/g16-A.03/g16-haswell/g16/l702.exe)
 L702 exits ... SP integral derivatives will be done elsewhere.
 Leave Link  702 at Mon Oct 14 00:45:40 2019, MaxMem= 10737418240 cpu:               0.5 elap:               0.0
 (Enter /apps/cent7/gaussian/g16-A.03/g16-haswell/g16/l703.exe)
 Integral derivatives from FoFJK, PRISM(SPDF).
 Compute integral first derivatives, UseDBF=F ICtDFT=           0.
 Calling FoFJK, ICntrl=      2127 FMM=F ISym2X=0 I1Cent= 0 IOpClX= 0 NMat=1 NMatS=1 NMatT=0.
 FoFJK:  IHMeth= 1 ICntrl=    2127 DoSepK=F KAlg= 0 I1Cent=           0 FoldK=F
 IRaf=         0 NMat=       1 IRICut=       1 DoRegI=T DoRafI=F ISym2E= 0 IDoP0=0 IntGTp=1.
 FoFCou: FMM=F IPFlag=           0 FMFlag=      100000 FMFlg1=         800
         NFxFlg=           0 DoJE=F BraDBF=F KetDBF=F FulRan=T
         wScrn=  0.000000 ICntrl=      2127 IOpCl=  0 I1Cent=           0 NGrid=           0
         NMat0=    1 NMatS0=      1 NMatT0=    0 NMatD0=    1 NMtDS0=    0 NMtDT0=    0
 Symmetry not used in FoFCou.
 Leave Link  703 at Mon Oct 14 00:45:41 2019, MaxMem= 10737418240 cpu:              10.1 elap:               0.4
 (Enter /apps/cent7/gaussian/g16-A.03/g16-haswell/g16/l716.exe)
 Dipole        = 3.48279336D+00-3.64996958D-01-3.29713478D-03
 ***** Axes restored to original set *****
 -------------------------------------------------------------------
 Center     Atomic                   Forces (Hartrees/Bohr)
 Number     Number              X              Y              Z
 -------------------------------------------------------------------
      1        6           0.000071170    0.009321428    0.008329063
      2        6           0.020076780    0.005800569   -0.005539878
      3        6          -0.021535437   -0.003638852    0.006953131
      4        6          -0.007607168   -0.039971404   -0.021961141
      5        7           0.001647531    0.003875129    0.001557881
      6        1           0.003837975   -0.003084292   -0.002900437
      7        1           0.001151856   -0.002868732   -0.001201069
      8        1           0.002788253   -0.002792501   -0.005913791
      9        1          -0.014236659   -0.004511179    0.011513393
     10        1          -0.020977631    0.002115786   -0.000431904
     11        1           0.015723181    0.004985671   -0.009591934
     12        1           0.018580916   -0.000847583   -0.001412982
     13        1          -0.012114987   -0.006667394    0.012659104
     14        1          -0.017870846    0.002744591   -0.002388737
     15        1           0.025602011    0.002037516   -0.006623166
     16        1          -0.001372023    0.023949763   -0.004844155
     17        1           0.006235079    0.009551483    0.021796624
 -------------------------------------------------------------------
 Cartesian Forces:  Max     0.039971404 RMS     0.012131100
 Leave Link  716 at Mon Oct 14 00:45:41 2019, MaxMem= 10737418240 cpu:               0.6 elap:               0.0
 (Enter /apps/cent7/gaussian/g16-A.03/g16-haswell/g16/l103.exe)

 GradGradGradGradGradGradGradGradGradGradGradGradGradGradGradGradGradGrad
 Berny optimization.
 FormGI is forming the generalized inverse of G from B-inverse, IUseBI=4.
 Internal  Forces:  Max     0.052195454 RMS     0.009203874
 Search for a local minimum.
 Step number   1 out of a maximum of   92
 All quantities printed in internal units (Hartrees-Bohrs-Radians)
 RMS Force = .92039D-02 SwitMx=.10000D-02 MixMth= 1
 Mixed Optimization -- RFO/linear search
 Second derivative matrix not updated -- first step.
 ITU=  0
     Eigenvalues ---    0.00230   0.00230   0.00230   0.00830   0.03907
     Eigenvalues ---    0.03951   0.04385   0.05128   0.05142   0.05341
     Eigenvalues ---    0.05715   0.05715   0.06107   0.06107   0.07685
     Eigenvalues ---    0.07784   0.07852   0.11630   0.11804   0.11857
     Eigenvalues ---    0.16000   0.16000   0.16000   0.16000   0.16000
     Eigenvalues ---    0.16000   0.22463   0.22510   0.22520   0.27507
     Eigenvalues ---    0.27831   0.27966   0.34808   0.34808   0.34809
     Eigenvalues ---    0.34810   0.34813   0.34814   0.34814   0.34816
     Eigenvalues ---    0.34820   0.36330   0.47688   0.47688   0.47688
 RFO step:  Lambda=-2.90178039D-02 EMin= 2.30000000D-03
 Linear search not attempted -- first point.
 Maximum step size (   0.300) exceeded in Quadratic search.
    -- Step size scaled by   0.925
 Iteration  1 RMS(Cart)=  0.05120518 RMS(Int)=  0.00104495
 Iteration  2 RMS(Cart)=  0.00105044 RMS(Int)=  0.00026661
 Iteration  3 RMS(Cart)=  0.00000034 RMS(Int)=  0.00026661
 ITry= 1 IFail=0 DXMaxC= 1.56D-01 DCOld= 1.00D+10 DXMaxT= 3.00D-01 DXLimC= 3.00D+00 Rises=F
 Variable       Old X    -DE/DX   Delta X   Delta X   Delta X     New X
                                 (Linear)    (Quad)   (Total)
    R1        2.92213   0.00444   0.00000   0.01330   0.01330   2.93543
    R2        2.05968   0.00242   0.00000   0.00594   0.00594   2.06563
    R3        2.05986   0.00130   0.00000   0.00318   0.00318   2.06305
    R4        2.05988   0.00375   0.00000   0.00921   0.00921   2.06909
    R5        2.93230  -0.00000   0.00000  -0.00001  -0.00001   2.93229
    R6        2.05978   0.00282   0.00000   0.00691   0.00691   2.06669
    R7        2.05978   0.00258   0.00000   0.00634   0.00634   2.06611
    R8        2.92509  -0.00013   0.00000  -0.00038  -0.00038   2.92471
    R9        2.05988   0.00476   0.00000   0.01167   0.01167   2.07155
   R10        2.05979   0.00435   0.00000   0.01067   0.01067   2.07046
   R11        2.76869   0.05220   0.00000   0.12309   0.12309   2.89178
   R12        2.05974  -0.00009   0.00000  -0.00021  -0.00021   2.05953
   R13        2.05984  -0.00012   0.00000  -0.00029  -0.00029   2.05955
   R14        1.88973   0.02554   0.00000   0.04670   0.04670   1.93643
   R15        1.88973   0.02264   0.00000   0.04140   0.04140   1.93113
   R16        1.88973   0.02278   0.00000   0.04166   0.04166   1.93138
    A1        1.91070   0.00564   0.00000   0.02849   0.02811   1.93880
    A2        1.91064   0.00152   0.00000   0.00555   0.00547   1.91611
    A3        1.91060   0.00689   0.00000   0.03473   0.03433   1.94493
    A4        1.91069  -0.00401   0.00000  -0.02167  -0.02172   1.88897
    A5        1.91062  -0.00546   0.00000  -0.02292  -0.02359   1.88703
    A6        1.91055  -0.00458   0.00000  -0.02419  -0.02428   1.88627
    A7        1.96381  -0.01372   0.00000  -0.02997  -0.02979   1.93402
    A8        1.85116   0.00679   0.00000   0.04174   0.04190   1.89307
    A9        1.85112   0.00676   0.00000   0.04074   0.04091   1.89204
   A10        1.85327   0.00570   0.00000   0.03213   0.03233   1.88560
   A11        1.85332   0.00550   0.00000   0.03008   0.03029   1.88361
   A12        2.09438  -0.01285   0.00000  -0.11856  -0.11835   1.97603
   A13        1.97138  -0.01510   0.00000  -0.03697  -0.03660   1.93479
   A14        1.85140   0.00644   0.00000   0.03581   0.03614   1.88754
   A15        1.85139   0.00593   0.00000   0.03254   0.03288   1.88427
   A16        1.84977   0.00619   0.00000   0.03481   0.03513   1.88490
   A17        1.84978   0.00668   0.00000   0.03787   0.03817   1.88795
   A18        2.09435  -0.01220   0.00000  -0.10946  -0.10935   1.98500
   A19        1.92753  -0.00850   0.00000  -0.01175  -0.01201   1.91552
   A20        1.87678   0.00449   0.00000   0.02657   0.02644   1.90322
   A21        1.87668   0.00470   0.00000   0.02805   0.02792   1.90460
   A22        1.84292   0.00509   0.00000   0.03457   0.03446   1.87738
   A23        1.84290   0.00492   0.00000   0.03361   0.03349   1.87640
   A24        2.09446  -0.01154   0.00000  -0.10897  -0.10865   1.98581
   A25        1.91063   0.00591   0.00000   0.02866   0.02801   1.93864
   A26        1.91063   0.00920   0.00000   0.04508   0.04421   1.95484
   A27        1.91063   0.00916   0.00000   0.04507   0.04419   1.95482
   A28        1.91063  -0.00768   0.00000  -0.03809  -0.03868   1.87195
   A29        1.91063  -0.00755   0.00000  -0.03699  -0.03760   1.87303
   A30        1.91063  -0.00905   0.00000  -0.04373  -0.04475   1.86589
    D1        1.51473  -0.00046   0.00000  -0.02159  -0.02143   1.49330
    D2       -2.74942   0.00333   0.00000   0.02642   0.02658  -2.72284
    D3       -0.50434  -0.00399   0.00000  -0.06653  -0.06636  -0.57070
    D4       -2.67395  -0.00099   0.00000  -0.02727  -0.02729  -2.70124
    D5       -0.65492   0.00280   0.00000   0.02074   0.02072  -0.63419
    D6        1.59017  -0.00452   0.00000  -0.07222  -0.07222   1.51795
    D7       -0.57967  -0.00145   0.00000  -0.03223  -0.03239  -0.61206
    D8        1.43937   0.00234   0.00000   0.01578   0.01562   1.45499
    D9       -2.59873  -0.00498   0.00000  -0.07718  -0.07732  -2.67605
   D10        3.13960   0.00025   0.00000   0.00438   0.00439  -3.13919
   D11       -1.12467   0.00372   0.00000   0.04878   0.04874  -1.07593
   D12        1.12069  -0.00351   0.00000  -0.04171  -0.04168   1.07900
   D13        1.12184  -0.00417   0.00000  -0.04941  -0.04942   1.07242
   D14        3.14075  -0.00070   0.00000  -0.00501  -0.00506   3.13569
   D15       -0.89708  -0.00794   0.00000  -0.09550  -0.09549  -0.99257
   D16       -1.12584   0.00452   0.00000   0.05573   0.05575  -1.07009
   D17        0.89307   0.00799   0.00000   0.10013   0.10010   0.99318
   D18        3.13843   0.00076   0.00000   0.00964   0.00968  -3.13508
   D19       -3.13087   0.00005   0.00000  -0.00010  -0.00009  -3.13095
   D20       -1.12824   0.00418   0.00000   0.04960   0.04968  -1.07855
   D21        1.14976  -0.00398   0.00000  -0.04948  -0.04955   1.10021
   D22        1.13243  -0.00359   0.00000  -0.04511  -0.04507   1.08737
   D23        3.13506   0.00054   0.00000   0.00459   0.00470   3.13977
   D24       -0.87012  -0.00763   0.00000  -0.09449  -0.09453  -0.96465
   D25       -1.11098   0.00338   0.00000   0.04283   0.04278  -1.06820
   D26        0.89165   0.00750   0.00000   0.09253   0.09256   0.98421
   D27       -3.11354  -0.00066   0.00000  -0.00655  -0.00668  -3.12022
   D28       -0.08810  -0.00025   0.00000  -0.00583  -0.00582  -0.09392
   D29        2.00629  -0.00039   0.00000  -0.00732  -0.00743   1.99886
   D30       -2.18250  -0.00023   0.00000  -0.00568  -0.00557  -2.18807
   D31       -2.11199  -0.00414   0.00000  -0.05030  -0.05038  -2.16237
   D32       -0.01759  -0.00429   0.00000  -0.05179  -0.05199  -0.06959
   D33        2.07680  -0.00413   0.00000  -0.05014  -0.05013   2.02667
   D34        1.93566   0.00381   0.00000   0.03985   0.03994   1.97561
   D35       -2.25313   0.00366   0.00000   0.03835   0.03833  -2.21479
   D36       -0.15873   0.00382   0.00000   0.04000   0.04020  -0.11854
         Item               Value     Threshold  Converged?
 Maximum Force            0.052195     0.000450     NO 
 RMS     Force            0.009204     0.000300     NO 
 Maximum Displacement     0.155693     0.001800     NO 
 RMS     Displacement     0.051090     0.001200     NO 
 Predicted change in Energy=-1.698875D-02
 Lowest energy point so far.  Saving SCF results.
 GradGradGradGradGradGradGradGradGradGradGradGradGradGradGradGradGradGrad

 Leave Link  103 at Mon Oct 14 00:45:41 2019, MaxMem= 10737418240 cpu:               0.8 elap:               0.1
 (Enter /apps/cent7/gaussian/g16-A.03/g16-haswell/g16/l202.exe)
                          Input orientation:                          
 ---------------------------------------------------------------------
 Center     Atomic      Atomic             Coordinates (Angstroms)
 Number     Number       Type             X           Y           Z
 ---------------------------------------------------------------------
      1          6           0        1.835542   -0.652085   -1.467197
      2          6           0        1.070024    0.319732   -0.527787
      3          6           0        1.972800    1.511987   -0.113899
      4          6           0        1.212149    2.479153    0.824901
      5          7           0        2.119353    3.651519    1.204695
      6          1           0        2.417219   -1.377712   -0.892787
      7          1           0        1.125710   -1.199752   -2.090130
      8          1           0        2.521626   -0.112366   -2.128127
      9          1           0        0.208784    0.719535   -1.070445
     10          1           0        0.793311   -0.223672    0.379701
     11          1           0        2.833710    1.113737    0.435571
     12          1           0        2.244979    2.060926   -1.022200
     13          1           0        0.352206    2.887220    0.294083
     14          1           0        0.952596    1.954224    1.744082
     15          1           0        3.067054    3.517741    0.838627
     16          1           0        1.773671    4.538870    0.834007
     17          1           0        2.197399    3.762777    2.217664
 ---------------------------------------------------------------------
                    Distance matrix (angstroms):
                    1          2          3          4          5
     1  C    0.000000
     2  C    1.553364   0.000000
     3  C    2.556064   1.551703   0.000000
     4  C    3.930266   2.552071   1.547691   0.000000
     5  N    5.073516   3.899153   2.517492   1.530263   0.000000
     6  H    1.093082   2.197606   3.025646   4.390678   5.457226
     7  H    1.091717   2.180103   3.460720   4.694595   5.947944
     8  H    1.094913   2.203395   2.645156   4.141386   5.043447
     9  H    2.164509   1.093643   2.157478   2.774046   4.174094
    10  H    2.163520   1.093340   2.155771   2.771082   4.178051
    11  H    2.781185   2.160808   1.096214   2.155319   2.746306
    12  H    2.779585   2.157944   1.095639   2.157182   2.739494
    13  H    4.222449   2.789754   2.164264   1.089857   2.129830
    14  H    4.229037   2.801204   2.165291   1.089869   2.129101
    15  H    4.921473   4.010296   2.475428   2.125917   1.024714
    16  H    5.678501   4.488956   3.178080   2.134905   1.021908
    17  H    5.761957   4.545661   3.248489   2.134993   1.022045
                    6          7          8          9         10
     6  H    0.000000
     7  H    1.770112   0.000000
     8  H    1.771459   1.769868   0.000000
     9  H    3.050769   2.358851   2.675816   0.000000
    10  H    2.363918   2.676432   3.047731   1.825989   0.000000
    11  H    2.854000   3.827357   2.858894   3.051838   2.440289
    12  H    3.445380   3.609053   2.454141   2.438801   3.048288
    13  H    4.884934   4.794385   4.423913   2.565417   3.143176
    14  H    4.494440   4.967768   4.661186   3.162163   2.574906
    15  H    5.233119   5.882276   4.719831   4.432180   4.402124
    16  H    6.196927   6.473192   5.564861   4.545671   4.883575
    17  H    6.012308   6.658250   5.831617   4.901792   4.608834
                   11         12         13         14         15
    11  H    0.000000
    12  H    1.835448   0.000000
    13  H    3.053379   2.449071   0.000000
    14  H    2.440739   3.055153   1.825774   0.000000
    15  H    2.448702   2.502158   2.839803   2.781253   0.000000
    16  H    3.607488   3.131747   2.245000   2.860558   1.647897
    17  H    3.255481   3.659956   2.805619   2.246036   1.648661
                   16         17
    16  H    0.000000
    17  H    1.642063   0.000000
 Stoichiometry    C4H12N(1+)
 Framework group  C1[X(C4H12N)]
 Deg. of freedom    45
 Full point group                 C1      NOp   1
 RotChk:  IX=0 Diff= 8.13D-03
 Largest Abelian subgroup         C1      NOp   1
 Largest concise Abelian subgroup C1      NOp   1
                         Standard orientation:                         
 ---------------------------------------------------------------------
 Center     Atomic      Atomic             Coordinates (Angstroms)
 Number     Number       Type             X           Y           Z
 ---------------------------------------------------------------------
      1          6           0       -2.603437   -0.342640    0.000218
      2          6           0       -1.331883    0.549590   -0.003716
      3          6           0       -0.047468   -0.321037    0.004367
      4          6           0        1.220116    0.566981    0.003924
      5          7           0        2.470007   -0.315870   -0.003361
      6          1           0       -2.881695   -0.626229    1.018540
      7          1           0       -3.438964    0.202782   -0.442791
      8          1           0       -2.450881   -1.259275   -0.578870
      9          1           0       -1.330507    1.146631   -0.920010
     10          1           0       -1.332949    1.156133    0.905952
     11          1           0       -0.043966   -0.915862    0.925158
     12          1           0       -0.042411   -0.924229   -0.910270
     13          1           0        1.234807    1.165425   -0.906810
     14          1           0        1.241924    1.158664    0.918938
     15          1           0        2.222044   -1.306353    0.083220
     16          1           0        3.006998   -0.212162   -0.866600
     17          1           0        3.101583   -0.091798    0.768312
 ---------------------------------------------------------------------
 Rotational constants (GHZ):          16.6089007           1.8667152           1.7722411
 Leave Link  202 at Mon Oct 14 00:45:41 2019, MaxMem= 10737418240 cpu:               0.2 elap:               0.0
 (Enter /apps/cent7/gaussian/g16-A.03/g16-haswell/g16/l301.exe)
 Standard basis: 6-31G(d) (6D, 7F)
 Ernie: Thresh=  0.10000D-02 Tol=  0.10000D-05 Strict=F.
 There are    99 symmetry adapted cartesian basis functions of A   symmetry.
 There are    99 symmetry adapted basis functions of A   symmetry.
    99 basis functions,   188 primitive gaussians,    99 cartesian basis functions
    21 alpha electrons       21 beta electrons
       nuclear repulsion energy       193.1555315941 Hartrees.
 IExCor=  402 DFT=T Ex+Corr=B3LYP ExCW=0 ScaHFX=  0.200000
 ScaDFX=  0.800000  0.720000  1.000000  0.810000 ScalE2=  1.000000  1.000000
 IRadAn=      5 IRanWt=     -1 IRanGd=            0 ICorTp=0 IEmpDi=  4
 NAtoms=   17 NActive=   17 NUniq=   17 SFac= 1.00D+00 NAtFMM=   60 NAOKFM=F Big=F
 Integral buffers will be    131072 words long.
 Raffenetti 2 integral format.
 Two-electron integral symmetry is turned on.
 Leave Link  301 at Mon Oct 14 00:45:41 2019, MaxMem= 10737418240 cpu:               1.9 elap:               0.1
 (Enter /apps/cent7/gaussian/g16-A.03/g16-haswell/g16/l302.exe)
 NPDir=0 NMtPBC=     1 NCelOv=     1 NCel=       1 NClECP=     1 NCelD=      1
         NCelK=      1 NCelE2=     1 NClLst=     1 CellRange=     0.0.
 One-electron integrals computed using PRISM.
 One-electron integral symmetry used in STVInt
 NBasis=    99 RedAO= T EigKep=  3.76D-03  NBF=    99
 NBsUse=    99 1.00D-06 EigRej= -1.00D+00 NBFU=    99
 Precomputing XC quadrature grid using
 IXCGrd= 4 IRadAn=           5 IRanWt=          -1 IRanGd=           0 AccXCQ= 0.00D+00.
 Generated NRdTot=       0 NPtTot=           0 NUsed=           0 NTot=          32
 NSgBfM=    99    99    99    99    99 MxSgAt=    17 MxSgA2=    17.
 Leave Link  302 at Mon Oct 14 00:45:41 2019, MaxMem= 10737418240 cpu:               2.8 elap:               0.1
 (Enter /apps/cent7/gaussian/g16-A.03/g16-haswell/g16/l303.exe)
 DipDrv:  MaxL=1.
 Leave Link  303 at Mon Oct 14 00:45:41 2019, MaxMem= 10737418240 cpu:               0.5 elap:               0.0
 (Enter /apps/cent7/gaussian/g16-A.03/g16-haswell/g16/l401.exe)
 Initial guess from the checkpoint file:  "18_p.chk"
 B after Tr=     0.000000    0.000000   -0.000000
         Rot=    0.999996   -0.001960   -0.000148   -0.001824 Ang=  -0.31 deg.
 Guess basis will be translated and rotated to current coordinates.
 JPrj=2 DoOrth=T DoCkMO=T.
 Generating alternative initial guess.
 ExpMin= 1.61D-01 ExpMax= 4.17D+03 ExpMxC= 6.27D+02 IAcc=2 IRadAn=         4 AccDes= 0.00D+00
 Harris functional with IExCor=  402 and IRadAn=       4 diagonalized for initial guess.
 HarFok:  IExCor=  402 AccDes= 0.00D+00 IRadAn=         4 IDoV= 1 UseB2=F ITyADJ=14
 ICtDFT=  3500011 ScaDFX=  1.000000  1.000000  1.000000  1.000000
 FoFCou: FMM=F IPFlag=           0 FMFlag=      100000 FMFlg1=           0
         NFxFlg=           0 DoJE=T BraDBF=F KetDBF=T FulRan=T
         wScrn=  0.000000 ICntrl=       500 IOpCl=  0 I1Cent=   200000004 NGrid=           0
         NMat0=    1 NMatS0=      1 NMatT0=    0 NMatD0=    1 NMtDS0=    0 NMtDT0=    0
 Petite list used in FoFCou.
 Harris En= -214.242219531569    
 Leave Link  401 at Mon Oct 14 00:45:42 2019, MaxMem= 10737418240 cpu:               5.9 elap:               0.3
 (Enter /apps/cent7/gaussian/g16-A.03/g16-haswell/g16/l502.exe)
 Integral symmetry usage will be decided dynamically.
 Closed shell SCF:
 Using DIIS extrapolation, IDIIS=  1040.
 NGot= 10737418240 LenX= 10737394826 LenY= 10737384584
 Requested convergence on RMS density matrix=1.00D-08 within 128 cycles.
 Requested convergence on MAX density matrix=1.00D-06.
 Requested convergence on             energy=1.00D-06.
 No special actions if energy rises.
 Fock matrices will be formed incrementally for  20 cycles.
 Integral accuracy reduced to 1.0D-05 until final iterations.

 Cycle   1  Pass 0  IDiag  1:
 FoFJK:  IHMeth= 1 ICntrl=       0 DoSepK=F KAlg= 0 I1Cent=           0 FoldK=F
 IRaf= 970000000 NMat=       1 IRICut=       1 DoRegI=T DoRafI=F ISym2E= 0 IDoP0=0 IntGTp=1.
 FoFCou: FMM=F IPFlag=           0 FMFlag=      100000 FMFlg1=           0
         NFxFlg=           0 DoJE=F BraDBF=F KetDBF=F FulRan=T
         wScrn=  0.000000 ICntrl=         0 IOpCl=  0 I1Cent=           0 NGrid=           0
         NMat0=    1 NMatS0=      1 NMatT0=    0 NMatD0=    1 NMtDS0=    0 NMtDT0=    0
 Symmetry not used in FoFCou.
 E= -214.156240630583    
 DIIS: error= 3.04D-03 at cycle   1 NSaved=   1.
 NSaved= 1 IEnMin= 1 EnMin= -214.156240630583     IErMin= 1 ErrMin= 3.04D-03
 ErrMax= 3.04D-03  0.00D+00 EMaxC= 1.00D-01 BMatC= 2.08D-03 BMatP= 2.08D-03
 IDIUse=3 WtCom= 9.70D-01 WtEn= 3.04D-02
 Coeff-Com:  0.100D+01
 Coeff-En:   0.100D+01
 Coeff:      0.100D+01
 Gap=     1.681 Goal=   None    Shift=    0.000
 GapD=    1.681 DampG=2.000 DampE=1.000 DampFc=2.0000 IDamp=-1.
 RMSDP=7.26D-04 MaxDP=1.17D-02              OVMax= 1.62D-02

 Cycle   2  Pass 0  IDiag  1:
 RMSU=  7.23D-04    CP:  9.98D-01
 E= -214.158344284048     Delta-E=       -0.002103653465 Rises=F Damp=F
 DIIS: error= 1.95D-03 at cycle   2 NSaved=   2.
 NSaved= 2 IEnMin= 2 EnMin= -214.158344284048     IErMin= 2 ErrMin= 1.95D-03
 ErrMax= 1.95D-03  0.00D+00 EMaxC= 1.00D-01 BMatC= 7.55D-04 BMatP= 2.08D-03
 IDIUse=3 WtCom= 9.80D-01 WtEn= 1.95D-02
 Coeff-Com:  0.333D+00 0.667D+00
 Coeff-En:   0.000D+00 0.100D+01
 Coeff:      0.327D+00 0.673D+00
 Gap=     0.301 Goal=   None    Shift=    0.000
 RMSDP=3.02D-04 MaxDP=9.01D-03 DE=-2.10D-03 OVMax= 9.46D-03

 Cycle   3  Pass 0  IDiag  1:
 RMSU=  2.75D-04    CP:  9.99D-01  8.47D-01
 E= -214.158780245953     Delta-E=       -0.000435961905 Rises=F Damp=F
 DIIS: error= 1.40D-03 at cycle   3 NSaved=   3.
 NSaved= 3 IEnMin= 3 EnMin= -214.158780245953     IErMin= 3 ErrMin= 1.40D-03
 ErrMax= 1.40D-03  0.00D+00 EMaxC= 1.00D-01 BMatC= 2.51D-04 BMatP= 7.55D-04
 IDIUse=3 WtCom= 9.86D-01 WtEn= 1.40D-02
 Coeff-Com: -0.231D-02 0.363D+00 0.640D+00
 Coeff-En:   0.000D+00 0.249D+00 0.751D+00
 Coeff:     -0.228D-02 0.361D+00 0.641D+00
 Gap=     0.303 Goal=   None    Shift=    0.000
 RMSDP=1.12D-04 MaxDP=3.64D-03 DE=-4.36D-04 OVMax= 3.66D-03

 Cycle   4  Pass 0  IDiag  1:
 RMSU=  5.22D-05    CP:  9.99D-01  9.21D-01  7.04D-01
 E= -214.158984031789     Delta-E=       -0.000203785836 Rises=F Damp=F
 DIIS: error= 1.44D-04 at cycle   4 NSaved=   4.
 NSaved= 4 IEnMin= 4 EnMin= -214.158984031789     IErMin= 4 ErrMin= 1.44D-04
 ErrMax= 1.44D-04  0.00D+00 EMaxC= 1.00D-01 BMatC= 3.56D-06 BMatP= 2.51D-04
 IDIUse=3 WtCom= 9.99D-01 WtEn= 1.44D-03
 Coeff-Com: -0.100D-01 0.119D+00 0.243D+00 0.648D+00
 Coeff-En:   0.000D+00 0.000D+00 0.000D+00 0.100D+01
 Coeff:     -0.100D-01 0.118D+00 0.243D+00 0.649D+00
 Gap=     0.303 Goal=   None    Shift=    0.000
 RMSDP=2.21D-05 MaxDP=3.42D-04 DE=-2.04D-04 OVMax= 5.59D-04

 Cycle   5  Pass 0  IDiag  1:
 RMSU=  1.59D-05    CP:  9.99D-01  9.29D-01  7.14D-01  7.34D-01
 E= -214.158986946009     Delta-E=       -0.000002914220 Rises=F Damp=F
 DIIS: error= 6.64D-05 at cycle   5 NSaved=   5.
 NSaved= 5 IEnMin= 5 EnMin= -214.158986946009     IErMin= 5 ErrMin= 6.64D-05
 ErrMax= 6.64D-05  0.00D+00 EMaxC= 1.00D-01 BMatC= 3.93D-07 BMatP= 3.56D-06
 IDIUse=1 WtCom= 1.00D+00 WtEn= 0.00D+00
 Coeff-Com: -0.447D-02 0.298D-01 0.677D-01 0.303D+00 0.604D+00
 Coeff:     -0.447D-02 0.298D-01 0.677D-01 0.303D+00 0.604D+00
 Gap=     0.303 Goal=   None    Shift=    0.000
 RMSDP=6.48D-06 MaxDP=1.38D-04 DE=-2.91D-06 OVMax= 1.44D-04

 Initial convergence to 1.0D-05 achieved.  Increase integral accuracy.
 Cycle   6  Pass 1  IDiag  1:
 E= -214.158968498804     Delta-E=        0.000018447205 Rises=F Damp=F
 DIIS: error= 6.79D-06 at cycle   1 NSaved=   1.
 NSaved= 1 IEnMin= 1 EnMin= -214.158968498804     IErMin= 1 ErrMin= 6.79D-06
 ErrMax= 6.79D-06  0.00D+00 EMaxC= 1.00D-01 BMatC= 5.98D-09 BMatP= 5.98D-09
 IDIUse=1 WtCom= 1.00D+00 WtEn= 0.00D+00
 Coeff-Com:  0.100D+01
 Coeff:      0.100D+01
 Gap=     0.303 Goal=   None    Shift=    0.000
 RMSDP=6.48D-06 MaxDP=1.38D-04 DE= 1.84D-05 OVMax= 3.49D-05

 Cycle   7  Pass 1  IDiag  1:
 RMSU=  1.81D-06    CP:  1.00D+00
 E= -214.158968500795     Delta-E=       -0.000000001991 Rises=F Damp=F
 DIIS: error= 6.75D-06 at cycle   2 NSaved=   2.
 NSaved= 2 IEnMin= 2 EnMin= -214.158968500795     IErMin= 2 ErrMin= 6.75D-06
 ErrMax= 6.75D-06  0.00D+00 EMaxC= 1.00D-01 BMatC= 4.39D-09 BMatP= 5.98D-09
 IDIUse=1 WtCom= 1.00D+00 WtEn= 0.00D+00
 Coeff-Com:  0.456D+00 0.544D+00
 Coeff:      0.456D+00 0.544D+00
 Gap=     0.303 Goal=   None    Shift=    0.000
 RMSDP=7.84D-07 MaxDP=1.29D-05 DE=-1.99D-09 OVMax= 1.70D-05

 Cycle   8  Pass 1  IDiag  1:
 RMSU=  5.40D-07    CP:  1.00D+00  6.87D-01
 E= -214.158968505086     Delta-E=       -0.000000004291 Rises=F Damp=F
 DIIS: error= 1.32D-06 at cycle   3 NSaved=   3.
 NSaved= 3 IEnMin= 3 EnMin= -214.158968505086     IErMin= 3 ErrMin= 1.32D-06
 ErrMax= 1.32D-06  0.00D+00 EMaxC= 1.00D-01 BMatC= 2.12D-10 BMatP= 4.39D-09
 IDIUse=1 WtCom= 1.00D+00 WtEn= 0.00D+00
 Coeff-Com:  0.653D-01 0.197D+00 0.738D+00
 Coeff:      0.653D-01 0.197D+00 0.738D+00
 Gap=     0.303 Goal=   None    Shift=    0.000
 RMSDP=1.61D-07 MaxDP=2.27D-06 DE=-4.29D-09 OVMax= 3.69D-06

 Cycle   9  Pass 1  IDiag  1:
 RMSU=  1.17D-07    CP:  1.00D+00  7.34D-01  8.72D-01
 E= -214.158968505280     Delta-E=       -0.000000000195 Rises=F Damp=F
 DIIS: error= 3.23D-07 at cycle   4 NSaved=   4.
 NSaved= 4 IEnMin= 4 EnMin= -214.158968505280     IErMin= 4 ErrMin= 3.23D-07
 ErrMax= 3.23D-07  0.00D+00 EMaxC= 1.00D-01 BMatC= 1.79D-11 BMatP= 2.12D-10
 IDIUse=1 WtCom= 1.00D+00 WtEn= 0.00D+00
 Coeff-Com: -0.157D-02 0.457D-01 0.300D+00 0.656D+00
 Coeff:     -0.157D-02 0.457D-01 0.300D+00 0.656D+00
 Gap=     0.303 Goal=   None    Shift=    0.000
 RMSDP=4.07D-08 MaxDP=1.06D-06 DE=-1.95D-10 OVMax= 9.44D-07

 Cycle  10  Pass 1  IDiag  1:
 RMSU=  2.48D-08    CP:  1.00D+00  7.37D-01  8.88D-01  7.42D-01
 E= -214.158968505295     Delta-E=       -0.000000000014 Rises=F Damp=F
 DIIS: error= 9.70D-08 at cycle   5 NSaved=   5.
 NSaved= 5 IEnMin= 5 EnMin= -214.158968505295     IErMin= 5 ErrMin= 9.70D-08
 ErrMax= 9.70D-08  0.00D+00 EMaxC= 1.00D-01 BMatC= 2.02D-12 BMatP= 1.79D-11
 IDIUse=1 WtCom= 1.00D+00 WtEn= 0.00D+00
 Coeff-Com: -0.464D-02 0.119D-01 0.112D+00 0.335D+00 0.546D+00
 Coeff:     -0.464D-02 0.119D-01 0.112D+00 0.335D+00 0.546D+00
 Gap=     0.303 Goal=   None    Shift=    0.000
 RMSDP=1.17D-08 MaxDP=3.06D-07 DE=-1.43D-11 OVMax= 3.36D-07

 Cycle  11  Pass 1  IDiag  1:
 RMSU=  9.30D-09    CP:  1.00D+00  7.37D-01  8.91D-01  7.45D-01  7.34D-01
 E= -214.158968505296     Delta-E=       -0.000000000002 Rises=F Damp=F
 DIIS: error= 1.68D-08 at cycle   6 NSaved=   6.
 NSaved= 6 IEnMin= 6 EnMin= -214.158968505296     IErMin= 6 ErrMin= 1.68D-08
 ErrMax= 1.68D-08  0.00D+00 EMaxC= 1.00D-01 BMatC= 2.86D-14 BMatP= 2.02D-12
 IDIUse=1 WtCom= 1.00D+00 WtEn= 0.00D+00
 Coeff-Com: -0.870D-03-0.264D-03 0.484D-02 0.294D-01 0.124D+00 0.843D+00
 Coeff:     -0.870D-03-0.264D-03 0.484D-02 0.294D-01 0.124D+00 0.843D+00
 Gap=     0.303 Goal=   None    Shift=    0.000
 RMSDP=2.34D-09 MaxDP=3.62D-08 DE=-1.65D-12 OVMax= 4.61D-08

 SCF Done:  E(RB3LYP) =  -214.158968505     A.U. after   11 cycles
            NFock= 11  Conv=0.23D-08     -V/T= 2.0103
 KE= 2.119682579377D+02 PE=-8.730555962575D+02 EE= 2.537728382204D+02
 Leave Link  502 at Mon Oct 14 00:45:43 2019, MaxMem= 10737418240 cpu:              33.7 elap:               1.4
 (Enter /apps/cent7/gaussian/g16-A.03/g16-haswell/g16/l701.exe)
 ... and contract with generalized density number  0.
 Compute integral first derivatives.
 Leave Link  701 at Mon Oct 14 00:45:43 2019, MaxMem= 10737418240 cpu:               2.3 elap:               0.1
 (Enter /apps/cent7/gaussian/g16-A.03/g16-haswell/g16/l702.exe)
 L702 exits ... SP integral derivatives will be done elsewhere.
 Leave Link  702 at Mon Oct 14 00:45:43 2019, MaxMem= 10737418240 cpu:               0.5 elap:               0.0
 (Enter /apps/cent7/gaussian/g16-A.03/g16-haswell/g16/l703.exe)
 Integral derivatives from FoFJK, PRISM(SPDF).
 Compute integral first derivatives, UseDBF=F ICtDFT=           0.
 Calling FoFJK, ICntrl=      2127 FMM=F ISym2X=0 I1Cent= 0 IOpClX= 0 NMat=1 NMatS=1 NMatT=0.
 FoFJK:  IHMeth= 1 ICntrl=    2127 DoSepK=F KAlg= 0 I1Cent=           0 FoldK=F
 IRaf=         0 NMat=       1 IRICut=       1 DoRegI=T DoRafI=F ISym2E= 0 IDoP0=0 IntGTp=1.
 FoFCou: FMM=F IPFlag=           0 FMFlag=      100000 FMFlg1=         800
         NFxFlg=           0 DoJE=F BraDBF=F KetDBF=F FulRan=T
         wScrn=  0.000000 ICntrl=      2127 IOpCl=  0 I1Cent=           0 NGrid=           0
         NMat0=    1 NMatS0=      1 NMatT0=    0 NMatD0=    1 NMtDS0=    0 NMtDT0=    0
 Symmetry not used in FoFCou.
 Leave Link  703 at Mon Oct 14 00:45:44 2019, MaxMem= 10737418240 cpu:               9.4 elap:               0.4
 (Enter /apps/cent7/gaussian/g16-A.03/g16-haswell/g16/l716.exe)
 Dipole        = 3.52029834D+00-3.60215293D-01-2.58113695D-03
 ***** Axes restored to original set *****
 -------------------------------------------------------------------
 Center     Atomic                   Forces (Hartrees/Bohr)
 Number     Number              X              Y              Z
 -------------------------------------------------------------------
      1        6          -0.003624491    0.004377879    0.004936840
      2        6           0.019102845    0.001984104   -0.006790179
      3        6          -0.016415716   -0.000028602    0.007420379
      4        6           0.009732167   -0.017033941   -0.014769481
      5        7          -0.000787356    0.002479560    0.002116635
      6        1           0.001292393   -0.000150050   -0.000226229
      7        1           0.000425529   -0.002008135   -0.000381659
      8        1          -0.000676795   -0.000188881   -0.001550182
      9        1          -0.005585877   -0.002269534    0.005571690
     10        1          -0.010044282    0.000889480   -0.001387727
     11        1           0.005902797    0.002904551   -0.005740409
     12        1           0.008277340   -0.001291287    0.000972482
     13        1          -0.003845147    0.001423112    0.007192833
     14        1          -0.005973083    0.004915151    0.001150818
     15        1           0.002495801   -0.000793045   -0.000874536
     16        1          -0.000799672    0.003664719   -0.001539811
     17        1           0.000523546    0.001124919    0.003898538
 -------------------------------------------------------------------
 Cartesian Forces:  Max     0.019102845 RMS     0.006116999
 Leave Link  716 at Mon Oct 14 00:45:44 2019, MaxMem= 10737418240 cpu:               0.4 elap:               0.0
 (Enter /apps/cent7/gaussian/g16-A.03/g16-haswell/g16/l103.exe)

 GradGradGradGradGradGradGradGradGradGradGradGradGradGradGradGradGradGrad
 Berny optimization.
 Using GEDIIS/GDIIS optimizer.
 FormGI is forming the generalized inverse of G from B-inverse, IUseBI=4.
 Internal  Forces:  Max     0.006704499 RMS     0.002366399
 Search for a local minimum.
 Step number   2 out of a maximum of   92
 All quantities printed in internal units (Hartrees-Bohrs-Radians)
 RMS Force = .23664D-02 SwitMx=.10000D-02 MixMth= 1
 Mixed Optimization -- RFO/linear search
 Update second derivatives using D2CorX and points    1    2
 DE= -1.68D-02 DEPred=-1.70D-02 R= 9.88D-01
 TightC=F SS=  1.41D+00  RLast= 4.20D-01 DXNew= 5.0454D-01 1.2590D+00
 Trust test= 9.88D-01 RLast= 4.20D-01 DXMaxT set to 5.05D-01
 ITU=  1  0
 Use linear search instead of GDIIS.
     Eigenvalues ---    0.00230   0.00230   0.00230   0.00830   0.03861
     Eigenvalues ---    0.03878   0.04213   0.04550   0.04988   0.05260
     Eigenvalues ---    0.05401   0.05559   0.05669   0.05753   0.07703
     Eigenvalues ---    0.07721   0.07828   0.11699   0.11754   0.11762
     Eigenvalues ---    0.15927   0.16000   0.16000   0.16000   0.16000
     Eigenvalues ---    0.16706   0.21669   0.22151   0.22463   0.27511
     Eigenvalues ---    0.27817   0.28210   0.34761   0.34808   0.34810
     Eigenvalues ---    0.34811   0.34812   0.34814   0.34816   0.34819
     Eigenvalues ---    0.34828   0.37324   0.47375   0.47688   0.47921
 RFO step:  Lambda=-5.31283184D-03 EMin= 2.29993428D-03
 Quartic linear search produced a step of  0.41445.
 Iteration  1 RMS(Cart)=  0.05386403 RMS(Int)=  0.00251537
 Iteration  2 RMS(Cart)=  0.00259468 RMS(Int)=  0.00048036
 Iteration  3 RMS(Cart)=  0.00000557 RMS(Int)=  0.00048034
 Iteration  4 RMS(Cart)=  0.00000000 RMS(Int)=  0.00048034
 ITry= 1 IFail=0 DXMaxC= 1.83D-01 DCOld= 1.00D+10 DXMaxT= 5.05D-01 DXLimC= 3.00D+00 Rises=F
 Variable       Old X    -DE/DX   Delta X   Delta X   Delta X     New X
                                 (Linear)    (Quad)   (Total)
    R1        2.93543  -0.00422   0.00551  -0.02558  -0.02007   2.91537
    R2        2.06563   0.00067   0.00246   0.00044   0.00290   2.06853
    R3        2.06305   0.00095   0.00132   0.00256   0.00388   2.06693
    R4        2.06909   0.00042   0.00382  -0.00175   0.00207   2.07115
    R5        2.93229  -0.00259  -0.00000  -0.01284  -0.01284   2.91945
    R6        2.06669   0.00080   0.00286   0.00062   0.00348   2.07017
    R7        2.06611   0.00095   0.00263   0.00139   0.00402   2.07013
    R8        2.92471  -0.00501  -0.00016  -0.02444  -0.02460   2.90011
    R9        2.07155   0.00070   0.00484  -0.00154   0.00330   2.07484
   R10        2.07046   0.00060   0.00442  -0.00156   0.00286   2.07332
   R11        2.89178   0.00670   0.05101  -0.02004   0.03098   2.92276
   R12        2.05953   0.00006  -0.00009   0.00033   0.00024   2.05977
   R13        2.05955   0.00003  -0.00012   0.00021   0.00009   2.05964
   R14        1.93643   0.00272   0.01936  -0.00918   0.01017   1.94660
   R15        1.93113   0.00401   0.01716  -0.00353   0.01362   1.94475
   R16        1.93138   0.00403   0.01727  -0.00359   0.01368   1.94506
    A1        1.93880   0.00053   0.01165  -0.00625   0.00521   1.94402
    A2        1.91611   0.00178   0.00227   0.01327   0.01546   1.93158
    A3        1.94493   0.00040   0.01423  -0.01012   0.00392   1.94885
    A4        1.88897  -0.00117  -0.00900  -0.00077  -0.00984   1.87912
    A5        1.88703  -0.00049  -0.00978   0.00474  -0.00531   1.88172
    A6        1.88627  -0.00118  -0.01006  -0.00065  -0.01078   1.87549
    A7        1.93402  -0.00129  -0.01235   0.02639   0.01306   1.94707
    A8        1.89307   0.00184   0.01737   0.01231   0.02902   1.92209
    A9        1.89204   0.00148   0.01696   0.00547   0.02199   1.91403
   A10        1.88560   0.00154   0.01340   0.01274   0.02542   1.91102
   A11        1.88361   0.00158   0.01255   0.01076   0.02288   1.90649
   A12        1.97603  -0.00523  -0.04905  -0.06655  -0.11493   1.86110
   A13        1.93479  -0.00365  -0.01517   0.01178  -0.00375   1.93104
   A14        1.88754   0.00207   0.01498   0.01024   0.02506   1.91259
   A15        1.88427   0.00208   0.01363   0.01197   0.02543   1.90970
   A16        1.88490   0.00228   0.01456   0.01427   0.02871   1.91361
   A17        1.88795   0.00230   0.01582   0.01353   0.02922   1.91717
   A18        1.98500  -0.00527  -0.04532  -0.06118  -0.10602   1.87898
   A19        1.91552   0.00091  -0.00498   0.02465   0.01926   1.93478
   A20        1.90322   0.00320   0.01096   0.04431   0.05535   1.95857
   A21        1.90460   0.00322   0.01157   0.04460   0.05623   1.96083
   A22        1.87738  -0.00189   0.01428  -0.04056  -0.02774   1.84964
   A23        1.87640  -0.00184   0.01388  -0.03893  -0.02658   1.84982
   A24        1.98581  -0.00365  -0.04503  -0.03471  -0.08203   1.90378
   A25        1.93864  -0.00078   0.01161  -0.01841  -0.00704   1.93160
[...]
 1\1\GINC-BROWN-A305\Freq\RB3LYP\6-31G(d)\C4H12N1(1+)\FINEJ\14-Oct-2019
 \0\\#P Geom=AllCheck Guess=TCheck SCRF=Check GenChk RB3LYP/6-31G(d) Fr
 eq\\Title Card Required\\1,1\C,1.8041500788,-0.6034426248,-1.530009047
 8\C,1.0918811953,0.3253418931,-0.5415402873\C,1.9728634331,1.520762931
 ,-0.1316604911\C,1.2456217564,2.4294476294,0.8505362104\N,2.1295558142
 ,3.6162076841,1.2531392135\H,2.7212692448,-1.0192973966,-1.0980275519\
 H,1.1549161218,-1.4406439927,-1.8015791136\H,2.0715162051,-0.076036394
 3,-2.4525222847\H,0.161325539,0.6989069394,-0.9881826746\H,0.806481728
 4,-0.2375444153,0.3566049657\H,2.9021446137,1.1495969521,0.3230521389\
 H,2.2533660192,2.0910772281,-1.028401554\H,0.3387005531,2.8662312748,0
 .4252825755\H,0.9904235314,1.9202028394,1.7831005369\H,3.0005659823,3.
 2937316868,1.6931066423\H,2.3945586555,4.1732243566,0.4311131142\H,1.6
 587913779,4.2440671389,1.9167460378\\Version=ES64L-G16RevA.03\State=1-
 A\HF=-214.1680613\RMSD=2.046e-09\RMSF=7.944e-06\ZeroPoint=0.1658232\Th
 ermal=0.1658232\Dipole=0.5560366,2.9819947,1.8105091\DipoleDeriv=0.080
 2736,-0.0947951,-0.0510965,-0.0170031,0.0376579,-0.0432157,0.003098,-0
 .0058867,0.1058349,0.1366853,0.1276551,0.0964026,0.0259686,0.1988404,0
 .0199966,0.0255354,-0.0287973,0.1199279,0.0621795,-0.0695331,-0.000196
 4,-0.090873,-0.0475699,-0.1028754,-0.0150204,-0.1130832,0.0911673,0.28
 5987,0.1822873,0.075468,0.1863919,0.5876689,0.1955467,0.0783029,0.1975
 157,0.2786167,-0.2377157,-0.1143503,-0.0443939,-0.1189778,-0.5015859,-
 0.1779306,-0.0476076,-0.1801754,-0.2668675,-0.0749013,0.0861084,-0.037
 1991,0.0429378,0.0470478,-0.0018888,-0.0779823,0.0181685,-0.0001101,0.
 0112033,-0.0639076,-0.0073222,-0.0581325,-0.0456262,-0.0656659,-0.0033
 029,-0.0628869,0.0464912,0.0473876,0.0104323,0.0593261,-0.0186356,-0.0
 114011,0.0996925,0.0497952,0.0449788,-0.0639393,-0.0939054,0.0408448,-
 0.0497217,0.0841696,-0.0333694,0.0031066,-0.0434362,0.0001422,0.030037
 6,0.0271154,-0.0394141,0.028771,-0.0287743,-0.007901,0.0199366,0.06008
 16,0.0487922,-0.1164922,-0.0841021,0.0330575,-0.0519503,0.027263,0.040
 7345,-0.0011774,-0.0778691,-0.0138727,-0.0153543,0.0300067,-0.0063433,
 0.0478694,-0.0354419,-0.0513903,0.0682753,0.0494706,0.0642097,-0.03730
 35,0.0159152,0.0059655,-0.0245678,0.037978,-0.0129071,-0.008026,-0.035
 2994,0.0026715,0.0684971,0.0661917,-0.0311976,-0.0177609,-0.0286196,0.
 0317498,-0.0046027,0.0170659,0.0012969,-0.026447,0.258387,0.0005333,0.
 0214499,0.0080407,0.2315771,0.018765,0.0346074,0.0269712,0.2796636,0.2
 304937,-0.0082472,-0.0131855,0.0082708,0.3026931,-0.0147755,-0.0096034
 ,-0.0114569,0.2364336,0.2387985,-0.059096,-0.0318926,-0.0245626,0.2337
 815,-0.0051612,-0.0078358,0.0114125,0.269844\Polar=45.2604177,1.232479
 7,54.5917412,0.1541779,6.931879,48.5473072\Quadrupole=-6.2678785,7.859
 1166,-1.5912382,2.9993265,1.7960469,8.8281547\PG=C01 [X(C4H12N1)]\NIma
 g=0\\0.56211953,0.03299869,0.54623725,0.03187152,-0.03977700,0.5376304
 6,-0.10707285,0.03282655,0.03501811,0.54073075,0.03500599,-0.11833776,
 -0.04228554,-0.02708394,0.48662947,0.03653679,-0.04124254,-0.12797406,
 0.01057908,-0.06741415,0.55008796,0.01082059,0.01005147,0.00175854,-0.
 11564537,-0.04441145,-0.01392471,0.54562146,-0.01213219,-0.02237076,-0
 .00968838,-0.04349744,-0.12902789,-0.01313192,-0.02560740,0.48505597,-
 0.01369033,-0.02033200,-0.00769311,-0.01328761,-0.01269578,-0.08266822
 ,0.00938556,-0.06942106,0.54948508,-0.00371272,-0.00325016,-0.00097658
 ,0.01158613,-0.00752598,-0.01141469,-0.11870111,0.03049966,0.03605610,
 0.54570925,-0.00159615,-0.00292978,-0.00055664,0.00463572,-0.02130936,
 -0.01618511,0.04770599,-0.10493694,-0.03479936,-0.08322345,0.45118304,
 0.00017709,0.00023794,-0.00094947,-0.00294318,-0.01034779,-0.00706584,
 0.04804341,-0.02654165,-0.12941103,-0.00386991,-0.10446092,0.58752034,
 0.00054747,0.00075956,0.00061031,-0.00095535,0.00079682,0.00085172,0.0
 0992854,0.00902680,0.00118194,-0.10874275,-0.01086012,-0.00125445,0.65
 056399,-0.00316121,-0.00090036,0.00038920,0.00851186,-0.00097899,-0.00
 453131,-0.02145882,-0.02871051,-0.00920868,-0.01403488,-0.10188288,0.0
 0235404,-0.11124721,0.58696609,-0.00212135,-0.00149179,0.00069593,0.00
 622786,-0.00082801,-0.00390495,-0.02005954,-0.02384366,-0.00769348,-0.
 00346287,0.00082866,-0.09334948,-0.03954327,-0.04602984,0.71656954,-0.
 23347367,0.08201284,-0.08934897,-0.01327270,0.00528779,-0.00556657,0.0
 0060052,-0.00068771,-0.00034461,0.00023218,-0.00035964,0.00002387,0.00
 008266,0.00015672,0.00014429,0.25220975,0.08186259,-0.08672735,0.04062
 063,0.01702826,-0.00914696,0.00806862,0.00111159,0.00068632,0.00132093
 ,-0.00001469,0.00029814,-0.00006970,-0.00017450,-0.00002436,-0.0000509
 6,-0.09252079,0.09096274,-0.09037334,0.04096636,-0.09431896,0.02065792
 ,-0.00969065,0.00940419,0.00069971,0.00068987,0.00109467,0.00033763,0.
 00018326,0.00014006,-0.00015318,0.00008460,-0.00001945,0.09692087,-0.0
 4161539,0.09925284,-0.14817084,-0.12607769,-0.04033110,0.01052948,0.01
 435062,0.00425149,-0.00148460,0.00254430,0.00253324,0.00093851,0.00018
 533,-0.00004315,-0.00007377,0.00065101,0.00049724,-0.01582374,-0.02147
 630,-0.00551931,0.15725327,-0.12461325,-0.20676982,-0.04993818,-0.0112
 6281,-0.01502316,-0.00405606,0.00309962,-0.00133247,-0.00248702,-0.000
 96605,-0.00007426,0.00000830,0.00012667,-0.00058231,-0.00047845,0.0079
 9564,0.01171998,0.00335532,0.13477273,0.22227133,-0.03931081,-0.049235
 13,-0.06464765,-0.01358536,-0.01634297,-0.00630424,0.00291951,-0.00222
 034,-0.00284436,-0.00084451,-0.00054449,0.00060638,0.00013178,-0.00072
 967,-0.00055463,-0.00788831,-0.01063834,-0.00377936,0.04137881,0.05680
 434,0.06757059,-0.06517371,-0.03038097,0.05158187,-0.00501252,-0.00823
 950,0.01386445,0.00030574,-0.00036695,-0.00071530,-0.00006625,-0.00018
 941,-0.00017430,0.00002575,0.00013405,-0.00001275,0.00867587,0.0139115
 2,-0.02409570,-0.00464234,-0.00919171,0.01765951,0.06593593,-0.0310440
 7,-0.11433421,0.10996386,0.00507296,0.01044106,-0.02006678,0.00042634,
 0.00183578,-0.00045916,0.00026406,0.00027529,-0.00010356,-0.00008675,0
 .00000097,0.00018774,-0.00369516,-0.00639406,0.00884708,-0.00433610,-0
 .01177383,0.02184074,0.03215343,0.12153402,0.05203918,0.10922834,-0.23
 499722,0.00508693,0.00971045,-0.01844294,0.00004523,0.00141444,0.00024
 040,0.00006832,0.00002672,0.00046125,-0.00009977,-0.00021270,0.0000119
 3,0.00315754,0.00598730,-0.01037664,-0.00185192,-0.00396115,0.00853353
 ,-0.05988498,-0.11777298,0.25493976,-0.01300921,0.00641003,-0.00552114
 ,-0.23126490,0.07308003,-0.08991658,-0.01712127,0.00462859,-0.00879678
 ,-0.00021076,0.00105865,0.00035824,0.00056364,-0.00033754,0.00020192,-
 0.00007671,0.00171095,0.00252079,0.00085087,-0.00006718,-0.00003025,0.
 00017896,-0.00066692,-0.00014470,0.25188485,0.01812783,-0.00809268,0.0
 0850402,0.07382992,-0.08068272,0.03982132,-0.02442335,0.00725942,-0.01
 312301,-0.00137959,0.00102096,-0.00037807,0.00024628,0.00033362,0.0003
 4044,0.00169490,-0.00175674,-0.00367811,-0.00028650,0.00024235,0.00057
 993,-0.00069612,0.00094514,-0.00016024,-0.07989601,0.08958982,0.020418
 10,-0.00882467,0.00968661,-0.09036460,0.03912766,-0.09592274,-0.006768
 25,0.00206905,-0.00483088,-0.00130659,0.00050228,-0.00010374,0.0004600
 0,-0.00010440,0.00015265,0.00257125,-0.00317470,-0.00254167,-0.0005946
 7,0.00064668,0.00081533,-0.00024749,0.00071187,0.00100821,0.09889003,-
 0.03713295,0.10193718,-0.00419424,-0.00758444,0.01404259,-0.06759978,-
 0.03219909,0.04983885,-0.00643541,-0.01209976,0.01578841,0.00028023,0.
 00054209,0.00067380,0.00005157,0.00023150,-0.00022028,0.00020665,-0.00
 082043,-0.00029797,0.00063498,-0.00001379,-0.00068713,-0.00072301,0.00
 218222,0.00206530,0.00848230,0.01498523,-0.02326219,0.07001561,0.00573
 317,0.01163889,-0.01905786,-0.03282538,-0.11789238,0.10984941,-0.00677
 885,-0.01659364,0.02030159,-0.00072167,-0.00021979,0.00201942,0.000288
 67,0.00052765,-0.00050719,-0.00042094,0.00071042,0.00071951,-0.0004712
 9,0.00088780,0.00049528,0.00250178,-0.00225012,-0.00329024,-0.00252737
 ,-0.00593969,0.00877959,0.03760462,0.13168298,0.00553645,0.01028147,-0
 .01886021,0.05037200,0.11060317,-0.22238399,-0.00276584,-0.00627562,0.
 00833140,-0.00024093,-0.00063906,0.00064535,-0.00003163,0.00024448,0.0
 0047239,0.00006280,0.00002504,0.00121552,-0.00059394,0.00010379,0.0003
 8576,0.00222624,-0.00364803,-0.00140209,0.00317083,0.00691470,-0.01121
 566,-0.05713235,-0.11602571,0.24172483,0.00104263,0.00109407,0.0009603
 0,-0.01810427,0.00480987,-0.00966352,-0.22658970,0.07598974,-0.0872760
 9,-0.01495337,0.00488744,-0.00679080,0.00166543,-0.00036977,-0.0000528
 5,0.00063250,-0.00056580,-0.00045849,0.00012688,-0.00006912,0.00037573
 ,0.00004522,-0.00008040,-0.00000043,-0.00115388,-0.00349073,-0.0004286
 5,0.00050494,0.00043392,0.00054386,0.24827664,-0.00078057,0.00184742,0
 .00043177,-0.02356580,0.00857424,-0.01246287,0.07484842,-0.07879080,0.
 03907671,0.01850274,-0.01039237,0.00755047,0.00033821,0.00124396,0.001
 25218,0.00068208,-0.00034472,0.00015717,0.00003200,0.00011277,0.000313
 00,0.00014054,-0.00011314,-0.00001585,-0.00322777,-0.00420136,-0.00178
 334,0.00064869,0.00112202,0.00039676,-0.08201343,0.08858164,-0.0006366
 3,0.00101036,0.00015314,-0.00798073,0.00303450,-0.00419244,-0.08914903
 ,0.03928908,-0.09876738,0.02211703,-0.01043975,0.00906008,0.00047221,0
 .00097222,0.00127273,0.00039099,-0.00056950,0.00006044,0.00030411,-0.0
 0008562,0.00008546,-0.00007572,0.00001034,-0.00004920,-0.00077259,-0.0
 0214065,0.00058504,0.00064760,-0.00037325,0.00068231,0.09687852,-0.037
 31378,0.10300439,0.00052801,0.00136907,0.00018825,-0.00576662,-0.01254
 019,0.01583101,-0.06598672,-0.02711472,0.04972261,-0.00571435,-0.00970
 616,0.01453852,0.00081240,0.00006693,-0.00083099,0.00004108,0.00002056
 ,-0.00016436,-0.00022646,0.00027580,0.00001187,0.00045570,-0.00015112,
 -0.00041998,0.00047047,0.00065843,0.00060892,-0.00164026,-0.00303712,-
 0.00127459,0.00810520,0.01401561,-0.02320674,0.06873666,0.00008565,0.0
 0127182,0.00180092,-0.00720385,-0.01598198,0.02193602,-0.02870747,-0.1
 1710544,0.11004139,0.00595732,0.00953703,-0.02160974,0.00045305,0.0022
 3792,0.00004626,0.00001050,-0.00006255,-0.00006042,0.00001154,0.000385
 88,-0.00027077,0.00033949,-0.00007647,-0.00114695,0.00034782,0.0013080
 0,-0.00043068,-0.00347027,-0.00348442,-0.00253362,-0.00304743,-0.00600
 575,0.00898669,0.03412561,0.12961052,-0.00041347,-0.00029081,0.0012416
 0,-0.00190265,-0.00462274,0.00802657,0.04969347,0.10851722,-0.22106406
 ,0.00602903,0.01043642,-0.02010394,-0.00059381,0.00084971,0.00113037,0
 .00005764,0.00001457,-0.00009544,-0.00003017,0.00004996,0.00016564,-0.
 00005912,0.00041326,-0.00003143,0.00043793,0.00029305,0.00053285,-0.00
 105132,-0.00225947,0.00035417,0.00299711,0.00650281,-0.01065519,-0.056
 87393,-0.11501359,0.24152072,0.00009822,-0.00011946,0.00023740,0.00078
 103,-0.00063261,-0.00026837,-0.01161413,0.00724828,-0.00491446,-0.2347
 2482,0.08956955,-0.08835156,-0.01883570,0.00292168,-0.00929591,0.00003
 262,-0.00015855,-0.00010474,0.00004858,-0.00003318,0.00000942,-0.00002
 972,0.00002150,0.00001272,0.00051029,0.00041698,0.00012065,0.00002798,
 -0.00000989,0.00005224,-0.00013467,0.00125377,0.00202041,0.00037818,-0
 .00064874,-0.00031612,0.25509037,-0.00027717,-0.00014690,-0.00022887,0
 .00135978,0.00125140,0.00111370,0.01617548,-0.00772117,0.00842127,0.10
 094156,-0.09951497,0.05261514,-0.03288572,0.00541615,-0.01645955,-0.00
 019834,0.00015623,0.00006055,-0.00000206,-0.00005098,-0.00005132,0.000
 01108,0.00002899,0.00004017,-0.00080740,-0.00013498,-0.00065794,-0.000
 01876,-0.00004777,-0.00003483,0.00127209,-0.00141405,-0.00361827,-0.00
 076956,0.00091863,-0.00037585,-0.09513168,0.10790570,0.00015456,0.0000
 0671,-0.00011493,0.00071532,0.00092324,0.00107636,0.01933922,-0.009093
 31,0.01091578,-0.08881216,0.04511867,-0.09682841,-0.00746376,0.0014194
 1,-0.00453639,-0.00015065,0.00010275,-0.00003927,-0.00009248,0.0000470
 5,-0.00000226,0.00003565,-0.00000884,-0.00001071,-0.00055998,-0.000033
 03,-0.00017746,-0.00018712,0.00002496,-0.00009172,0.00220619,-0.003297
 59,-0.00261866,-0.00020988,0.00074084,0.00102405,0.09787610,-0.0444843
 8,0.09985545,-0.00023084,0.00000833,-0.00007662,0.00052528,-0.00023648
 ,-0.00073176,-0.00304774,-0.00708110,0.01433482,-0.06550993,-0.0234071
 6,0.04578261,-0.00907860,-0.01591316,0.01711682,-0.00003224,0.00002451
 ,0.00004173,0.00004244,-0.00000659,-0.00010366,-0.00000392,-0.00006209
 ,-0.00010348,0.00002820,0.00009010,-0.00011093,0.00041625,0.00020664,0
 .00002316,0.00039376,-0.00096576,-0.00032637,-0.00060792,0.00187827,0.
 00200943,0.00921808,0.01352826,-0.02274353,0.06917893,0.00004699,-0.00
 010993,-0.00009282,0.00078726,0.00204774,-0.00018481,0.00429419,0.0122
 7178,-0.01836428,-0.02609076,-0.10766818,0.10499160,-0.01035126,-0.020
 51580,0.02165152,0.00001395,0.00002569,-0.00000349,-0.00002905,-0.0000
 3747,0.00003781,-0.00008242,-0.00007511,0.00018982,-0.00007210,-0.0001
 1640,0.00009146,-0.00019962,-0.00051370,0.00046549,-0.00027475,0.00062
 808,0.00071666,0.00221129,-0.00268726,-0.00307641,-0.00238453,-0.00433
 472,0.00995667,0.03447790,0.12336200,-0.00007688,-0.00038578,0.0001774
 9,0.00038635,0.00145514,0.00053594,0.00422614,0.00889372,-0.01764460,0
 .05229429,0.11665873,-0.25788495,-0.00578764,-0.01074596,0.01163623,0.
 00000426,0.00003542,-0.00000507,0.00000427,-0.00005638,-0.00000961,-0.
 00009956,0.00011898,0.00022862,0.00000922,-0.00005059,-0.00002319,-0.0
 0043230,-0.00094251,0.00029592,-0.00003507,-0.00012633,0.00129864,0.00
 206950,-0.00322839,-0.00087205,0.00347704,0.00504723,-0.00908965,-0.05
 487910,-0.11495329,0.27030761,0.00033653,0.00009110,0.00002440,-0.0006
 2760,0.00013424,0.00043381,0.00288589,0.00033933,0.00054601,-0.0168910
 9,0.00272239,-0.00840721,-0.30451940,0.10121211,-0.12146972,-0.0000315
 5,0.00001431,-0.00002660,-0.00007210,0.00006683,0.00007157,-0.00000951
 ,-0.00000305,0.00002333,0.00000186,0.00008270,0.00007192,-0.00003111,-
 0.00007224,-0.00001296,0.00009286,-0.00015809,-0.00078029,-0.00002184,
 -0.00002759,0.00003975,-0.00048092,-0.00356980,0.00009895,0.00023161,0
 .00048235,0.00076265,0.31866755,0.00010621,0.00001106,0.00001826,0.000
 20680,-0.00065655,0.00006641,-0.00184104,0.00239155,-0.00011462,-0.023
 94838,0.01406733,-0.01255827,0.09051975,-0.09629591,0.04567976,0.00003
 318,-0.00008009,-0.00004299,0.00000126,0.00002228,0.00002920,-0.000009
 91,-0.00001474,0.00000730,0.00036089,0.00019891,0.00018873,-0.00005807
 ,0.00002674,-0.00000963,0.00145281,-0.00096961,0.00025464,0.00030828,-
 0.00019416,0.00016025,-0.00311991,-0.00539583,-0.00152277,-0.00004760,
 0.00076105,0.00047042,-0.10126851,0.09920547,0.00016902,0.00004921,-0.
 00003505,-0.00002974,-0.00057484,0.00006840,-0.00018450,0.00141691,-0.
 00032863,-0.00683757,0.00109581,-0.00279740,-0.12123480,0.05054041,-0.
 12923019,-0.00002582,-0.00004882,0.00000154,-0.00001215,0.00005360,0.0
 0005311,-0.00002677,-0.00001566,-0.00002352,0.00019316,0.00019823,0.00
 006832,0.00009356,0.00012451,-0.00001952,0.00049822,-0.00076374,0.0002
 5219,-0.00011134,-0.00009265,-0.00036906,-0.00025853,-0.00138809,0.000
 53409,0.00119795,0.00045216,0.00059478,0.13158317,-0.05215592,0.127113
 84,0.00013310,0.00013025,-0.00008017,-0.00037115,0.00017758,0.00028504
 ,0.00094339,0.00118819,-0.00061168,-0.00508522,-0.01168670,0.01713941,
 -0.08496217,-0.04201455,0.07332622,-0.00001514,0.00002880,-0.00000716,
 -0.00004151,0.00002189,0.00004215,0.00002644,-0.00002558,0.00000908,-0
 .00011379,-0.00008859,-0.00003600,-0.00001375,0.00009640,-0.00001165,-
 0.00006221,0.00028773,-0.00017816,0.00057675,-0.00038742,-0.00015108,-
 0.00045357,0.00030135,0.00054498,-0.00211761,-0.00293173,-0.00226628,0
 .01306616,0.01888692,-0.02942858,0.08262095,0.00026755,0.00014854,-0.0
 0010898,-0.00054550,-0.00016797,-0.00050972,0.00109153,0.00099173,0.00
 180284,-0.00718170,-0.01422301,0.02097188,-0.04087278,-0.16018237,0.15
 291247,-0.00002585,-0.00002595,0.00000130,-0.00004334,0.00008781,0.000
 07139,-0.00002507,-0.00005983,-0.00004072,0.00007520,0.00003138,0.0000
 5111,0.00024625,0.00037824,0.00002361,0.00007919,-0.00023458,-0.000122
 23,0.00034737,-0.00005219,-0.00149634,0.00055702,0.00159140,-0.0000268
 4,-0.00307027,-0.00294647,-0.00293657,-0.00419273,-0.00631192,0.009076
 52,0.04794174,0.16328433,-0.00011859,-0.00006664,0.00003077,0.00029509
 ,-0.00018145,-0.00067653,-0.00146705,-0.00081967,0.00301138,0.00012097
 ,-0.00332631,0.01368737,0.06643797,0.14346610,-0.28490100,0.00000005,-
 0.00000526,-0.00000663,0.00003480,-0.00001577,-0.00004294,0.00002181,-
 0.00002566,-0.00007670,-0.00001848,0.00000252,0.00005849,0.00016545,0.
 00021984,-0.00009556,0.00006135,0.00019162,-0.00028812,0.00020461,0.00
 064682,-0.00114926,-0.00008137,-0.00014058,0.00045119,-0.00169295,-0.0
 0292259,-0.00027828,0.00530911,0.00672446,-0.01141387,-0.07290938,-0.1
 5805280,0.29908261,-0.00058798,-0.00033926,0.00004129,0.00154045,-0.00
 077370,-0.00098606,-0.00448008,-0.00287764,0.00008817,0.01556606,-0.01
 027837,-0.01490238,-0.13707372,0.09465127,0.09955517,0.00001191,0.0000
 1796,0.00002221,0.00011037,-0.00013551,-0.00015031,0.00001138,0.000030
 75,-0.00000237,-0.00002093,0.00012852,-0.00002151,0.00001705,-0.000000
 46,0.00007631,0.00011205,-0.00003835,0.00027539,-0.00014029,0.00028353
 ,0.00012731,0.00008819,0.00007089,-0.00075142,0.00059427,0.00010229,0.
 00034313,-0.01259733,0.01841732,0.02441472,-0.00413069,0.00535141,0.00
 363660,0.14097930,-0.00063007,-0.00043542,0.00000560,0.00172563,0.0002
 6180,-0.00107022,-0.00557625,-0.00390292,0.00004025,0.01217198,-0.0132
 3024,-0.01467911,0.10392252,-0.18665286,-0.13320960,0.00002080,0.00000
 325,0.00002601,0.00017354,-0.00008589,-0.00013868,-0.00000983,0.000030
 26,-0.00000370,-0.00006987,-0.00000502,-0.00005975,0.00002364,-0.00003
 323,0.00010800,-0.00010770,0.00035627,0.00038855,-0.00008007,0.0003804
 1,-0.00010205,0.00024978,0.00149288,0.00012643,0.00057619,-0.00009131,
 0.00074617,0.00414665,-0.00676559,-0.00796763,-0.01192628,0.01769086,0
 .01430537,-0.10461067,0.19098674,-0.00016132,-0.00013402,-0.00002534,0
 .00075519,0.00012977,0.00033652,-0.00179185,-0.00125469,-0.00013294,0.
 00074243,-0.00389891,-0.00362659,0.10601640,-0.12875763,-0.20775221,-0
 .00000862,-0.00000260,0.00001322,0.00006495,0.00000957,-0.00003075,0.0
 0000215,0.00000681,-0.00001326,-0.00002162,0.00004243,-0.00002935,-0.0
 0004490,-0.00007787,-0.00003890,0.00018460,-0.00010900,0.00011657,-0.0
 0008349,0.00018786,0.00034448,-0.00021492,0.00014161,-0.00034746,0.000
 26187,0.00104448,0.00073219,-0.00826788,0.01280477,0.01553098,0.014333
 25,-0.02161694,-0.01739293,-0.11176625,0.14148435,0.21231579\\0.000015
 33,-0.00001168,-0.00000770,-0.00002342,0.00001596,0.00001749,0.0000168
 6,-0.00000979,-0.00001316,-0.00002146,-0.00000103,0.00001172,0.0000023
 5,-0.00001063,-0.00000249,-0.00000116,-0.00000085,-0.00000557,0.000001
 30,0.00000016,0.00000095,0.00000376,-0.00000086,-0.00000357,-0.0000027
 7,-0.00000034,0.00000042,0.00000185,0.00000776,-0.00000003,0.00000053,
 0.00000308,0.00000387,-0.00000300,0.00000012,-0.00000101,0.00000344,0.
 00000068,-0.00000542,0.00000375,0.00000038,0.00000327,0.00000637,-0.00
 000207,0.00000268,0.00000035,0.00000456,-0.00000591,-0.00000409,0.0000
 0457,0.00000445\\\@


 IT IS A CAPITAL MISTAKE TO THEORIZE BEFORE ONE HAS
 DATA.  INSENSIBLY ONE BEGINS TO TWIST FACTS TO SUIT
 THEORIES RATHER THAN THEORIES TO SUIT FACTS.

                                         -- SHERLOCK HOLMES
 Job cpu time:       0 days  0 hours  3 minutes 48.7 seconds.
 Elapsed time:       0 days  0 hours  0 minutes 10.1 seconds.
 File lengths (MBytes):  RWF=     23 Int=      0 D2E=      0 Chk=      2 Scr=      1
 Normal termination of Gaussian 16 at Mon Oct 14 00:46:38 2019.
real 60.53
user 1260.66
sys 19.98
Machine:
brown-a305
brown-a305
brown-a305
brown-a305
brown-a305
brown-a305
brown-a305
brown-a305
brown-a305
brown-a305
brown-a305
brown-a305
brown-a305
brown-a305
brown-a305
brown-a305
brown-a305
brown-a305
brown-a305
brown-a305
brown-a305
brown-a305
brown-a305
brown-a305
