 Entering Gaussian System, Link 0=/apps/cent7/gaussian/g16-A.03/g16-haswell/g16/g16
 Initial command:
 /apps/cent7/gaussian/g16-A.03/g16-haswell/g16/l1.exe "/scratch/brown/finej/gaussian/Gau-108211.inp" -scrdir="/scratch/brown/finej/gaussian/"
 Entering Link 1 = /apps/cent7/gaussian/g16-A.03/g16-haswell/g16/l1.exe PID=    108213.
  
 Copyright (c) 1988,1990,1992,1993,1995,1998,2003,2009,2016,
            Gaussian, Inc.  All Rights Reserved.
  
 This is part of the Gaussian(R) 16 program.  It is based on
 the Gaussian(R) 09 system (copyright 2009, Gaussian, Inc.),
 the Gaussian(R) 03 system (copyright 2003, Gaussian, Inc.),
 the Gaussian(R) 98 system (copyright 1998, Gaussian, Inc.),
 the Gaussian(R) 94 system (copyright 1995, Gaussian, Inc.),
 the Gaussian 92(TM) system (copyright 1992, Gaussian, Inc.),
 the Gaussian 90(TM) system (copyright 1990, Gaussian, Inc.),
 the Gaussian 88(TM) system (copyright 1988, Gaussian, Inc.),
 the Gaussian 86(TM) system (copyright 1986, Carnegie Mellon
 University), and the Gaussian 82(TM) system (copyright 1983,
 Carnegie Mellon University). Gaussian is a federally registered
 trademark of Gaussian, Inc.
  
 This software contains proprietary and confidential information,
 including trade secrets, belonging to Gaussian, Inc.
  
 This software is provided under written license and may be
 used, copied, transmitted, or stored only in accord with that
 written license.
  
 The following legend is applicable only to US Government
 contracts under FAR:
  
                    RESTRICTED RIGHTS LEGEND
  
 Use, reproduction and disclosure by the US Government is
 subject to restrictions as set forth in subparagraphs (a)
 and (c) of the Commercial Computer Software - Restricted
 Rights clause in FAR 52.227-19.
  
 Gaussian, Inc.
 340 Quinnipiac St., Bldg. 40, Wallingford CT 06492
  
  
 ---------------------------------------------------------------
 Warning -- This program may not be used in any manner that
 competes with the business of Gaussian, Inc. or will provide
 assistance to any competitor of Gaussian, Inc.  The licensee
 of this program is prohibited from giving any competitor of
 Gaussian, Inc. access to this program.  By using this program,
 the user acknowledges that Gaussian, Inc. is engaged in the
 business of creating and licensing software in the field of
 computational chemistry and represents and warrants to the
 licensee that it is not a competitor of Gaussian, Inc. and that
 it will not use this program in any manner prohibited above.
 ---------------------------------------------------------------
  

 Cite this work as:
 Gaussian 16, Revision A.03,
 M. J. Frisch, G. W. Trucks, H. B. Schlegel, G. E. Scuseria, 
 M. A. Robb, J. R. Cheeseman, G. Scalmani, V. Barone, 
 G. A. Petersson, H. Nakatsuji, X. Li, M. Caricato, A. V. Marenich, 
 J. Bloino, B. G. Janesko, R. Gomperts, B. Mennucci, H. P. Hratchian, 
 J. V. Ortiz, A. F. Izmaylov, J. L. Sonnenberg, D. Williams-Young, 
 F. Ding, F. Lipparini, F. Egidi, J. Goings, B. Peng, A. Petrone, 
 T. Henderson, D. Ranasinghe, V. G. Zakrzewski, J. Gao, N. Rega, 
 G. Zheng, W. Liang, M. Hada, M. Ehara, K. Toyota, R. Fukuda, 
 J. Hasegawa, M. Ishida, T. Nakajima, Y. Honda, O. Kitao, H. Nakai, 
 T. Vreven, K. Throssell, J. A. Montgomery, Jr., J. E. Peralta, 
 F. Ogliaro, M. J. Bearpark, J. J. Heyd, E. N. Brothers, K. N. Kudin, 
 V. N. Staroverov, T. A. Keith, R. Kobayashi, J. Normand, 
 K. Raghavachari, A. P. Rendell, J. C. Burant, S. S. Iyengar, 
 J. Tomasi, M. Cossi, J. M. Millam, M. Klene, C. Adamo, R. Cammi, 
 J. W. Ochterski, R. L. Martin, K. Morokuma, O. Farkas, 
 J. B. Foresman, and D. J. Fox, Gaussian, Inc., Wallingford CT, 2016.
 
 ******************************************
 Gaussian 16:  ES64L-G16RevA.03 25-Dec-2016
                14-Oct-2019 
 ******************************************
 %chk=19.chk
 %nprocshared=24
 Will use up to   24 processors via shared memory.
 %mem=80GB
 --------------------------------------------------------------
 #p opt freq b3lyp/6-31g(d) geom=connectivity temperature=0.001
 --------------------------------------------------------------
 1/18=20,19=15,26=3,38=1,57=2,112=-1000/1,3;
 2/9=110,12=2,17=6,18=5,40=1/2;
 3/5=1,6=6,7=1,11=2,25=1,30=1,71=1,74=-5/1,2,3;
 4//1;
 5/5=2,38=5/2;
 6/7=2,8=2,9=2,10=2,28=1/1;
 7//1,2,3,16;
 1/18=20,19=15,26=3/3(2);
 2/9=110/2;
 99//99;
 2/9=110/2;
 3/5=1,6=6,7=1,11=2,25=1,30=1,71=1,74=-5/1,2,3;
 4/5=5,16=3,69=1/1;
 5/5=2,38=5/2;
 7//1,2,3,16;
 1/18=20,19=15,26=3/3(-5);
 2/9=110/2;
 6/7=2,8=2,9=2,10=2,19=2,28=1/1;
 99/9=1/99;
 Leave Link    1 at Mon Oct 14 11:06:17 2019, MaxMem= 10737418240 cpu:               1.5 elap:               0.1
 (Enter /apps/cent7/gaussian/g16-A.03/g16-haswell/g16/l101.exe)
 -------------------
 Title Card Required
 -------------------
 Symbolic Z-matrix:
 Charge =  0 Multiplicity = 1
 N                    -0.7642   -1.25002   0.30077 
 C                    -0.03392   0.01911   0.17077 
 C                    -0.71584   1.18468   0.05686 
 C                     0.04922   2.51424  -0.07933 
 C                     1.40439   2.51868  -0.08528 
 C                     2.17931   1.19416   0.04416 
 C                     1.50606   0.02415   0.16401 
 H                    -1.64031  -1.18086  -0.17636 
 H                    -0.2231   -1.98866  -0.10126 
 H                    -1.78583   1.18118   0.06156 
 H                    -0.4892    3.43453  -0.16926 
 H                     1.93596   3.44247  -0.1799 
 H                     3.2493    1.19767   0.03947 
 H                     2.04448  -0.89613   0.25394 
 
 ITRead=  0  0  0  0  0  0  0  0  0  0  0  0  0  0
 MicOpt= -1 -1 -1 -1 -1 -1 -1 -1 -1 -1 -1 -1 -1 -1
 NAtoms=     14 NQM=       14 NQMF=       0 NMMI=      0 NMMIF=      0
                NMic=       0 NMicF=      0.
                    Isotopes and Nuclear Properties:
 (Nuclear quadrupole moments (NQMom) in fm**2, nuclear magnetic moments (NMagM)
  in nuclear magnetons)

  Atom         1           2           3           4           5           6           7           8           9          10
 IAtWgt=          14          12          12          12          12          12          12           1           1           1
 AtmWgt=  14.0030740  12.0000000  12.0000000  12.0000000  12.0000000  12.0000000  12.0000000   1.0078250   1.0078250   1.0078250
 NucSpn=           2           0           0           0           0           0           0           1           1           1
 AtZEff=  -0.0000000  -0.0000000  -0.0000000  -0.0000000  -0.0000000  -0.0000000  -0.0000000  -0.0000000  -0.0000000  -0.0000000
 NQMom=    2.0440000   0.0000000   0.0000000   0.0000000   0.0000000   0.0000000   0.0000000   0.0000000   0.0000000   0.0000000
 NMagM=    0.4037610   0.0000000   0.0000000   0.0000000   0.0000000   0.0000000   0.0000000   2.7928460   2.7928460   2.7928460
 AtZNuc=   7.0000000   6.0000000   6.0000000   6.0000000   6.0000000   6.0000000   6.0000000   1.0000000   1.0000000   1.0000000

  Atom        11          12          13          14
 IAtWgt=           1           1           1           1
 AtmWgt=   1.0078250   1.0078250   1.0078250   1.0078250
 NucSpn=           1           1           1           1
 AtZEff=  -0.0000000  -0.0000000  -0.0000000  -0.0000000
 NQMom=    0.0000000   0.0000000   0.0000000   0.0000000
 NMagM=    2.7928460   2.7928460   2.7928460   2.7928460
 AtZNuc=   1.0000000   1.0000000   1.0000000   1.0000000
 Leave Link  101 at Mon Oct 14 11:06:18 2019, MaxMem= 10737418240 cpu:               8.4 elap:               0.4
 (Enter /apps/cent7/gaussian/g16-A.03/g16-haswell/g16/l103.exe)

 GradGradGradGradGradGradGradGradGradGradGradGradGradGradGradGradGradGrad
 Berny optimization.
 Initialization pass.
                           ----------------------------
                           !    Initial Parameters    !
                           ! (Angstroms and Degrees)  !
 --------------------------                            --------------------------
 ! Name  Definition              Value          Derivative Info.                !
 --------------------------------------------------------------------------------
 ! R1    R(1,2)                  1.47           estimate D2E/DX2                !
 ! R2    R(1,8)                  1.0            estimate D2E/DX2                !
 ! R3    R(1,9)                  1.0            estimate D2E/DX2                !
 ! R4    R(2,3)                  1.3552         estimate D2E/DX2                !
 ! R5    R(2,7)                  1.54           estimate D2E/DX2                !
 ! R6    R(3,4)                  1.54           estimate D2E/DX2                !
 ! R7    R(3,10)                 1.07           estimate D2E/DX2                !
 ! R8    R(4,5)                  1.3552         estimate D2E/DX2                !
 ! R9    R(4,11)                 1.07           estimate D2E/DX2                !
 ! R10   R(5,6)                  1.54           estimate D2E/DX2                !
 ! R11   R(5,12)                 1.07           estimate D2E/DX2                !
 ! R12   R(6,7)                  1.3552         estimate D2E/DX2                !
 ! R13   R(6,13)                 1.07           estimate D2E/DX2                !
 ! R14   R(7,14)                 1.07           estimate D2E/DX2                !
 ! A1    A(2,1,8)              109.4712         estimate D2E/DX2                !
 ! A2    A(2,1,9)              109.4712         estimate D2E/DX2                !
 ! A3    A(8,1,9)              109.4712         estimate D2E/DX2                !
 ! A4    A(1,2,3)              120.0            estimate D2E/DX2                !
 ! A5    A(1,2,7)              120.0            estimate D2E/DX2                !
 ! A6    A(3,2,7)              120.0            estimate D2E/DX2                !
 ! A7    A(2,3,4)              120.0            estimate D2E/DX2                !
 ! A8    A(2,3,10)             120.0            estimate D2E/DX2                !
 ! A9    A(4,3,10)             120.0            estimate D2E/DX2                !
 ! A10   A(3,4,5)              120.0            estimate D2E/DX2                !
 ! A11   A(3,4,11)             120.0            estimate D2E/DX2                !
 ! A12   A(5,4,11)             120.0            estimate D2E/DX2                !
 ! A13   A(4,5,6)              120.0            estimate D2E/DX2                !
 ! A14   A(4,5,12)             120.0            estimate D2E/DX2                !
 ! A15   A(6,5,12)             120.0            estimate D2E/DX2                !
 ! A16   A(5,6,7)              120.0            estimate D2E/DX2                !
 ! A17   A(5,6,13)             120.0            estimate D2E/DX2                !
 ! A18   A(7,6,13)             120.0            estimate D2E/DX2                !
 ! A19   A(2,7,6)              120.0            estimate D2E/DX2                !
 ! A20   A(2,7,14)             120.0            estimate D2E/DX2                !
 ! A21   A(6,7,14)             120.0            estimate D2E/DX2                !
 ! D1    D(8,1,2,3)             30.0            estimate D2E/DX2                !
 ! D2    D(8,1,2,7)           -150.0            estimate D2E/DX2                !
 ! D3    D(9,1,2,3)            150.0            estimate D2E/DX2                !
 ! D4    D(9,1,2,7)            -30.0            estimate D2E/DX2                !
 ! D5    D(1,2,3,4)           -180.0            estimate D2E/DX2                !
 ! D6    D(1,2,3,10)             0.0            estimate D2E/DX2                !
 ! D7    D(7,2,3,4)              0.0            estimate D2E/DX2                !
 ! D8    D(7,2,3,10)          -180.0            estimate D2E/DX2                !
 ! D9    D(1,2,7,6)            180.0            estimate D2E/DX2                !
 ! D10   D(1,2,7,14)             0.0            estimate D2E/DX2                !
 ! D11   D(3,2,7,6)              0.0            estimate D2E/DX2                !
 ! D12   D(3,2,7,14)           180.0            estimate D2E/DX2                !
 ! D13   D(2,3,4,5)              0.0            estimate D2E/DX2                !
 ! D14   D(2,3,4,11)          -180.0            estimate D2E/DX2                !
 ! D15   D(10,3,4,5)          -180.0            estimate D2E/DX2                !
 ! D16   D(10,3,4,11)            0.0            estimate D2E/DX2                !
 ! D17   D(3,4,5,6)             -0.0001         estimate D2E/DX2                !
 ! D18   D(3,4,5,12)          -180.0            estimate D2E/DX2                !
 ! D19   D(11,4,5,6)           180.0            estimate D2E/DX2                !
 ! D20   D(11,4,5,12)            0.0001         estimate D2E/DX2                !
 ! D21   D(4,5,6,7)              0.0001         estimate D2E/DX2                !
 ! D22   D(4,5,6,13)          -179.9999         estimate D2E/DX2                !
 ! D23   D(12,5,6,7)           180.0            estimate D2E/DX2                !
 ! D24   D(12,5,6,13)            0.0            estimate D2E/DX2                !
 ! D25   D(5,6,7,2)              0.0            estimate D2E/DX2                !
 ! D26   D(5,6,7,14)           180.0            estimate D2E/DX2                !
 ! D27   D(13,6,7,2)           180.0            estimate D2E/DX2                !
 ! D28   D(13,6,7,14)            0.0            estimate D2E/DX2                !
 --------------------------------------------------------------------------------
 Trust Radius=3.00D-01 FncErr=1.00D-07 GrdErr=1.00D-06 EigMax=2.50D+02 EigMin=1.00D-04
 Number of steps in this run=     73 maximum allowed number of steps=    100.
 GradGradGradGradGradGradGradGradGradGradGradGradGradGradGradGradGradGrad

 Leave Link  103 at Mon Oct 14 11:06:18 2019, MaxMem= 10737418240 cpu:               0.3 elap:               0.0
 (Enter /apps/cent7/gaussian/g16-A.03/g16-haswell/g16/l202.exe)
                          Input orientation:                          
 ---------------------------------------------------------------------
 Center     Atomic      Atomic             Coordinates (Angstroms)
 Number     Number       Type             X           Y           Z
 ---------------------------------------------------------------------
      1          7           0       -0.764202   -1.250021    0.300768
      2          6           0       -0.033918    0.019106    0.170767
      3          6           0       -0.715845    1.184683    0.056863
      4          6           0        0.049215    2.514245   -0.079330
      5          6           0        1.404395    2.518682   -0.085275
      6          6           0        2.179312    1.194164    0.044162
      7          6           0        1.506059    0.024149    0.164011
      8          1           0       -1.640309   -1.180856   -0.176363
      9          1           0       -0.223099   -1.988657   -0.101256
     10          1           0       -1.785829    1.181179    0.061557
     11          1           0       -0.489201    3.434527   -0.169263
     12          1           0        1.935963    3.442469   -0.179902
     13          1           0        3.249296    1.197668    0.039468
     14          1           0        2.044475   -0.896133    0.253944
 ---------------------------------------------------------------------
                    Distance matrix (angstroms):
                    1          2          3          4          5
     1  N    0.000000
     2  C    1.470000   0.000000
     3  C    2.447368   1.355200   0.000000
     4  C    3.869860   2.509019   1.540000   0.000000
     5  C    4.365200   2.895200   2.509019   1.355200   0.000000
     6  C    3.834601   2.509019   2.895200   2.509019   1.540000
     7  C    2.606971   1.540000   2.509019   2.895200   2.509019
     8  H    1.000000   2.034920   2.550451   4.064194   4.792192
     9  H    1.000000   2.034920   3.215258   4.511182   4.792192
    10  H    2.647957   2.105120   1.070000   2.272510   3.462370
    11  H    4.716094   3.462370   2.272510   1.070000   2.105120
    12  H    5.435200   3.965200   3.490808   2.105120   1.070000
    13  H    4.708251   3.490808   3.965200   3.462370   2.272510
    14  H    2.831272   2.272510   3.462370   3.965200   3.490808
                    6          7          8          9         10
     6  C    0.000000
     7  C    1.355200   0.000000
     8  H    4.503205   3.386373   0.000000
     9  H    3.990373   2.666785   1.632993   0.000000
    10  H    3.965200   3.490808   2.378443   3.537866   0.000000
    11  H    3.490808   3.965200   4.756770   5.430135   2.610000
    12  H    2.272510   3.462370   5.845072   5.845072   4.361590
    13  H    1.070000   2.105120   5.441708   4.714870   5.035200
    14  H    2.105120   1.070000   3.720734   2.541981   4.361590
                   11         12         13         14
    11  H    0.000000
    12  H    2.425200   0.000000
    13  H    4.361590   2.610000   0.000000
    14  H    5.035200   4.361590   2.425200   0.000000
 Stoichiometry    C6H7N
 Framework group  C1[X(C6H7N)]
 Deg. of freedom    36
 Full point group                 C1      NOp   1
 Largest Abelian subgroup         C1      NOp   1
 Largest concise Abelian subgroup C1      NOp   1
                         Standard orientation:                         
 ---------------------------------------------------------------------
 Center     Atomic      Atomic             Coordinates (Angstroms)
 Number     Number       Type             X           Y           Z
 ---------------------------------------------------------------------
      1          7           0       -2.428868   -0.001359   -0.072070
      2          6           0       -0.959455   -0.027647   -0.039878
      3          6           0       -0.303112   -1.213215   -0.025410
      4          6           0        1.236272   -1.240756    0.008316
      5          6           0        1.934587   -0.079424    0.023527
      6          6           0        1.188742    1.267812    0.007086
      7          6           0       -0.165916    1.292048   -0.022593
      8          1           0       -2.786992   -0.811728    0.391663
      9          1           0       -2.757793    0.821004    0.392180
     10          1           0       -0.854467   -2.130147   -0.037420
     11          1           0        1.754489   -2.176823    0.019739
     12          1           0        3.004159   -0.098559    0.046960
     13          1           0        1.740098    2.184744    0.019095
     14          1           0       -0.684133    2.228115   -0.034016
 ---------------------------------------------------------------------
 Rotational constants (GHZ):           5.2391239           2.4335997           1.6661564
 Leave Link  202 at Mon Oct 14 11:06:18 2019, MaxMem= 10737418240 cpu:               0.3 elap:               0.0
 (Enter /apps/cent7/gaussian/g16-A.03/g16-haswell/g16/l301.exe)
 Standard basis: 6-31G(d) (6D, 7F)
 Ernie: Thresh=  0.10000D-02 Tol=  0.10000D-05 Strict=F.
 There are   119 symmetry adapted cartesian basis functions of A   symmetry.
 There are   119 symmetry adapted basis functions of A   symmetry.
   119 basis functions,   224 primitive gaussians,   119 cartesian basis functions
    25 alpha electrons       25 beta electrons
       nuclear repulsion energy       263.7812720947 Hartrees.
 IExCor=  402 DFT=T Ex+Corr=B3LYP ExCW=0 ScaHFX=  0.200000
 ScaDFX=  0.800000  0.720000  1.000000  0.810000 ScalE2=  1.000000  1.000000
 IRadAn=      5 IRanWt=     -1 IRanGd=            0 ICorTp=0 IEmpDi=  4
 NAtoms=   14 NActive=   14 NUniq=   14 SFac= 1.00D+00 NAtFMM=   60 NAOKFM=F Big=F
 Integral buffers will be    131072 words long.
 Raffenetti 2 integral format.
 Two-electron integral symmetry is turned on.
 Leave Link  301 at Mon Oct 14 11:06:18 2019, MaxMem= 10737418240 cpu:               1.3 elap:               0.1
 (Enter /apps/cent7/gaussian/g16-A.03/g16-haswell/g16/l302.exe)
 NPDir=0 NMtPBC=     1 NCelOv=     1 NCel=       1 NClECP=     1 NCelD=      1
         NCelK=      1 NCelE2=     1 NClLst=     1 CellRange=     0.0.
 One-electron integrals computed using PRISM.
 One-electron integral symmetry used in STVInt
 NBasis=   119 RedAO= T EigKep=  6.31D-04  NBF=   119
 NBsUse=   119 1.00D-06 EigRej= -1.00D+00 NBFU=   119
 Precomputing XC quadrature grid using
 IXCGrd= 4 IRadAn=           5 IRanWt=          -1 IRanGd=           0 AccXCQ= 0.00D+00.
 Generated NRdTot=       0 NPtTot=           0 NUsed=           0 NTot=          32
 NSgBfM=   119   119   119   119   119 MxSgAt=    14 MxSgA2=    14.
 Leave Link  302 at Mon Oct 14 11:06:18 2019, MaxMem= 10737418240 cpu:               3.0 elap:               0.2
 (Enter /apps/cent7/gaussian/g16-A.03/g16-haswell/g16/l303.exe)
 DipDrv:  MaxL=1.
 Leave Link  303 at Mon Oct 14 11:06:18 2019, MaxMem= 10737418240 cpu:               0.6 elap:               0.0
 (Enter /apps/cent7/gaussian/g16-A.03/g16-haswell/g16/l401.exe)
 ExpMin= 1.61D-01 ExpMax= 4.17D+03 ExpMxC= 6.27D+02 IAcc=3 IRadAn=         5 AccDes= 0.00D+00
 Harris functional with IExCor=  402 and IRadAn=       5 diagonalized for initial guess.
 HarFok:  IExCor=  402 AccDes= 0.00D+00 IRadAn=         5 IDoV= 1 UseB2=F ITyADJ=14
 ICtDFT=  3500011 ScaDFX=  1.000000  1.000000  1.000000  1.000000
 FoFCou: FMM=F IPFlag=           0 FMFlag=      100000 FMFlg1=           0
         NFxFlg=           0 DoJE=T BraDBF=F KetDBF=T FulRan=T
         wScrn=  0.000000 ICntrl=       500 IOpCl=  0 I1Cent=   200000004 NGrid=           0
         NMat0=    1 NMatS0=      1 NMatT0=    0 NMatD0=    1 NMtDS0=    0 NMtDT0=    0
 Petite list used in FoFCou.
 Harris En= -287.587941834169    
 JPrj=0 DoOrth=F DoCkMO=F.
 Leave Link  401 at Mon Oct 14 11:06:18 2019, MaxMem= 10737418240 cpu:               6.0 elap:               0.3
 (Enter /apps/cent7/gaussian/g16-A.03/g16-haswell/g16/l502.exe)
 Integral symmetry usage will be decided dynamically.
 Closed shell SCF:
 Using DIIS extrapolation, IDIIS=  1040.
 NGot= 10737418240 LenX= 10737385609 LenY= 10737371007
 Requested convergence on RMS density matrix=1.00D-08 within 128 cycles.
 Requested convergence on MAX density matrix=1.00D-06.
 Requested convergence on             energy=1.00D-06.
 No special actions if energy rises.
 Fock matrices will be formed incrementally for  20 cycles.
 Integral accuracy reduced to 1.0D-05 until final iterations.

 Cycle   1  Pass 0  IDiag  1:
 FoFJK:  IHMeth= 1 ICntrl=       0 DoSepK=F KAlg= 0 I1Cent=           0 FoldK=F
 IRaf= 980000000 NMat=       1 IRICut=       1 DoRegI=T DoRafI=F ISym2E= 0 IDoP0=0 IntGTp=1.
 FoFCou: FMM=F IPFlag=           0 FMFlag=      100000 FMFlg1=           0
         NFxFlg=           0 DoJE=F BraDBF=F KetDBF=F FulRan=T
         wScrn=  0.000000 ICntrl=         0 IOpCl=  0 I1Cent=           0 NGrid=           0
         NMat0=    1 NMatS0=      1 NMatT0=    0 NMatD0=    1 NMtDS0=    0 NMtDT0=    0
 Symmetry not used in FoFCou.
 E= -287.393990533200    
 DIIS: error= 4.21D-02 at cycle   1 NSaved=   1.
 NSaved= 1 IEnMin= 1 EnMin= -287.393990533200     IErMin= 1 ErrMin= 4.21D-02
 ErrMax= 4.21D-02  0.00D+00 EMaxC= 1.00D-01 BMatC= 1.64D-01 BMatP= 1.64D-01
 IDIUse=3 WtCom= 5.79D-01 WtEn= 4.21D-01
 Coeff-Com:  0.100D+01
 Coeff-En:   0.100D+01
 Coeff:      0.100D+01
 Gap=     0.208 Goal=   None    Shift=    0.000
 GapD=    0.208 DampG=1.000 DampE=0.500 DampFc=0.5000 IDamp=-1.
 Damping current iteration by 5.00D-01
 RMSDP=7.25D-03 MaxDP=1.24D-01              OVMax= 1.52D-01

 Cycle   2  Pass 0  IDiag  1:
 RMSU=  3.55D-03    CP:  9.74D-01
 E= -287.476494273755     Delta-E=       -0.082503740555 Rises=F Damp=T
 DIIS: error= 6.43D-03 at cycle   2 NSaved=   2.
 NSaved= 2 IEnMin= 2 EnMin= -287.476494273755     IErMin= 2 ErrMin= 6.43D-03
 ErrMax= 6.43D-03  0.00D+00 EMaxC= 1.00D-01 BMatC= 7.95D-03 BMatP= 1.64D-01
 IDIUse=3 WtCom= 9.36D-01 WtEn= 6.43D-02
 Coeff-Com:  0.159D-01 0.984D+00
 Coeff-En:   0.122D-01 0.988D+00
 Coeff:      0.156D-01 0.984D+00
 Gap=     0.209 Goal=   None    Shift=    0.000
 RMSDP=1.40D-03 MaxDP=2.80D-02 DE=-8.25D-02 OVMax= 9.89D-02

 Cycle   3  Pass 0  IDiag  1:
 RMSU=  1.38D-03    CP:  9.68D-01  9.36D-01
 E= -287.563194600126     Delta-E=       -0.086700326370 Rises=F Damp=F
 DIIS: error= 5.51D-03 at cycle   3 NSaved=   3.
 NSaved= 3 IEnMin= 3 EnMin= -287.563194600126     IErMin= 3 ErrMin= 5.51D-03
 ErrMax= 5.51D-03  0.00D+00 EMaxC= 1.00D-01 BMatC= 3.65D-03 BMatP= 7.95D-03
 IDIUse=3 WtCom= 9.45D-01 WtEn= 5.51D-02
 Coeff-Com: -0.294D-01 0.385D+00 0.644D+00
 Coeff-En:   0.000D+00 0.000D+00 0.100D+01
 Coeff:     -0.278D-01 0.364D+00 0.664D+00
 Gap=     0.206 Goal=   None    Shift=    0.000
 RMSDP=8.18D-04 MaxDP=2.35D-02 DE=-8.67D-02 OVMax= 3.82D-02

 Cycle   4  Pass 0  IDiag  1:
 RMSU=  6.91D-04    CP:  9.69D-01  9.62D-01  6.89D-01
 E= -287.564652155113     Delta-E=       -0.001457554987 Rises=F Damp=F
 DIIS: error= 4.98D-03 at cycle   4 NSaved=   4.
 NSaved= 4 IEnMin= 4 EnMin= -287.564652155113     IErMin= 4 ErrMin= 4.98D-03
 ErrMax= 4.98D-03  0.00D+00 EMaxC= 1.00D-01 BMatC= 2.07D-03 BMatP= 3.65D-03
 IDIUse=3 WtCom= 9.50D-01 WtEn= 4.98D-02
 Coeff-Com: -0.175D-01 0.101D+00 0.439D+00 0.478D+00
 Coeff-En:   0.000D+00 0.000D+00 0.400D+00 0.600D+00
 Coeff:     -0.167D-01 0.957D-01 0.437D+00 0.484D+00
 Gap=     0.205 Goal=   None    Shift=    0.000
 RMSDP=4.50D-04 MaxDP=1.01D-02 DE=-1.46D-03 OVMax= 2.12D-02

 Cycle   5  Pass 0  IDiag  1:
 RMSU=  1.62D-04    CP:  9.68D-01  9.65D-01  8.03D-01  4.37D-01
 E= -287.566907780026     Delta-E=       -0.002255624913 Rises=F Damp=F
 DIIS: error= 7.14D-04 at cycle   5 NSaved=   5.
 NSaved= 5 IEnMin= 5 EnMin= -287.566907780026     IErMin= 5 ErrMin= 7.14D-04
 ErrMax= 7.14D-04  0.00D+00 EMaxC= 1.00D-01 BMatC= 6.67D-05 BMatP= 2.07D-03
 IDIUse=3 WtCom= 9.93D-01 WtEn= 7.14D-03
 Coeff-Com: -0.508D-02 0.179D-01 0.161D+00 0.236D+00 0.591D+00
 Coeff-En:   0.000D+00 0.000D+00 0.000D+00 0.000D+00 0.100D+01
 Coeff:     -0.505D-02 0.178D-01 0.160D+00 0.234D+00 0.594D+00
 Gap=     0.206 Goal=   None    Shift=    0.000
 RMSDP=8.64D-05 MaxDP=1.78D-03 DE=-2.26D-03 OVMax= 4.34D-03

 Cycle   6  Pass 0  IDiag  1:
 RMSU=  5.10D-05    CP:  9.68D-01  9.69D-01  7.97D-01  5.02D-01  6.95D-01
 E= -287.566969502024     Delta-E=       -0.000061721998 Rises=F Damp=F
 DIIS: error= 2.24D-04 at cycle   6 NSaved=   6.
 NSaved= 6 IEnMin= 6 EnMin= -287.566969502024     IErMin= 6 ErrMin= 2.24D-04
 ErrMax= 2.24D-04  0.00D+00 EMaxC= 1.00D-01 BMatC= 1.01D-05 BMatP= 6.67D-05
 IDIUse=3 WtCom= 9.98D-01 WtEn= 2.24D-03
 Coeff-Com: -0.171D-02 0.292D-02 0.590D-01 0.979D-01 0.351D+00 0.491D+00
 Coeff-En:   0.000D+00 0.000D+00 0.000D+00 0.000D+00 0.812D-01 0.919D+00
 Coeff:     -0.170D-02 0.291D-02 0.589D-01 0.977D-01 0.350D+00 0.492D+00
 Gap=     0.206 Goal=   None    Shift=    0.000
 RMSDP=2.64D-05 MaxDP=5.34D-04 DE=-6.17D-05 OVMax= 8.74D-04

 Cycle   7  Pass 0  IDiag  1:
 RMSU=  7.97D-06    CP:  9.68D-01  9.67D-01  8.02D-01  5.01D-01  7.19D-01
                    CP:  5.73D-01
 E= -287.566979288154     Delta-E=       -0.000009786130 Rises=F Damp=F
 DIIS: error= 1.22D-05 at cycle   7 NSaved=   7.
 NSaved= 7 IEnMin= 7 EnMin= -287.566979288154     IErMin= 7 ErrMin= 1.22D-05
 ErrMax= 1.22D-05  0.00D+00 EMaxC= 1.00D-01 BMatC= 3.71D-08 BMatP= 1.01D-05
 IDIUse=1 WtCom= 1.00D+00 WtEn= 0.00D+00
 Coeff-Com: -0.239D-03 0.726D-04 0.102D-01 0.175D-01 0.725D-01 0.119D+00
 Coeff-Com:  0.781D+00
 Coeff:     -0.239D-03 0.726D-04 0.102D-01 0.175D-01 0.725D-01 0.119D+00
 Coeff:      0.781D+00
 Gap=     0.206 Goal=   None    Shift=    0.000
 RMSDP=2.56D-06 MaxDP=5.72D-05 DE=-9.79D-06 OVMax= 1.01D-04

 Initial convergence to 1.0D-05 achieved.  Increase integral accuracy.
 Cycle   8  Pass 1  IDiag  1:
 E= -287.566977292255     Delta-E=        0.000001995899 Rises=F Damp=F
 DIIS: error= 1.12D-05 at cycle   1 NSaved=   1.
 NSaved= 1 IEnMin= 1 EnMin= -287.566977292255     IErMin= 1 ErrMin= 1.12D-05
 ErrMax= 1.12D-05  0.00D+00 EMaxC= 1.00D-01 BMatC= 2.43D-08 BMatP= 2.43D-08
 IDIUse=1 WtCom= 1.00D+00 WtEn= 0.00D+00
 Coeff-Com:  0.100D+01
 Coeff:      0.100D+01
 Gap=     0.206 Goal=   None    Shift=    0.000
 RMSDP=2.56D-06 MaxDP=5.72D-05 DE= 2.00D-06 OVMax= 1.50D-04

 Cycle   9  Pass 1  IDiag  1:
 RMSU=  3.86D-06    CP:  1.00D+00
 E= -287.566977252202     Delta-E=        0.000000040053 Rises=F Damp=F
 DIIS: error= 2.00D-05 at cycle   2 NSaved=   2.
 NSaved= 2 IEnMin= 1 EnMin= -287.566977292255     IErMin= 1 ErrMin= 1.12D-05
 ErrMax= 2.00D-05  0.00D+00 EMaxC= 1.00D-01 BMatC= 5.98D-08 BMatP= 2.43D-08
 IDIUse=1 WtCom= 1.00D+00 WtEn= 0.00D+00
 Coeff-Com:  0.618D+00 0.382D+00
 Coeff:      0.618D+00 0.382D+00
 Gap=     0.206 Goal=   None    Shift=    0.000
 RMSDP=2.16D-06 MaxDP=5.86D-05 DE= 4.01D-08 OVMax= 1.06D-04

 Cycle  10  Pass 1  IDiag  1:
 RMSU=  1.29D-06    CP:  1.00D+00  5.51D-01
 E= -287.566977317375     Delta-E=       -0.000000065173 Rises=F Damp=F
 DIIS: error= 2.74D-06 at cycle   3 NSaved=   3.
 NSaved= 3 IEnMin= 3 EnMin= -287.566977317375     IErMin= 3 ErrMin= 2.74D-06
 ErrMax= 2.74D-06  0.00D+00 EMaxC= 1.00D-01 BMatC= 7.13D-10 BMatP= 2.43D-08
 IDIUse=1 WtCom= 1.00D+00 WtEn= 0.00D+00
 Coeff-Com:  0.118D+00 0.123D+00 0.759D+00
 Coeff:      0.118D+00 0.123D+00 0.759D+00
 Gap=     0.206 Goal=   None    Shift=    0.000
 RMSDP=4.10D-07 MaxDP=1.19D-05 DE=-6.52D-08 OVMax= 2.09D-05

 Cycle  11  Pass 1  IDiag  1:
 RMSU=  3.25D-07    CP:  1.00D+00  5.99D-01  8.70D-01
 E= -287.566977317631     Delta-E=       -0.000000000255 Rises=F Damp=F
 DIIS: error= 1.62D-06 at cycle   4 NSaved=   4.
 NSaved= 4 IEnMin= 4 EnMin= -287.566977317631     IErMin= 4 ErrMin= 1.62D-06
 ErrMax= 1.62D-06  0.00D+00 EMaxC= 1.00D-01 BMatC= 5.64D-10 BMatP= 7.13D-10
 IDIUse=1 WtCom= 1.00D+00 WtEn= 0.00D+00
 Coeff-Com: -0.717D-02 0.294D-01 0.521D+00 0.457D+00
 Coeff:     -0.717D-02 0.294D-01 0.521D+00 0.457D+00
 Gap=     0.206 Goal=   None    Shift=    0.000
 RMSDP=1.86D-07 MaxDP=5.86D-06 DE=-2.55D-10 OVMax= 8.97D-06

 Cycle  12  Pass 1  IDiag  1:
 RMSU=  4.17D-08    CP:  1.00D+00  5.93D-01  9.20D-01  4.85D-01
 E= -287.566977318222     Delta-E=       -0.000000000592 Rises=F Damp=F
 DIIS: error= 1.30D-07 at cycle   5 NSaved=   5.
 NSaved= 5 IEnMin= 5 EnMin= -287.566977318222     IErMin= 5 ErrMin= 1.30D-07
 ErrMax= 1.30D-07  0.00D+00 EMaxC= 1.00D-01 BMatC= 1.85D-12 BMatP= 5.64D-10
 IDIUse=1 WtCom= 1.00D+00 WtEn= 0.00D+00
 Coeff-Com: -0.428D-02 0.770D-02 0.173D+00 0.155D+00 0.669D+00
 Coeff:     -0.428D-02 0.770D-02 0.173D+00 0.155D+00 0.669D+00
 Gap=     0.206 Goal=   None    Shift=    0.000
 RMSDP=1.60D-08 MaxDP=3.31D-07 DE=-5.92D-10 OVMax= 4.35D-07

 Cycle  13  Pass 1  IDiag  1:
 RMSU=  1.16D-08    CP:  1.00D+00  5.93D-01  9.24D-01  4.87D-01  7.64D-01
 E= -287.566977318224     Delta-E=       -0.000000000002 Rises=F Damp=F
 DIIS: error= 4.81D-08 at cycle   6 NSaved=   6.
 NSaved= 6 IEnMin= 6 EnMin= -287.566977318224     IErMin= 6 ErrMin= 4.81D-08
 ErrMax= 4.81D-08  0.00D+00 EMaxC= 1.00D-01 BMatC= 5.76D-13 BMatP= 1.85D-12
 IDIUse=1 WtCom= 1.00D+00 WtEn= 0.00D+00
 Coeff-Com: -0.199D-02 0.195D-02 0.590D-01 0.512D-01 0.387D+00 0.503D+00
 Coeff:     -0.199D-02 0.195D-02 0.590D-01 0.512D-01 0.387D+00 0.503D+00
 Gap=     0.206 Goal=   None    Shift=    0.000
 RMSDP=5.61D-09 MaxDP=1.35D-07 DE=-2.05D-12 OVMax= 1.96D-07

 SCF Done:  E(RB3LYP) =  -287.566977318     A.U. after   13 cycles
            NFock= 13  Conv=0.56D-08     -V/T= 2.0113
 KE= 2.843499236931D+02 PE=-1.193875410988D+03 EE= 3.581772378820D+02
 Leave Link  502 at Mon Oct 14 11:06:20 2019, MaxMem= 10737418240 cpu:              40.8 elap:               1.7
 (Enter /apps/cent7/gaussian/g16-A.03/g16-haswell/g16/l601.exe)
 Copying SCF densities to generalized density rwf, IOpCl= 0 IROHF=0.

 **********************************************************************

            Population analysis using the SCF density.

 **********************************************************************

 Orbital symmetries:
       Occupied  (A) (A) (A) (A) (A) (A) (A) (A) (A) (A) (A) (A)
                 (A) (A) (A) (A) (A) (A) (A) (A) (A) (A) (A) (A)
                 (A)
       Virtual   (A) (A) (A) (A) (A) (A) (A) (A) (A) (A) (A) (A)
                 (A) (A) (A) (A) (A) (A) (A) (A) (A) (A) (A) (A)
                 (A) (A) (A) (A) (A) (A) (A) (A) (A) (A) (A) (A)
                 (A) (A) (A) (A) (A) (A) (A) (A) (A) (A) (A) (A)
                 (A) (A) (A) (A) (A) (A) (A) (A) (A) (A) (A) (A)
                 (A) (A) (A) (A) (A) (A) (A) (A) (A) (A) (A) (A)
                 (A) (A) (A) (A) (A) (A) (A) (A) (A) (A) (A) (A)
                 (A) (A) (A) (A) (A) (A) (A) (A) (A) (A)
 The electronic state is 1-A.
 Alpha  occ. eigenvalues --  -14.33420 -10.23182 -10.19491 -10.19398 -10.19224
 Alpha  occ. eigenvalues --  -10.18572 -10.18306  -0.89869  -0.81186  -0.73447
 Alpha  occ. eigenvalues --   -0.71624  -0.59814  -0.58004  -0.50684  -0.49632
 Alpha  occ. eigenvalues --   -0.47691  -0.42642  -0.41963  -0.40988  -0.36100
 Alpha  occ. eigenvalues --   -0.34408  -0.33527  -0.29569  -0.24253  -0.20596
 Alpha virt. eigenvalues --   -0.00029   0.01437   0.08554   0.10632   0.12948
 Alpha virt. eigenvalues --    0.15198   0.15750   0.16692   0.18054   0.18656
 Alpha virt. eigenvalues --    0.21459   0.27106   0.29218   0.33079   0.34371
 Alpha virt. eigenvalues --    0.45041   0.48226   0.52974   0.54962   0.56433
 Alpha virt. eigenvalues --    0.57044   0.59520   0.60542   0.61033   0.61149
 Alpha virt. eigenvalues --    0.64802   0.65519   0.66825   0.67620   0.71087
 Alpha virt. eigenvalues --    0.75845   0.81471   0.83926   0.85205   0.87022
 Alpha virt. eigenvalues --    0.89255   0.90171   0.91336   0.92057   0.93978
 Alpha virt. eigenvalues --    0.94900   0.97223   0.98549   1.03917   1.09833
 Alpha virt. eigenvalues --    1.10353   1.15460   1.17095   1.28085   1.31587
 Alpha virt. eigenvalues --    1.39333   1.42933   1.45440   1.48335   1.49936
 Alpha virt. eigenvalues --    1.51846   1.53589   1.62797   1.79446   1.83632
 Alpha virt. eigenvalues --    1.85618   1.89438   1.91245   1.93502   1.96048
 Alpha virt. eigenvalues --    1.98618   2.02054   2.07528   2.09920   2.15631
 Alpha virt. eigenvalues --    2.17542   2.20350   2.28597   2.31368   2.39173
 Alpha virt. eigenvalues --    2.42396   2.46718   2.54048   2.55362   2.60159
 Alpha virt. eigenvalues --    2.66597   2.68233   2.71612   2.75351   2.85153
 Alpha virt. eigenvalues --    3.00597   3.29096   3.81238   4.04140   4.10788
 Alpha virt. eigenvalues --    4.12048   4.33074   4.35325   4.63967
          Condensed to atoms (all electrons):
               1          2          3          4          5          6
     1  N    6.953278   0.314189  -0.067107   0.003462   0.000322   0.003344
     2  C    0.314189   4.567548   0.595432  -0.012335  -0.029563  -0.016779
     3  C   -0.067107   0.595432   5.010803   0.454966  -0.036301  -0.034219
     4  C    0.003462  -0.012335   0.454966   4.853790   0.605312  -0.024945
     5  C    0.000322  -0.029563  -0.036301   0.605312   4.889182   0.462717
     6  C    0.003344  -0.016779  -0.034219  -0.024945   0.462717   4.875547
     7  C   -0.051028   0.459342  -0.045512  -0.031778  -0.035892   0.597039
     8  H    0.309644  -0.023425  -0.008838  -0.000095   0.000000  -0.000132
     9  H    0.308336  -0.027210   0.004921  -0.000161   0.000015  -0.000050
    10  H   -0.008546  -0.047113   0.352656  -0.036990   0.003756   0.000284
    11  H   -0.000077   0.002886  -0.037084   0.359116  -0.045099   0.004353
    12  H    0.000003   0.000567   0.004412  -0.044766   0.360085  -0.040021
    13  H   -0.000084   0.003438   0.000635   0.003548  -0.037693   0.357626
    14  H   -0.004116  -0.040219   0.004540   0.000290   0.004349  -0.045103
               7          8          9         10         11         12
     1  N   -0.051028   0.309644   0.308336  -0.008546  -0.000077   0.000003
     2  C    0.459342  -0.023425  -0.027210  -0.047113   0.002886   0.000567
     3  C   -0.045512  -0.008838   0.004921   0.352656  -0.037084   0.004412
     4  C   -0.031778  -0.000095  -0.000161  -0.036990   0.359116  -0.044766
     5  C   -0.035892   0.000000   0.000015   0.003756  -0.045099   0.360085
     6  C    0.597039  -0.000132  -0.000050   0.000284   0.004353  -0.040021
     7  C    4.943940   0.004294  -0.006338   0.005129   0.000551   0.003787
     8  H    0.004294   0.428583  -0.031566   0.005631  -0.000002  -0.000000
     9  H   -0.006338  -0.031566   0.433574  -0.000013   0.000003  -0.000000
    10  H    0.005129   0.005631  -0.000013   0.607532  -0.003142  -0.000145
    11  H    0.000551  -0.000002   0.000003  -0.003142   0.593213  -0.006411
    12  H    0.003787  -0.000000  -0.000000  -0.000145  -0.006411   0.598547
    13  H   -0.042058   0.000003  -0.000007   0.000012  -0.000155  -0.002828
    14  H    0.352494  -0.000141   0.003756  -0.000139   0.000012  -0.000146
              13         14
     1  N   -0.000084  -0.004116
     2  C    0.003438  -0.040219
     3  C    0.000635   0.004540
     4  C    0.003548   0.000290
     5  C   -0.037693   0.004349
     6  C    0.357626  -0.045103
     7  C   -0.042058   0.352494
     8  H    0.000003  -0.000141
     9  H   -0.000007   0.003756
    10  H    0.000012  -0.000139
    11  H   -0.000155   0.000012
    12  H   -0.002828  -0.000146
    13  H    0.590240  -0.006381
    14  H   -0.006381   0.603222
 Mulliken charges:
               1
     1  N   -0.761620
     2  C    0.253243
     3  C   -0.199304
     4  C   -0.129413
     5  C   -0.141190
     6  C   -0.139659
     7  C   -0.153970
     8  H    0.316043
     9  H    0.314741
    10  H    0.121088
    11  H    0.131834
    12  H    0.126918
    13  H    0.133704
    14  H    0.127583
 Sum of Mulliken charges =  -0.00000
 Mulliken charges with hydrogens summed into heavy atoms:
               1
     1  N   -0.130836
     2  C    0.253243
     3  C   -0.078215
     4  C    0.002422
     5  C   -0.014272
     6  C   -0.005955
     7  C   -0.026387
 Electronic spatial extent (au):  <R**2>=            722.0775
 Charge=              0.0000 electrons
 Dipole moment (field-independent basis, Debye):
    X=             -0.5243    Y=              0.1749    Z=              1.4321  Tot=              1.5350
 Quadrupole moment (field-independent basis, Debye-Ang):
   XX=            -36.0049   YY=            -35.6282   ZZ=            -45.3877
   XY=              0.0240   XZ=             -4.2884   YZ=              0.0107
 Traceless Quadrupole moment (field-independent basis, Debye-Ang):
   XX=              3.0020   YY=              3.3787   ZZ=             -6.3807
   XY=              0.0240   XZ=             -4.2884   YZ=              0.0107
 Octapole moment (field-independent basis, Debye-Ang**2):
  XXX=             -6.4798  YYY=              0.9203  ZZZ=              1.3614  XYY=             -4.3356
  XXY=             -0.5083  XXZ=             13.2481  XZZ=             -3.0927  YZZ=              0.1538
  YYZ=              0.9027  XYZ=             -0.0312
 Hexadecapole moment (field-independent basis, Debye-Ang**3):
 XXXX=           -545.4234 YYYY=           -291.2989 ZZZZ=            -48.1169 XXXY=              0.5233
 XXXZ=            -38.2479 YYYX=             -0.0046 YYYZ=              0.0134 ZZZX=             -4.1092
 ZZZY=              0.0059 XXYY=           -128.8408 XXZZ=           -116.3945 YYZZ=            -66.2766
 XXYZ=             -0.0230 YYXZ=             -2.7059 ZZXY=              0.0481
 N-N= 2.637812720947D+02 E-N=-1.193875413132D+03  KE= 2.843499236931D+02
 No NMR shielding tensors so no spin-rotation constants.
 Leave Link  601 at Mon Oct 14 11:06:20 2019, MaxMem= 10737418240 cpu:               2.9 elap:               0.2
 (Enter /apps/cent7/gaussian/g16-A.03/g16-haswell/g16/l701.exe)
 ... and contract with generalized density number  0.
 Compute integral first derivatives.
 Leave Link  701 at Mon Oct 14 11:06:20 2019, MaxMem= 10737418240 cpu:               2.3 elap:               0.1
 (Enter /apps/cent7/gaussian/g16-A.03/g16-haswell/g16/l702.exe)
 L702 exits ... SP integral derivatives will be done elsewhere.
 Leave Link  702 at Mon Oct 14 11:06:20 2019, MaxMem= 10737418240 cpu:               0.4 elap:               0.0
 (Enter /apps/cent7/gaussian/g16-A.03/g16-haswell/g16/l703.exe)
 Integral derivatives from FoFJK, PRISM(SPDF).
 Compute integral first derivatives, UseDBF=F ICtDFT=           0.
 Calling FoFJK, ICntrl=      2127 FMM=F ISym2X=0 I1Cent= 0 IOpClX= 0 NMat=1 NMatS=1 NMatT=0.
 FoFJK:  IHMeth= 1 ICntrl=    2127 DoSepK=F KAlg= 0 I1Cent=           0 FoldK=F
 IRaf=         0 NMat=       1 IRICut=       1 DoRegI=T DoRafI=F ISym2E= 0 IDoP0=0 IntGTp=1.
 FoFCou: FMM=F IPFlag=           0 FMFlag=      100000 FMFlg1=         800
         NFxFlg=           0 DoJE=F BraDBF=F KetDBF=F FulRan=T
         wScrn=  0.000000 ICntrl=      2127 IOpCl=  0 I1Cent=           0 NGrid=           0
         NMat0=    1 NMatS0=      1 NMatT0=    0 NMatD0=    1 NMtDS0=    0 NMtDT0=    0
 Symmetry not used in FoFCou.
 Leave Link  703 at Mon Oct 14 11:06:21 2019, MaxMem= 10737418240 cpu:              10.8 elap:               0.5
 (Enter /apps/cent7/gaussian/g16-A.03/g16-haswell/g16/l716.exe)
 Dipole        =-2.06293869D-01 6.87983364D-02 5.63414149D-01
 ***** Axes restored to original set *****
 -------------------------------------------------------------------
 Center     Atomic                   Forces (Hartrees/Bohr)
 Number     Number              X              Y              Z
 -------------------------------------------------------------------
      1        7           0.030891583    0.039064994    0.008654955
      2        6           0.041302092   -0.036184556    0.000232664
      3        6           0.039092130    0.065580749   -0.005967911
      4        6          -0.028017789   -0.066923602    0.007947155
      5        6           0.031239228   -0.059133130    0.005763851
      6        6          -0.043025313    0.056592655   -0.005006032
      7        6          -0.065624339    0.005857424    0.000449991
      8        1          -0.012711724   -0.001000965   -0.005861064
      9        1           0.005406223   -0.012836123   -0.004946493
     10        1          -0.011773846    0.003189356   -0.000477361
     11        1          -0.009461350    0.007571845   -0.000806026
     12        1           0.009110385    0.007774879   -0.000923453
     13        1           0.011323009    0.003036213   -0.000489088
     14        1           0.002249711   -0.012589740    0.001428812
 -------------------------------------------------------------------
 Cartesian Forces:  Max     0.066923602 RMS     0.027536750
 Leave Link  716 at Mon Oct 14 11:06:21 2019, MaxMem= 10737418240 cpu:               0.6 elap:               0.0
 (Enter /apps/cent7/gaussian/g16-A.03/g16-haswell/g16/l103.exe)

 GradGradGradGradGradGradGradGradGradGradGradGradGradGradGradGradGradGrad
 Berny optimization.
 FormGI is forming the generalized inverse of G from B-inverse, IUseBI=4.
 Internal  Forces:  Max     0.064849739 RMS     0.015381989
 Search for a local minimum.
 Step number   1 out of a maximum of   73
 All quantities printed in internal units (Hartrees-Bohrs-Radians)
 RMS Force = .15382D-01 SwitMx=.10000D-02 MixMth= 1
 Mixed Optimization -- RFO/linear search
 Second derivative matrix not updated -- first step.
 ITU=  0
     Eigenvalues ---    0.00753   0.00754   0.00766   0.01286   0.01394
     Eigenvalues ---    0.01459   0.01459   0.01474   0.02121   0.02165
     Eigenvalues ---    0.05453   0.16000   0.16000   0.16000   0.16000
     Eigenvalues ---    0.16000   0.16000   0.16000   0.22000   0.22000
     Eigenvalues ---    0.23465   0.25000   0.27913   0.28039   0.28519
     Eigenvalues ---    0.35740   0.37230   0.37230   0.37230   0.37230
     Eigenvalues ---    0.37230   0.47688   0.47688   0.51329   0.51405
     Eigenvalues ---    0.53930
 RFO step:  Lambda=-4.40854001D-02 EMin= 7.53418342D-03
 Linear search not attempted -- first point.
 Maximum step size (   0.300) exceeded in Quadratic search.
    -- Step size scaled by   0.827
 Iteration  1 RMS(Cart)=  0.05103699 RMS(Int)=  0.00047649
 Iteration  2 RMS(Cart)=  0.00045099 RMS(Int)=  0.00009781
 Iteration  3 RMS(Cart)=  0.00000026 RMS(Int)=  0.00009781
 ITry= 1 IFail=0 DXMaxC= 1.47D-01 DCOld= 1.00D+10 DXMaxT= 3.00D-01 DXLimC= 3.00D+00 Rises=F
 Variable       Old X    -DE/DX   Delta X   Delta X   Delta X     New X
                                 (Linear)    (Quad)   (Total)
    R1        2.77790  -0.03369   0.00000  -0.06938  -0.06938   2.70851
    R2        1.88973   0.01386   0.00000   0.02201   0.02201   1.91173
    R3        1.88973   0.01440   0.00000   0.02285   0.02285   1.91257
    R4        2.56096   0.01179   0.00000   0.01694   0.01690   2.57785
    R5        2.91018  -0.06173   0.00000  -0.15485  -0.15484   2.75533
    R6        2.91018  -0.06485   0.00000  -0.16263  -0.16268   2.74750
    R7        2.02201   0.01176   0.00000   0.02336   0.02336   2.04536
    R8        2.56096   0.00700   0.00000   0.00983   0.00983   2.57078
    R9        2.02201   0.01134   0.00000   0.02252   0.02252   2.04453
   R10        2.91018  -0.06352   0.00000  -0.15991  -0.15987   2.75031
   R11        2.02201   0.01132   0.00000   0.02248   0.02248   2.04449
   R12        2.56096   0.00585   0.00000   0.00817   0.00821   2.56917
   R13        2.02201   0.01133   0.00000   0.02251   0.02251   2.04452
   R14        2.02201   0.01208   0.00000   0.02399   0.02399   2.04600
    A1        1.91063   0.00293   0.00000   0.01440   0.01423   1.92486
    A2        1.91063   0.00518   0.00000   0.02350   0.02333   1.93397
    A3        1.91063  -0.00231   0.00000  -0.00433  -0.00465   1.90598
    A4        2.09440   0.01082   0.00000   0.03013   0.03008   2.12448
    A5        2.09440  -0.00910   0.00000  -0.02588  -0.02592   2.06847
    A6        2.09440  -0.00173   0.00000  -0.00425  -0.00434   2.09006
    A7        2.09440  -0.00071   0.00000  -0.00149  -0.00157   2.09283
    A8        2.09440   0.00366   0.00000   0.01412   0.01415   2.10855
    A9        2.09440  -0.00295   0.00000  -0.01263  -0.01259   2.08180
   A10        2.09440   0.00242   0.00000   0.00754   0.00750   2.10190
   A11        2.09440  -0.00560   0.00000  -0.02157  -0.02155   2.07285
   A12        2.09440   0.00318   0.00000   0.01402   0.01404   2.10844
   A13        2.09440  -0.00202   0.00000  -0.00711  -0.00707   2.08733
   A14        2.09440   0.00507   0.00000   0.02002   0.01999   2.11439
   A15        2.09440  -0.00305   0.00000  -0.01290  -0.01292   2.08147
   A16        2.09440   0.00178   0.00000   0.00469   0.00479   2.09918
   A17        2.09440  -0.00395   0.00000  -0.01475  -0.01480   2.07960
   A18        2.09440   0.00217   0.00000   0.01006   0.01001   2.10440
   A19        2.09440   0.00026   0.00000   0.00062   0.00068   2.09507
   A20        2.09440  -0.00461   0.00000  -0.01846  -0.01849   2.07590
   A21        2.09440   0.00435   0.00000   0.01784   0.01781   2.11221
    D1        0.52360  -0.00044   0.00000   0.00004  -0.00006   0.52354
    D2       -2.61799  -0.00184   0.00000  -0.02030  -0.02046  -2.63845
    D3        2.61799   0.00169   0.00000   0.01795   0.01810   2.63610
    D4       -0.52360   0.00030   0.00000  -0.00240  -0.00230  -0.52590
    D5       -3.14159  -0.00130   0.00000  -0.01819  -0.01847   3.12312
    D6        0.00000  -0.00105   0.00000  -0.01441  -0.01461  -0.01460
    D7        0.00000   0.00010   0.00000   0.00215   0.00217   0.00217
    D8       -3.14159   0.00035   0.00000   0.00593   0.00604  -3.13555
    D9        3.14159   0.00111   0.00000   0.01637   0.01606  -3.12553
   D10       -0.00000   0.00091   0.00000   0.01385   0.01361   0.01361
   D11       -0.00000  -0.00028   0.00000  -0.00398  -0.00393  -0.00393
   D12        3.14159  -0.00049   0.00000  -0.00650  -0.00638   3.13522
   D13        0.00000   0.00017   0.00000   0.00143   0.00139   0.00139
   D14       -3.14159   0.00001   0.00000  -0.00043  -0.00041   3.14118
   D15       -3.14159  -0.00009   0.00000  -0.00235  -0.00242   3.13917
   D16       -0.00000  -0.00025   0.00000  -0.00421  -0.00422  -0.00422
   D17       -0.00000  -0.00025   0.00000  -0.00324  -0.00321  -0.00321
   D18       -3.14159  -0.00016   0.00000  -0.00176  -0.00173   3.13987
   D19        3.14159  -0.00009   0.00000  -0.00138  -0.00137   3.14022
   D20        0.00000   0.00000   0.00000   0.00010   0.00011   0.00011
   D21        0.00000   0.00006   0.00000   0.00141   0.00144   0.00144
   D22       -3.14159   0.00014   0.00000   0.00236   0.00233  -3.13926
   D23        3.14159  -0.00003   0.00000  -0.00007  -0.00001   3.14158
   D24       -0.00000   0.00006   0.00000   0.00089   0.00088   0.00088
   D25       -0.00000   0.00020   0.00000   0.00217   0.00211   0.00211
   D26        3.14159   0.00041   0.00000   0.00469   0.00461  -3.13698
   D27        3.14159   0.00012   0.00000   0.00122   0.00121  -3.14038
   D28       -0.00000   0.00032   0.00000   0.00374   0.00371   0.00371
         Item               Value     Threshold  Converged?
 Maximum Force            0.064850     0.000450     NO 
 RMS     Force            0.015382     0.000300     NO 
 Maximum Displacement     0.147425     0.001800     NO 
 RMS     Displacement     0.051130     0.001200     NO 
 Predicted change in Energy=-2.340851D-02
 Lowest energy point so far.  Saving SCF results.
 GradGradGradGradGradGradGradGradGradGradGradGradGradGradGradGradGradGrad

 Leave Link  103 at Mon Oct 14 11:06:21 2019, MaxMem= 10737418240 cpu:               0.9 elap:               0.1
 (Enter /apps/cent7/gaussian/g16-A.03/g16-haswell/g16/l202.exe)
                          Input orientation:                          
 ---------------------------------------------------------------------
 Center     Atomic      Atomic             Coordinates (Angstroms)
 Number     Number       Type             X           Y           Z
 ---------------------------------------------------------------------
      1          7           0       -0.699993   -1.213241    0.300285
      2          6           0       -0.014662    0.037396    0.156991
      3          6           0       -0.690526    1.217291    0.047728
      4          6           0        0.044987    2.465625   -0.072903
      5          6           0        1.405371    2.465966   -0.079286
      6          6           0        2.125025    1.206545    0.039669
      7          6           0        1.443396    0.035868    0.154844
      8          1           0       -1.598539   -1.175910   -0.163015
      9          1           0       -0.154020   -1.969482   -0.092577
     10          1           0       -1.772657    1.238884    0.053049
     11          1           0       -0.509718    3.390537   -0.158857
     12          1           0        1.964292    3.387849   -0.170048
     13          1           0        3.206894    1.215350    0.035977
     14          1           0        1.966461   -0.907475    0.248296
 ---------------------------------------------------------------------
                    Distance matrix (angstroms):
                    1          2          3          4          5
     1  N    0.000000
     2  C    1.433284   0.000000
     3  C    2.443636   1.364142   0.000000
     4  C    3.772044   2.439817   1.453916   0.000000
     5  C    4.255960   2.823167   2.442971   1.360399   0.000000
     6  C    3.728808   2.441093   2.815583   2.434032   1.455401
     7  C    2.485064   1.458060   2.441486   2.812674   2.441646
     8  H    1.011645   2.020688   2.568328   3.996258   4.721626
     9  H    1.012091   2.027132   3.234663   4.439613   4.701604
    10  H    2.687871   2.131883   1.082359   2.196494   3.409268
    11  H    4.630527   3.404173   2.190517   1.081918   2.128081
    12  H    5.337570   3.904965   3.436104   2.131588   1.081896
    13  H    4.607785   3.432294   3.897439   3.401867   2.196090
    14  H    2.684432   2.196808   3.407997   3.895259   3.435439
                    6          7          8          9         10
     6  C    0.000000
     7  C    1.359547   0.000000
     8  H    4.425167   3.289804   0.000000
     9  H    3.911353   2.575730   1.649652   0.000000
    10  H    3.897839   3.435201   2.430685   3.596499   0.000000
    11  H    3.427988   3.894465   4.694463   5.372217   2.503903
    12  H    2.197249   3.407736   5.789794   5.761445   4.316551
    13  H    1.081912   2.124908   5.371211   4.632000   4.979636
    14  H    2.130200   1.082695   3.598675   2.395933   4.315783
                   11         12         13         14
    11  H    0.000000
    12  H    2.474037   0.000000
    13  H    4.310754   2.511227   0.000000
    14  H    4.976961   4.315649   2.467821   0.000000
 Stoichiometry    C6H7N
 Framework group  C1[X(C6H7N)]
 Deg. of freedom    36
 Full point group                 C1      NOp   1
 RotChk:  IX=0 Diff= 2.26D-02
 Largest Abelian subgroup         C1      NOp   1
 Largest concise Abelian subgroup C1      NOp   1
                         Standard orientation:                         
 ---------------------------------------------------------------------
 Center     Atomic      Atomic             Coordinates (Angstroms)
 Number     Number       Type             X           Y           Z
 ---------------------------------------------------------------------
      1          7           0       -2.366438   -0.001812   -0.077786
      2          6           0       -0.934328   -0.035086   -0.030285
      3          6           0       -0.244158   -1.211700   -0.019015
      4          6           0        1.209484   -1.199317    0.006370
      5          6           0        1.888343   -0.020490    0.020627
      6          6           0        1.150621    1.234003    0.006268
      7          6           0       -0.208674    1.229529   -0.019533
      8          1           0       -2.751532   -0.819949    0.375845
      9          1           0       -2.722042    0.829439    0.377070
     10          1           0       -0.765279   -2.160255   -0.032336
     11          1           0        1.738111   -2.143255    0.015362
     12          1           0        2.969805    0.002234    0.041137
     13          1           0        1.697780    2.167311    0.015548
     14          1           0       -0.769501    2.155526   -0.034719
 ---------------------------------------------------------------------
 Rotational constants (GHZ):           5.5045610           2.5540100           1.7491283
 Leave Link  202 at Mon Oct 14 11:06:21 2019, MaxMem= 10737418240 cpu:               0.2 elap:               0.0
 (Enter /apps/cent7/gaussian/g16-A.03/g16-haswell/g16/l301.exe)
 Standard basis: 6-31G(d) (6D, 7F)
 Ernie: Thresh=  0.10000D-02 Tol=  0.10000D-05 Strict=F.
 There are   119 symmetry adapted cartesian basis functions of A   symmetry.
 There are   119 symmetry adapted basis functions of A   symmetry.
   119 basis functions,   224 primitive gaussians,   119 cartesian basis functions
    25 alpha electrons       25 beta electrons
       nuclear repulsion energy       269.2335303762 Hartrees.
 IExCor=  402 DFT=T Ex+Corr=B3LYP ExCW=0 ScaHFX=  0.200000
 ScaDFX=  0.800000  0.720000  1.000000  0.810000 ScalE2=  1.000000  1.000000
 IRadAn=      5 IRanWt=     -1 IRanGd=            0 ICorTp=0 IEmpDi=  4
 NAtoms=   14 NActive=   14 NUniq=   14 SFac= 1.00D+00 NAtFMM=   60 NAOKFM=F Big=F
 Integral buffers will be    131072 words long.
 Raffenetti 2 integral format.
 Two-electron integral symmetry is turned on.
 Leave Link  301 at Mon Oct 14 11:06:21 2019, MaxMem= 10737418240 cpu:               1.3 elap:               0.1
 (Enter /apps/cent7/gaussian/g16-A.03/g16-haswell/g16/l302.exe)
 NPDir=0 NMtPBC=     1 NCelOv=     1 NCel=       1 NClECP=     1 NCelD=      1
         NCelK=      1 NCelE2=     1 NClLst=     1 CellRange=     0.0.
 One-electron integrals computed using PRISM.
 One-electron integral symmetry used in STVInt
 NBasis=   119 RedAO= T EigKep=  4.96D-04  NBF=   119
 NBsUse=   119 1.00D-06 EigRej= -1.00D+00 NBFU=   119
 Precomputing XC quadrature grid using
 IXCGrd= 4 IRadAn=           5 IRanWt=          -1 IRanGd=           0 AccXCQ= 0.00D+00.
 Generated NRdTot=       0 NPtTot=           0 NUsed=           0 NTot=          32
 NSgBfM=   119   119   119   119   119 MxSgAt=    14 MxSgA2=    14.
 Leave Link  302 at Mon Oct 14 11:06:21 2019, MaxMem= 10737418240 cpu:               2.8 elap:               0.1
 (Enter /apps/cent7/gaussian/g16-A.03/g16-haswell/g16/l303.exe)
 DipDrv:  MaxL=1.
 Leave Link  303 at Mon Oct 14 11:06:21 2019, MaxMem= 10737418240 cpu:               0.5 elap:               0.0
 (Enter /apps/cent7/gaussian/g16-A.03/g16-haswell/g16/l401.exe)
 Initial guess from the checkpoint file:  "19.chk"
 B after Tr=     0.000000   -0.000000   -0.000000
         Rot=    0.999973    0.000457    0.000211   -0.007302 Ang=   0.84 deg.
 Guess basis will be translated and rotated to current coordinates.
 JPrj=2 DoOrth=T DoCkMO=T.
 Generating alternative initial guess.
 ExpMin= 1.61D-01 ExpMax= 4.17D+03 ExpMxC= 6.27D+02 IAcc=2 IRadAn=         4 AccDes= 0.00D+00
 Harris functional with IExCor=  402 and IRadAn=       4 diagonalized for initial guess.
 HarFok:  IExCor=  402 AccDes= 0.00D+00 IRadAn=         4 IDoV= 1 UseB2=F ITyADJ=14
 ICtDFT=  3500011 ScaDFX=  1.000000  1.000000  1.000000  1.000000
 FoFCou: FMM=F IPFlag=           0 FMFlag=      100000 FMFlg1=           0
         NFxFlg=           0 DoJE=T BraDBF=F KetDBF=T FulRan=T
         wScrn=  0.000000 ICntrl=       500 IOpCl=  0 I1Cent=   200000004 NGrid=           0
         NMat0=    1 NMatS0=      1 NMatT0=    0 NMatD0=    1 NMtDS0=    0 NMtDT0=    0
 Petite list used in FoFCou.
 Harris En= -287.619672140559    
 Leave Link  401 at Mon Oct 14 11:06:22 2019, MaxMem= 10737418240 cpu:               5.2 elap:               0.2
 (Enter /apps/cent7/gaussian/g16-A.03/g16-haswell/g16/l502.exe)
 Integral symmetry usage will be decided dynamically.
 Closed shell SCF:
 Using DIIS extrapolation, IDIIS=  1040.
 NGot= 10737418240 LenX= 10737385609 LenY= 10737371007
 Requested convergence on RMS density matrix=1.00D-08 within 128 cycles.
 Requested convergence on MAX density matrix=1.00D-06.
 Requested convergence on             energy=1.00D-06.
 No special actions if energy rises.
 Fock matrices will be formed incrementally for  20 cycles.
 Integral accuracy reduced to 1.0D-05 until final iterations.

 Cycle   1  Pass 0  IDiag  1:
 FoFJK:  IHMeth= 1 ICntrl=       0 DoSepK=F KAlg= 0 I1Cent=           0 FoldK=F
 IRaf= 980000000 NMat=       1 IRICut=       1 DoRegI=T DoRafI=F ISym2E= 0 IDoP0=0 IntGTp=1.
 FoFCou: FMM=F IPFlag=           0 FMFlag=      100000 FMFlg1=           0
         NFxFlg=           0 DoJE=F BraDBF=F KetDBF=F FulRan=T
         wScrn=  0.000000 ICntrl=         0 IOpCl=  0 I1Cent=           0 NGrid=           0
         NMat0=    1 NMatS0=      1 NMatT0=    0 NMatD0=    1 NMtDS0=    0 NMtDT0=    0
 Symmetry not used in FoFCou.
 E= -287.586833741406    
 DIIS: error= 4.88D-03 at cycle   1 NSaved=   1.
 NSaved= 1 IEnMin= 1 EnMin= -287.586833741406     IErMin= 1 ErrMin= 4.88D-03
 ErrMax= 4.88D-03  0.00D+00 EMaxC= 1.00D-01 BMatC= 3.45D-03 BMatP= 3.45D-03
 IDIUse=3 WtCom= 9.51D-01 WtEn= 4.88D-02
 Coeff-Com:  0.100D+01
 Coeff-En:   0.100D+01
 Coeff:      0.100D+01
 Gap=     1.948 Goal=   None    Shift=    0.000
 GapD=    1.948 DampG=2.000 DampE=1.000 DampFc=2.0000 IDamp=-1.
 RMSDP=1.02D-03 MaxDP=1.66D-02              OVMax= 4.37D-02

 Cycle   2  Pass 0  IDiag  1:
 RMSU=  1.02D-03    CP:  1.00D+00
 E= -287.593498748799     Delta-E=       -0.006665007393 Rises=F Damp=F
 DIIS: error= 1.47D-03 at cycle   2 NSaved=   2.
 NSaved= 2 IEnMin= 2 EnMin= -287.593498748799     IErMin= 2 ErrMin= 1.47D-03
 ErrMax= 1.47D-03  0.00D+00 EMaxC= 1.00D-01 BMatC= 4.58D-04 BMatP= 3.45D-03
 IDIUse=3 WtCom= 9.85D-01 WtEn= 1.47D-02
 Coeff-Com:  0.168D+00 0.832D+00
 Coeff-En:   0.000D+00 0.100D+01
 Coeff:      0.166D+00 0.834D+00
 Gap=     0.211 Goal=   None    Shift=    0.000
 RMSDP=3.06D-04 MaxDP=4.47D-03 DE=-6.67D-03 OVMax= 8.61D-03

 Cycle   3  Pass 0  IDiag  1:
 RMSU=  3.05D-04    CP:  1.00D+00  1.03D+00
 E= -287.593744101391     Delta-E=       -0.000245352591 Rises=F Damp=F
 DIIS: error= 1.06D-03 at cycle   3 NSaved=   3.
 NSaved= 3 IEnMin= 3 EnMin= -287.593744101391     IErMin= 3 ErrMin= 1.06D-03
 ErrMax= 1.06D-03  0.00D+00 EMaxC= 1.00D-01 BMatC= 2.33D-04 BMatP= 4.58D-04
 IDIUse=3 WtCom= 9.89D-01 WtEn= 1.06D-02
 Coeff-Com: -0.379D-03 0.406D+00 0.594D+00
 Coeff-En:   0.000D+00 0.283D+00 0.717D+00
 Coeff:     -0.375D-03 0.405D+00 0.596D+00
 Gap=     0.208 Goal=   None    Shift=    0.000
 RMSDP=1.70D-04 MaxDP=3.36D-03 DE=-2.45D-04 OVMax= 7.15D-03

 Cycle   4  Pass 0  IDiag  1:
 RMSU=  1.03D-04    CP:  1.00D+00  1.06D+00  5.66D-01
 E= -287.593957719144     Delta-E=       -0.000213617753 Rises=F Damp=F
 DIIS: error= 5.29D-04 at cycle   4 NSaved=   4.
 NSaved= 4 IEnMin= 4 EnMin= -287.593957719144     IErMin= 4 ErrMin= 5.29D-04
 ErrMax= 5.29D-04  0.00D+00 EMaxC= 1.00D-01 BMatC= 2.84D-05 BMatP= 2.33D-04
 IDIUse=3 WtCom= 9.95D-01 WtEn= 5.29D-03
 Coeff-Com: -0.137D-01 0.105D+00 0.306D+00 0.602D+00
 Coeff-En:   0.000D+00 0.000D+00 0.175D-01 0.982D+00
 Coeff:     -0.136D-01 0.105D+00 0.304D+00 0.604D+00
 Gap=     0.209 Goal=   None    Shift=    0.000
 RMSDP=5.17D-05 MaxDP=1.26D-03 DE=-2.14D-04 OVMax= 2.75D-03

 Cycle   5  Pass 0  IDiag  1:
 RMSU=  4.20D-05    CP:  1.00D+00  1.06D+00  6.28D-01  7.79D-01
 E= -287.593983661757     Delta-E=       -0.000025942613 Rises=F Damp=F
 DIIS: error= 1.13D-04 at cycle   5 NSaved=   5.
 NSaved= 5 IEnMin= 5 EnMin= -287.593983661757     IErMin= 5 ErrMin= 1.13D-04
 ErrMax= 1.13D-04  0.00D+00 EMaxC= 1.00D-01 BMatC= 2.56D-06 BMatP= 2.84D-05
 IDIUse=3 WtCom= 9.99D-01 WtEn= 1.13D-03
 Coeff-Com: -0.559D-02 0.242D-01 0.123D+00 0.324D+00 0.535D+00
 Coeff-En:   0.000D+00 0.000D+00 0.000D+00 0.000D+00 0.100D+01
 Coeff:     -0.559D-02 0.242D-01 0.123D+00 0.323D+00 0.535D+00
 Gap=     0.209 Goal=   None    Shift=    0.000
 RMSDP=1.94D-05 MaxDP=2.87D-04 DE=-2.59D-05 OVMax= 1.15D-03

 Cycle   6  Pass 0  IDiag  1:
 RMSU=  1.38D-05    CP:  1.00D+00  1.07D+00  6.39D-01  8.28D-01  7.25D-01
 E= -287.593986423422     Delta-E=       -0.000002761665 Rises=F Damp=F
 DIIS: error= 6.12D-05 at cycle   6 NSaved=   6.
 NSaved= 6 IEnMin= 6 EnMin= -287.593986423422     IErMin= 6 ErrMin= 6.12D-05
 ErrMax= 6.12D-05  0.00D+00 EMaxC= 1.00D-01 BMatC= 3.23D-07 BMatP= 2.56D-06
 IDIUse=1 WtCom= 1.00D+00 WtEn= 0.00D+00
 Coeff-Com: -0.941D-03-0.779D-02 0.167D-01 0.830D-01 0.296D+00 0.613D+00
 Coeff:     -0.941D-03-0.779D-02 0.167D-01 0.830D-01 0.296D+00 0.613D+00
 Gap=     0.209 Goal=   None    Shift=    0.000
 RMSDP=6.88D-06 MaxDP=1.14D-04 DE=-2.76D-06 OVMax= 4.32D-04

 Initial convergence to 1.0D-05 achieved.  Increase integral accuracy.
 Cycle   7  Pass 1  IDiag  1:
 E= -287.593979110141     Delta-E=        0.000007313281 Rises=F Damp=F
 DIIS: error= 1.34D-05 at cycle   1 NSaved=   1.
 NSaved= 1 IEnMin= 1 EnMin= -287.593979110141     IErMin= 1 ErrMin= 1.34D-05
 ErrMax= 1.34D-05  0.00D+00 EMaxC= 1.00D-01 BMatC= 5.21D-08 BMatP= 5.21D-08
 IDIUse=1 WtCom= 1.00D+00 WtEn= 0.00D+00
 Coeff-Com:  0.100D+01
 Coeff:      0.100D+01
 Gap=     0.209 Goal=   None    Shift=    0.000
 RMSDP=6.88D-06 MaxDP=1.14D-04 DE= 7.31D-06 OVMax= 2.23D-04

 Cycle   8  Pass 1  IDiag  1:
 RMSU=  4.97D-06    CP:  1.00D+00
 E= -287.593979048501     Delta-E=        0.000000061640 Rises=F Damp=F
 DIIS: error= 3.24D-05 at cycle   2 NSaved=   2.
 NSaved= 2 IEnMin= 1 EnMin= -287.593979110141     IErMin= 1 ErrMin= 1.34D-05
 ErrMax= 3.24D-05  0.00D+00 EMaxC= 1.00D-01 BMatC= 1.17D-07 BMatP= 5.21D-08
 IDIUse=1 WtCom= 1.00D+00 WtEn= 0.00D+00
 Coeff-Com:  0.605D+00 0.395D+00
 Coeff:      0.605D+00 0.395D+00
 Gap=     0.209 Goal=   None    Shift=    0.000
 RMSDP=3.07D-06 MaxDP=6.51D-05 DE= 6.16D-08 OVMax= 1.62D-04

 Cycle   9  Pass 1  IDiag  1:
 RMSU=  1.64D-06    CP:  1.00D+00  4.77D-01
 E= -287.593979167927     Delta-E=       -0.000000119426 Rises=F Damp=F
 DIIS: error= 4.42D-06 at cycle   3 NSaved=   3.
 NSaved= 3 IEnMin= 3 EnMin= -287.593979167927     IErMin= 3 ErrMin= 4.42D-06
 ErrMax= 4.42D-06  0.00D+00 EMaxC= 1.00D-01 BMatC= 2.83D-09 BMatP= 5.21D-08
 IDIUse=1 WtCom= 1.00D+00 WtEn= 0.00D+00
 Coeff-Com:  0.227D+00 0.190D+00 0.583D+00
 Coeff:      0.227D+00 0.190D+00 0.583D+00
 Gap=     0.209 Goal=   None    Shift=    0.000
 RMSDP=6.89D-07 MaxDP=1.24D-05 DE=-1.19D-07 OVMax= 3.72D-05

 Cycle  10  Pass 1  IDiag  1:
 RMSU=  5.49D-07    CP:  1.00D+00  5.37D-01  8.23D-01
 E= -287.593979170974     Delta-E=       -0.000000003047 Rises=F Damp=F
 DIIS: error= 2.11D-06 at cycle   4 NSaved=   4.
 NSaved= 4 IEnMin= 4 EnMin= -287.593979170974     IErMin= 4 ErrMin= 2.11D-06
 ErrMax= 2.11D-06  0.00D+00 EMaxC= 1.00D-01 BMatC= 4.67D-10 BMatP= 2.83D-09
 IDIUse=1 WtCom= 1.00D+00 WtEn= 0.00D+00
 Coeff-Com: -0.903D-03 0.201D-01 0.309D+00 0.671D+00
 Coeff:     -0.903D-03 0.201D-01 0.309D+00 0.671D+00
 Gap=     0.209 Goal=   None    Shift=    0.000
 RMSDP=2.30D-07 MaxDP=5.08D-06 DE=-3.05D-09 OVMax= 1.26D-05

 Cycle  11  Pass 1  IDiag  1:
 RMSU=  1.46D-07    CP:  1.00D+00  5.34D-01  9.11D-01  8.16D-01
 E= -287.593979171482     Delta-E=       -0.000000000508 Rises=F Damp=F
 DIIS: error= 4.79D-07 at cycle   5 NSaved=   5.
 NSaved= 5 IEnMin= 5 EnMin= -287.593979171482     IErMin= 5 ErrMin= 4.79D-07
 ErrMax= 4.79D-07  0.00D+00 EMaxC= 1.00D-01 BMatC= 4.85D-11 BMatP= 4.67D-10
 IDIUse=1 WtCom= 1.00D+00 WtEn= 0.00D+00
 Coeff-Com: -0.202D-01-0.519D-02 0.132D+00 0.370D+00 0.524D+00
 Coeff:     -0.202D-01-0.519D-02 0.132D+00 0.370D+00 0.524D+00
 Gap=     0.209 Goal=   None    Shift=    0.000
 RMSDP=7.31D-08 MaxDP=1.43D-06 DE=-5.08D-10 OVMax= 3.99D-06

 Cycle  12  Pass 1  IDiag  1:
 RMSU=  5.95D-08    CP:  1.00D+00  5.39D-01  9.21D-01  8.26D-01  7.98D-01
 E= -287.593979171532     Delta-E=       -0.000000000051 Rises=F Damp=F
 DIIS: error= 1.04D-07 at cycle   6 NSaved=   6.
 NSaved= 6 IEnMin= 6 EnMin= -287.593979171532     IErMin= 6 ErrMin= 1.04D-07
 ErrMax= 1.04D-07  0.00D+00 EMaxC= 1.00D-01 BMatC= 2.68D-12 BMatP= 4.85D-11
 IDIUse=1 WtCom= 1.00D+00 WtEn= 0.00D+00
 Coeff-Com: -0.106D-01-0.643D-02 0.154D-01 0.630D-01 0.208D+00 0.730D+00
 Coeff:     -0.106D-01-0.643D-02 0.154D-01 0.630D-01 0.208D+00 0.730D+00
 Gap=     0.209 Goal=   None    Shift=    0.000
 RMSDP=2.44D-08 MaxDP=2.73D-07 DE=-5.06D-11 OVMax= 1.41D-06

 Cycle  13  Pass 1  IDiag  1:
 RMSU=  1.68D-08    CP:  1.00D+00  5.39D-01  9.28D-01  8.37D-01  8.78D-01
                    CP:  9.32D-01
 E= -287.593979171535     Delta-E=       -0.000000000002 Rises=F Damp=F
 DIIS: error= 5.94D-08 at cycle   7 NSaved=   7.
 NSaved= 7 IEnMin= 7 EnMin= -287.593979171535     IErMin= 7 ErrMin= 5.94D-08
 ErrMax= 5.94D-08  0.00D+00 EMaxC= 1.00D-01 BMatC= 2.84D-13 BMatP= 2.68D-12
 IDIUse=1 WtCom= 1.00D+00 WtEn= 0.00D+00
 Coeff-Com: -0.216D-02-0.196D-02-0.534D-02-0.988D-02 0.253D-01 0.278D+00
 Coeff-Com:  0.716D+00
 Coeff:     -0.216D-02-0.196D-02-0.534D-02-0.988D-02 0.253D-01 0.278D+00
 Coeff:      0.716D+00
 Gap=     0.209 Goal=   None    Shift=    0.000
 RMSDP=9.27D-09 MaxDP=1.57D-07 DE=-2.27D-12 OVMax= 5.97D-07

 SCF Done:  E(RB3LYP) =  -287.593979172     A.U. after   13 cycles
            NFock= 13  Conv=0.93D-08     -V/T= 2.0102
 KE= 2.846886400313D+02 PE=-1.205099935110D+03 EE= 3.635837855314D+02
 Leave Link  502 at Mon Oct 14 11:06:23 2019, MaxMem= 10737418240 cpu:              43.4 elap:               1.8
 (Enter /apps/cent7/gaussian/g16-A.03/g16-haswell/g16/l701.exe)
 ... and contract with generalized density number  0.
 Compute integral first derivatives.
 Leave Link  701 at Mon Oct 14 11:06:24 2019, MaxMem= 10737418240 cpu:               2.3 elap:               0.1
 (Enter /apps/cent7/gaussian/g16-A.03/g16-haswell/g16/l702.exe)
 L702 exits ... SP integral derivatives will be done elsewhere.
 Leave Link  702 at Mon Oct 14 11:06:24 2019, MaxMem= 10737418240 cpu:               0.5 elap:               0.0
 (Enter /apps/cent7/gaussian/g16-A.03/g16-haswell/g16/l703.exe)
 Integral derivatives from FoFJK, PRISM(SPDF).
 Compute integral first derivatives, UseDBF=F ICtDFT=           0.
 Calling FoFJK, ICntrl=      2127 FMM=F ISym2X=0 I1Cent= 0 IOpClX= 0 NMat=1 NMatS=1 NMatT=0.
 FoFJK:  IHMeth= 1 ICntrl=    2127 DoSepK=F KAlg= 0 I1Cent=           0 FoldK=F
 IRaf=         0 NMat=       1 IRICut=       1 DoRegI=T DoRafI=F ISym2E= 0 IDoP0=0 IntGTp=1.
 FoFCou: FMM=F IPFlag=           0 FMFlag=      100000 FMFlg1=         800
         NFxFlg=           0 DoJE=F BraDBF=F KetDBF=F FulRan=T
         wScrn=  0.000000 ICntrl=      2127 IOpCl=  0 I1Cent=           0 NGrid=           0
         NMat0=    1 NMatS0=      1 NMatT0=    0 NMatD0=    1 NMtDS0=    0 NMtDT0=    0
 Symmetry not used in FoFCou.
 Leave Link  703 at Mon Oct 14 11:06:24 2019, MaxMem= 10737418240 cpu:              10.7 elap:               0.5
 (Enter /apps/cent7/gaussian/g16-A.03/g16-haswell/g16/l716.exe)
 Dipole        =-2.99849428D-01 3.59270004D-02 5.44366697D-01
 ***** Axes restored to original set *****
 -------------------------------------------------------------------
 Center     Atomic                   Forces (Hartrees/Bohr)
 Number     Number              X              Y              Z
 -------------------------------------------------------------------
      1        7           0.009759172    0.018105779   -0.001909659
      2        6           0.027828606   -0.031649071    0.001756098
      3        6           0.010569057    0.043095044   -0.003481037
      4        6          -0.029109051   -0.029697768    0.003526898
      5        6           0.030559193   -0.025463756    0.002408918
      6        6          -0.010746237    0.038610143   -0.003183909
      7        6          -0.035136696   -0.008041270    0.001475730
      8        1          -0.004138231   -0.002677413    0.000142880
      9        1           0.000054864   -0.003680247   -0.000087138
     10        1          -0.003439046   -0.000115530   -0.000217071
     11        1          -0.002300193    0.002493644   -0.000318317
     12        1           0.001756965    0.002371949   -0.000307638
     13        1           0.003333106    0.000008575   -0.000140348
     14        1           0.001008490   -0.003360081    0.000334593
 -------------------------------------------------------------------
 Cartesian Forces:  Max     0.043095044 RMS     0.015832612
 Leave Link  716 at Mon Oct 14 11:06:24 2019, MaxMem= 10737418240 cpu:               0.5 elap:               0.0
 (Enter /apps/cent7/gaussian/g16-A.03/g16-haswell/g16/l103.exe)

 GradGradGradGradGradGradGradGradGradGradGradGradGradGradGradGradGradGrad
 Berny optimization.
 Using GEDIIS/GDIIS optimizer.
 FormGI is forming the generalized inverse of G from B-inverse, IUseBI=4.
 Internal  Forces:  Max     0.029655406 RMS     0.007593023
 Search for a local minimum.
 Step number   2 out of a maximum of   73
 All quantities printed in internal units (Hartrees-Bohrs-Radians)
 RMS Force = .75930D-02 SwitMx=.10000D-02 MixMth= 1
 Mixed Optimization -- RFO/linear search
 Update second derivatives using D2CorX and points    1    2
 DE= -2.70D-02 DEPred=-2.34D-02 R= 1.15D+00
 TightC=F SS=  1.41D+00  RLast= 3.03D-01 DXNew= 5.0454D-01 9.0948D-01
 Trust test= 1.15D+00 RLast= 3.03D-01 DXMaxT set to 5.05D-01
 ITU=  1  0
 Use linear search instead of GDIIS.
     Eigenvalues ---    0.00760   0.00763   0.00766   0.01312   0.01420
     Eigenvalues ---    0.01477   0.01484   0.01496   0.02130   0.02172
     Eigenvalues ---    0.05140   0.15565   0.16000   0.16000   0.16000
     Eigenvalues ---    0.16000   0.16000   0.16221   0.20548   0.22000
     Eigenvalues ---    0.22050   0.23694   0.25765   0.27890   0.28085
     Eigenvalues ---    0.35479   0.37227   0.37230   0.37230   0.37230
     Eigenvalues ---    0.37335   0.47637   0.47701   0.51188   0.51291
     Eigenvalues ---    0.57533
 RFO step:  Lambda=-4.10692293D-03 EMin= 7.60331292D-03
 Quartic linear search produced a step of  0.55975.
 Iteration  1 RMS(Cart)=  0.02604941 RMS(Int)=  0.00071670
 Iteration  2 RMS(Cart)=  0.00065654 RMS(Int)=  0.00040593
 Iteration  3 RMS(Cart)=  0.00000049 RMS(Int)=  0.00040593
 ITry= 1 IFail=0 DXMaxC= 7.34D-02 DCOld= 1.00D+10 DXMaxT= 5.05D-01 DXLimC= 3.00D+00 Rises=F
 Variable       Old X    -DE/DX   Delta X   Delta X   Delta X     New X
                                 (Linear)    (Quad)   (Total)
    R1        2.70851  -0.01315  -0.03884  -0.00398  -0.04282   2.66570
    R2        1.91173   0.00351   0.01232  -0.00418   0.00814   1.91987
    R3        1.91257   0.00281   0.01279  -0.00704   0.00575   1.91833
    R4        2.57785   0.01863   0.00946   0.04188   0.05126   2.62911
    R5        2.75533  -0.02615  -0.08667  -0.01505  -0.10169   2.65365
    R6        2.74750  -0.02966  -0.09106  -0.02741  -0.11858   2.62892
    R7        2.04536   0.00343   0.01307  -0.00332   0.00975   2.05511
    R8        2.57078   0.01693   0.00550   0.04174   0.04720   2.61798
    R9        2.04453   0.00334   0.01261  -0.00311   0.00950   2.05403
   R10        2.75031  -0.02907  -0.08949  -0.02692  -0.11633   2.63398
   R11        2.04449   0.00295   0.01258  -0.00465   0.00793   2.05242
   R12        2.56917   0.01617   0.00460   0.04063   0.04535   2.61452
   R13        2.04452   0.00333   0.01260  -0.00311   0.00949   2.05401
   R14        2.04600   0.00344   0.01343  -0.00376   0.00966   2.05566
    A1        1.92486   0.00521   0.00796   0.04536   0.05208   1.97694
    A2        1.93397   0.00334   0.01306   0.01822   0.03003   1.96399
    A3        1.90598  -0.00213  -0.00260   0.00414  -0.00057   1.90542
    A4        2.12448   0.00122   0.01684  -0.01799  -0.00117   2.12331
    A5        2.06847   0.00160  -0.01451   0.03189   0.01737   2.08584
    A6        2.09006  -0.00284  -0.00243  -0.01366  -0.01616   2.07390
    A7        2.09283   0.00087  -0.00088   0.00765   0.00657   2.09940
    A8        2.10855  -0.00060   0.00792  -0.01892  -0.01091   2.09764
    A9        2.08180  -0.00027  -0.00705   0.01130   0.00434   2.08614
   A10        2.10190   0.00139   0.00420   0.00281   0.00685   2.10875
   A11        2.07285  -0.00140  -0.01206   0.00998  -0.00201   2.07084
   A12        2.10844   0.00001   0.00786  -0.01277  -0.00484   2.10360
   A13        2.08733  -0.00145  -0.00396  -0.00448  -0.00840   2.07893
   A14        2.11439   0.00100   0.01119  -0.01182  -0.00066   2.11373
   A15        2.08147   0.00045  -0.00723   0.01631   0.00905   2.09052
   A16        2.09918   0.00088   0.00268   0.00099   0.00387   2.10305
   A17        2.07960  -0.00044  -0.00828   0.01214   0.00375   2.08334
   A18        2.10440  -0.00045   0.00560  -0.01312  -0.00763   2.09678
   A19        2.09507   0.00114   0.00038   0.00673   0.00727   2.10234
   A20        2.07590  -0.00133  -0.01035   0.00778  -0.00266   2.07324
   A21        2.11221   0.00020   0.00997  -0.01450  -0.00461   2.10760
    D1        0.52354  -0.00123  -0.00003  -0.05345  -0.05425   0.46929
    D2       -2.63845  -0.00223  -0.01145  -0.03969  -0.05194  -2.69039
    D3        2.63610   0.00176   0.01013  -0.00600   0.00492   2.64102
    D4       -0.52590   0.00076  -0.00129   0.00775   0.00724  -0.51866
    D5        3.12312  -0.00088  -0.01034   0.01154   0.00102   3.12414
    D6       -0.01460  -0.00080  -0.00818   0.00190  -0.00637  -0.02098
    D7        0.00217   0.00009   0.00122  -0.00290  -0.00166   0.00051
    D8       -3.13555   0.00017   0.00338  -0.01254  -0.00905   3.13858
    D9       -3.12553   0.00082   0.00899  -0.00542   0.00339  -3.12214
   D10        0.01361   0.00068   0.00762  -0.00431   0.00317   0.01678
   D11       -0.00393  -0.00012  -0.00220   0.00798   0.00580   0.00188
   D12        3.13522  -0.00026  -0.00357   0.00910   0.00559   3.14080
   D13        0.00139   0.00002   0.00078  -0.00514  -0.00439  -0.00300
   D14        3.14118  -0.00005  -0.00023  -0.00078  -0.00100   3.14018
   D15        3.13917  -0.00006  -0.00136   0.00429   0.00292  -3.14110
   D16       -0.00422  -0.00013  -0.00236   0.00864   0.00630   0.00209
   D17       -0.00321  -0.00008  -0.00179   0.00803   0.00626   0.00306
   D18        3.13987  -0.00007  -0.00097   0.00247   0.00153   3.14139
   D19        3.14022  -0.00002  -0.00077   0.00356   0.00281  -3.14016
   D20        0.00011  -0.00000   0.00006  -0.00200  -0.00193  -0.00182
   D21        0.00144   0.00005   0.00081  -0.00291  -0.00209  -0.00065
   D22       -3.13926   0.00003   0.00130  -0.00949  -0.00823   3.13569
   D23        3.14158   0.00004  -0.00001   0.00253   0.00258  -3.13903
   D24        0.00088   0.00002   0.00049  -0.00405  -0.00357  -0.00269
   D25        0.00211   0.00006   0.00118  -0.00507  -0.00393  -0.00182
   D26       -3.13698   0.00020   0.00258  -0.00624  -0.00371  -3.14069
   D27       -3.14038   0.00007   0.00068   0.00162   0.00227  -3.13812
   D28        0.00371   0.00021   0.00208   0.00045   0.00249   0.00620
         Item               Value     Threshold  Converged?
 Maximum Force            0.029655     0.000450     NO 
 RMS     Force            0.007593     0.000300     NO 
 Maximum Displacement     0.073443     0.001800     NO 
 RMS     Displacement     0.026117     0.001200     NO 
 Predicted change in Energy=-8.315502D-03
 Lowest energy point so far.  Saving SCF results.
 GradGradGradGradGradGradGradGradGradGradGradGradGradGradGradGradGradGrad

 Leave Link  103 at Mon Oct 14 11:06:24 2019, MaxMem= 10737418240 cpu:               0.5 elap:               0.0
 (Enter /apps/cent7/gaussian/g16-A.03/g16-haswell/g16/l202.exe)
                          Input orientation:                          
 ---------------------------------------------------------------------
 Center     Atomic      Atomic             Coordinates (Angstroms)
 Number     Number       Type             X           Y           Z
 ---------------------------------------------------------------------
      1          7           0       -0.676655   -1.193694    0.286445
      2          6           0        0.009530    0.031332    0.151080
      3          6           0       -0.669811    1.240320    0.039428
      4          6           0        0.035950    2.433981   -0.071991
      5          6           0        1.421299    2.442318   -0.070368
      6          6           0        2.106624    1.233727    0.041144
      7          6           0        1.413746    0.041103    0.149598
      8          1           0       -1.605847   -1.180767   -0.124151
      9          1           0       -0.154477   -1.976206   -0.095005
     10          1           0       -1.757175    1.258202    0.035377
     11          1           0       -0.521664    3.362921   -0.159103
     12          1           0        1.976950    3.371455   -0.157270
     13          1           0        3.193551    1.234973    0.037289
     14          1           0        1.944289   -0.904462    0.237680
 ---------------------------------------------------------------------
                    Distance matrix (angstroms):
                    1          2          3          4          5
     1  N    0.000000
     2  C    1.410625   0.000000
     3  C    2.446526   1.391266   0.000000
     4  C    3.714338   2.413126   1.391164   0.000000
     5  C    4.212993   2.802674   2.414455   1.385375   0.000000
     6  C    3.701242   2.419844   2.776443   2.396059   1.393843
     7  C    2.431713   1.404251   2.406547   2.770070   2.411280
     8  H    1.015950   2.038230   2.600881   3.970468   4.721573
     9  H    1.015134   2.029203   3.260318   4.414355   4.691165
    10  H    2.691162   2.154030   1.087519   2.146924   3.393525
    11  H    4.580969   3.387900   2.137006   1.086946   2.151857
    12  H    5.298971   3.888733   3.403788   2.157223   1.086092
    13  H    4.575915   3.405832   3.863366   3.379350   2.147126
    14  H    2.637306   2.150931   3.387169   3.857830   3.401375
                    6          7          8          9         10
     6  C    0.000000
     7  C    1.383544   0.000000
     8  H    4.431653   3.268922   0.000000
     9  H    3.928713   2.566844   1.655309   0.000000
    10  H    3.863881   3.398399   2.448860   3.612067   0.000000
[...]
 ! D7    D(7,2,3,4)             -0.0424         -DE/DX =    0.0                 !
 ! D8    D(7,2,3,10)          -179.7345         -DE/DX =    0.0                 !
 ! D9    D(1,2,7,6)           -177.157          -DE/DX =    0.0                 !
 ! D10   D(1,2,7,14)             2.5273         -DE/DX =    0.0                 !
 ! D11   D(3,2,7,6)              0.0356         -DE/DX =    0.0                 !
 ! D12   D(3,2,7,14)           179.7198         -DE/DX =    0.0                 !
 ! D13   D(2,3,4,5)              0.0658         -DE/DX =    0.0                 !
 ! D14   D(2,3,4,11)           179.8817         -DE/DX =    0.0                 !
 ! D15   D(10,3,4,5)           179.7558         -DE/DX =    0.0                 !
 ! D16   D(10,3,4,11)           -0.4284         -DE/DX =    0.0                 !
 ! D17   D(3,4,5,6)             -0.0803         -DE/DX =    0.0                 !
 ! D18   D(3,4,5,12)           179.877          -DE/DX =    0.0                 !
 ! D19   D(11,4,5,6)          -179.8945         -DE/DX =    0.0                 !
 ! D20   D(11,4,5,12)            0.0627         -DE/DX =    0.0                 !
 ! D21   D(4,5,6,7)              0.0734         -DE/DX =    0.0                 !
 ! D22   D(4,5,6,13)           179.9282         -DE/DX =    0.0                 !
 ! D23   D(12,5,6,7)          -179.8838         -DE/DX =    0.0                 !
 ! D24   D(12,5,6,13)           -0.029          -DE/DX =    0.0                 !
 ! D25   D(5,6,7,2)             -0.0521         -DE/DX =    0.0                 !
 ! D26   D(5,6,7,14)          -179.7342         -DE/DX =    0.0                 !
 ! D27   D(13,6,7,2)          -179.9082         -DE/DX =    0.0                 !
 ! D28   D(13,6,7,14)            0.4098         -DE/DX =    0.0                 !
 --------------------------------------------------------------------------------
 GradGradGradGradGradGradGradGradGradGradGradGradGradGradGradGradGradGrad

 Leave Link  103 at Mon Oct 14 11:06:58 2019, MaxMem= 10737418240 cpu:               1.0 elap:               0.1
 (Enter /apps/cent7/gaussian/g16-A.03/g16-haswell/g16/l9999.exe)

 ----------------------------------------------------------------------

 Electric dipole moment (input orientation):
 (Debye = 10**-18 statcoulomb cm , SI units = C m)
                  (au)            (Debye)         (10**-30 SI)
   Tot        0.673762D+00      0.171253D+01      0.571239D+01
   x         -0.243464D+00     -0.618825D+00     -0.206418D+01
   y         -0.461372D+00     -0.117269D+01     -0.391168D+01
   z         -0.426399D+00     -0.108380D+01     -0.361516D+01

 Dipole polarizability, Alpha (input orientation).
 (esu units = cm**3 , SI units = C**2 m**2 J**-1)
 Alpha(0;0):
               (au)            (10**-24 esu)      (10**-40 SI)
   iso        0.640699D+02      0.949418D+01      0.105637D+02
   aniso      0.608073D+02      0.901072D+01      0.100258D+02
   xx         0.800736D+02      0.118657D+02      0.132023D+02
   yx         0.659121D+01      0.976716D+00      0.108674D+01
   yy         0.873607D+02      0.129455D+02      0.144038D+02
   zx         0.258571D+00      0.383162D-01      0.426325D-01
   zy        -0.420477D+01     -0.623082D+00     -0.693272D+00
   zz         0.247754D+02      0.367133D+01      0.408491D+01

 ----------------------------------------------------------------------

 Dipole orientation:
     7         -1.03521571          1.75085596          1.67582960
     6         -0.05932894          0.13670364         -0.18032347
     6         -1.53452241         -1.83647058         -1.17117194
     6         -0.59635552         -3.36769402         -3.09623865
     6          1.82255866         -2.97605555         -4.07586337
     6          3.29344863         -1.01634755         -3.09588363
     6          2.37337637          0.52605551         -1.17099009
     1         -2.41236373          0.97918685          2.75810178
     1          0.28784187          2.61172524          2.75831146
     1         -3.42516889         -2.15518345         -0.42817216
     1         -1.77018648         -4.88534622         -3.83115468
     1          2.54809936         -4.17643790         -5.57393669
     1          5.18252554         -0.68141727         -3.83105796
     1          3.53417309          2.05223449         -0.42839472

 Electric dipole moment (dipole orientation):
 (Debye = 10**-18 statcoulomb cm , SI units = C m)
                  (au)            (Debye)         (10**-30 SI)
   Tot        0.673762D+00      0.171253D+01      0.571239D+01
   x          0.000000D+00      0.000000D+00      0.000000D+00
   y          0.000000D+00      0.000000D+00      0.000000D+00
   z          0.673762D+00      0.171253D+01      0.571239D+01

 Dipole polarizability, Alpha (dipole orientation).
 (esu units = cm**3 , SI units = C**2 m**2 J**-1)
 Alpha(0;0):
               (au)            (10**-24 esu)      (10**-40 SI)
   iso        0.640699D+02      0.949418D+01      0.105637D+02
   aniso      0.608073D+02      0.901072D+01      0.100258D+02
   xx         0.705500D+02      0.104544D+02      0.116321D+02
   yx         0.949823D+01      0.140749D+01      0.156605D+01
   yy         0.605810D+02      0.897718D+01      0.998847D+01
   zx        -0.172418D+02     -0.255497D+01     -0.284279D+01
   zy         0.285212D+02      0.422640D+01      0.470251D+01
   zz         0.610786D+02      0.905091D+01      0.100705D+02

 ----------------------------------------------------------------------
 1\1\GINC-BROWN-A445\Freq\RB3LYP\6-31G(d)\C6H7N1\FINEJ\14-Oct-2019\0\\#
 P Geom=AllCheck Guess=TCheck SCRF=Check GenChk RB3LYP/6-31G(d) Freq\\T
 itle Card Required\\0,1\N,-0.6840528557,-1.18469237,0.2711719242\C,0.0
 165586854,0.0185341611,0.1212710887\C,-0.6704171449,1.240186962,0.0201
 781757\C,0.0316577929,2.4401283256,-0.0693804614\C,1.4280604678,2.4534
 036819,-0.0619331286\C,2.1139395276,1.241114056,0.038742906\C,1.421603
 7704,0.0355673273,0.1289506101\H,-1.6233636676,-1.1753513545,-0.107566
 5744\H,-0.1778648752,-2.0077741395,-0.0323919012\H,-1.7585319532,1.242
 7853785,0.017386727\H,-0.5210067606,3.3730448305,-0.148745186\H,1.9714
 974431,3.3908707896,-0.1339470469\H,3.2010942921,1.229688422,0.0450903
 905\H,1.9671378079,-0.9023030905,0.2113257463\\Version=ES64L-G16RevA.0
 3\State=1-A\HF=-287.6017527\RMSD=3.064e-09\RMSF=1.713e-05\ZeroPoint=0.
 117388\Thermal=0.117388\Dipole=-0.2434645,-0.4613723,-0.4263987\Dipole
 Deriv=-0.4156034,-0.5485401,0.1002369,-0.5302218,-1.0034268,0.1325443,
 0.3031244,0.4848635,-0.5546036,0.3200845,0.6399013,-0.0695805,0.638934
 1,1.0484465,-0.102083,-0.0800118,-0.1201496,0.155559,0.0975215,0.08373
 65,-0.0170169,-0.2714685,-0.3534327,0.0152542,0.0084223,0.0066617,-0.1
 802337,0.207982,-0.065378,0.0073176,0.0801505,0.1668309,-0.0251995,-0.
 0035487,-0.0221259,-0.0875075,-0.2188608,0.1065218,-0.0075373,0.106606
 1,-0.0956167,-0.0023823,-0.0066084,-0.0006234,-0.1624733,0.1725002,0.0
 592187,-0.0077732,-0.0859306,0.2024746,-0.0261656,0.0072437,-0.0226612
 ,-0.0876614,-0.1610598,-0.4179455,0.0420815,-0.0637053,-0.0985356,-0.0
 157864,0.0058558,-0.0257887,-0.1765895,0.1396507,0.0471119,-0.0602926,
 0.0474098,0.1366438,0.0101289,-0.1832099,-0.1336158,0.2622182,0.096306
 ,0.0410433,0.0241428,0.0240569,0.1679674,-0.0410043,-0.038078,-0.21879
 5,0.2742838,-0.1389813,-0.0132882,-0.0020941,-0.0305336,0.0478361,0.00
 46997,-0.0045273,0.0045385,0.1134887,0.0105194,0.0892346,-0.0082405,0.
 0802883,-0.085032,0.0148329,-0.008165,0.0163582,0.1054788,0.0060861,-0
 .0790916,0.0054904,-0.0791364,-0.0841316,0.0155542,0.0052681,0.0151235
 ,0.1185446,-0.1358407,-0.003725,-0.0017501,0.0053331,0.0601989,0.00281
 27,-0.001095,0.0029069,0.1065912,0.0196954,0.0612003,-0.004984,0.07821
 75,-0.1102227,0.0167942,-0.0046701,0.0133075,0.1129048\Polar=80.073550
 5,6.5912095,87.3607413,0.2585707,-4.2047666,24.7753885\Quadrupole=2.08
 36366,3.1268479,-5.2104845,0.7083547,1.3263157,1.6738728\PG=C01 [X(C6H
 7N1)]\NImag=0\\0.72865981,-0.05981119,0.67334439,0.09194921,0.10303406
 ,0.14069599,-0.16572452,-0.07877855,-0.01027194,0.69941140,-0.07647060
 ,-0.25466295,-0.01064383,0.00459341,0.70179312,0.01530208,0.03376141,-
 0.04126333,0.00717336,-0.03571227,0.16369061,0.01741135,-0.01910545,-0
 .00110883,-0.18288870,0.11769963,-0.00883048,0.73212938,0.01373662,-0.
 05209275,0.00872637,0.04818317,-0.25390932,0.01431638,0.02351428,0.680
 05807,-0.00133307,0.00622633,0.00626043,-0.00509490,0.01514414,-0.0665
 5359,0.00083950,-0.04565295,0.12129011,-0.00827618,0.00713023,-0.00053
 205,0.07086607,-0.02596537,0.00188342,-0.18429994,-0.06641702,0.005225
 34,0.69515676,0.00236735,0.00486120,-0.00262856,0.02340717,-0.05955928
 ,0.00561289,-0.12975911,-0.29331090,0.01905288,-0.02523482,0.72121693,
 -0.00148592,-0.00010383,0.00505721,-0.00128723,0.00408643,0.00150124,0
 .00904999,0.01879638,-0.05479692,0.00583328,-0.04768402,0.13420639,0.0
 0312824,-0.00592794,0.00187303,-0.05413468,0.03465121,-0.00347251,-0.0
 2769780,-0.07606700,0.00491967,-0.33893119,0.03032059,-0.00390482,0.68
 587336,-0.00606166,-0.00365726,0.00255977,0.03469629,-0.01399933,0.000
 13179,-0.02732350,0.02977505,-0.00157309,-0.03513433,-0.12639893,0.005
 18652,0.03655683,0.72399846,0.00039696,-0.00000659,-0.00107087,-0.0029
 7938,0.00098154,-0.00605820,0.00205878,-0.00225024,0.00808637,0.001148
 10,0.00585085,-0.05874513,0.00042913,-0.04819351,0.12243567,-0.0023932
 0,0.00564544,-0.00284944,-0.02624601,-0.03232845,0.00321170,-0.0023568
 4,0.00338830,-0.00027620,-0.02961208,0.02716478,-0.00254505,-0.1776723
 7,0.12293533,-0.01033687,0.73974760,0.01054311,-0.00094102,-0.00069688
 ,-0.08176204,0.03685489,-0.00352678,-0.00262033,-0.06300541,0.00387917
 ,0.07864157,0.03143282,-0.00129968,0.05747752,-0.28651832,0.01868410,0
 .00028716,0.67697516,-0.00040657,-0.00062886,0.00497832,0.00570085,-0.
 00318258,0.00219810,0.00018267,0.00442115,-0.00649333,-0.00629242,-0.0
 0181183,0.00743744,-0.00544346,0.01909729,-0.05985400,0.00323658,-0.04
 346484,0.13381060,-0.03322525,-0.01490165,0.00570528,-0.30912970,-0.02
 438436,-0.00104708,-0.02159501,0.06493322,-0.00521739,-0.04845494,-0.0
 2310262,0.00149974,0.06038951,-0.02538334,0.00225354,-0.18221802,-0.06
 525085,0.00471867,0.67569885,-0.04781796,-0.00228550,0.00009222,0.0450
 7918,-0.12847605,0.00590118,0.02622642,0.03101950,-0.00132453,-0.02914
 804,-0.01719359,0.00058694,0.02334351,-0.05778360,0.00544490,-0.128495
 56,-0.29537374,0.01814414,-0.00893999,0.73609179,0.00513073,0.00120982
 ,0.00708861,-0.00533776,0.00412416,-0.06581694,-0.00209016,-0.00111784
 ,0.00868229,0.00153289,0.00039045,-0.00620637,-0.00078553,0.00445135,0
 .00756061,0.00971841,0.01992093,-0.05480462,0.00382696,-0.05082178,0.1
 2176224,-0.37594251,0.01184654,-0.13246913,-0.01936052,-0.00197314,-0.
 00641761,0.00254325,0.00377430,0.00050042,-0.00087268,-0.00057863,0.00
 125123,0.00076490,0.00037906,-0.00001196,-0.00107976,0.00055614,0.0003
 3390,0.00145833,-0.00353280,-0.00058891,0.40568981,0.01313295,-0.06929
 448,-0.00452561,-0.03380514,0.00351196,-0.01326465,-0.00193559,0.00174
 430,0.00034801,-0.00000076,-0.00026874,0.00013475,0.00036038,-0.000165
 26,-0.00016014,-0.00127886,0.00114143,0.00045274,-0.00121306,-0.005944
 21,0.00020245,-0.00640590,0.06744524,-0.17760350,-0.00838719,-0.068749
 20,0.01415313,0.00755783,-0.00399016,0.00034400,-0.00104465,-0.0001294
 1,-0.00039325,-0.00004404,-0.00048526,0.00030828,-0.00110839,0.0001233
 5,0.00113066,0.00144088,0.00150814,-0.00131391,0.00087606,0.00170063,0
 .14771441,0.00144107,0.06975221,-0.16755545,0.15392263,0.04776245,0.01
 386492,-0.01643139,-0.00614400,-0.00215774,-0.00315606,0.00031007,0.00
 083144,-0.00025968,0.00018418,-0.00015342,-0.00021154,-0.00014504,-0.0
 0014342,0.00041083,-0.00050149,0.00121973,-0.00270526,0.00027896,-0.01
 362689,0.02990792,0.01536619,0.16845298,0.15031657,-0.29921903,-0.0949
 3786,0.01781592,-0.02889729,-0.00974320,-0.00544615,-0.00252372,-0.000
 64450,0.00168114,-0.00072644,0.00075093,-0.00025273,0.00083243,-0.0001
 4293,-0.00025251,-0.00093579,0.00115297,0.00286468,0.00315128,0.000685
 86,-0.00319347,0.00272519,-0.00031372,-0.16207333,0.32539667,0.0671893
 0,-0.13572094,-0.04720710,0.00005281,0.01592113,-0.00480162,0.00136067
 ,-0.00075343,0.00189578,0.00055360,0.00178823,0.00146531,-0.00112534,-
 0.00034118,0.00004430,0.00019697,-0.00031057,-0.00054771,-0.00110128,-
 0.00059012,-0.00021211,-0.00896294,0.01541698,0.00091080,-0.05771326,0
 .10453737,0.04902769,0.00171366,-0.00071406,-0.00019645,-0.01440044,-0
 .00420144,0.00025342,-0.33252299,0.00289680,-0.00108495,-0.01275015,0.
 00239622,-0.00019730,0.00118438,-0.00332042,0.00031335,0.00070024,0.00
 023200,-0.00002499,0.00070971,0.00328996,-0.00029454,0.00017426,0.0015
 0684,0.00023774,0.00028822,0.00006818,0.00011511,0.35549159,0.00108703
 ,0.00229919,-0.00009036,0.02791875,0.00370008,0.00020765,0.00270804,-0
 .06024738,0.00194984,-0.02930818,0.00488817,-0.00036649,-0.00173721,-0
 .00455250,0.00083510,-0.00010426,-0.00151623,0.00014582,0.00187210,-0.
 00480824,0.00082714,-0.00064816,-0.00074956,-0.00051120,-0.00021335,0.
 00019267,-0.00006404,-0.00200790,0.05929956,0.00098200,-0.00036609,-0.
 00283633,-0.00267354,0.00006824,0.00327776,-0.00040995,0.00213978,-0.0
 3144716,0.00209592,-0.00025523,0.00090491,0.00000223,0.00084700,0.0068
 2967,0.00001489,-0.00004071,-0.00005964,-0.00003448,0.00084893,0.00500
 614,-0.00091470,-0.00008209,0.00024554,0.00010974,-0.00024849,-0.00058
 975,0.00086827,-0.00248557,0.02282334,0.00082159,-0.00034276,-0.000228
 01,-0.00140360,-0.00331665,0.00037605,0.01159867,-0.01487343,0.0012973
 5,-0.13216311,0.12068896,-0.01050650,-0.01018578,0.02952502,-0.0024605
 3,-0.00598537,-0.00169354,0.00005256,-0.00059986,-0.00098123,0.0000426
 3,0.00000903,0.00001754,0.00003020,-0.00011677,-0.00030127,0.00010378,
 0.00101324,0.00040240,0.00000324,0.13650194,0.00107258,-0.00110276,-0.
 00001600,-0.00420918,-0.00216533,0.00085769,0.01622211,-0.01932494,0.0
 0189414,0.12031284,-0.26390812,0.01922524,-0.00172841,0.00382235,-0.00
 009929,-0.00031887,0.00154319,0.00041356,-0.00087415,0.00017162,-0.000
 05140,0.00008148,0.00004357,-0.00004546,-0.00020701,-0.00037069,0.0000
 8627,-0.00025901,0.00101845,-0.00041320,-0.13045884,0.27942736,-0.0000
 4235,0.00024909,0.00024676,0.00018884,0.00064480,0.00744428,-0.0011650
 1,0.00153008,0.00204329,-0.01055573,0.01929812,-0.03728643,0.00014706,
 0.00007579,0.00259407,-0.00003877,0.00043691,0.00661400,0.00010092,-0.
 00004605,-0.00026180,-0.00004697,0.00000610,-0.00000582,0.00005055,0.0
 0005323,-0.00015767,0.00001847,-0.00041284,-0.00399605,0.01135060,-0.0
 2140649,0.02727718,0.00031543,-0.00021994,0.00001575,-0.00096651,0.000
 98189,-0.00005297,-0.00522924,0.00200097,-0.00021163,-0.01098649,-0.02
 973286,0.00229806,-0.12986181,-0.12105640,0.00910373,0.01200681,0.0153
 7861,-0.00113728,-0.00129915,0.00267290,-0.00028932,0.00002963,0.00012
 402,0.00002255,-0.00002799,-0.00007674,-0.00001732,-0.00075865,-0.0015
 5102,0.00008269,0.00110679,0.00039767,-0.00000245,0.13428489,-0.000210
 39,0.00007149,-0.00006627,0.00098073,0.00017066,0.00001651,0.00041181,
 0.00143467,0.00037581,0.00216960,0.00368141,-0.00022863,-0.12106000,-0
 .26831521,0.01836412,-0.01651944,-0.01914738,0.00146520,0.00425739,-0.
 00246811,0.00073879,-0.00006212,0.00000233,-0.00001788,0.00010259,0.00
 004217,0.00001192,0.00015449,0.00009421,0.00005306,-0.00042738,0.00078
 699,-0.00037207,0.13075590,0.28380019,0.00012168,0.00011754,-0.0005960
 0,-0.00006549,-0.00000347,-0.00033533,-0.00016230,0.00037427,0.0063915
 1,-0.00023988,-0.00043351,0.00042865,0.00913343,0.01842584,-0.03138350
 ,0.00139367,0.00164937,0.00027007,-0.00038556,0.00065872,0.00636554,-0
 .00022480,0.00004717,-0.00010506,0.00015489,-0.00018360,-0.00008721,-0
 .00003681,0.00004255,0.00068767,0.00006756,-0.00037407,-0.00371884,-0.
 00982606,-0.02007592,0.02511782,-0.00095627,0.00004911,0.00000393,0.00
 124404,-0.00267930,0.00018813,0.00078819,-0.00007945,0.00001956,0.0005
 1043,0.00341131,-0.00030245,-0.01172608,-0.00262224,0.00014025,-0.3369
 2357,0.00276602,-0.00175903,-0.01230857,0.00248849,-0.00024682,-0.0000
 9077,-0.00019325,0.00003675,-0.00000602,0.00007182,-0.00005779,-0.0001
 0564,-0.00002864,0.00000034,-0.00074585,-0.00014874,0.00000691,0.00090
 400,0.00028078,-0.00000690,0.35843408,-0.00133125,0.00064539,-0.000327
 56,-0.00181480,-0.00479031,0.00116884,-0.00018290,-0.00120597,0.000039
 02,0.00204010,-0.00490967,0.00093467,0.02863213,0.00536458,-0.00006140
 ,0.00315284,-0.06062098,0.00190235,-0.02862332,0.00442079,-0.00027263,
 -0.00029206,-0.00039258,0.00012134,0.00000873,0.00005916,0.00000094,-0
 .00000120,0.00020711,-0.00010097,0.00161575,0.00010429,0.00002892,-0.0
 0054576,0.00098880,-0.00038515,-0.00304101,0.05908070,0.00020359,0.000
 07465,0.00027641,0.00006185,0.00083514,0.00742017,-0.00000158,0.000102
 57,-0.00027197,-0.00017514,0.00096777,0.00657189,-0.00240865,-0.000170
 56,0.00259754,-0.00171153,0.00187049,-0.03580796,0.00208220,-0.0001475
 3,0.00219935,0.00003946,0.00006638,-0.00016201,0.00002838,-0.00003498,
 -0.00000643,0.00000883,-0.00011399,-0.00108364,-0.00013122,0.00001770,
 0.00029246,0.00006497,-0.00037997,-0.00371866,0.00193311,-0.00264507,0
 .02568732,0.00202330,0.00120760,0.00034622,-0.01113178,0.02982455,-0.0
 0242352,-0.00572258,-0.00183469,0.00010624,-0.00101794,-0.00108867,0.0
 0011279,-0.00097726,-0.00297910,0.00008993,0.01217600,-0.01496619,0.00
 134002,-0.13064563,0.11852040,-0.01089754,0.00030390,-0.00021709,-0.00
 003327,-0.00086960,-0.00122210,-0.00059432,-0.00073746,0.00161041,-0.0
 0012664,0.00014907,0.00011752,-0.00001208,0.00048229,-0.00083398,0.000
 07655,0.00098203,0.00038274,0.00000574,0.13498565,-0.00055316,0.002034
 09,-0.00047948,-0.00230490,0.00042914,0.00027255,-0.00040927,0.0015888
 0,0.00028572,-0.00076697,0.00019516,-0.00001921,-0.00456887,-0.0024024
 6,0.00075349,0.01672409,-0.01988863,0.00189288,0.11874594,-0.26052195,
 0.01971269,0.00004874,0.00020080,0.00003534,0.00090492,0.00027340,0.00
 001744,-0.00004045,0.00017447,0.00003535,0.00014543,-0.00004595,-0.000
 08560,0.00087076,-0.00114221,0.00014027,-0.00027488,0.00104868,-0.0004
 4261,-0.12852139,0.27805666,-0.00040414,0.00054059,-0.00288089,0.00037
 938,0.00017874,0.00328700,-0.00006730,0.00041213,0.00504260,-0.0000840
 9,-0.00010400,-0.00005292,0.00032746,0.00061137,0.00684011,-0.00114501
 ,0.00145760,0.00075059,-0.01108759,0.02037694,-0.03306356,-0.00020239,
 -0.00008317,-0.00061375,0.00025838,-0.00093111,0.00026572,0.00001985,0
 .00003641,0.00023755,0.00000228,-0.00008870,-0.00108542,-0.00005072,0.
 00011533,0.00068333,0.00004401,-0.00040329,-0.00399446,0.01200989,-0.0
 2211884,0.02458409\\-0.00000862,-0.00003315,-0.00000503,0.00003254,0.0
 0004781,-0.00000053,0.00000697,-0.00001445,-0.00000110,0.00000051,0.00
 000563,0.00004043,-0.00000940,-0.00000157,-0.00001240,-0.00000203,-0.0
 0000323,-0.00001560,-0.00004263,-0.00002821,-0.00000332,0.00002290,0.0
 0001430,0.00000105,-0.00000374,0.00001774,0.00000228,0.00001301,-0.000
 00893,-0.00000455,0.00001605,-0.00000563,-0.00000818,-0.00001297,-0.00
 000266,-0.00001081,-0.00001109,-0.00000581,0.00001602,-0.00000150,0.00
 001816,0.00000175\\\@


 THIS CURIOUS WORLD WHICH WE INHABIT IS MORE WONDERFUL THAN IT IS CONVENIENT;
 MORE BEAUTIFUL THAN IT IS USEFUL;
 IT IS MORE TO BE ADMIRED THAN IT IS TO BE USED.

                                                                 -- THOREAU
 Job cpu time:       0 days  0 hours  4 minutes 47.1 seconds.
 Elapsed time:       0 days  0 hours  0 minutes 12.5 seconds.
 File lengths (MBytes):  RWF=     29 Int=      0 D2E=      0 Chk=      2 Scr=      1
 Normal termination of Gaussian 16 at Mon Oct 14 11:06:58 2019.
real 40.88
user 873.41
sys 11.13
Machine:
brown-a445
brown-a445
brown-a445
brown-a445
brown-a445
brown-a445
brown-a445
brown-a445
brown-a445
brown-a445
brown-a445
brown-a445
brown-a445
brown-a445
brown-a445
brown-a445
brown-a445
brown-a445
brown-a445
brown-a445
brown-a445
brown-a445
brown-a445
brown-a445
