 Entering Gaussian System, Link 0=/apps/cent7/gaussian/g16-A.03/g16-haswell/g16/g16
 Initial command:
 /apps/cent7/gaussian/g16-A.03/g16-haswell/g16/l1.exe "/scratch/brown/finej/gaussian/Gau-282747.inp" -scrdir="/scratch/brown/finej/gaussian/"
 Entering Link 1 = /apps/cent7/gaussian/g16-A.03/g16-haswell/g16/l1.exe PID=    282750.
  
 Copyright (c) 1988,1990,1992,1993,1995,1998,2003,2009,2016,
            Gaussian, Inc.  All Rights Reserved.
  
 This is part of the Gaussian(R) 16 program.  It is based on
 the Gaussian(R) 09 system (copyright 2009, Gaussian, Inc.),
 the Gaussian(R) 03 system (copyright 2003, Gaussian, Inc.),
 the Gaussian(R) 98 system (copyright 1998, Gaussian, Inc.),
 the Gaussian(R) 94 system (copyright 1995, Gaussian, Inc.),
 the Gaussian 92(TM) system (copyright 1992, Gaussian, Inc.),
 the Gaussian 90(TM) system (copyright 1990, Gaussian, Inc.),
 the Gaussian 88(TM) system (copyright 1988, Gaussian, Inc.),
 the Gaussian 86(TM) system (copyright 1986, Carnegie Mellon
 University), and the Gaussian 82(TM) system (copyright 1983,
 Carnegie Mellon University). Gaussian is a federally registered
 trademark of Gaussian, Inc.
  
 This software contains proprietary and confidential information,
 including trade secrets, belonging to Gaussian, Inc.
  
 This software is provided under written license and may be
 used, copied, transmitted, or stored only in accord with that
 written license.
  
 The following legend is applicable only to US Government
 contracts under FAR:
  
                    RESTRICTED RIGHTS LEGEND
  
 Use, reproduction and disclosure by the US Government is
 subject to restrictions as set forth in subparagraphs (a)
 and (c) of the Commercial Computer Software - Restricted
 Rights clause in FAR 52.227-19.
  
 Gaussian, Inc.
 340 Quinnipiac St., Bldg. 40, Wallingford CT 06492
  
  
 ---------------------------------------------------------------
 Warning -- This program may not be used in any manner that
 competes with the business of Gaussian, Inc. or will provide
 assistance to any competitor of Gaussian, Inc.  The licensee
 of this program is prohibited from giving any competitor of
 Gaussian, Inc. access to this program.  By using this program,
 the user acknowledges that Gaussian, Inc. is engaged in the
 business of creating and licensing software in the field of
 computational chemistry and represents and warrants to the
 licensee that it is not a competitor of Gaussian, Inc. and that
 it will not use this program in any manner prohibited above.
 ---------------------------------------------------------------
  

 Cite this work as:
 Gaussian 16, Revision A.03,
 M. J. Frisch, G. W. Trucks, H. B. Schlegel, G. E. Scuseria, 
 M. A. Robb, J. R. Cheeseman, G. Scalmani, V. Barone, 
 G. A. Petersson, H. Nakatsuji, X. Li, M. Caricato, A. V. Marenich, 
 J. Bloino, B. G. Janesko, R. Gomperts, B. Mennucci, H. P. Hratchian, 
 J. V. Ortiz, A. F. Izmaylov, J. L. Sonnenberg, D. Williams-Young, 
 F. Ding, F. Lipparini, F. Egidi, J. Goings, B. Peng, A. Petrone, 
 T. Henderson, D. Ranasinghe, V. G. Zakrzewski, J. Gao, N. Rega, 
 G. Zheng, W. Liang, M. Hada, M. Ehara, K. Toyota, R. Fukuda, 
 J. Hasegawa, M. Ishida, T. Nakajima, Y. Honda, O. Kitao, H. Nakai, 
 T. Vreven, K. Throssell, J. A. Montgomery, Jr., J. E. Peralta, 
 F. Ogliaro, M. J. Bearpark, J. J. Heyd, E. N. Brothers, K. N. Kudin, 
 V. N. Staroverov, T. A. Keith, R. Kobayashi, J. Normand, 
 K. Raghavachari, A. P. Rendell, J. C. Burant, S. S. Iyengar, 
 J. Tomasi, M. Cossi, J. M. Millam, M. Klene, C. Adamo, R. Cammi, 
 J. W. Ochterski, R. L. Martin, K. Morokuma, O. Farkas, 
 J. B. Foresman, and D. J. Fox, Gaussian, Inc., Wallingford CT, 2016.
 
 ******************************************
 Gaussian 16:  ES64L-G16RevA.03 25-Dec-2016
                14-Oct-2019 
 ******************************************
 %chk=19_p.chk
 %nprocshared=24
 Will use up to   24 processors via shared memory.
 %mem=80GB
 --------------------------------------------------------------
 #p opt freq b3lyp/6-31g(d) geom=connectivity temperature=0.001
 --------------------------------------------------------------
 1/18=20,19=15,26=3,38=1,57=2,112=-1000/1,3;
 2/9=110,12=2,17=6,18=5,40=1/2;
 3/5=1,6=6,7=1,11=2,25=1,30=1,71=1,74=-5/1,2,3;
 4//1;
 5/5=2,38=5/2;
 6/7=2,8=2,9=2,10=2,28=1/1;
 7//1,2,3,16;
 1/18=20,19=15,26=3/3(2);
 2/9=110/2;
 99//99;
 2/9=110/2;
 3/5=1,6=6,7=1,11=2,25=1,30=1,71=1,74=-5/1,2,3;
 4/5=5,16=3,69=1/1;
 5/5=2,38=5/2;
 7//1,2,3,16;
 1/18=20,19=15,26=3/3(-5);
 2/9=110/2;
 6/7=2,8=2,9=2,10=2,19=2,28=1/1;
 99/9=1/99;
 Leave Link    1 at Mon Oct 14 11:06:09 2019, MaxMem= 10737418240 cpu:               2.6 elap:               0.1
 (Enter /apps/cent7/gaussian/g16-A.03/g16-haswell/g16/l101.exe)
 -------------------
 Title Card Required
 -------------------
 Symbolic Z-matrix:
 Charge =  1 Multiplicity = 1
 N                    -0.6683   -1.1575    0.2096 
 C                     0.0038    0.0065    0.1244 
 C                    -0.6995    1.2281    0.0761 
 C                     0.0043    2.4443   -0.0121 
 C                     1.4103    2.4427   -0.0432 
 C                     2.1147    1.2259   -0.0121 
 C                     1.4133    0.0083    0.0761 
 H                    -0.19842  -1.85417  -0.33249 
 H                    -0.70885  -1.44983   1.16506 
 H                    -1.789     1.2322    0.107 
 H                    -0.5398    3.3878   -0.0563 
 H                     1.9548    3.3858   -0.0914 
 H                     3.2038    1.2264   -0.0563 
 H                     1.9616   -0.9332    0.107 
 H                    -1.59667  -1.03276  -0.14051 
 
 ITRead=  0  0  0  0  0  0  0  0  0  0  0  0  0  0  0
 MicOpt= -1 -1 -1 -1 -1 -1 -1 -1 -1 -1 -1 -1 -1 -1 -1
 NAtoms=     15 NQM=       15 NQMF=       0 NMMI=      0 NMMIF=      0
                NMic=       0 NMicF=      0.
                    Isotopes and Nuclear Properties:
 (Nuclear quadrupole moments (NQMom) in fm**2, nuclear magnetic moments (NMagM)
  in nuclear magnetons)

  Atom         1           2           3           4           5           6           7           8           9          10
 IAtWgt=          14          12          12          12          12          12          12           1           1           1
 AtmWgt=  14.0030740  12.0000000  12.0000000  12.0000000  12.0000000  12.0000000  12.0000000   1.0078250   1.0078250   1.0078250
 NucSpn=           2           0           0           0           0           0           0           1           1           1
 AtZEff=  -0.0000000  -0.0000000  -0.0000000  -0.0000000  -0.0000000  -0.0000000  -0.0000000  -0.0000000  -0.0000000  -0.0000000
 NQMom=    2.0440000   0.0000000   0.0000000   0.0000000   0.0000000   0.0000000   0.0000000   0.0000000   0.0000000   0.0000000
 NMagM=    0.4037610   0.0000000   0.0000000   0.0000000   0.0000000   0.0000000   0.0000000   2.7928460   2.7928460   2.7928460
 AtZNuc=   7.0000000   6.0000000   6.0000000   6.0000000   6.0000000   6.0000000   6.0000000   1.0000000   1.0000000   1.0000000

  Atom        11          12          13          14          15
 IAtWgt=           1           1           1           1           1
 AtmWgt=   1.0078250   1.0078250   1.0078250   1.0078250   1.0078250
 NucSpn=           1           1           1           1           1
 AtZEff=  -0.0000000  -0.0000000  -0.0000000  -0.0000000  -0.0000000
 NQMom=    0.0000000   0.0000000   0.0000000   0.0000000   0.0000000
 NMagM=    2.7928460   2.7928460   2.7928460   2.7928460   2.7928460
 AtZNuc=   1.0000000   1.0000000   1.0000000   1.0000000   1.0000000
 Leave Link  101 at Mon Oct 14 11:06:10 2019, MaxMem= 10737418240 cpu:               8.4 elap:               0.4
 (Enter /apps/cent7/gaussian/g16-A.03/g16-haswell/g16/l103.exe)

 GradGradGradGradGradGradGradGradGradGradGradGradGradGradGradGradGradGrad
 Berny optimization.
 Initialization pass.
                           ----------------------------
                           !    Initial Parameters    !
                           ! (Angstroms and Degrees)  !
 --------------------------                            --------------------------
 ! Name  Definition              Value          Derivative Info.                !
 --------------------------------------------------------------------------------
 ! R1    R(1,2)                  1.3468         estimate D2E/DX2                !
 ! R2    R(1,8)                  1.0            estimate D2E/DX2                !
 ! R3    R(1,9)                  1.0            estimate D2E/DX2                !
 ! R4    R(1,15)                 1.0            estimate D2E/DX2                !
 ! R5    R(2,3)                  1.4104         estimate D2E/DX2                !
 ! R6    R(2,7)                  1.4103         estimate D2E/DX2                !
 ! R7    R(3,4)                  1.4079         estimate D2E/DX2                !
 ! R8    R(3,10)                 1.0899         estimate D2E/DX2                !
 ! R9    R(4,5)                  1.4063         estimate D2E/DX2                !
 ! R10   R(4,11)                 1.09           estimate D2E/DX2                !
 ! R11   R(5,6)                  1.4063         estimate D2E/DX2                !
 ! R12   R(5,12)                 1.0901         estimate D2E/DX2                !
 ! R13   R(6,7)                  1.4079         estimate D2E/DX2                !
 ! R14   R(6,13)                 1.09           estimate D2E/DX2                !
 ! R15   R(7,14)                 1.09           estimate D2E/DX2                !
 ! A1    A(2,1,8)              109.4712         estimate D2E/DX2                !
 ! A2    A(2,1,9)              109.4712         estimate D2E/DX2                !
 ! A3    A(2,1,15)             109.4712         estimate D2E/DX2                !
 ! A4    A(8,1,9)              109.4712         estimate D2E/DX2                !
 ! A5    A(8,1,15)             109.4712         estimate D2E/DX2                !
 ! A6    A(9,1,15)             109.4712         estimate D2E/DX2                !
 ! A7    A(1,2,3)              120.1253         estimate D2E/DX2                !
 ! A8    A(1,2,7)              120.1331         estimate D2E/DX2                !
 ! A9    A(3,2,7)              119.7408         estimate D2E/DX2                !
 ! A10   A(2,3,4)              120.0702         estimate D2E/DX2                !
 ! A11   A(2,3,10)             120.0484         estimate D2E/DX2                !
 ! A12   A(4,3,10)             119.8814         estimate D2E/DX2                !
 ! A13   A(3,4,5)              120.0109         estimate D2E/DX2                !
 ! A14   A(3,4,11)             120.0473         estimate D2E/DX2                !
 ! A15   A(5,4,11)             119.9419         estimate D2E/DX2                !
 ! A16   A(4,5,6)              120.0829         estimate D2E/DX2                !
 ! A17   A(4,5,12)             119.9592         estimate D2E/DX2                !
 ! A18   A(6,5,12)             119.9579         estimate D2E/DX2                !
 ! A19   A(5,6,7)              120.0081         estimate D2E/DX2                !
 ! A20   A(5,6,13)             119.9454         estimate D2E/DX2                !
 ! A21   A(7,6,13)             120.0465         estimate D2E/DX2                !
 ! A22   A(2,7,6)              120.0749         estimate D2E/DX2                !
 ! A23   A(2,7,14)             120.0448         estimate D2E/DX2                !
 ! A24   A(6,7,14)             119.8803         estimate D2E/DX2                !
 ! D1    D(8,1,2,3)            143.0691         estimate D2E/DX2                !
 ! D2    D(8,1,2,7)            -36.6            estimate D2E/DX2                !
 ! D3    D(9,1,2,3)            -96.9309         estimate D2E/DX2                !
 ! D4    D(9,1,2,7)             83.4            estimate D2E/DX2                !
 ! D5    D(15,1,2,3)            23.0691         estimate D2E/DX2                !
 ! D6    D(15,1,2,7)          -156.6            estimate D2E/DX2                !
 ! D7    D(1,2,3,4)            179.9593         estimate D2E/DX2                !
 ! D8    D(1,2,3,10)            -0.0406         estimate D2E/DX2                !
 ! D9    D(7,2,3,4)             -0.3702         estimate D2E/DX2                !
 ! D10   D(7,2,3,10)           179.6299         estimate D2E/DX2                !
 ! D11   D(1,2,7,6)           -179.9593         estimate D2E/DX2                !
 ! D12   D(1,2,7,14)             0.0407         estimate D2E/DX2                !
 ! D13   D(3,2,7,6)              0.3703         estimate D2E/DX2                !
 ! D14   D(3,2,7,14)          -179.6297         estimate D2E/DX2                !
 ! D15   D(2,3,4,5)             -0.4217         estimate D2E/DX2                !
 ! D16   D(2,3,4,11)           179.5805         estimate D2E/DX2                !
 ! D17   D(10,3,4,5)           179.5782         estimate D2E/DX2                !
 ! D18   D(10,3,4,11)           -0.4196         estimate D2E/DX2                !
 ! D19   D(3,4,5,6)              1.2167         estimate D2E/DX2                !
 ! D20   D(3,4,5,12)          -178.7789         estimate D2E/DX2                !
 ! D21   D(11,4,5,6)          -178.7856         estimate D2E/DX2                !
 ! D22   D(11,4,5,12)            1.2188         estimate D2E/DX2                !
 ! D23   D(4,5,6,7)             -1.2166         estimate D2E/DX2                !
 ! D24   D(4,5,6,13)           178.7852         estimate D2E/DX2                !
 ! D25   D(12,5,6,7)           178.779          estimate D2E/DX2                !
 ! D26   D(12,5,6,13)           -1.2192         estimate D2E/DX2                !
 ! D27   D(5,6,7,2)              0.4216         estimate D2E/DX2                !
 ! D28   D(5,6,7,14)          -179.5783         estimate D2E/DX2                !
 ! D29   D(13,6,7,2)          -179.5802         estimate D2E/DX2                !
 ! D30   D(13,6,7,14)            0.4198         estimate D2E/DX2                !
 --------------------------------------------------------------------------------
 Trust Radius=3.00D-01 FncErr=1.00D-07 GrdErr=1.00D-06 EigMax=2.50D+02 EigMin=1.00D-04
 Number of steps in this run=     79 maximum allowed number of steps=    100.
 GradGradGradGradGradGradGradGradGradGradGradGradGradGradGradGradGradGrad

 Leave Link  103 at Mon Oct 14 11:06:10 2019, MaxMem= 10737418240 cpu:               0.2 elap:               0.0
 (Enter /apps/cent7/gaussian/g16-A.03/g16-haswell/g16/l202.exe)
                          Input orientation:                          
 ---------------------------------------------------------------------
 Center     Atomic      Atomic             Coordinates (Angstroms)
 Number     Number       Type             X           Y           Z
 ---------------------------------------------------------------------
      1          7           0       -0.668300   -1.157500    0.209600
      2          6           0        0.003800    0.006500    0.124400
      3          6           0       -0.699500    1.228100    0.076100
      4          6           0        0.004300    2.444300   -0.012100
      5          6           0        1.410300    2.442700   -0.043200
      6          6           0        2.114700    1.225900   -0.012100
      7          6           0        1.413300    0.008300    0.076100
      8          1           0       -0.198420   -1.854172   -0.332490
      9          1           0       -0.708846   -1.449835    1.165056
     10          1           0       -1.789000    1.232200    0.107000
     11          1           0       -0.539800    3.387800   -0.056300
     12          1           0        1.954800    3.385800   -0.091400
     13          1           0        3.203800    1.226400   -0.056300
     14          1           0        1.961600   -0.933200    0.107000
     15          1           0       -1.596668   -1.032763   -0.140505
 ---------------------------------------------------------------------
                    Distance matrix (angstroms):
                    1          2          3          4          5
     1  N    0.000000
     2  C    1.346801   0.000000
     3  C    2.389536   1.410415   0.000000
     4  C    3.670764   2.441619   1.407926   0.000000
     5  C    4.164844   2.818049   2.437364   1.406345   0.000000
     6  C    3.670809   2.441612   2.815583   2.436860   1.406325
     7  C    2.389554   1.410328   2.439638   2.815521   2.437323
     8  H    1.000000   1.926588   3.149353   4.315160   4.597258
     9  H    1.000000   1.926588   2.890891   4.130201   4.593745
    10  H    2.641432   2.171814   1.089946   2.167786   3.423944
    11  H    4.554884   3.429481   2.169640   1.090042   2.167089
    12  H    5.254791   3.908022   3.424768   2.167293   1.090065
    13  H    4.554870   3.429404   3.905545   3.423746   2.167072
    14  H    2.641441   2.171709   3.428356   3.905472   3.423915
    15  H    1.000000   1.926588   2.441993   3.830086   4.596757
                    6          7          8          9         10
     6  C    0.000000
     7  C    1.407939   0.000000
     8  H    3.865232   2.496676   0.000000
     9  H    4.064193   2.795619   1.632993   0.000000
    10  H    3.905522   3.428354   3.499827   3.078884   0.000000
    11  H    3.423760   3.905528   5.260332   4.992294   2.496754
    12  H    2.167262   3.424731   5.670254   5.661895   4.323586
    13  H    1.089997   2.169605   4.597968   4.895176   4.995473
    14  H    2.167795   1.089959   2.388939   2.918506   4.330815
    15  H    4.346527   3.192278   1.632993   1.632993   2.286550
                   11         12         13         14         15
    11  H    0.000000
    12  H    2.494848   0.000000
    13  H    4.322753   2.494843   0.000000
    14  H    4.995469   4.323560   2.496718   0.000000
    15  H    4.545926   5.669130   5.306166   3.568255   0.000000
 Stoichiometry    C6H8N(1+)
 Framework group  C1[X(C6H8N)]
 Deg. of freedom    39
 Full point group                 C1      NOp   1
 Largest Abelian subgroup         C1      NOp   1
 Largest concise Abelian subgroup C1      NOp   1
                         Standard orientation:                         
 ---------------------------------------------------------------------
 Center     Atomic      Atomic             Coordinates (Angstroms)
 Number     Number       Type             X           Y           Z
 ---------------------------------------------------------------------
      1          7           0       -2.246616   -0.000014    0.003328
      2          6           0       -0.899816   -0.000053    0.001532
      3          6           0       -0.191908    1.219831   -0.002935
      4          6           0        1.216017    1.218439   -0.003945
      5          6           0        1.918225    0.000016    0.008465
      6          6           0        1.216081   -1.218421   -0.003944
      7          6           0       -0.191857   -1.219807   -0.002935
      8          1           0       -2.580724   -0.755281   -0.560536
      9          1           0       -2.578703   -0.111072    0.940016
     10          1           0       -0.733994    2.165409   -0.005610
     11          1           0        1.762742    2.161400   -0.014306
     12          1           0        3.008119    0.000028    0.027798
     13          1           0        1.762766   -2.161353   -0.014309
     14          1           0       -0.733933   -2.165406   -0.005612
     15          1           0       -2.580419    0.866341   -0.368161
 ---------------------------------------------------------------------
 Rotational constants (GHZ):           5.4401053           2.5422971           1.7487543
 Leave Link  202 at Mon Oct 14 11:06:10 2019, MaxMem= 10737418240 cpu:               0.4 elap:               0.0
 (Enter /apps/cent7/gaussian/g16-A.03/g16-haswell/g16/l301.exe)
 Standard basis: 6-31G(d) (6D, 7F)
 Ernie: Thresh=  0.10000D-02 Tol=  0.10000D-05 Strict=F.
 There are   121 symmetry adapted cartesian basis functions of A   symmetry.
 There are   121 symmetry adapted basis functions of A   symmetry.
   121 basis functions,   228 primitive gaussians,   121 cartesian basis functions
    25 alpha electrons       25 beta electrons
       nuclear repulsion energy       282.7050204996 Hartrees.
 IExCor=  402 DFT=T Ex+Corr=B3LYP ExCW=0 ScaHFX=  0.200000
 ScaDFX=  0.800000  0.720000  1.000000  0.810000 ScalE2=  1.000000  1.000000
 IRadAn=      5 IRanWt=     -1 IRanGd=            0 ICorTp=0 IEmpDi=  4
 NAtoms=   15 NActive=   15 NUniq=   15 SFac= 1.00D+00 NAtFMM=   60 NAOKFM=F Big=F
 Integral buffers will be    131072 words long.
 Raffenetti 2 integral format.
 Two-electron integral symmetry is turned on.
 Leave Link  301 at Mon Oct 14 11:06:10 2019, MaxMem= 10737418240 cpu:               1.2 elap:               0.1
 (Enter /apps/cent7/gaussian/g16-A.03/g16-haswell/g16/l302.exe)
 NPDir=0 NMtPBC=     1 NCelOv=     1 NCel=       1 NClECP=     1 NCelD=      1
         NCelK=      1 NCelE2=     1 NClLst=     1 CellRange=     0.0.
 One-electron integrals computed using PRISM.
 One-electron integral symmetry used in STVInt
 NBasis=   121 RedAO= T EigKep=  4.97D-04  NBF=   121
 NBsUse=   121 1.00D-06 EigRej= -1.00D+00 NBFU=   121
 Precomputing XC quadrature grid using
 IXCGrd= 4 IRadAn=           5 IRanWt=          -1 IRanGd=           0 AccXCQ= 0.00D+00.
 Generated NRdTot=       0 NPtTot=           0 NUsed=           0 NTot=          32
 NSgBfM=   121   121   121   121   121 MxSgAt=    15 MxSgA2=    15.
 Leave Link  302 at Mon Oct 14 11:06:10 2019, MaxMem= 10737418240 cpu:               3.7 elap:               0.2
 (Enter /apps/cent7/gaussian/g16-A.03/g16-haswell/g16/l303.exe)
 DipDrv:  MaxL=1.
 Leave Link  303 at Mon Oct 14 11:06:10 2019, MaxMem= 10737418240 cpu:               1.8 elap:               0.1
 (Enter /apps/cent7/gaussian/g16-A.03/g16-haswell/g16/l401.exe)
 ExpMin= 1.61D-01 ExpMax= 4.17D+03 ExpMxC= 6.27D+02 IAcc=3 IRadAn=         5 AccDes= 0.00D+00
 Harris functional with IExCor=  402 and IRadAn=       5 diagonalized for initial guess.
 HarFok:  IExCor=  402 AccDes= 0.00D+00 IRadAn=         5 IDoV= 1 UseB2=F ITyADJ=14
 ICtDFT=  3500011 ScaDFX=  1.000000  1.000000  1.000000  1.000000
 FoFCou: FMM=F IPFlag=           0 FMFlag=      100000 FMFlg1=           0
         NFxFlg=           0 DoJE=T BraDBF=F KetDBF=T FulRan=T
         wScrn=  0.000000 ICntrl=       500 IOpCl=  0 I1Cent=   200000004 NGrid=           0
         NMat0=    1 NMatS0=      1 NMatT0=    0 NMatD0=    1 NMtDS0=    0 NMtDT0=    0
 Petite list used in FoFCou.
 Harris En= -287.992935665860    
 JPrj=0 DoOrth=F DoCkMO=F.
 Leave Link  401 at Mon Oct 14 11:06:10 2019, MaxMem= 10737418240 cpu:               5.6 elap:               0.3
 (Enter /apps/cent7/gaussian/g16-A.03/g16-haswell/g16/l502.exe)
 Integral symmetry usage will be decided dynamically.
 Closed shell SCF:
 Using DIIS extrapolation, IDIIS=  1040.
 NGot= 10737418240 LenX= 10737384526 LenY= 10737369444
 Requested convergence on RMS density matrix=1.00D-08 within 128 cycles.
 Requested convergence on MAX density matrix=1.00D-06.
 Requested convergence on             energy=1.00D-06.
 No special actions if energy rises.
 Fock matrices will be formed incrementally for  20 cycles.
 Integral accuracy reduced to 1.0D-05 until final iterations.

 Cycle   1  Pass 0  IDiag  1:
 FoFJK:  IHMeth= 1 ICntrl=       0 DoSepK=F KAlg= 0 I1Cent=           0 FoldK=F
 IRaf= 980000000 NMat=       1 IRICut=       1 DoRegI=T DoRafI=F ISym2E= 0 IDoP0=0 IntGTp=1.
 FoFCou: FMM=F IPFlag=           0 FMFlag=      100000 FMFlg1=           0
         NFxFlg=           0 DoJE=F BraDBF=F KetDBF=F FulRan=T
         wScrn=  0.000000 ICntrl=         0 IOpCl=  0 I1Cent=           0 NGrid=           0
         NMat0=    1 NMatS0=      1 NMatT0=    0 NMatD0=    1 NMtDS0=    0 NMtDT0=    0
 Symmetry not used in FoFCou.
 E= -287.776949166121    
 DIIS: error= 4.32D-02 at cycle   1 NSaved=   1.
 NSaved= 1 IEnMin= 1 EnMin= -287.776949166121     IErMin= 1 ErrMin= 4.32D-02
 ErrMax= 4.32D-02  0.00D+00 EMaxC= 1.00D-01 BMatC= 1.39D-01 BMatP= 1.39D-01
 IDIUse=3 WtCom= 5.68D-01 WtEn= 4.32D-01
 Coeff-Com:  0.100D+01
 Coeff-En:   0.100D+01
 Coeff:      0.100D+01
 Gap=     0.274 Goal=   None    Shift=    0.000
 GapD=    0.274 DampG=1.000 DampE=0.500 DampFc=0.5000 IDamp=-1.
 Damping current iteration by 5.00D-01
 RMSDP=8.47D-03 MaxDP=1.17D-01              OVMax= 2.34D-01

 Cycle   2  Pass 0  IDiag  1:
 RMSU=  4.17D-03    CP:  9.75D-01
 E= -287.843523595069     Delta-E=       -0.066574428947 Rises=F Damp=T
 DIIS: error= 8.52D-03 at cycle   2 NSaved=   2.
 NSaved= 2 IEnMin= 2 EnMin= -287.843523595069     IErMin= 2 ErrMin= 8.52D-03
 ErrMax= 8.52D-03  0.00D+00 EMaxC= 1.00D-01 BMatC= 1.28D-02 BMatP= 1.39D-01
 IDIUse=3 WtCom= 9.15D-01 WtEn= 8.52D-02
 Coeff-Com:  0.711D-01 0.929D+00
 Coeff-En:   0.143D+00 0.857D+00
 Coeff:      0.772D-01 0.923D+00
 Gap=     0.268 Goal=   None    Shift=    0.000
 RMSDP=2.22D-03 MaxDP=4.38D-02 DE=-6.66D-02 OVMax= 2.21D-01

 Cycle   3  Pass 0  IDiag  1:
 RMSU=  2.10D-03    CP:  9.65D-01  8.46D-01
 E= -287.922437804997     Delta-E=       -0.078914209928 Rises=F Damp=F
 DIIS: error= 1.15D-02 at cycle   3 NSaved=   3.
 NSaved= 3 IEnMin= 3 EnMin= -287.922437804997     IErMin= 2 ErrMin= 8.52D-03
 ErrMax= 1.15D-02  0.00D+00 EMaxC= 1.00D-01 BMatC= 1.25D-02 BMatP= 1.28D-02
 IDIUse=3 WtCom= 8.85D-01 WtEn= 1.15D-01
 Coeff-Com: -0.177D-01 0.504D+00 0.514D+00
 Coeff-En:   0.000D+00 0.000D+00 0.100D+01
 Coeff:     -0.156D-01 0.446D+00 0.570D+00
 Gap=     0.231 Goal=   None    Shift=    0.000
 RMSDP=1.35D-03 MaxDP=3.69D-02 DE=-7.89D-02 OVMax= 7.60D-02

 Cycle   4  Pass 0  IDiag  1:
 RMSU=  9.97D-04    CP:  9.67D-01  9.67D-01  6.40D-01
 E= -287.932033229978     Delta-E=       -0.009595424981 Rises=F Damp=F
 DIIS: error= 6.62D-03 at cycle   4 NSaved=   4.
 NSaved= 4 IEnMin= 4 EnMin= -287.932033229978     IErMin= 4 ErrMin= 6.62D-03
 ErrMax= 6.62D-03  0.00D+00 EMaxC= 1.00D-01 BMatC= 3.58D-03 BMatP= 1.25D-02
 IDIUse=3 WtCom= 9.34D-01 WtEn= 6.62D-02
 Coeff-Com: -0.158D-01 0.874D-01 0.362D+00 0.566D+00
 Coeff-En:   0.000D+00 0.000D+00 0.272D+00 0.728D+00
 Coeff:     -0.147D-01 0.816D-01 0.356D+00 0.577D+00
 Gap=     0.231 Goal=   None    Shift=    0.000
 RMSDP=5.94D-04 MaxDP=1.10D-02 DE=-9.60D-03 OVMax= 2.93D-02

 Cycle   5  Pass 0  IDiag  1:
 RMSU=  2.09D-04    CP:  9.66D-01  9.25D-01  7.76D-01  5.56D-01
 E= -287.936057036116     Delta-E=       -0.004023806138 Rises=F Damp=F
 DIIS: error= 7.89D-04 at cycle   5 NSaved=   5.
 NSaved= 5 IEnMin= 5 EnMin= -287.936057036116     IErMin= 5 ErrMin= 7.89D-04
 ErrMax= 7.89D-04  0.00D+00 EMaxC= 1.00D-01 BMatC= 5.99D-05 BMatP= 3.58D-03
 IDIUse=3 WtCom= 9.92D-01 WtEn= 7.89D-03
 Coeff-Com: -0.547D-02 0.118D-01 0.113D+00 0.241D+00 0.640D+00
 Coeff-En:   0.000D+00 0.000D+00 0.000D+00 0.000D+00 0.100D+01
 Coeff:     -0.543D-02 0.117D-01 0.112D+00 0.239D+00 0.643D+00
 Gap=     0.232 Goal=   None    Shift=    0.000
 RMSDP=8.16D-05 MaxDP=1.50D-03 DE=-4.02D-03 OVMax= 4.36D-03

 Cycle   6  Pass 0  IDiag  1:
 RMSU=  5.30D-05    CP:  9.66D-01  9.29D-01  7.68D-01  6.02D-01  8.34D-01
 E= -287.936114449637     Delta-E=       -0.000057413520 Rises=F Damp=F
 DIIS: error= 2.83D-04 at cycle   6 NSaved=   6.
 NSaved= 6 IEnMin= 6 EnMin= -287.936114449637     IErMin= 6 ErrMin= 2.83D-04
 ErrMax= 2.83D-04  0.00D+00 EMaxC= 1.00D-01 BMatC= 9.63D-06 BMatP= 5.99D-05
 IDIUse=3 WtCom= 9.97D-01 WtEn= 2.83D-03
 Coeff-Com: -0.184D-02 0.118D-02 0.369D-01 0.927D-01 0.364D+00 0.507D+00
 Coeff-En:   0.000D+00 0.000D+00 0.000D+00 0.000D+00 0.458D-01 0.954D+00
 Coeff:     -0.183D-02 0.118D-02 0.368D-01 0.924D-01 0.364D+00 0.508D+00
 Gap=     0.231 Goal=   None    Shift=    0.000
 RMSDP=2.40D-05 MaxDP=5.72D-04 DE=-5.74D-05 OVMax= 1.07D-03

 Cycle   7  Pass 0  IDiag  1:
 RMSU=  9.48D-06    CP:  9.66D-01  9.29D-01  7.70D-01  6.02D-01  8.27D-01
                    CP:  5.96D-01
 E= -287.936123535447     Delta-E=       -0.000009085810 Rises=F Damp=F
 DIIS: error= 2.17D-05 at cycle   7 NSaved=   7.
 NSaved= 7 IEnMin= 7 EnMin= -287.936123535447     IErMin= 7 ErrMin= 2.17D-05
 ErrMax= 2.17D-05  0.00D+00 EMaxC= 1.00D-01 BMatC= 9.81D-08 BMatP= 9.63D-06
 IDIUse=1 WtCom= 1.00D+00 WtEn= 0.00D+00
 Coeff-Com:  0.114D-03-0.870D-03-0.134D-03 0.167D-02 0.252D-01 0.109D+00
 Coeff-Com:  0.865D+00
 Coeff:      0.114D-03-0.870D-03-0.134D-03 0.167D-02 0.252D-01 0.109D+00
 Coeff:      0.865D+00
 Gap=     0.231 Goal=   None    Shift=    0.000
 RMSDP=2.77D-06 MaxDP=6.00D-05 DE=-9.09D-06 OVMax= 1.07D-04

 Initial convergence to 1.0D-05 achieved.  Increase integral accuracy.
 Cycle   8  Pass 1  IDiag  1:
 E= -287.936121787350     Delta-E=        0.000001748097 Rises=F Damp=F
 DIIS: error= 6.05D-06 at cycle   1 NSaved=   1.
 NSaved= 1 IEnMin= 1 EnMin= -287.936121787350     IErMin= 1 ErrMin= 6.05D-06
 ErrMax= 6.05D-06  0.00D+00 EMaxC= 1.00D-01 BMatC= 9.52D-09 BMatP= 9.52D-09
 IDIUse=1 WtCom= 1.00D+00 WtEn= 0.00D+00
 Coeff-Com:  0.100D+01
 Coeff:      0.100D+01
 Gap=     0.231 Goal=   None    Shift=    0.000
 RMSDP=2.77D-06 MaxDP=6.00D-05 DE= 1.75D-06 OVMax= 4.49D-05

 Cycle   9  Pass 1  IDiag  1:
 RMSU=  3.45D-06    CP:  1.00D+00
 E= -287.936121786240     Delta-E=        0.000000001110 Rises=F Damp=F
 DIIS: error= 6.66D-06 at cycle   2 NSaved=   2.
 NSaved= 2 IEnMin= 1 EnMin= -287.936121787350     IErMin= 1 ErrMin= 6.05D-06
 ErrMax= 6.66D-06  0.00D+00 EMaxC= 1.00D-01 BMatC= 1.03D-08 BMatP= 9.52D-09
 IDIUse=1 WtCom= 1.00D+00 WtEn= 0.00D+00
 Coeff-Com:  0.511D+00 0.489D+00
 Coeff:      0.511D+00 0.489D+00
 Gap=     0.231 Goal=   None    Shift=    0.000
 RMSDP=9.21D-07 MaxDP=1.92D-05 DE= 1.11D-09 OVMax= 4.03D-05

 Cycle  10  Pass 1  IDiag  1:
 RMSU=  8.93D-07    CP:  1.00D+00  9.37D-01
 E= -287.936121794742     Delta-E=       -0.000000008502 Rises=F Damp=F
 DIIS: error= 2.94D-06 at cycle   3 NSaved=   3.
 NSaved= 3 IEnMin= 3 EnMin= -287.936121794742     IErMin= 3 ErrMin= 2.94D-06
 ErrMax= 2.94D-06  0.00D+00 EMaxC= 1.00D-01 BMatC= 7.61D-10 BMatP= 9.52D-09
 IDIUse=1 WtCom= 1.00D+00 WtEn= 0.00D+00
 Coeff-Com:  0.108D+00 0.229D+00 0.663D+00
 Coeff:      0.108D+00 0.229D+00 0.663D+00
 Gap=     0.231 Goal=   None    Shift=    0.000
 RMSDP=3.66D-07 MaxDP=6.99D-06 DE=-8.50D-09 OVMax= 2.02D-05

 Cycle  11  Pass 1  IDiag  1:
 RMSU=  2.44D-07    CP:  1.00D+00  9.65D-01  7.14D-01
 E= -287.936121795292     Delta-E=       -0.000000000550 Rises=F Damp=F
 DIIS: error= 1.67D-06 at cycle   4 NSaved=   4.
 NSaved= 4 IEnMin= 4 EnMin= -287.936121795292     IErMin= 4 ErrMin= 1.67D-06
 ErrMax= 1.67D-06  0.00D+00 EMaxC= 1.00D-01 BMatC= 2.99D-10 BMatP= 7.61D-10
 IDIUse=1 WtCom= 1.00D+00 WtEn= 0.00D+00
 Coeff-Com: -0.270D-02 0.816D-01 0.445D+00 0.476D+00
 Coeff:     -0.270D-02 0.816D-01 0.445D+00 0.476D+00
 Gap=     0.231 Goal=   None    Shift=    0.000
 RMSDP=1.45D-07 MaxDP=2.60D-06 DE=-5.50D-10 OVMax= 7.51D-06

 Cycle  12  Pass 1  IDiag  1:
 RMSU=  3.36D-08    CP:  1.00D+00  9.61D-01  7.99D-01  5.17D-01
 E= -287.936121795620     Delta-E=       -0.000000000328 Rises=F Damp=F
 DIIS: error= 7.16D-08 at cycle   5 NSaved=   5.
 NSaved= 5 IEnMin= 5 EnMin= -287.936121795620     IErMin= 5 ErrMin= 7.16D-08
 ErrMax= 7.16D-08  0.00D+00 EMaxC= 1.00D-01 BMatC= 8.24D-13 BMatP= 2.99D-10
 IDIUse=1 WtCom= 1.00D+00 WtEn= 0.00D+00
 Coeff-Com: -0.253D-02 0.213D-01 0.126D+00 0.149D+00 0.706D+00
 Coeff:     -0.253D-02 0.213D-01 0.126D+00 0.149D+00 0.706D+00
 Gap=     0.231 Goal=   None    Shift=    0.000
 RMSDP=1.10D-08 MaxDP=2.63D-07 DE=-3.28D-10 OVMax= 6.58D-07

 Cycle  13  Pass 1  IDiag  1:
 RMSU=  9.14D-09    CP:  1.00D+00  9.62D-01  7.97D-01  5.17D-01  8.43D-01
 E= -287.936121795619     Delta-E=        0.000000000001 Rises=F Damp=F
 DIIS: error= 4.44D-08 at cycle   6 NSaved=   6.
 NSaved= 6 IEnMin= 5 EnMin= -287.936121795620     IErMin= 6 ErrMin= 4.44D-08
 ErrMax= 4.44D-08  0.00D+00 EMaxC= 1.00D-01 BMatC= 2.44D-13 BMatP= 8.24D-13
 IDIUse=1 WtCom= 1.00D+00 WtEn= 0.00D+00
 Coeff-Com: -0.134D-02 0.634D-02 0.406D-01 0.516D-01 0.405D+00 0.498D+00
 Coeff:     -0.134D-02 0.634D-02 0.406D-01 0.516D-01 0.405D+00 0.498D+00
 Gap=     0.231 Goal=   None    Shift=    0.000
 RMSDP=3.83D-09 MaxDP=1.08D-07 DE= 1.14D-12 OVMax= 2.35D-07

 SCF Done:  E(RB3LYP) =  -287.936121796     A.U. after   13 cycles
            NFock= 13  Conv=0.38D-08     -V/T= 2.0093
 KE= 2.852955093619D+02 PE=-1.222484840208D+03 EE= 3.665481885507D+02
 Leave Link  502 at Mon Oct 14 11:06:12 2019, MaxMem= 10737418240 cpu:              43.1 elap:               1.8
 (Enter /apps/cent7/gaussian/g16-A.03/g16-haswell/g16/l601.exe)
 Copying SCF densities to generalized density rwf, IOpCl= 0 IROHF=0.

 **********************************************************************

            Population analysis using the SCF density.

 **********************************************************************

 Orbital symmetries:
       Occupied  (A) (A) (A) (A) (A) (A) (A) (A) (A) (A) (A) (A)
                 (A) (A) (A) (A) (A) (A) (A) (A) (A) (A) (A) (A)
                 (A)
       Virtual   (A) (A) (A) (A) (A) (A) (A) (A) (A) (A) (A) (A)
                 (A) (A) (A) (A) (A) (A) (A) (A) (A) (A) (A) (A)
                 (A) (A) (A) (A) (A) (A) (A) (A) (A) (A) (A) (A)
                 (A) (A) (A) (A) (A) (A) (A) (A) (A) (A) (A) (A)
                 (A) (A) (A) (A) (A) (A) (A) (A) (A) (A) (A) (A)
                 (A) (A) (A) (A) (A) (A) (A) (A) (A) (A) (A) (A)
                 (A) (A) (A) (A) (A) (A) (A) (A) (A) (A) (A) (A)
                 (A) (A) (A) (A) (A) (A) (A) (A) (A) (A) (A) (A)
 The electronic state is 1-A.
 Alpha  occ. eigenvalues --  -14.67068 -10.41469 -10.37145 -10.37067 -10.35504
 Alpha  occ. eigenvalues --  -10.35483 -10.35061  -1.25883  -1.01434  -0.92125
 Alpha  occ. eigenvalues --   -0.91657  -0.83478  -0.81960  -0.81127  -0.74846
 Alpha  occ. eigenvalues --   -0.71608  -0.65821  -0.60684  -0.59922  -0.58570
 Alpha  occ. eigenvalues --   -0.52828  -0.52159  -0.51002  -0.41864  -0.41426
 Alpha virt. eigenvalues --   -0.18298  -0.17116  -0.15513  -0.09987  -0.08986
 Alpha virt. eigenvalues --   -0.05445  -0.00337  -0.00149   0.00856   0.03601
 Alpha virt. eigenvalues --    0.05111   0.06889   0.13067   0.14260   0.16149
 Alpha virt. eigenvalues --    0.16810   0.29514   0.33133   0.35722   0.36930
 Alpha virt. eigenvalues --    0.38167   0.38523   0.41305   0.43290   0.43437
 Alpha virt. eigenvalues --    0.44199   0.46243   0.46338   0.49250   0.49890
 Alpha virt. eigenvalues --    0.53035   0.58730   0.60712   0.61334   0.62393
 Alpha virt. eigenvalues --    0.62703   0.65901   0.68135   0.68618   0.70147
 Alpha virt. eigenvalues --    0.71653   0.77476   0.78955   0.79566   0.81455
 Alpha virt. eigenvalues --    0.89206   0.95146   0.95842   1.00504   1.01871
 Alpha virt. eigenvalues --    1.08166   1.13623   1.24086   1.26840   1.26891
 Alpha virt. eigenvalues --    1.29923   1.32936   1.34425   1.39541   1.55679
 Alpha virt. eigenvalues --    1.62930   1.66502   1.70850   1.71922   1.76173
 Alpha virt. eigenvalues --    1.78477   1.79792   1.87826   1.90261   1.92151
 Alpha virt. eigenvalues --    1.94616   1.99541   2.03843   2.07546   2.10876
 Alpha virt. eigenvalues --    2.13075   2.21598   2.25807   2.26675   2.39322
 Alpha virt. eigenvalues --    2.41024   2.47526   2.53748   2.54039   2.54922
 Alpha virt. eigenvalues --    2.62693   2.67653   2.89486   3.21356   3.61602
 Alpha virt. eigenvalues --    3.89902   3.94237   3.95760   4.15683   4.18079
 Alpha virt. eigenvalues --    4.50672
          Condensed to atoms (all electrons):
               1          2          3          4          5          6
     1  N    6.789802   0.170264  -0.062921   0.004557   0.000540   0.004046
     2  C    0.170264   4.888634   0.545130  -0.022693  -0.033525  -0.021236
     3  C   -0.062921   0.545130   4.902830   0.548270  -0.041703  -0.039480
     4  C    0.004557  -0.022693   0.548270   4.805505   0.543890  -0.023507
     5  C    0.000540  -0.033525  -0.041703   0.543890   4.831375   0.542113
     6  C    0.004046  -0.021236  -0.039480  -0.023507   0.542113   4.803481
     7  C   -0.069467   0.539120  -0.039279  -0.039830  -0.041726   0.549356
     8  H    0.305412  -0.027247   0.003333  -0.000076   0.000032   0.000125
     9  H    0.304663  -0.028547  -0.001882  -0.000031   0.000063   0.000024
    10  H   -0.006152  -0.058049   0.355114  -0.020866   0.004033   0.000312
    11  H   -0.000133   0.003491  -0.034097   0.362345  -0.033632   0.003749
    12  H    0.000004   0.000655   0.004493  -0.036290   0.364106  -0.036162
    13  H   -0.000131   0.003434   0.000815   0.003754  -0.033672   0.362418
    14  H   -0.004889  -0.060889   0.003686   0.000330   0.004079  -0.020408
    15  H    0.303714  -0.027136  -0.000137   0.000075   0.000027  -0.000069
               7          8          9         10         11         12
     1  N   -0.069467   0.305412   0.304663  -0.006152  -0.000133   0.000004
     2  C    0.539120  -0.027247  -0.028547  -0.058049   0.003491   0.000655
     3  C   -0.039279   0.003333  -0.001882   0.355114  -0.034097   0.004493
     4  C   -0.039830  -0.000076  -0.000031  -0.020866   0.362345  -0.036290
     5  C   -0.041726   0.000032   0.000063   0.004033  -0.033632   0.364106
     6  C    0.549356   0.000125   0.000024   0.000312   0.003749  -0.036162
     7  C    4.912099  -0.001193  -0.002617   0.003844   0.000809   0.004484
     8  H   -0.001193   0.305266  -0.017081  -0.000173   0.000004  -0.000001
     9  H   -0.002617  -0.017081   0.314856   0.000097   0.000002  -0.000000
    10  H    0.003844  -0.000173   0.000097   0.545029  -0.004370  -0.000133
    11  H    0.000809   0.000004   0.000002  -0.004370   0.509535  -0.004141
    12  H    0.004484  -0.000001  -0.000000  -0.000133  -0.004141   0.511019
    13  H   -0.034056  -0.000016   0.000000   0.000011  -0.000138  -0.004092
    14  H    0.358190   0.005811   0.000504  -0.000138   0.000011  -0.000135
    15  H    0.004370  -0.012546  -0.014554   0.008405  -0.000021  -0.000001
              13         14         15
     1  N   -0.000131  -0.004889   0.303714
     2  C    0.003434  -0.060889  -0.027136
     3  C    0.000815   0.003686  -0.000137
     4  C    0.003754   0.000330   0.000075
     5  C   -0.033672   0.004079   0.000027
     6  C    0.362418  -0.020408  -0.000069
     7  C   -0.034056   0.358190   0.004370
     8  H   -0.000016   0.005811  -0.012546
     9  H    0.000000   0.000504  -0.014554
    10  H    0.000011  -0.000138   0.008405
    11  H   -0.000138   0.000011  -0.000021
    12  H   -0.004092  -0.000135  -0.000001
    13  H    0.509390  -0.004415   0.000004
    14  H   -0.004415   0.545688  -0.000176
    15  H    0.000004  -0.000176   0.300973
 Mulliken charges:
               1
     1  N   -0.739309
     2  C    0.128596
     3  C   -0.144172
     4  C   -0.125433
     5  C   -0.105998
     6  C   -0.124763
     7  C   -0.144104
     8  H    0.438350
     9  H    0.444503
    10  H    0.173036
    11  H    0.196584
    12  H    0.196193
    13  H    0.196694
    14  H    0.172752
    15  H    0.437071
 Sum of Mulliken charges =   1.00000
 Mulliken charges with hydrogens summed into heavy atoms:
               1
     1  N    0.580615
     2  C    0.128596
     3  C    0.028864
     4  C    0.071151
     5  C    0.090195
     6  C    0.071931
     7  C    0.028648
 Electronic spatial extent (au):  <R**2>=            679.4041
 Charge=              1.0000 electrons
 Dipole moment (field-independent basis, Debye):
    X=             -7.0100    Y=             -0.0110    Z=              0.0504  Tot=              7.0101
 Quadrupole moment (field-independent basis, Debye-Ang):
   XX=             -7.9560   YY=            -30.1341   ZZ=            -40.8242
   XY=              0.0172   XZ=             -0.0319   YZ=              0.0000
 Traceless Quadrupole moment (field-independent basis, Debye-Ang):
   XX=             18.3488   YY=             -3.8293   ZZ=            -14.5194
   XY=              0.0172   XZ=             -0.0319   YZ=              0.0000
 Octapole moment (field-independent basis, Debye-Ang**2):
  XXX=            -56.0770  YYY=              0.4101  ZZZ=              1.3425  XYY=             -4.0156
  XXY=             -0.0467  XXZ=              0.1879  XZZ=            -11.8892  YZZ=             -0.4520
  YYZ=             -1.2559  XYZ=             -0.0010
 Hexadecapole moment (field-independent basis, Debye-Ang**3):
 XXXX=           -315.6438 YYYY=           -249.7158 ZZZZ=            -43.6778 XXXY=             -0.0396
 XXXZ=              0.6260 YYYX=             -1.0526 YYYZ=              0.0009 ZZZX=             -3.3011
 ZZZY=             -0.0053 XXYY=           -104.9806 XXZZ=            -84.7114 YYZZ=            -60.9218
 XXYZ=              0.0021 YYXZ=              2.7842 ZZXY=              1.1608
 N-N= 2.827050204996D+02 E-N=-1.222484838732D+03  KE= 2.852955093619D+02
 No NMR shielding tensors so no spin-rotation constants.
 Leave Link  601 at Mon Oct 14 11:06:12 2019, MaxMem= 10737418240 cpu:               2.4 elap:               0.1
 (Enter /apps/cent7/gaussian/g16-A.03/g16-haswell/g16/l701.exe)
 ... and contract with generalized density number  0.
 Compute integral first derivatives.
 Leave Link  701 at Mon Oct 14 11:06:13 2019, MaxMem= 10737418240 cpu:               3.3 elap:               0.2
 (Enter /apps/cent7/gaussian/g16-A.03/g16-haswell/g16/l702.exe)
 L702 exits ... SP integral derivatives will be done elsewhere.
 Leave Link  702 at Mon Oct 14 11:06:13 2019, MaxMem= 10737418240 cpu:               0.4 elap:               0.0
 (Enter /apps/cent7/gaussian/g16-A.03/g16-haswell/g16/l703.exe)
 Integral derivatives from FoFJK, PRISM(SPDF).
 Compute integral first derivatives, UseDBF=F ICtDFT=           0.
 Calling FoFJK, ICntrl=      2127 FMM=F ISym2X=0 I1Cent= 0 IOpClX= 0 NMat=1 NMatS=1 NMatT=0.
 FoFJK:  IHMeth= 1 ICntrl=    2127 DoSepK=F KAlg= 0 I1Cent=           0 FoldK=F
 IRaf=         0 NMat=       1 IRICut=       1 DoRegI=T DoRafI=F ISym2E= 0 IDoP0=0 IntGTp=1.
 FoFCou: FMM=F IPFlag=           0 FMFlag=      100000 FMFlg1=         800
         NFxFlg=           0 DoJE=F BraDBF=F KetDBF=F FulRan=T
         wScrn=  0.000000 ICntrl=      2127 IOpCl=  0 I1Cent=           0 NGrid=           0
         NMat0=    1 NMatS0=      1 NMatT0=    0 NMatD0=    1 NMtDS0=    0 NMtDT0=    0
 Symmetry not used in FoFCou.
 Leave Link  703 at Mon Oct 14 11:06:13 2019, MaxMem= 10737418240 cpu:              11.9 elap:               0.5
 (Enter /apps/cent7/gaussian/g16-A.03/g16-haswell/g16/l716.exe)
 Dipole        =-2.75792910D+00-4.34737378D-03 1.98447568D-02
 ***** Axes restored to original set *****
 -------------------------------------------------------------------
 Center     Atomic                   Forces (Hartrees/Bohr)
 Number     Number              X              Y              Z
 -------------------------------------------------------------------
      1        7          -0.030702554   -0.053915928    0.005028044
      2        6           0.068895922    0.122407845   -0.012877239
      3        6           0.007745781   -0.000704198   -0.000251859
      4        6           0.003507898   -0.008029697    0.001622526
      5        6          -0.004155906   -0.006133269    0.000172758
      6        6          -0.009041150   -0.001937295    0.001685904
      7        6          -0.003309053    0.006035104   -0.000237299
      8        1           0.005176028   -0.025823603   -0.011577082
      9        1          -0.007602181   -0.018665442    0.024310591
     10        1           0.000182110    0.000789352   -0.000449298
     11        1           0.000652082   -0.003929947    0.000530094
     12        1          -0.001770618   -0.003026016   -0.000877189
     13        1          -0.003701113   -0.001429450    0.000528139
     14        1           0.000609829    0.000733200   -0.000469602
     15        1          -0.026487074   -0.006370655   -0.007138488
 -------------------------------------------------------------------
 Cartesian Forces:  Max     0.122407845 RMS     0.024388917
 Leave Link  716 at Mon Oct 14 11:06:13 2019, MaxMem= 10737418240 cpu:               0.6 elap:               0.0
 (Enter /apps/cent7/gaussian/g16-A.03/g16-haswell/g16/l103.exe)

 GradGradGradGradGradGradGradGradGradGradGradGradGradGradGradGradGradGrad
 Berny optimization.
 FormGI is forming the generalized inverse of G from B-inverse, IUseBI=4.
 Internal  Forces:  Max     0.120976788 RMS     0.016391276
 Search for a local minimum.
 Step number   1 out of a maximum of   79
 All quantities printed in internal units (Hartrees-Bohrs-Radians)
 RMS Force = .16391D-01 SwitMx=.10000D-02 MixMth= 1
 Mixed Optimization -- RFO/linear search
 Second derivative matrix not updated -- first step.
 ITU=  0
     Eigenvalues ---    0.01956   0.01967   0.01969   0.01982   0.01993
     Eigenvalues ---    0.01995   0.02000   0.02005   0.02132   0.02395
     Eigenvalues ---    0.08442   0.08442   0.16000   0.16000   0.16000
     Eigenvalues ---    0.16000   0.16000   0.16000   0.16000   0.16000
     Eigenvalues ---    0.21998   0.21999   0.23481   0.25000   0.34805
     Eigenvalues ---    0.34808   0.34813   0.34817   0.34819   0.40396
     Eigenvalues ---    0.40546   0.44019   0.44288   0.44331   0.44540
     Eigenvalues ---    0.47688   0.47688   0.47688   0.55708
 RFO step:  Lambda=-3.48358905D-02 EMin= 1.95579053D-02
 Linear search not attempted -- first point.
 Iteration  1 RMS(Cart)=  0.05094073 RMS(Int)=  0.00095391
 Iteration  2 RMS(Cart)=  0.00117166 RMS(Int)=  0.00042150
 Iteration  3 RMS(Cart)=  0.00000049 RMS(Int)=  0.00042150
 ITry= 1 IFail=0 DXMaxC= 1.85D-01 DCOld= 1.00D+10 DXMaxT= 3.00D-01 DXLimC= 3.00D+00 Rises=F
 Variable       Old X    -DE/DX   Delta X   Delta X   Delta X     New X
                                 (Linear)    (Quad)   (Total)
    R1        2.54509   0.12098   0.00000   0.20438   0.20438   2.74947
    R2        1.88973   0.02670   0.00000   0.05217   0.05217   1.94190
    R3        1.88973   0.02899   0.00000   0.05666   0.05666   1.94638
    R4        1.88973   0.02629   0.00000   0.05138   0.05138   1.94111
    R5        2.66530  -0.01229   0.00000  -0.02598  -0.02597   2.63933
    R6        2.66513  -0.01163   0.00000  -0.02458  -0.02457   2.64057
    R7        2.66059  -0.01406   0.00000  -0.02942  -0.02942   2.63118
    R8        2.05970  -0.00019   0.00000  -0.00050  -0.00050   2.05920
    R9        2.65761  -0.00976   0.00000  -0.02025  -0.02027   2.63734
   R10        2.05988  -0.00375   0.00000  -0.00979  -0.00979   2.05009
   R11        2.65757  -0.00903   0.00000  -0.01872  -0.01874   2.63883
   R12        2.05992  -0.00346   0.00000  -0.00905  -0.00905   2.05088
   R13        2.66062  -0.01457   0.00000  -0.03046  -0.03046   2.63016
   R14        2.05980  -0.00372   0.00000  -0.00971  -0.00971   2.05008
   R15        2.05972  -0.00034   0.00000  -0.00089  -0.00089   2.05884
    A1        1.91063   0.00986   0.00000   0.05047   0.04904   1.95968
    A2        1.91063   0.01281   0.00000   0.06636   0.06469   1.97533
    A3        1.91063   0.00881   0.00000   0.04473   0.04343   1.95406
    A4        1.91063  -0.01098   0.00000  -0.05542  -0.05704   1.85359
    A5        1.91063  -0.00980   0.00000  -0.05152  -0.05247   1.85816
    A6        1.91063  -0.01070   0.00000  -0.05463  -0.05604   1.85460
    A7        2.09658  -0.00221   0.00000  -0.00779  -0.00782   2.08876
    A8        2.09672  -0.00269   0.00000  -0.00947  -0.00950   2.08722
    A9        2.08987   0.00490   0.00000   0.01731   0.01733   2.10720
   A10        2.09562  -0.00255   0.00000  -0.00982  -0.00981   2.08581
   A11        2.09524   0.00211   0.00000   0.00921   0.00920   2.10444
   A12        2.09233   0.00044   0.00000   0.00061   0.00060   2.09293
   A13        2.09458  -0.00012   0.00000  -0.00000  -0.00003   2.09456
   A14        2.09522  -0.00140   0.00000  -0.00748  -0.00747   2.08775
   A15        2.09338   0.00152   0.00000   0.00748   0.00749   2.10087
   A16        2.09584   0.00053   0.00000   0.00268   0.00264   2.09848
   A17        2.09368  -0.00028   0.00000  -0.00145  -0.00143   2.09225
   A18        2.09366  -0.00024   0.00000  -0.00123  -0.00121   2.09245
   A19        2.09454   0.00016   0.00000   0.00113   0.00111   2.09565
   A20        2.09344   0.00141   0.00000   0.00707   0.00707   2.10052
   A21        2.09521  -0.00157   0.00000  -0.00820  -0.00820   2.08701
   A22        2.09570  -0.00291   0.00000  -0.01114  -0.01112   2.08458
   A23        2.09518   0.00240   0.00000   0.01043   0.01043   2.10560
   A24        2.09231   0.00050   0.00000   0.00070   0.00070   2.09300
    D1        2.49703  -0.00004   0.00000   0.00240   0.00210   2.49913
    D2       -0.63879  -0.00065   0.00000  -0.00829  -0.00849  -0.64728
    D3       -1.69176   0.00040   0.00000   0.00608   0.00611  -1.68565
    D4        1.45560  -0.00021   0.00000  -0.00461  -0.00448   1.45112
    D5        0.40263   0.00053   0.00000   0.00720   0.00732   0.40995
    D6       -2.73319  -0.00008   0.00000  -0.00349  -0.00327  -2.73646
    D7        3.14088  -0.00065   0.00000  -0.01189  -0.01193   3.12895
    D8       -0.00071  -0.00057   0.00000  -0.01043  -0.01047  -0.01118
    D9       -0.00646  -0.00007   0.00000  -0.00133  -0.00131  -0.00777
   D10        3.13513   0.00001   0.00000   0.00013   0.00015   3.13529
   D11       -3.14088   0.00065   0.00000   0.01188   0.01191  -3.12897
   D12        0.00071   0.00058   0.00000   0.01054   0.01057   0.01128
   D13        0.00646   0.00007   0.00000   0.00132   0.00129   0.00776
   D14       -3.13513  -0.00000   0.00000  -0.00003  -0.00005  -3.13518
   D15       -0.00736   0.00027   0.00000   0.00516   0.00513  -0.00223
   D16        3.13427   0.00002   0.00000   0.00052   0.00052   3.13479
   D17        3.13423   0.00020   0.00000   0.00370   0.00368   3.13791
   D18       -0.00732  -0.00005   0.00000  -0.00093  -0.00093  -0.00825
   D19        0.02124  -0.00050   0.00000  -0.00903  -0.00905   0.01219
   D20       -3.12028  -0.00059   0.00000  -0.01072  -0.01072  -3.13100
   D21       -3.12040  -0.00025   0.00000  -0.00440  -0.00440  -3.12480
   D22        0.02127  -0.00034   0.00000  -0.00609  -0.00608   0.01520
   D23       -0.02123   0.00050   0.00000   0.00901   0.00903  -0.01220
   D24        3.12039   0.00024   0.00000   0.00435   0.00435   3.12475
   D25        3.12028   0.00058   0.00000   0.01069   0.01071   3.13099
   D26       -0.02128   0.00033   0.00000   0.00603   0.00603  -0.01525
   D27        0.00736  -0.00027   0.00000  -0.00514  -0.00511   0.00225
   D28       -3.13423  -0.00020   0.00000  -0.00379  -0.00378  -3.13801
   D29       -3.13427  -0.00002   0.00000  -0.00047  -0.00047  -3.13474
   D30        0.00733   0.00005   0.00000   0.00087   0.00087   0.00819
         Item               Value     Threshold  Converged?
 Maximum Force            0.120977     0.000450     NO 
 RMS     Force            0.016391     0.000300     NO 
 Maximum Displacement     0.185354     0.001800     NO 
 RMS     Displacement     0.051898     0.001200     NO 
 Predicted change in Energy=-1.871431D-02
 Lowest energy point so far.  Saving SCF results.
 GradGradGradGradGradGradGradGradGradGradGradGradGradGradGradGradGradGrad

 Leave Link  103 at Mon Oct 14 11:06:13 2019, MaxMem= 10737418240 cpu:               0.8 elap:               0.1
 (Enter /apps/cent7/gaussian/g16-A.03/g16-haswell/g16/l202.exe)
                          Input orientation:                          
 ---------------------------------------------------------------------
 Center     Atomic      Atomic             Coordinates (Angstroms)
 Number     Number       Type             X           Y           Z
 ---------------------------------------------------------------------
      1          7           0       -0.691083   -1.198728    0.215996
      2          6           0        0.033875    0.058710    0.115083
      3          6           0       -0.672724    1.262615    0.070062
      4          6           0        0.025078    2.464749   -0.011234
      5          6           0        1.420296    2.461079   -0.044472
      6          6           0        2.121258    1.253809   -0.011149
      7          6           0        1.430442    0.048267    0.070123
      8          1           0       -0.246687   -1.949355   -0.327192
      9          1           0       -0.764512   -1.547920    1.182193
     10          1           0       -1.761999    1.267438    0.099388
     11          1           0       -0.522108    3.400586   -0.052707
     12          1           0        1.962273    3.399820   -0.097901
     13          1           0        3.205305    1.248032   -0.052642
     14          1           0        1.979941   -0.892043    0.099344
     15          1           0       -1.653292   -1.116528   -0.134031
 ---------------------------------------------------------------------
                    Distance matrix (angstroms):
                    1          2          3          4          5
     1  N    0.000000
     2  C    1.454956   0.000000
     3  C    2.465734   1.396673   0.000000
     4  C    3.739731   2.409369   1.392359   0.000000
     5  C    4.233196   2.778309   2.414574   1.395619   0.000000
     6  C    3.738422   2.408602   2.795176   2.420815   1.396409
     7  C    2.465186   1.397329   2.428569   2.796614   2.415553
     8  H    1.027609   2.075245   3.264363   4.433734   4.723419
     9  H    1.029982   2.087439   3.023965   4.260191   4.727596
    10  H    2.691177   2.164818   1.089681   2.153935   3.401834
    11  H    4.610254   3.391962   2.146783   1.084861   2.157702
    12  H    5.318409   3.863560   3.396919   2.152810   1.085278
    13  H    4.608757   3.391252   3.879997   3.405284   2.158195
    14  H    2.691102   2.165952   3.417607   3.886100   3.402545
    15  H    1.027191   2.071177   2.581373   3.956962   4.717440
                    6          7          8          9         10
     6  C    0.000000
     7  C    1.391821   0.000000
     8  H    3.995911   2.638392   0.000000
     9  H    4.195404   2.932973   1.645459   0.000000
    10  H    3.884854   3.417443   3.581326   3.177056   0.000000
    11  H    3.405549   3.881441   5.364053   5.106020   2.471999
    12  H    2.153640   3.397644   5.791869   5.792592   4.296065
    13  H    1.084856   2.145844   4.713269   5.010151   4.969668
    14  H    2.153337   1.089489   2.501542   3.022376   4.320356
    15  H    4.458792   3.302702   1.646040   1.645744   2.397832
                   11         12         13         14         15
    11  H    0.000000
    12  H    2.484792   0.000000
    13  H    4.304312   2.485432   0.000000
    14  H    4.970919   4.296430   2.470737   0.000000
    15  H    4.657307   5.785413   5.404048   3.647634   0.000000
 Stoichiometry    C6H8N(1+)
 Framework group  C1[X(C6H8N)]
 Deg. of freedom    39
 Full point group                 C1      NOp   1
 RotChk:  IX=0 Diff= 8.14D-04
 Largest Abelian subgroup         C1      NOp   1
 Largest concise Abelian subgroup C1      NOp   1
                         Standard orientation:                         
 ---------------------------------------------------------------------
 Center     Atomic      Atomic             Coordinates (Angstroms)
 Number     Number       Type             X           Y           Z
 ---------------------------------------------------------------------
      1          7           0       -2.310406    0.000485    0.006840
      2          6           0       -0.855489    0.000565   -0.003849
      3          6           0       -0.164037    1.214067   -0.006006
      4          6           0        1.228306    1.210048   -0.000928
      5          6           0        1.922790   -0.000467    0.008951
      6          6           0        1.226345   -1.210767   -0.000923
      7          6           0       -0.165461   -1.214501   -0.005992
      8          1           0       -2.704174   -0.759458   -0.561855
      9          1           0       -2.708869   -0.110315    0.950138
     10          1           0       -0.704752    2.160119   -0.010244
     11          1           0        1.767232    2.151545   -0.009005
     12          1           0        3.007978   -0.001064    0.022860
     13          1           0        1.764383   -2.152766   -0.009043
     14          1           0       -0.706343   -2.160236   -0.010312
     15          1           0       -2.697337    0.875104   -0.367925
 ---------------------------------------------------------------------
 Rotational constants (GHZ):           5.4917652           2.4715405           1.7203322
 Leave Link  202 at Mon Oct 14 11:06:13 2019, MaxMem= 10737418240 cpu:               0.3 elap:               0.0
 (Enter /apps/cent7/gaussian/g16-A.03/g16-haswell/g16/l301.exe)
 Standard basis: 6-31G(d) (6D, 7F)
 Ernie: Thresh=  0.10000D-02 Tol=  0.10000D-05 Strict=F.
 There are   121 symmetry adapted cartesian basis functions of A   symmetry.
 There are   121 symmetry adapted basis functions of A   symmetry.
   121 basis functions,   228 primitive gaussians,   121 cartesian basis functions
    25 alpha electrons       25 beta electrons
       nuclear repulsion energy       280.9189775471 Hartrees.
 IExCor=  402 DFT=T Ex+Corr=B3LYP ExCW=0 ScaHFX=  0.200000
 ScaDFX=  0.800000  0.720000  1.000000  0.810000 ScalE2=  1.000000  1.000000
 IRadAn=      5 IRanWt=     -1 IRanGd=            0 ICorTp=0 IEmpDi=  4
 NAtoms=   15 NActive=   15 NUniq=   15 SFac= 1.00D+00 NAtFMM=   60 NAOKFM=F Big=F
 Integral buffers will be    131072 words long.
 Raffenetti 2 integral format.
 Two-electron integral symmetry is turned on.
 Leave Link  301 at Mon Oct 14 11:06:13 2019, MaxMem= 10737418240 cpu:               1.5 elap:               0.1
 (Enter /apps/cent7/gaussian/g16-A.03/g16-haswell/g16/l302.exe)
 NPDir=0 NMtPBC=     1 NCelOv=     1 NCel=       1 NClECP=     1 NCelD=      1
         NCelK=      1 NCelE2=     1 NClLst=     1 CellRange=     0.0.
 One-electron integrals computed using PRISM.
 One-electron integral symmetry used in STVInt
 NBasis=   121 RedAO= T EigKep=  4.62D-04  NBF=   121
 NBsUse=   121 1.00D-06 EigRej= -1.00D+00 NBFU=   121
 Precomputing XC quadrature grid using
 IXCGrd= 4 IRadAn=           5 IRanWt=          -1 IRanGd=           0 AccXCQ= 0.00D+00.
 Generated NRdTot=       0 NPtTot=           0 NUsed=           0 NTot=          32
 NSgBfM=   121   121   121   121   121 MxSgAt=    15 MxSgA2=    15.
 Leave Link  302 at Mon Oct 14 11:06:14 2019, MaxMem= 10737418240 cpu:               2.8 elap:               0.1
 (Enter /apps/cent7/gaussian/g16-A.03/g16-haswell/g16/l303.exe)
 DipDrv:  MaxL=1.
 Leave Link  303 at Mon Oct 14 11:06:14 2019, MaxMem= 10737418240 cpu:               1.1 elap:               0.1
 (Enter /apps/cent7/gaussian/g16-A.03/g16-haswell/g16/l401.exe)
 Initial guess from the checkpoint file:  "19_p.chk"
 B after Tr=    -0.000000    0.000000    0.000000
         Rot=    1.000000   -0.000003    0.000128    0.000237 Ang=  -0.03 deg.
 Guess basis will be translated and rotated to current coordinates.
 JPrj=2 DoOrth=T DoCkMO=T.
 Generating alternative initial guess.
 ExpMin= 1.61D-01 ExpMax= 4.17D+03 ExpMxC= 6.27D+02 IAcc=2 IRadAn=         4 AccDes= 0.00D+00
 Harris functional with IExCor=  402 and IRadAn=       4 diagonalized for initial guess.
 HarFok:  IExCor=  402 AccDes= 0.00D+00 IRadAn=         4 IDoV= 1 UseB2=F ITyADJ=14
 ICtDFT=  3500011 ScaDFX=  1.000000  1.000000  1.000000  1.000000
 FoFCou: FMM=F IPFlag=           0 FMFlag=      100000 FMFlg1=           0
         NFxFlg=           0 DoJE=T BraDBF=F KetDBF=T FulRan=T
         wScrn=  0.000000 ICntrl=       500 IOpCl=  0 I1Cent=   200000004 NGrid=           0
         NMat0=    1 NMatS0=      1 NMatT0=    0 NMatD0=    1 NMtDS0=    0 NMtDT0=    0
 Petite list used in FoFCou.
 Harris En= -288.013055261254    
 Leave Link  401 at Mon Oct 14 11:06:14 2019, MaxMem= 10737418240 cpu:               5.8 elap:               0.3
 (Enter /apps/cent7/gaussian/g16-A.03/g16-haswell/g16/l502.exe)
 Integral symmetry usage will be decided dynamically.
 Closed shell SCF:
 Using DIIS extrapolation, IDIIS=  1040.
 NGot= 10737418240 LenX= 10737384526 LenY= 10737369444
 Requested convergence on RMS density matrix=1.00D-08 within 128 cycles.
 Requested convergence on MAX density matrix=1.00D-06.
 Requested convergence on             energy=1.00D-06.
 No special actions if energy rises.
 Fock matrices will be formed incrementally for  20 cycles.
 Integral accuracy reduced to 1.0D-05 until final iterations.

 Cycle   1  Pass 0  IDiag  1:
 FoFJK:  IHMeth= 1 ICntrl=       0 DoSepK=F KAlg= 0 I1Cent=           0 FoldK=F
 IRaf= 980000000 NMat=       1 IRICut=       1 DoRegI=T DoRafI=F ISym2E= 0 IDoP0=0 IntGTp=1.
 FoFCou: FMM=F IPFlag=           0 FMFlag=      100000 FMFlg1=           0
         NFxFlg=           0 DoJE=F BraDBF=F KetDBF=F FulRan=T
         wScrn=  0.000000 ICntrl=         0 IOpCl=  0 I1Cent=           0 NGrid=           0
         NMat0=    1 NMatS0=      1 NMatT0=    0 NMatD0=    1 NMtDS0=    0 NMtDT0=    0
 Symmetry not used in FoFCou.
 E= -287.949181079339    
 DIIS: error= 5.72D-03 at cycle   1 NSaved=   1.
 NSaved= 1 IEnMin= 1 EnMin= -287.949181079339     IErMin= 1 ErrMin= 5.72D-03
 ErrMax= 5.72D-03  0.00D+00 EMaxC= 1.00D-01 BMatC= 4.30D-03 BMatP= 4.30D-03
 IDIUse=3 WtCom= 9.43D-01 WtEn= 5.72D-02
 Coeff-Com:  0.100D+01
 Coeff-En:   0.100D+01
 Coeff:      0.100D+01
 Gap=     1.858 Goal=   None    Shift=    0.000
 GapD=    1.858 DampG=2.000 DampE=1.000 DampFc=2.0000 IDamp=-1.
 RMSDP=9.13D-04 MaxDP=1.96D-02              OVMax= 2.87D-02

 Cycle   2  Pass 0  IDiag  1:
 RMSU=  9.12D-04    CP:  9.99D-01
 E= -287.952225412162     Delta-E=       -0.003044332822 Rises=F Damp=F
 DIIS: error= 4.62D-03 at cycle   2 NSaved=   2.
 NSaved= 2 IEnMin= 2 EnMin= -287.952225412162     IErMin= 2 ErrMin= 4.62D-03
 ErrMax= 4.62D-03  0.00D+00 EMaxC= 1.00D-01 BMatC= 2.57D-03 BMatP= 4.30D-03
 IDIUse=3 WtCom= 9.54D-01 WtEn= 4.62D-02
 Coeff-Com:  0.417D+00 0.583D+00
 Coeff-En:   0.681D-01 0.932D+00
 Coeff:      0.401D+00 0.599D+00
 Gap=     0.234 Goal=   None    Shift=    0.000
 RMSDP=5.00D-04 MaxDP=1.38D-02 DE=-3.04D-03 OVMax= 2.23D-02

 Cycle   3  Pass 0  IDiag  1:
 RMSU=  4.29D-04    CP:  1.00D+00  7.23D-01
 E= -287.953756801733     Delta-E=       -0.001531389572 Rises=F Damp=F
 DIIS: error= 2.48D-03 at cycle   3 NSaved=   3.
 NSaved= 3 IEnMin= 3 EnMin= -287.953756801733     IErMin= 3 ErrMin= 2.48D-03
 ErrMax= 2.48D-03  0.00D+00 EMaxC= 1.00D-01 BMatC= 7.30D-04 BMatP= 2.57D-03
 IDIUse=3 WtCom= 9.75D-01 WtEn= 2.48D-02
 Coeff-Com:  0.696D-02 0.345D+00 0.648D+00
 Coeff-En:   0.000D+00 0.266D+00 0.734D+00
 Coeff:      0.679D-02 0.343D+00 0.650D+00
 Gap=     0.237 Goal=   None    Shift=    0.000
 RMSDP=2.60D-04 MaxDP=6.97D-03 DE=-1.53D-03 OVMax= 1.38D-02

 Cycle   4  Pass 0  IDiag  1:
 RMSU=  1.13D-04    CP:  1.00D+00  8.69D-01  5.55D-01
 E= -287.954393194003     Delta-E=       -0.000636392269 Rises=F Damp=F
 DIIS: error= 9.02D-04 at cycle   4 NSaved=   4.
 NSaved= 4 IEnMin= 4 EnMin= -287.954393194003     IErMin= 4 ErrMin= 9.02D-04
 ErrMax= 9.02D-04  0.00D+00 EMaxC= 1.00D-01 BMatC= 7.00D-05 BMatP= 7.30D-04
 IDIUse=3 WtCom= 9.91D-01 WtEn= 9.02D-03
 Coeff-Com: -0.107D-01 0.188D+00 0.407D+00 0.416D+00
 Coeff-En:   0.000D+00 0.000D+00 0.281D-01 0.972D+00
 Coeff:     -0.106D-01 0.186D+00 0.403D+00 0.421D+00
 Gap=     0.237 Goal=   None    Shift=    0.000
 RMSDP=7.70D-05 MaxDP=1.84D-03 DE=-6.36D-04 OVMax= 4.27D-03

 Cycle   5  Pass 0  IDiag  1:
 RMSU=  3.35D-05    CP:  1.00D+00  8.50D-01  6.37D-01  4.93D-01
 E= -287.954470760178     Delta-E=       -0.000077566175 Rises=F Damp=F
 DIIS: error= 1.22D-04 at cycle   5 NSaved=   5.
 NSaved= 5 IEnMin= 5 EnMin= -287.954470760178     IErMin= 5 ErrMin= 1.22D-04
 ErrMax= 1.22D-04  0.00D+00 EMaxC= 1.00D-01 BMatC= 1.84D-06 BMatP= 7.00D-05
 IDIUse=3 WtCom= 9.99D-01 WtEn= 1.22D-03
 Coeff-Com: -0.572D-02 0.472D-01 0.117D+00 0.186D+00 0.655D+00
 Coeff-En:   0.000D+00 0.000D+00 0.000D+00 0.000D+00 0.100D+01
 Coeff:     -0.572D-02 0.471D-01 0.117D+00 0.186D+00 0.656D+00
 Gap=     0.236 Goal=   None    Shift=    0.000
 RMSDP=1.24D-05 MaxDP=2.49D-04 DE=-7.76D-05 OVMax= 6.09D-04

 Cycle   6  Pass 0  IDiag  1:
 RMSU=  6.66D-06    CP:  1.00D+00  8.52D-01  6.38D-01  5.43D-01  7.42D-01
 E= -287.954472444568     Delta-E=       -0.000001684390 Rises=F Damp=F
 DIIS: error= 3.08D-05 at cycle   6 NSaved=   6.
 NSaved= 6 IEnMin= 6 EnMin= -287.954472444568     IErMin= 6 ErrMin= 3.08D-05
 ErrMax= 3.08D-05  0.00D+00 EMaxC= 1.00D-01 BMatC= 1.28D-07 BMatP= 1.84D-06
 IDIUse=1 WtCom= 1.00D+00 WtEn= 0.00D+00
 Coeff-Com: -0.259D-02 0.174D-01 0.456D-01 0.785D-01 0.331D+00 0.530D+00
 Coeff:     -0.259D-02 0.174D-01 0.456D-01 0.785D-01 0.331D+00 0.530D+00
 Gap=     0.237 Goal=   None    Shift=    0.000
 RMSDP=3.07D-06 MaxDP=6.68D-05 DE=-1.68D-06 OVMax= 1.21D-04

 Initial convergence to 1.0D-05 achieved.  Increase integral accuracy.
 Cycle   7  Pass 1  IDiag  1:
 E= -287.954465662646     Delta-E=        0.000006781921 Rises=F Damp=F
 DIIS: error= 6.72D-06 at cycle   1 NSaved=   1.
 NSaved= 1 IEnMin= 1 EnMin= -287.954465662646     IErMin= 1 ErrMin= 6.72D-06
 ErrMax= 6.72D-06  0.00D+00 EMaxC= 1.00D-01 BMatC= 9.24D-09 BMatP= 9.24D-09
 IDIUse=1 WtCom= 1.00D+00 WtEn= 0.00D+00
 Coeff-Com:  0.100D+01
 Coeff:      0.100D+01
 Gap=     0.237 Goal=   None    Shift=    0.000
 RMSDP=3.07D-06 MaxDP=6.68D-05 DE= 6.78D-06 OVMax= 5.09D-05

 Cycle   8  Pass 1  IDiag  1:
 RMSU=  2.46D-06    CP:  1.00D+00
 E= -287.954465661106     Delta-E=        0.000000001541 Rises=F Damp=F
 DIIS: error= 9.73D-06 at cycle   2 NSaved=   2.
 NSaved= 2 IEnMin= 1 EnMin= -287.954465662646     IErMin= 1 ErrMin= 6.72D-06
 ErrMax= 9.73D-06  0.00D+00 EMaxC= 1.00D-01 BMatC= 1.09D-08 BMatP= 9.24D-09
 IDIUse=1 WtCom= 1.00D+00 WtEn= 0.00D+00
 Coeff-Com:  0.523D+00 0.477D+00
 Coeff:      0.523D+00 0.477D+00
 Gap=     0.237 Goal=   None    Shift=    0.000
 RMSDP=8.53D-07 MaxDP=1.87D-05 DE= 1.54D-09 OVMax= 3.58D-05

 Cycle   9  Pass 1  IDiag  1:
 RMSU=  8.15D-07    CP:  1.00D+00  8.97D-01
 E= -287.954465670939     Delta-E=       -0.000000009834 Rises=F Damp=F
 DIIS: error= 1.59D-06 at cycle   3 NSaved=   3.
 NSaved= 3 IEnMin= 3 EnMin= -287.954465670939     IErMin= 3 ErrMin= 1.59D-06
 ErrMax= 1.59D-06  0.00D+00 EMaxC= 1.00D-01 BMatC= 3.78D-10 BMatP= 9.24D-09
 IDIUse=1 WtCom= 1.00D+00 WtEn= 0.00D+00
 Coeff-Com:  0.458D-01 0.165D+00 0.789D+00
 Coeff:      0.458D-01 0.165D+00 0.789D+00
 Gap=     0.237 Goal=   None    Shift=    0.000
 RMSDP=2.32D-07 MaxDP=5.08D-06 DE=-9.83D-09 OVMax= 1.27D-05

 Cycle  10  Pass 1  IDiag  1:
 RMSU=  1.56D-07    CP:  1.00D+00  9.28D-01  8.12D-01
 E= -287.954465671199     Delta-E=       -0.000000000260 Rises=F Damp=F
 DIIS: error= 1.05D-06 at cycle   4 NSaved=   4.
 NSaved= 4 IEnMin= 4 EnMin= -287.954465671199     IErMin= 4 ErrMin= 1.05D-06
 ErrMax= 1.05D-06  0.00D+00 EMaxC= 1.00D-01 BMatC= 1.30D-10 BMatP= 3.78D-10
 IDIUse=1 WtCom= 1.00D+00 WtEn= 0.00D+00
 Coeff-Com: -0.255D-02 0.756D-01 0.498D+00 0.429D+00
 Coeff:     -0.255D-02 0.756D-01 0.498D+00 0.429D+00
 Gap=     0.237 Goal=   None    Shift=    0.000
 RMSDP=1.05D-07 MaxDP=2.77D-06 DE=-2.60D-10 OVMax= 6.03D-06

 Cycle  11  Pass 1  IDiag  1:
 RMSU=  4.01D-08    CP:  1.00D+00  9.28D-01  8.54D-01  4.19D-01
 E= -287.954465671337     Delta-E=       -0.000000000138 Rises=F Damp=F
 DIIS: error= 1.92D-07 at cycle   5 NSaved=   5.
 NSaved= 5 IEnMin= 5 EnMin= -287.954465671337     IErMin= 5 ErrMin= 1.92D-07
 ErrMax= 1.92D-07  0.00D+00 EMaxC= 1.00D-01 BMatC= 3.91D-12 BMatP= 1.30D-10
 IDIUse=1 WtCom= 1.00D+00 WtEn= 0.00D+00
 Coeff-Com: -0.450D-02 0.233D-01 0.182D+00 0.210D+00 0.589D+00
 Coeff:     -0.450D-02 0.233D-01 0.182D+00 0.210D+00 0.589D+00
 Gap=     0.237 Goal=   None    Shift=    0.000
 RMSDP=1.93D-08 MaxDP=5.08D-07 DE=-1.38D-10 OVMax= 9.29D-07

 Cycle  12  Pass 1  IDiag  1:
 RMSU=  1.05D-08    CP:  1.00D+00  9.29D-01  8.56D-01  4.88D-01  7.03D-01
 E= -287.954465671341     Delta-E=       -0.000000000004 Rises=F Damp=F
 DIIS: error= 6.06D-08 at cycle   6 NSaved=   6.
 NSaved= 6 IEnMin= 6 EnMin= -287.954465671341     IErMin= 6 ErrMin= 6.06D-08
 ErrMax= 6.06D-08  0.00D+00 EMaxC= 1.00D-01 BMatC= 4.42D-13 BMatP= 3.91D-12
 IDIUse=1 WtCom= 1.00D+00 WtEn= 0.00D+00
 Coeff-Com: -0.237D-02 0.725D-02 0.657D-01 0.853D-01 0.321D+00 0.523D+00
 Coeff:     -0.237D-02 0.725D-02 0.657D-01 0.853D-01 0.321D+00 0.523D+00
 Gap=     0.237 Goal=   None    Shift=    0.000
 RMSDP=5.04D-09 MaxDP=1.41D-07 DE=-3.75D-12 OVMax= 1.87D-07

 SCF Done:  E(RB3LYP) =  -287.954465671     A.U. after   12 cycles
            NFock= 12  Conv=0.50D-08     -V/T= 2.0099
 KE= 2.851182424960D+02 PE=-1.219010513579D+03 EE= 3.650188278643D+02
 Leave Link  502 at Mon Oct 14 11:06:16 2019, MaxMem= 10737418240 cpu:              40.6 elap:               1.7
 (Enter /apps/cent7/gaussian/g16-A.03/g16-haswell/g16/l701.exe)
 ... and contract with generalized density number  0.
 Compute integral first derivatives.
 Leave Link  701 at Mon Oct 14 11:06:16 2019, MaxMem= 10737418240 cpu:               2.9 elap:               0.1
 (Enter /apps/cent7/gaussian/g16-A.03/g16-haswell/g16/l702.exe)
 L702 exits ... SP integral derivatives will be done elsewhere.
 Leave Link  702 at Mon Oct 14 11:06:16 2019, MaxMem= 10737418240 cpu:               0.4 elap:               0.0
 (Enter /apps/cent7/gaussian/g16-A.03/g16-haswell/g16/l703.exe)
 Integral derivatives from FoFJK, PRISM(SPDF).
 Compute integral first derivatives, UseDBF=F ICtDFT=           0.
 Calling FoFJK, ICntrl=      2127 FMM=F ISym2X=0 I1Cent= 0 IOpClX= 0 NMat=1 NMatS=1 NMatT=0.
 FoFJK:  IHMeth= 1 ICntrl=    2127 DoSepK=F KAlg= 0 I1Cent=           0 FoldK=F
 IRaf=         0 NMat=       1 IRICut=       1 DoRegI=T DoRafI=F ISym2E= 0 IDoP0=0 IntGTp=1.
 FoFCou: FMM=F IPFlag=           0 FMFlag=      100000 FMFlg1=         800
         NFxFlg=           0 DoJE=F BraDBF=F KetDBF=F FulRan=T
         wScrn=  0.000000 ICntrl=      2127 IOpCl=  0 I1Cent=           0 NGrid=           0
         NMat0=    1 NMatS0=      1 NMatT0=    0 NMatD0=    1 NMtDS0=    0 NMtDT0=    0
 Symmetry not used in FoFCou.
 Leave Link  703 at Mon Oct 14 11:06:16 2019, MaxMem= 10737418240 cpu:              11.2 elap:               0.5
 (Enter /apps/cent7/gaussian/g16-A.03/g16-haswell/g16/l716.exe)
 Dipole        =-2.86004526D+00-1.85409629D-03 1.77525816D-02
 ***** Axes restored to original set *****
 -------------------------------------------------------------------
 Center     Atomic                   Forces (Hartrees/Bohr)
 Number     Number              X              Y              Z
 -------------------------------------------------------------------
      1        7          -0.010139531   -0.017894531    0.002402110
      2        6           0.017474732    0.030281340   -0.003404294
      3        6          -0.007594245   -0.007333013    0.000817024
      4        6           0.002164839    0.000425921    0.000192325
      5        6           0.000316139    0.000557608   -0.000090860
      6        6          -0.000693309    0.002005882    0.000195975
      7        6          -0.002415373   -0.009974625    0.000807254
      8        1           0.001414296   -0.000409304   -0.001513737
      9        1           0.000473161    0.000540559    0.001924612
     10        1           0.000706045    0.000457690   -0.000185447
     11        1          -0.000384680   -0.000261177    0.000326170
     12        1           0.000021860   -0.000020108   -0.000569215
     13        1          -0.000010594   -0.000403402    0.000324384
     14        1          -0.000000057    0.000804684   -0.000187936
     15        1          -0.001333281    0.001222477   -0.001038366
 -------------------------------------------------------------------
 Cartesian Forces:  Max     0.030281340 RMS     0.006508181
 Leave Link  716 at Mon Oct 14 11:06:16 2019, MaxMem= 10737418240 cpu:               0.4 elap:               0.0
 (Enter /apps/cent7/gaussian/g16-A.03/g16-haswell/g16/l103.exe)

 GradGradGradGradGradGradGradGradGradGradGradGradGradGradGradGradGradGrad
 Berny optimization.
 Using GEDIIS/GDIIS optimizer.
 FormGI is forming the generalized inverse of G from B-inverse, IUseBI=4.
 Internal  Forces:  Max     0.019194454 RMS     0.002865380
 Search for a local minimum.
 Step number   2 out of a maximum of   79
 All quantities printed in internal units (Hartrees-Bohrs-Radians)
 RMS Force = .28654D-02 SwitMx=.10000D-02 MixMth= 1
 Mixed Optimization -- RFO/linear search
 Update second derivatives using D2CorX and points    1    2
 DE= -1.83D-02 DEPred=-1.87D-02 R= 9.80D-01
 TightC=F SS=  1.41D+00  RLast= 2.73D-01 DXNew= 5.0454D-01 8.1870D-01
 Trust test= 9.80D-01 RLast= 2.73D-01 DXMaxT set to 5.05D-01
 ITU=  1  0
 Use linear search instead of GDIIS.
     Eigenvalues ---    0.01957   0.01967   0.01969   0.01982   0.01993
     Eigenvalues ---    0.01995   0.02000   0.02005   0.02130   0.02395
     Eigenvalues ---    0.07858   0.07969   0.15984   0.16000   0.16000
     Eigenvalues ---    0.16000   0.16000   0.16000   0.16000   0.17025
     Eigenvalues ---    0.21980   0.22000   0.22812   0.25000   0.34803
     Eigenvalues ---    0.34806   0.34811   0.34818   0.34843   0.39902
     Eigenvalues ---    0.40380   0.44016   0.44102   0.44541   0.44749
     Eigenvalues ---    0.47685   0.47688   0.48518   0.50640
 RFO step:  Lambda=-1.21931279D-03 EMin= 1.95678718D-02
 Quartic linear search produced a step of  0.19167.
 Iteration  1 RMS(Cart)=  0.00999598 RMS(Int)=  0.00019227
 Iteration  2 RMS(Cart)=  0.00023807 RMS(Int)=  0.00011885
 Iteration  3 RMS(Cart)=  0.00000003 RMS(Int)=  0.00011885
 ITry= 1 IFail=0 DXMaxC= 4.06D-02 DCOld= 1.00D+10 DXMaxT= 5.05D-01 DXLimC= 3.00D+00 Rises=F
 Variable       Old X    -DE/DX   Delta X   Delta X   Delta X     New X
                                 (Linear)    (Quad)   (Total)
    R1        2.74947   0.01919   0.03917   0.01410   0.05327   2.80274
    R2        1.94190   0.00171   0.01000  -0.00237   0.00763   1.94953
    R3        1.94638   0.00159   0.01086  -0.00324   0.00762   1.95400
    R4        1.94111   0.00170   0.00985  -0.00229   0.00756   1.94867
    R5        2.63933  -0.00395  -0.00498  -0.00773  -0.01263   2.62670
    R6        2.64057  -0.00381  -0.00471  -0.00754  -0.01217   2.62840
    R7        2.63118   0.00137  -0.00564   0.00734   0.00170   2.63288
    R8        2.05920  -0.00071  -0.00010  -0.00236  -0.00246   2.05674
    R9        2.63734   0.00107  -0.00389   0.00566   0.00170   2.63903
   R10        2.05009  -0.00004  -0.00188   0.00098  -0.00089   2.04920
   R11        2.63883   0.00102  -0.00359   0.00534   0.00167   2.64050
   R12        2.05088   0.00002  -0.00173   0.00112  -0.00061   2.05026
   R13        2.63016   0.00132  -0.00584   0.00734   0.00150   2.63166
   R14        2.05008  -0.00002  -0.00186   0.00105  -0.00081   2.04927
   R15        2.05884  -0.00070  -0.00017  -0.00228  -0.00245   2.05638
    A1        1.95968  -0.00104   0.00940  -0.01103  -0.00188   1.95780
    A2        1.97533  -0.00110   0.01240  -0.01166   0.00045   1.97578
    A3        1.95406  -0.00108   0.00832  -0.01138  -0.00328   1.95078
    A4        1.85359   0.00135  -0.01093   0.01489   0.00367   1.85727
    A5        1.85816   0.00096  -0.01006   0.00936  -0.00087   1.85729
    A6        1.85460   0.00125  -0.01074   0.01332   0.00234   1.85694
    A7        2.08876  -0.00401  -0.00150  -0.01815  -0.01978   2.06899
    A8        2.08722  -0.00378  -0.00182  -0.01687  -0.01882   2.06840
    A9        2.10720   0.00779   0.00332   0.03495   0.03834   2.14554
   A10        2.08581  -0.00418  -0.00188  -0.02128  -0.02310   2.06271
   A11        2.10444   0.00257   0.00176   0.01392   0.01566   2.12010
   A12        2.09293   0.00160   0.00012   0.00736   0.00745   2.10037
   A13        2.09456   0.00017  -0.00001   0.00242   0.00230   2.09686
   A14        2.08775  -0.00058  -0.00143  -0.00435  -0.00573   2.08201
   A15        2.10087   0.00040   0.00144   0.00191   0.00339   2.10426
   A16        2.09848   0.00022   0.00051   0.00298   0.00330   2.10178
   A17        2.09225  -0.00008  -0.00027  -0.00126  -0.00144   2.09081
   A18        2.09245  -0.00014  -0.00023  -0.00172  -0.00186   2.09059
   A19        2.09565   0.00011   0.00021   0.00198   0.00208   2.09773
   A20        2.10052   0.00037   0.00136   0.00167   0.00307   2.10358
   A21        2.08701  -0.00049  -0.00157  -0.00366  -0.00519   2.08182
   A22        2.08458  -0.00411  -0.00213  -0.02080  -0.02287   2.06171
   A23        2.10560   0.00248   0.00200   0.01323   0.01519   2.12080
   A24        2.09300   0.00163   0.00013   0.00758   0.00768   2.10068
    D1        2.49913  -0.00005   0.00040   0.00642   0.00657   2.50570
    D2       -0.64728  -0.00026  -0.00163  -0.01116  -0.01262  -0.65990
    D3       -1.68565   0.00015   0.00117   0.00934   0.01031  -1.67534
    D4        1.45112  -0.00006  -0.00086  -0.00824  -0.00888   1.44225
    D5        0.40995   0.00020   0.00140   0.01006   0.01128   0.42124
    D6       -2.73646  -0.00001  -0.00063  -0.00752  -0.00791  -2.74436
    D7        3.12895  -0.00014  -0.00229  -0.01314  -0.01557   3.11338
    D8       -0.01118  -0.00017  -0.00201  -0.01407  -0.01623  -0.02741
    D9       -0.00777   0.00011  -0.00025   0.00480   0.00469  -0.00308
   D10        3.13529   0.00007   0.00003   0.00386   0.00403   3.13932
   D11       -3.12897   0.00014   0.00228   0.01318   0.01562  -3.11335
   D12        0.01128   0.00018   0.00203   0.01421   0.01640   0.02767
   D13        0.00776  -0.00011   0.00025  -0.00474  -0.00464   0.00312
   D14       -3.13518  -0.00007  -0.00001  -0.00371  -0.00386  -3.13904
   D15       -0.00223   0.00006   0.00098   0.00732   0.00828   0.00606
   D16        3.13479   0.00002   0.00010   0.00206   0.00216   3.13696
   D17        3.13791   0.00010   0.00071   0.00825   0.00894  -3.13633
   D18       -0.00825   0.00005  -0.00018   0.00299   0.00282  -0.00543
   D19        0.01219  -0.00028  -0.00173  -0.01971  -0.02146  -0.00927
   D20       -3.13100  -0.00027  -0.00205  -0.02124  -0.02331   3.12888
   D21       -3.12480  -0.00023  -0.00084  -0.01439  -0.01523  -3.14003
   D22        0.01520  -0.00023  -0.00116  -0.01592  -0.01708  -0.00188
   D23       -0.01220   0.00028   0.00173   0.01977   0.02152   0.00932
   D24        3.12475   0.00023   0.00083   0.01441   0.01524   3.13999
   D25        3.13099   0.00028   0.00205   0.02131   0.02337  -3.12883
   D26       -0.01525   0.00023   0.00116   0.01594   0.01709   0.00184
   D27        0.00225  -0.00006  -0.00098  -0.00743  -0.00838  -0.00614
   D28       -3.13801  -0.00010  -0.00072  -0.00845  -0.00916   3.13602
   D29       -3.13474  -0.00002  -0.00009  -0.00212  -0.00221  -3.13694
   D30        0.00819  -0.00006   0.00017  -0.00314  -0.00298   0.00521
         Item               Value     Threshold  Converged?
 Maximum Force            0.019194     0.000450     NO 
 RMS     Force            0.002865     0.000300     NO 
 Maximum Displacement     0.040568     0.001800     NO 
 RMS     Displacement     0.009997     0.001200     NO 
 Predicted change in Energy=-8.294853D-04
 Lowest energy point so far.  Saving SCF results.
 GradGradGradGradGradGradGradGradGradGradGradGradGradGradGradGradGradGrad

 Leave Link  103 at Mon Oct 14 11:06:16 2019, MaxMem= 10737418240 cpu:               0.5 elap:               0.1
 (Enter /apps/cent7/gaussian/g16-A.03/g16-haswell/g16/l202.exe)
                          Input orientation:                          
 ---------------------------------------------------------------------
 Center     Atomic      Atomic             Coordinates (Angstroms)
 Number     Number       Type             X           Y           Z
 ---------------------------------------------------------------------
      1          7           0       -0.692122   -1.200784    0.216859
      2          6           0        0.046770    0.080177    0.103266
      3          6           0       -0.679385    1.264853    0.066996
      4          6           0        0.023551    2.465618   -0.005244
[...]
 ! D29   D(13,6,7,2)          -179.7023         -DE/DX =    0.0                 !
 ! D30   D(13,6,7,14)            0.1962         -DE/DX =    0.0                 !
 --------------------------------------------------------------------------------
 GradGradGradGradGradGradGradGradGradGradGradGradGradGradGradGradGradGrad

 Leave Link  103 at Mon Oct 14 11:06:42 2019, MaxMem= 10737418240 cpu:               0.5 elap:               0.0
 (Enter /apps/cent7/gaussian/g16-A.03/g16-haswell/g16/l9999.exe)

 ----------------------------------------------------------------------

 Electric dipole moment (input orientation):
 (Debye = 10**-18 statcoulomb cm , SI units = C m)
                  (au)            (Debye)         (10**-30 SI)
   Tot        0.282047D+01      0.716892D+01      0.239129D+02
   x         -0.140386D+01     -0.356826D+01     -0.119024D+02
   y         -0.243851D+01     -0.619806D+01     -0.206745D+02
   z          0.194692D+00      0.494858D+00      0.165067D+01

 Dipole polarizability, Alpha (input orientation).
 (esu units = cm**3 , SI units = C**2 m**2 J**-1)
 Alpha(0;0):
               (au)            (10**-24 esu)      (10**-40 SI)
   iso        0.604536D+02      0.895831D+01      0.996746D+01
   aniso      0.514042D+02      0.761732D+01      0.847541D+01
   xx         0.752904D+02      0.111569D+02      0.124137D+02
   yx         0.332621D+01      0.492894D+00      0.548419D+00
   yy         0.793854D+02      0.117637D+02      0.130889D+02
   zx        -0.159880D+01     -0.236917D+00     -0.263606D+00
   zy        -0.278365D+01     -0.412494D+00     -0.458961D+00
   zz         0.266851D+02      0.395432D+01      0.439977D+01

 ----------------------------------------------------------------------

 Dipole orientation:
     7          0.11046195          0.19450496          2.66416438
     6          0.10667786          0.18484072         -0.16949804
     6         -1.88701407          1.35397615         -1.41535360
     6         -1.85046006          1.36983936         -4.05374332
     6          0.14528740          0.24069968         -5.35965885
     6          2.12198874         -0.91738833         -4.04735815
     6          2.12234586         -0.95469424         -1.41010015
     1          0.81806483         -1.46714186          3.38129159
     1          1.18645727          1.64334891          3.39283328
     1         -3.43662898          2.23028290         -0.38936003
     1         -3.38758948          2.26097257         -5.07688836
     1          0.15794573          0.25705372         -7.41037417
     1          3.66611041         -1.80025424         -5.06721332
     1          3.65549793         -1.85386398         -0.37960655
     1         -1.68774905          0.40185832          3.36912349

 Electric dipole moment (dipole orientation):
 (Debye = 10**-18 statcoulomb cm , SI units = C m)
                  (au)            (Debye)         (10**-30 SI)
   Tot        0.282047D+01      0.716892D+01      0.239129D+02
   x          0.000000D+00      0.000000D+00      0.000000D+00
   y          0.000000D+00      0.000000D+00      0.000000D+00
   z          0.282047D+01      0.716892D+01      0.239129D+02

 Dipole polarizability, Alpha (dipole orientation).
 (esu units = cm**3 , SI units = C**2 m**2 J**-1)
 Alpha(0;0):
               (au)            (10**-24 esu)      (10**-40 SI)
   iso        0.604536D+02      0.895831D+01      0.996746D+01
   aniso      0.514042D+02      0.761732D+01      0.847541D+01
   xx         0.617477D+02      0.915006D+01      0.101808D+02
   yx        -0.202943D+02     -0.300730D+01     -0.334608D+01
   yy         0.381886D+02      0.565896D+01      0.629644D+01
   zx        -0.201108D+00     -0.298012D-01     -0.331583D-01
   zy        -0.550585D+00     -0.815883D-01     -0.907792D-01
   zz         0.814247D+02      0.120659D+02      0.134251D+02

 ----------------------------------------------------------------------
 1\1\GINC-BROWN-A339\Freq\RB3LYP\6-31G(d)\C6H8N1(1+)\FINEJ\14-Oct-2019\
 0\\#P Geom=AllCheck Guess=TCheck SCRF=Check GenChk RB3LYP/6-31G(d) Fre
 q\\Title Card Required\\1,1\N,-0.6982476684,-1.2114628824,0.2154005151
 \C,0.0486390271,0.0842432501,0.1064738237\C,-0.6827771565,1.2650164353
 ,0.0707358217\C,0.0236373864,2.466852996,-0.0087540034\C,1.4194876531,
 2.4594770439,-0.0473875053\C,2.1241419819,1.2536819834,-0.0086432457\C
 ,1.4375991183,0.0410875358,0.0707170498\H,-0.2455024727,-1.95476512,-0
 .3322521311\H,-0.7613679294,-1.5434416487,1.1882922997\H,-1.7696685752
 ,1.265183987,0.1009779857\H,-0.5216080111,3.4042289155,-0.0432912099\H
 ,1.9612938274,3.3976130961,-0.1114800555\H,3.2085805833,1.2508322116,-
 0.0431089654\H,1.981003929,-0.9000823263,0.1007982579\H,-1.6591460031,
 -1.1179355674,-0.1376176274\\Version=ES64L-G16RevA.03\State=1-A\HF=-28
 7.9558379\RMSD=1.849e-09\RMSF=2.432e-05\ZeroPoint=0.1318073\Thermal=0.
 1318074\Dipole=-1.4038611,-2.4385063,0.1946919\DipoleDeriv=-0.2110147,
 -0.1196257,0.0012691,-0.1355714,-0.3623398,0.0031244,0.0444388,0.07602
 68,-0.0980538,0.2768348,0.1817069,-0.0247108,0.1937654,0.5018935,-0.04
 40095,-0.0640139,-0.1104922,-0.0558271,0.0101533,-0.0561693,0.0008424,
 0.0711092,-0.1261472,-0.0014546,-0.0019734,0.0099057,-0.0770843,-0.048
 4283,-0.0860497,0.006946,-0.1233361,0.1092364,-0.0045496,0.0097923,-0.
 0032734,-0.0617387,0.0132142,0.0933171,-0.0062525,0.0983352,0.1313841,
 -0.0116452,-0.0028296,-0.0050248,-0.0456554,0.1599923,-0.0048012,-0.00
 73417,0.0288682,-0.1046642,0.004184,-0.0073865,0.007327,-0.0624741,-0.
 0972951,0.0104448,-0.0015839,-0.1190549,-0.0231012,-0.0001087,0.009516
 7,0.0030893,-0.0787246,0.2134326,0.0028736,0.0112505,-0.0139292,0.2826
 267,0.0323761,0.0139466,0.0441321,0.2685747,0.2170563,-0.0290598,-0.00
 7806,-0.0306466,0.1879492,-0.0150894,-0.0255604,-0.0497927,0.2976278,-
 0.0292514,-0.0370096,0.0042367,-0.0505365,0.078697,0.0016321,0.0033866
 ,0.0006165,0.1333508,0.0540664,0.0300566,0.0004188,0.0274457,0.026135,
 0.0043802,-0.0026259,0.0015847,0.1288546,0.0614173,-0.033071,0.0035393
 ,-0.0326494,0.0237333,0.0061028,0.0025904,0.0044777,0.1271,0.0076944,0
 .0010102,0.0035838,0.003003,0.0718288,0.0025612,0.0026997,-0.0014029,0
 .1287425,0.0894965,0.0201616,-0.0008242,0.0323478,-0.0320815,0.0042971
 ,-0.0011103,0.0025016,0.132934,0.2826315,0.0262153,0.0164326,0.0508497
 ,0.2348499,0.0181991,0.0191289,0.0203246,0.2623738\Polar=75.2904399,3.
 3262147,79.3854174,-1.5987967,-2.7836452,26.6850767\Quadrupole=1.24724
 73,9.86817,-11.1154173,7.4295863,-0.8092608,-1.4043843\PG=C01 [X(C6H8N
 1)]\NImag=0\\0.68141043,-0.09726698,0.56737064,0.00817977,0.01464763,0
 .69549671,-0.11635239,-0.01565259,0.00345686,0.69790979,-0.01683694,-0
 .13731536,0.00618291,-0.09061994,0.59824193,0.00466488,0.00806842,-0.0
 6844674,-0.01410738,-0.02477790,0.14365018,0.00920102,-0.02857027,0.00
 095626,-0.19555398,0.15056392,-0.00349086,0.75833119,0.00677209,-0.038
 58524,0.00017778,0.07000615,-0.26210427,0.00882100,-0.00372775,0.66885
 164,-0.00051835,0.00294669,-0.00137705,0.00016878,0.00623962,-0.053753
 31,-0.01753829,-0.02731734,0.12641917,0.00027559,0.00811568,0.00036811
 ,0.06425763,-0.03284693,-0.00115619,-0.18155305,-0.05750367,0.00669516
 ,0.69134222,0.00314197,-0.00285864,-0.00004352,0.02710560,-0.06127746,
 0.00244918,-0.12482665,-0.28586912,0.01511833,-0.03872348,0.73299945,-
 0.00108073,0.00001788,0.00805966,-0.00280850,0.00449801,0.00414528,0.0
 0962439,0.01294311,-0.06233969,-0.01287638,-0.02947789,0.13848073,-0.0
 0066938,0.00111077,0.00003003,-0.05505422,0.02992901,-0.00012408,-0.02
 398112,-0.07503463,0.00400544,-0.34208248,0.03354272,0.00596463,0.6944
 0071,0.00064350,-0.00080414,0.00020547,0.03033603,-0.01970463,-0.00032
 344,-0.03060884,0.03452193,-0.00020926,-0.03083674,-0.13308608,0.00455
 709,0.03568933,0.73393726,-0.00020623,-0.00032340,-0.00129445,0.000030
 77,0.00005982,-0.00696958,0.00239916,0.00061448,0.00703426,0.00952214,
 0.00274318,-0.06480098,-0.01794957,-0.03104157,0.14262166,-0.00738029,
 -0.00054714,-0.00026023,-0.02726837,-0.02622859,0.00272309,-0.00001030
 ,-0.00278761,-0.00010280,-0.02472670,0.03154969,-0.00077018,-0.1860579
 5,0.12265738,-0.00237632,0.75597222,0.00511440,0.00527689,0.00010685,-
 0.08651272,0.02987011,0.00032494,0.00576205,-0.06500435,0.00221484,0.0
 7329010,0.03580487,-0.00354442,0.05824445,-0.28736084,0.00957950,0.000
 03485,0.66832429,0.00049190,-0.00102929,0.00726962,0.00533069,-0.00014
 279,0.00421975,-0.00041239,0.00300525,-0.00628088,-0.00268529,-0.00243
 658,0.00814643,0.00097065,0.00741478,-0.06487878,-0.01909444,-0.025934
 09,0.13859952,-0.01831155,-0.00884054,-0.00017347,-0.33843637,-0.01307
 517,0.00919142,-0.02992400,0.07538515,-0.00235498,-0.05006623,-0.03175
 468,0.00281615,0.06561504,-0.02330807,-0.00066555,-0.18109771,-0.05773
 988,0.00643898,0.69308436,-0.04537241,-0.01153316,0.00101562,0.0666083
 0,-0.11695718,0.00130816,0.02282376,0.02664333,-0.00108942,-0.02299981
 ,-0.01482698,0.00113771,0.02092947,-0.05496865,0.00238943,-0.12496903,
 -0.28828621,0.01491964,-0.03983769,0.73433473,0.00291751,0.00100796,-0
 .00117070,0.00520413,0.00318174,-0.05497517,0.00022643,-0.00258510,0.0
 0919253,0.00196662,0.00101969,-0.00612577,-0.00216374,0.00336355,0.007
 07286,0.00977152,0.01347536,-0.06199758,-0.01489987,-0.02889561,0.1265
 2306,-0.13099565,0.10585778,0.07803279,0.01237210,-0.01172623,-0.01108
 485,-0.00273966,-0.00138693,-0.00039154,0.00024954,-0.00065984,0.00044
 479,0.00023437,-0.00011018,-0.00027686,-0.00048705,0.00027380,-0.00008
 088,0.00196674,-0.00208684,0.00051040,0.13368775,0.11455653,-0.2311323
 4,-0.13330902,0.01210474,-0.02388789,-0.01093456,-0.00418283,-0.002851
 71,-0.00132585,0.00139579,-0.00037107,0.00111456,-0.00039240,0.0003785
 1,-0.00009368,0.00031216,-0.00098881,0.00104030,0.00128093,0.00357238,
 0.00006949,-0.11673701,0.24312942,0.08119937,-0.12801086,-0.16253822,-
 0.00545039,0.00242113,0.00447497,0.00086963,0.00133550,0.00019369,0.00
 025979,0.00069147,-0.00008244,-0.00035575,0.00030778,0.00008754,0.0000
 0900,-0.00028446,-0.00000245,0.00039954,0.00057114,-0.00002843,-0.0892
 1544,0.13859567,0.16446327,-0.06426987,-0.00126832,0.02057916,-0.00106
 045,-0.00775122,0.01497940,-0.00009198,0.00180610,0.00072125,-0.001262
 49,-0.00074110,-0.00032611,0.00082885,-0.00052040,0.00017895,-0.000192
 87,0.00046379,-0.00103361,0.00021983,-0.00153027,-0.00000489,0.0000123
 7,-0.00728964,0.01856006,0.05997514,0.00045440,-0.08854026,0.10277781,
 -0.00435399,-0.01383658,0.02459531,-0.00182137,-0.00026978,0.00074704,
 -0.00004283,-0.00040310,-0.00166066,-0.00049534,0.00032791,0.00021990,
 0.00003355,-0.00156341,-0.00114204,0.00172043,0.00105906,0.00048508,-0
 .00071832,0.01246331,-0.02881373,0.00508924,0.09195583,0.01265145,0.08
 967874,-0.36243944,0.00426691,0.00622041,0.00766909,-0.00064623,-0.001
 10241,-0.00017836,0.00024066,-0.00005856,0.00016554,-0.00008460,-0.000
 29977,0.00006792,-0.00009683,0.00034971,0.00027265,-0.00056617,-0.0011
 1761,0.00009310,-0.00086673,0.00647593,-0.01738027,-0.01641011,-0.1023
 2090,0.38179116,0.00158015,-0.00073011,-0.00044935,-0.01224890,-0.0038
 4684,0.00065122,-0.33978671,0.00221896,0.00822679,-0.01121921,0.001609
 21,0.00041182,0.00053557,-0.00285468,0.00035275,0.00060744,-0.00036580
 ,-0.00002722,0.00131242,0.00284535,-0.00009669,0.00011495,-0.00000748,
 0.00016441,-0.00000953,0.00036345,0.00004635,0.35920872,0.00121807,0.0
 0254271,-0.00005573,0.02745742,0.00232846,-0.00073424,0.00254309,-0.05
 989822,0.00107359,-0.02911450,0.00579066,0.00077311,-0.00188738,-0.005
 03834,0.00069678,-0.00022507,-0.00102664,0.00000674,0.00140032,-0.0048
 5461,0.00044394,0.00002640,0.00017378,-0.00014153,0.00014955,-0.000147
 07,0.00009914,-0.00132313,0.05948054,0.00052848,-0.00001593,-0.0041815
 8,-0.00111228,-0.00049351,0.00231132,0.00835277,0.00132702,-0.03334069
 ,0.00175457,-0.00014850,0.00341157,0.00027119,0.00062552,0.00693693,-0
 .00004452,-0.00002254,-0.00080702,0.00022062,0.00041164,0.00486736,-0.
 00000793,-0.00041103,0.00007992,-0.00009725,0.00091127,-0.00008703,-0.
 00925421,-0.00160138,0.02386171,0.00039765,-0.00165865,-0.00000802,-0.
 00117217,-0.00223595,0.00042308,0.01181747,-0.01668592,0.00064590,-0.1
 3302650,0.12602100,-0.00412504,-0.01036812,0.02833663,-0.00109763,-0.0
 0563778,-0.00121351,0.00041109,-0.00089142,-0.00090874,0.00003232,-0.0
 0017409,-0.00024836,0.00006609,-0.00003538,-0.00004533,-0.00004649,0.0
 0095186,0.00029723,-0.00014827,0.13729162,0.00058621,-0.00136924,-0.00
 004424,-0.00348538,-0.00138419,0.00060506,0.01392599,-0.01892556,0.000
 76415,0.12547493,-0.27603967,0.00904633,-0.00200294,0.00554654,-0.0000
 2251,-0.00083651,0.00107092,0.00032628,-0.00063634,0.00027624,-0.00002
 647,-0.00018000,-0.00023404,0.00011857,-0.00002816,-0.00009142,-0.0000
 8701,0.00016816,0.00098907,-0.00026508,-0.13313353,0.28922499,0.000120
 77,0.00032671,0.00082937,0.00029565,0.00028886,0.00648757,-0.00094243,
 0.00158619,0.00318370,-0.00418790,0.00902327,-0.03903487,0.00059050,-0
 .00084043,0.00437576,0.00040710,0.00034538,0.00678902,0.00004924,-0.00
 004176,-0.00048411,0.00013205,0.00011961,-0.00006091,-0.00012987,-0.00
 008677,0.00006139,-0.00016292,-0.00028780,-0.00402413,0.00403514,-0.01
 016222,0.02695105,0.00023466,-0.00018455,-0.00006059,-0.00114975,0.001
 18928,0.00001208,-0.00532340,0.00081324,0.00030246,-0.01109421,-0.0281
 9896,0.00190682,-0.13242072,-0.12438936,0.00906908,0.01254822,0.015945
 34,-0.00106277,-0.00115651,0.00338078,0.00007004,-0.00006030,-0.000065
 58,0.00000515,-0.00001205,0.00002244,-0.00000613,-0.00060104,-0.001451
 98,0.00006984,0.00106570,0.00011620,-0.00014580,0.13662968,-0.00020675
 ,0.00001965,-0.00010575,0.00121606,0.00026180,0.00001786,0.00096918,0.
 00126018,0.00026070,0.00229454,0.00547454,-0.00012571,-0.12439488,-0.2
 7598753,0.01570672,-0.01455597,-0.01815705,0.00158641,0.00322184,-0.00
 290948,0.00038788,0.00009383,0.00003915,0.00002423,0.00004145,0.000035
 42,-0.00002241,0.00025592,0.00024813,-0.00001460,-0.00013736,0.0006834
 5,-0.00023786,0.13204875,0.28901422,0.00011899,0.00020263,-0.00124370,
 -0.00009244,-0.00016060,0.00060603,0.00028130,0.00033839,0.00694362,0.
 00019439,0.00074741,0.00421063,0.00909640,0.01575409,-0.04176619,0.000
 55119,0.00054026,0.00418214,0.00014905,0.00040847,0.00683547,0.0000925
 8,-0.00025338,-0.00001429,0.00008083,0.00024983,-0.00015280,-0.0000203
 9,-0.00000166,-0.00002247,-0.00012541,-0.00024844,-0.00396139,-0.00999
 172,-0.01730370,0.02832609,-0.00048876,0.00010346,-0.00003359,0.001129
 49,-0.00214431,0.00031571,0.00066172,0.00025481,-0.00003793,0.00027699
 ,0.00257994,0.00007390,-0.00983674,-0.00170993,0.00052918,-0.34915291,
 0.00052460,0.00986884,-0.01002699,0.00129642,0.00033987,-0.00003045,0.
 00005577,0.00004745,-0.00004004,-0.00001239,-0.00005088,-0.00005182,-0
 .00001416,-0.00002856,-0.00048667,-0.00023179,0.00002222,0.00078564,-0
 .00004134,-0.00015049,0.36650224,-0.00222029,-0.00043525,-0.00003000,-
 0.00090115,-0.00373739,0.00067738,-0.00002451,-0.00128082,0.00001648,0
 .00221035,-0.00485058,0.00051663,0.02863393,0.00501078,-0.00095947,0.0
 0109458,-0.05990592,0.00094971,-0.02931635,0.00291837,0.00094144,-0.00
 003243,0.00018632,0.00006699,-0.00002422,0.00000186,-0.00008779,0.0000
 1707,0.00018311,-0.00005238,0.00144971,0.00021636,-0.00004908,-0.00029
 903,0.00095689,-0.00023029,-0.00060618,0.06001249,0.00022102,0.0002607
 0,0.00079976,0.00011313,0.00041049,0.00664178,-0.00005820,0.00002457,-
 0.00044107,0.00008976,0.00052099,0.00670961,-0.00102241,0.00008795,0.0
 0436212,0.00988209,0.00089128,-0.03913330,0.00184367,-0.00002792,0.003
 19528,0.00009368,0.00001094,-0.00001769,-0.00002910,-0.00011645,0.0000
 5595,-0.00002301,-0.00005932,-0.00090275,-0.00005353,-0.00000511,-0.00
 014206,-0.00013125,-0.00024280,-0.00391351,-0.01079174,-0.00159109,0.0
 2699220,0.00223759,0.00108448,0.00021886,-0.01142232,0.02820966,-0.000
 98674,-0.00512098,-0.00240299,0.00043500,-0.00033900,-0.00075748,0.000
 01987,-0.00160251,-0.00310313,0.00042996,0.01347246,-0.01489744,0.0004
 6076,-0.13215832,0.12268090,-0.00316269,-0.00122430,-0.00090193,-0.000
 36234,-0.00057513,-0.00009309,0.00015310,-0.00042755,0.00130451,-0.000
 01250,0.00012449,0.00008878,-0.00004139,0.00055077,-0.00078351,0.00000
 860,0.00078152,0.00020310,-0.00016845,0.13556433,-0.00019594,0.0017077
 8,-0.00037417,-0.00323714,0.00222246,0.00014963,-0.00093822,0.00153076
 ,0.00014376,-0.00093907,-0.00006086,-0.00001777,-0.00404715,-0.0029180
 6,0.00065353,0.01583733,-0.01880158,0.00073802,0.12222767,-0.26818194,
 0.00763559,0.00074295,0.00032026,-0.00007859,0.00027710,0.00020197,0.0
 0009327,-0.00013182,0.00028163,0.00010520,0.00011824,0.00000997,-0.000
 05040,0.00091692,-0.00090108,-0.00001869,0.00006430,0.00116788,-0.0002
 8489,-0.13075977,0.28331017,-0.00027596,0.00050716,-0.00363154,0.00011
 198,-0.00124173,0.00232343,0.00024627,0.00039839,0.00492161,0.00000438
 ,-0.00004890,-0.00080111,0.00041174,0.00055403,0.00703892,-0.00100627,
 0.00145022,0.00345365,-0.00299603,0.00783531,-0.03358398,-0.00015276,-
 0.00080228,0.00032310,0.00074408,0.00051782,-0.00019928,0.00010010,0.0
 0004177,0.00130535,-0.00003178,-0.00005217,-0.00092622,-0.00004795,0.0
 0005229,-0.00003561,-0.00015725,-0.00026465,-0.00408780,0.00322044,-0.
 00875904,0.02399135,-0.35686920,0.03844697,-0.11083659,-0.01595010,-0.
 00257974,-0.00201076,0.00407378,0.00227302,-0.00025688,-0.00103211,0.0
 0011206,0.00072456,0.00045870,-0.00022154,0.00006016,-0.00058840,0.001
 07596,0.00042369,-0.00012929,-0.00286021,-0.00071096,-0.01292632,0.000
 11931,-0.00619655,0.00651361,-0.00010086,0.00141570,0.00003367,-0.0003
 8038,-0.00049196,0.00014336,0.00017440,-0.00004238,0.00000330,-0.00002
 175,-0.00019288,-0.00002322,-0.00018457,0.00003432,0.00013895,0.000064
 63,-0.00017097,0.37615328,0.02961213,-0.06434404,0.00884836,-0.0300713
 8,0.00728019,-0.01024681,-0.00188755,0.00198123,0.00041666,0.00022566,
 -0.00042597,0.00022202,0.00017504,0.00014536,-0.00022271,-0.00136961,0
 .00074774,0.00069768,-0.00072761,-0.00628591,-0.00050454,0.02664301,-0
 .00079727,0.01319670,0.01132611,-0.00119374,0.00217927,0.00178174,-0.0
 0105320,-0.00035570,0.00004455,0.00002658,0.00006630,0.00015651,-0.000
 03829,-0.00002433,-0.00011922,-0.00044410,0.00012066,0.00012793,0.0001
 1065,-0.00018822,-0.03591730,0.06429076,-0.10901285,0.01171498,-0.1061
 3171,0.00459210,-0.00268644,0.00161538,0.00013219,0.00043317,-0.000177
 54,-0.00018984,-0.00009957,-0.00014457,0.00035956,-0.00015581,0.000112
 01,0.00040760,0.00050715,0.00016724,0.00054740,0.00117522,0.00058607,0
 .02277071,-0.00029669,0.01050220,-0.03781279,0.00363648,-0.00973961,0.
 00008034,-0.00025343,0.00059151,0.00002255,0.00005287,-0.00004417,0.00
 001074,0.00001673,0.00000599,0.00005327,0.00009611,-0.00011853,-0.0002
 1247,0.00006456,-0.00009188,0.11825149,-0.01420534,0.10286761\\-0.0000
 2695,-0.00003656,-0.00001546,0.00004589,0.00007333,-0.00004658,-0.0000
 4259,-0.00002564,0.00005941,0.00000946,0.00000379,-0.00002306,-0.00001
 116,-0.00001514,0.00002687,-0.00000331,0.00000523,-0.00001763,0.000003
 39,-0.00004316,0.00005755,-0.00000550,0.00000538,0.00000375,0.00001266
 ,0.00002129,-0.00000771,0.00000760,0.00000336,-0.00000824,-0.00000255,
 -0.00000060,-0.00001195,0.00000322,0.00000197,-0.00000271,0.00000113,-
 0.00000125,-0.00001143,-0.00000254,0.00000669,-0.00000658,0.00001125,0
 .00000130,0.00000376\\\@


 NEVER TEACH A PIG TO SING.
 IT WASTES YOUR TIME AND ANNOYS THE PIG.
     -- SEEN ON A GREETING CARD
 Job cpu time:       0 days  0 hours  4 minutes 57.8 seconds.
 Elapsed time:       0 days  0 hours  0 minutes 12.9 seconds.
 File lengths (MBytes):  RWF=     30 Int=      0 D2E=      0 Chk=      3 Scr=      1
 Normal termination of Gaussian 16 at Mon Oct 14 11:06:42 2019.
real 32.83
user 706.64
sys 8.20
Machine:
brown-a339
brown-a339
brown-a339
brown-a339
brown-a339
brown-a339
brown-a339
brown-a339
brown-a339
brown-a339
brown-a339
brown-a339
brown-a339
brown-a339
brown-a339
brown-a339
brown-a339
brown-a339
brown-a339
brown-a339
brown-a339
brown-a339
brown-a339
brown-a339
