Title Card Required                                                     
Freq      RB3LYP                                                      6-31G(d)            
Number of atoms                            I               15
Info1-9                                    I   N=           9
          40          40        1002           0           0         100
           6          18        -502
Full Title                                 C   N=           2
Title Card Required     
Route                                      C   N=           6
#p opt freq b3lyp/6-31g(d) geom=connectivity temperature=0.0
01          
Charge                                     I                1
Multiplicity                               I                1
Number of electrons                        I               50
Number of alpha electrons                  I               25
Number of beta electrons                   I               25
Number of basis functions                  I              121
Number of independent functions            I              121
Number of point charges in /Mol/           I                0
Number of translation vectors              I                0
Atomic numbers                             I   N=          15
           7           6           6           6           6           6
           6           1           1           1           1           1
           1           1           1
Nuclear charges                            R   N=          15
  7.00000000E+00  6.00000000E+00  6.00000000E+00  6.00000000E+00  6.00000000E+00
  6.00000000E+00  6.00000000E+00  1.00000000E+00  1.00000000E+00  1.00000000E+00
  1.00000000E+00  1.00000000E+00  1.00000000E+00  1.00000000E+00  1.00000000E+00
Current cartesian coordinates              R   N=          45
 -4.39488177E+00  2.40051644E-04  1.35410540E-02 -1.56137782E+00  9.19222598E-04
 -1.81662431E-02 -3.17231802E-01  2.31303125E+00 -9.22875466E-03  2.32134226E+00
  2.29133787E+00  2.79093054E-03  3.62914928E+00 -5.96942328E-04  1.02278717E-02
  2.31855247E+00 -2.29252436E+00  2.88897448E-03 -3.18857667E-01 -2.31351725E+00
 -9.30370042E-03 -5.11908253E+00 -1.44267972E+00 -1.06792054E+00 -5.10980028E+00
 -2.09840930E-01  1.81149283E+00 -1.34469630E+00  4.09240271E+00 -1.52791714E-02
  3.34310413E+00  4.06889449E+00  3.11573613E-04  5.67996251E+00 -1.79807852E-03
  1.51970246E-02  3.33981383E+00 -4.07041310E+00  5.60811369E-04 -1.34803517E+00
 -4.09164297E+00 -1.57176622E-02 -5.10655417E+00  1.66149848E+00 -6.98686710E-01
Number of symbols in /Mol/                 I                0
Force Field                                I                0
Atom Types                                 C   N=          15
                                                            
                                                            
                                                            
Int Atom Types                             I   N=          15
           0           0           0           0           0           0
           0           0           0           0           0           0
           0           0           0
MM charges                                 R   N=          15
  0.00000000E+00  0.00000000E+00  0.00000000E+00  0.00000000E+00  0.00000000E+00
  0.00000000E+00  0.00000000E+00  0.00000000E+00  0.00000000E+00  0.00000000E+00
  0.00000000E+00  0.00000000E+00  0.00000000E+00  0.00000000E+00  0.00000000E+00
Integer atomic weights                     I   N=          15
          14          12          12          12          12          12
          12           1           1           1           1           1
           1           1           1
Real atomic weights                        R   N=          15
  1.40030740E+01  1.20000000E+01  1.20000000E+01  1.20000000E+01  1.20000000E+01
  1.20000000E+01  1.20000000E+01  1.00782504E+00  1.00782504E+00  1.00782504E+00
  1.00782504E+00  1.00782504E+00  1.00782504E+00  1.00782504E+00  1.00782504E+00
Atom fragment info                         I   N=          15
           0           0           0           0           0           0
           0           0           0           0           0           0
           0           0           0
Atom residue num                           I   N=          15
           0           0           0           0           0           0
           0           0           0           0           0           0
           0           0           0
Nuclear spins                              I   N=          15
           2           0           0           0           0           0
           0           1           1           1           1           1
           1           1           1
Nuclear ZEff                               R   N=          15
 -4.55000000E+00 -3.60000000E+00 -3.60000000E+00 -3.60000000E+00 -3.60000000E+00
 -3.60000000E+00 -3.60000000E+00 -1.00000000E+00 -1.00000000E+00 -1.00000000E+00
 -1.00000000E+00 -1.00000000E+00 -1.00000000E+00 -1.00000000E+00 -1.00000000E+00
Nuclear ZNuc                               R   N=          15
  7.00000000E+00  6.00000000E+00  6.00000000E+00  6.00000000E+00  6.00000000E+00
  6.00000000E+00  6.00000000E+00  1.00000000E+00  1.00000000E+00  1.00000000E+00
  1.00000000E+00  1.00000000E+00  1.00000000E+00  1.00000000E+00  1.00000000E+00
Nuclear QMom                               R   N=          15
  2.04400000E+00  0.00000000E+00  0.00000000E+00  0.00000000E+00  0.00000000E+00
  0.00000000E+00  0.00000000E+00  0.00000000E+00  0.00000000E+00  0.00000000E+00
  0.00000000E+00  0.00000000E+00  0.00000000E+00  0.00000000E+00  0.00000000E+00
Nuclear GFac                               R   N=          15
  4.03761000E-01  0.00000000E+00  0.00000000E+00  0.00000000E+00  0.00000000E+00
  0.00000000E+00  0.00000000E+00  2.79284600E+00  2.79284600E+00  2.79284600E+00
  2.79284600E+00  2.79284600E+00  2.79284600E+00  2.79284600E+00  2.79284600E+00
MicOpt                                     I   N=          15
          -1          -1          -1          -1          -1          -1
          -1          -1          -1          -1          -1          -1
          -1          -1          -1
Number of residues                         I                0
Number of secondary structures             I                0
Redundant internal dimensions              I   N=           4
          69          15          24          30
Redundant internal coordinate indices      I   N=         276
           1           2           0           0           1           8
           0           0           1           9           0           0
           1          15           0           0           2           3
           0           0           2           7           0           0
           3           4           0           0           3          10
           0           0           4           5           0           0
           4          11           0           0           5           6
           0           0           5          12           0           0
           6           7           0           0           6          13
           0           0           7          14           0           0
           2           1           8           0           2           1
           9           0           2           1          15           0
           8           1           9           0           8           1
          15           0           9           1          15           0
           1           2           3           0           1           2
           7           0           3           2           7           0
           2           3           4           0           2           3
          10           0           4           3          10           0
           3           4           5           0           3           4
          11           0           5           4          11           0
           4           5           6           0           4           5
          12           0           6           5          12           0
           5           6           7           0           5           6
          13           0           7           6          13           0
           2           7           6           0           2           7
          14           0           6           7          14           0
           8           1           2           3           8           1
           2           7           9           1           2           3
           9           1           2           7          15           1
           2           3          15           1           2           7
           1           2           3           4           1           2
           3          10           7           2           3           4
           7           2           3          10           1           2
           7           6           1           2           7          14
           3           2           7           6           3           2
           7          14           2           3           4           5
           2           3           4          11          10           3
           4           5          10           3           4          11
           3           4           5           6           3           4
           5          12          11           4           5           6
          11           4           5          12           4           5
           6           7           4           5           6          13
          12           5           6           7          12           5
           6          13           5           6           7           2
           5           6           7          14          13           6
           7           2          13           6           7          14
Redundant internal coordinates             R   N=          69
  2.83368143E+00  1.94320442E+00  1.94624589E+00  1.94255645E+00  2.62561254E+00
  2.62688999E+00  2.63869061E+00  2.05472205E+00  2.63882165E+00  2.05029535E+00
  2.64019870E+00  2.05081960E+00  2.63752187E+00  2.05033376E+00  2.05450202E+00
  1.94616020E+00  1.95807689E+00  1.94123911E+00  1.87242903E+00  1.86965874E+00
  1.87176306E+00  2.06461650E+00  2.06317338E+00  2.15521450E+00  2.05624444E+00
  2.12425462E+00  2.10268411E+00  2.09755511E+00  2.08425570E+00  2.10136962E+00
  2.10359813E+00  2.08991676E+00  2.08966449E+00  2.09821219E+00  2.10074266E+00
  2.08422546E+00  2.05554206E+00  2.12419283E+00  2.10344809E+00  2.50468858E+00
 -6.56625865E-01 -1.67765158E+00  1.44421928E+00  4.18893723E-01 -2.74242072E+00
  3.12369761E+00 -2.01052670E-02  2.94250084E-03 -3.14086038E+00 -3.12363653E+00
  2.02621853E-02 -2.86526882E-03  3.14103345E+00 -2.05660450E-03  3.13619009E+00
 -3.14146760E+00 -3.22090402E-03  1.25842963E-03  3.13914248E+00 -3.13695516E+00
  9.28887420E-04 -1.18022097E-03  3.13699413E+00 -3.13906481E+00 -8.90459303E-04
  1.90273241E-03  3.14121801E+00 -3.13630392E+00  3.01136578E-03
ZRed-IntVec                                I   N=          69
           0           0           0           0           0           0
           0           0           0           0           0           0
           0           0           0           0           0           0
           0           0           0           0           0           0
           0           0           0           0           0           0
           0           0           0           0           0           0
           0           0           0           0           0           0
           0           0           0           0           0           0
           0           0           0           0           0           0
           0           0           0           0           0           0
           0           0           0           0           0           0
           0           0           0
ZRed-FPVec                                 R   N=          69
  0.00000000E+00  0.00000000E+00  0.00000000E+00  0.00000000E+00  0.00000000E+00
  0.00000000E+00  0.00000000E+00  0.00000000E+00  0.00000000E+00  0.00000000E+00
  0.00000000E+00  0.00000000E+00  0.00000000E+00  0.00000000E+00  0.00000000E+00
  0.00000000E+00  0.00000000E+00  0.00000000E+00  0.00000000E+00  0.00000000E+00
  0.00000000E+00  0.00000000E+00  0.00000000E+00  0.00000000E+00  0.00000000E+00
  0.00000000E+00  0.00000000E+00  0.00000000E+00  0.00000000E+00  0.00000000E+00
  0.00000000E+00  0.00000000E+00  0.00000000E+00  0.00000000E+00  0.00000000E+00
  0.00000000E+00  0.00000000E+00  0.00000000E+00  0.00000000E+00  0.00000000E+00
  0.00000000E+00  0.00000000E+00  0.00000000E+00  0.00000000E+00  0.00000000E+00
  0.00000000E+00  0.00000000E+00  0.00000000E+00  0.00000000E+00  0.00000000E+00
  0.00000000E+00  0.00000000E+00  0.00000000E+00  0.00000000E+00  0.00000000E+00
  0.00000000E+00  0.00000000E+00  0.00000000E+00  0.00000000E+00  0.00000000E+00
  0.00000000E+00  0.00000000E+00  0.00000000E+00  0.00000000E+00  0.00000000E+00
  0.00000000E+00  0.00000000E+00  0.00000000E+00  0.00000000E+00
ZRed-Constraint1                           R   N=          69
  2.83368143E+00  1.94320442E+00  1.94624589E+00  1.94255645E+00  2.62561254E+00
  2.62688999E+00  2.63869061E+00  2.05472205E+00  2.63882165E+00  2.05029535E+00
  2.64019870E+00  2.05081960E+00  2.63752187E+00  2.05033376E+00  2.05450202E+00
  1.94616020E+00  1.95807689E+00  1.94123911E+00  1.87242903E+00  1.86965874E+00
  1.87176306E+00  2.06461650E+00  2.06317338E+00  2.15521450E+00  2.05624444E+00
  2.12425462E+00  2.10268411E+00  2.09755511E+00  2.08425570E+00  2.10136962E+00
  2.10359813E+00  2.08991676E+00  2.08966449E+00  2.09821219E+00  2.10074266E+00
  2.08422546E+00  2.05554206E+00  2.12419283E+00  2.10344809E+00  2.50468858E+00
 -6.56625865E-01 -1.67765158E+00  1.44421928E+00  4.18893723E-01 -2.74242072E+00
  3.12369761E+00 -2.01052670E-02  2.94250084E-03 -3.14086038E+00 -3.12363653E+00
  2.02621853E-02 -2.86526882E-03  3.14103345E+00 -2.05660450E-03  3.13619009E+00
 -3.14146760E+00 -3.22090402E-03  1.25842963E-03  3.13914248E+00 -3.13695516E+00
  9.28887420E-04 -1.18022097E-03  3.13699413E+00 -3.13906481E+00 -8.90459303E-04
  1.90273241E-03  3.14121801E+00 -3.13630392E+00  3.01136578E-03
ZRed-Constraint2                           R   N=          69
  2.54508540E+00  1.88972611E+00  1.88972612E+00  1.88972612E+00  2.66529798E+00
  2.66513455E+00  2.66059488E+00  2.05969907E+00  2.65760656E+00  2.05988010E+00
  2.65756829E+00  2.05992378E+00  2.66061826E+00  2.05979515E+00  2.05972341E+00
  1.91063323E+00  1.91063324E+00  1.91063323E+00  1.91063324E+00  1.91063324E+00
  1.91063323E+00  2.09658204E+00  2.09671848E+00  2.08987043E+00  2.09562095E+00
  2.09523921E+00  2.09232514E+00  2.09458467E+00  2.09522031E+00  2.09338033E+00
  2.09584212E+00  2.09368241E+00  2.09366077E+00  2.09453697E+00  2.09344207E+00
  2.09520627E+00  2.09570235E+00  2.09517785E+00  2.09230511E+00  2.49702729E+00
 -6.38790509E-01 -1.69176291E+00  1.45560460E+00  4.02632185E-01 -2.73318561E+00
  3.14088305E+00 -7.08136964E-04 -6.46172585E-03  3.13513239E+00 -3.14088256E+00
  7.09605963E-04  6.46267140E-03 -3.13513047E+00 -7.36059829E-03  3.13427143E+00
  3.13423059E+00 -7.32268864E-03  2.12353110E-02 -3.12028063E+00 -3.12039667E+00
  2.12726925E-02 -2.12340859E-02  3.12039088E+00  3.12028186E+00 -2.12784830E-02
  7.35882466E-03 -3.13423335E+00 -3.13426617E+00  7.32696309E-03
SymInf integers                            I   N=          26
           1           1           1           1           1           0
           0           0           0           0           0           0
           0           0           0           0           0           0
           0           0           0           0           0           0
           0           0
RotTr to input orientation                 R   N=          12
  4.98666629E-01  8.64611020E-01 -6.14766391E-02 -8.66249108E-01  4.99612332E-01
  1.31031786E-05  3.07258162E-02  5.32475497E-02  9.98108522E-01  8.71875901E-01
  1.50968919E+00  1.23349976E-01
Number of contracted shells                I               44
Number of primitive shells                 I              109
Pure/Cartesian d shells                    I                1
Pure/Cartesian f shells                    I                0
Highest angular momentum                   I                2
Largest degree of contraction              I                6
Shell types                                I   N=          44
           0          -1          -1           2           0          -1
          -1           2           0          -1          -1           2
           0          -1          -1           2           0          -1
          -1           2           0          -1          -1           2
           0          -1          -1           2           0           0
           0           0           0           0           0           0
           0           0           0           0           0           0
           0           0
Number of primitives per shell             I   N=          44
           6           3           1           1           6           3
           1           1           6           3           1           1
           6           3           1           1           6           3
           1           1           6           3           1           1
           6           3           1           1           3           1
           3           1           3           1           3           1
           3           1           3           1           3           1
           3           1
Shell to atom map                          I   N=          44
           1           1           1           1           2           2
           2           2           3           3           3           3
           4           4           4           4           5           5
           5           5           6           6           6           6
           7           7           7           7           8           8
           9           9          10          10          11          11
          12          12          13          13          14          14
          15          15
Primitive exponents                        R   N=         109
  4.17351146E+03  6.27457911E+02  1.42902093E+02  4.02343293E+01  1.28202129E+01
  4.39043701E+00  1.16263619E+01  2.71627981E+00  7.72218397E-01  2.12031498E-01
  8.00000000E-01  3.04752488E+03  4.57369518E+02  1.03948685E+02  2.92101553E+01
  9.28666296E+00  3.16392696E+00  7.86827235E+00  1.88128854E+00  5.44249258E-01
  1.68714478E-01  8.00000000E-01  3.04752488E+03  4.57369518E+02  1.03948685E+02
  2.92101553E+01  9.28666296E+00  3.16392696E+00  7.86827235E+00  1.88128854E+00
  5.44249258E-01  1.68714478E-01  8.00000000E-01  3.04752488E+03  4.57369518E+02
  1.03948685E+02  2.92101553E+01  9.28666296E+00  3.16392696E+00  7.86827235E+00
  1.88128854E+00  5.44249258E-01  1.68714478E-01  8.00000000E-01  3.04752488E+03
  4.57369518E+02  1.03948685E+02  2.92101553E+01  9.28666296E+00  3.16392696E+00
  7.86827235E+00  1.88128854E+00  5.44249258E-01  1.68714478E-01  8.00000000E-01
  3.04752488E+03  4.57369518E+02  1.03948685E+02  2.92101553E+01  9.28666296E+00
  3.16392696E+00  7.86827235E+00  1.88128854E+00  5.44249258E-01  1.68714478E-01
  8.00000000E-01  3.04752488E+03  4.57369518E+02  1.03948685E+02  2.92101553E+01
  9.28666296E+00  3.16392696E+00  7.86827235E+00  1.88128854E+00  5.44249258E-01
  1.68714478E-01  8.00000000E-01  1.87311370E+01  2.82539436E+00  6.40121692E-01
  1.61277759E-01  1.87311370E+01  2.82539436E+00  6.40121692E-01  1.61277759E-01
  1.87311370E+01  2.82539436E+00  6.40121692E-01  1.61277759E-01  1.87311370E+01
  2.82539436E+00  6.40121692E-01  1.61277759E-01  1.87311370E+01  2.82539436E+00
  6.40121692E-01  1.61277759E-01  1.87311370E+01  2.82539436E+00  6.40121692E-01
  1.61277759E-01  1.87311370E+01  2.82539436E+00  6.40121692E-01  1.61277759E-01
  1.87311370E+01  2.82539436E+00  6.40121692E-01  1.61277759E-01
Contraction coefficients                   R   N=         109
  1.83477216E-03  1.39946270E-02  6.85865518E-02  2.32240873E-01  4.69069948E-01
  3.60455199E-01 -1.14961182E-01 -1.69117479E-01  1.14585195E+00  1.00000000E+00
  1.00000000E+00  1.83473713E-03  1.40373228E-02  6.88426223E-02  2.32184443E-01
  4.67941348E-01  3.62311985E-01 -1.19332420E-01 -1.60854152E-01  1.14345644E+00
  1.00000000E+00  1.00000000E+00  1.83473713E-03  1.40373228E-02  6.88426223E-02
  2.32184443E-01  4.67941348E-01  3.62311985E-01 -1.19332420E-01 -1.60854152E-01
  1.14345644E+00  1.00000000E+00  1.00000000E+00  1.83473713E-03  1.40373228E-02
  6.88426223E-02  2.32184443E-01  4.67941348E-01  3.62311985E-01 -1.19332420E-01
 -1.60854152E-01  1.14345644E+00  1.00000000E+00  1.00000000E+00  1.83473713E-03
  1.40373228E-02  6.88426223E-02  2.32184443E-01  4.67941348E-01  3.62311985E-01
 -1.19332420E-01 -1.60854152E-01  1.14345644E+00  1.00000000E+00  1.00000000E+00
  1.83473713E-03  1.40373228E-02  6.88426223E-02  2.32184443E-01  4.67941348E-01
  3.62311985E-01 -1.19332420E-01 -1.60854152E-01  1.14345644E+00  1.00000000E+00
  1.00000000E+00  1.83473713E-03  1.40373228E-02  6.88426223E-02  2.32184443E-01
  4.67941348E-01  3.62311985E-01 -1.19332420E-01 -1.60854152E-01  1.14345644E+00
  1.00000000E+00  1.00000000E+00  3.34946043E-02  2.34726953E-01  8.13757326E-01
  1.00000000E+00  3.34946043E-02  2.34726953E-01  8.13757326E-01  1.00000000E+00
  3.34946043E-02  2.34726953E-01  8.13757326E-01  1.00000000E+00  3.34946043E-02
  2.34726953E-01  8.13757326E-01  1.00000000E+00  3.34946043E-02  2.34726953E-01
  8.13757326E-01  1.00000000E+00  3.34946043E-02  2.34726953E-01  8.13757326E-01
  1.00000000E+00  3.34946043E-02  2.34726953E-01  8.13757326E-01  1.00000000E+00
  3.34946043E-02  2.34726953E-01  8.13757326E-01  1.00000000E+00
P(S=P) Contraction coefficients            R   N=         109
  0.00000000E+00  0.00000000E+00  0.00000000E+00  0.00000000E+00  0.00000000E+00
  0.00000000E+00  6.75797439E-02  3.23907296E-01  7.40895140E-01  1.00000000E+00
  0.00000000E+00  0.00000000E+00  0.00000000E+00  0.00000000E+00  0.00000000E+00
  0.00000000E+00  0.00000000E+00  6.89990666E-02  3.16423961E-01  7.44308291E-01
  1.00000000E+00  0.00000000E+00  0.00000000E+00  0.00000000E+00  0.00000000E+00
  0.00000000E+00  0.00000000E+00  0.00000000E+00  6.89990666E-02  3.16423961E-01
  7.44308291E-01  1.00000000E+00  0.00000000E+00  0.00000000E+00  0.00000000E+00
  0.00000000E+00  0.00000000E+00  0.00000000E+00  0.00000000E+00  6.89990666E-02
  3.16423961E-01  7.44308291E-01  1.00000000E+00  0.00000000E+00  0.00000000E+00
  0.00000000E+00  0.00000000E+00  0.00000000E+00  0.00000000E+00  0.00000000E+00
  6.89990666E-02  3.16423961E-01  7.44308291E-01  1.00000000E+00  0.00000000E+00
  0.00000000E+00  0.00000000E+00  0.00000000E+00  0.00000000E+00  0.00000000E+00
  0.00000000E+00  6.89990666E-02  3.16423961E-01  7.44308291E-01  1.00000000E+00
  0.00000000E+00  0.00000000E+00  0.00000000E+00  0.00000000E+00  0.00000000E+00
  0.00000000E+00  0.00000000E+00  6.89990666E-02  3.16423961E-01  7.44308291E-01
  1.00000000E+00  0.00000000E+00  0.00000000E+00  0.00000000E+00  0.00000000E+00
  0.00000000E+00  0.00000000E+00  0.00000000E+00  0.00000000E+00  0.00000000E+00
  0.00000000E+00  0.00000000E+00  0.00000000E+00  0.00000000E+00  0.00000000E+00
  0.00000000E+00  0.00000000E+00  0.00000000E+00  0.00000000E+00  0.00000000E+00
  0.00000000E+00  0.00000000E+00  0.00000000E+00  0.00000000E+00  0.00000000E+00
  0.00000000E+00  0.00000000E+00  0.00000000E+00  0.00000000E+00  0.00000000E+00
  0.00000000E+00  0.00000000E+00  0.00000000E+00  0.00000000E+00
Coordinates of each shell                  R   N=         132
 -4.39488177E+00  2.40051644E-04  1.35410540E-02 -4.39488177E+00  2.40051644E-04
  1.35410540E-02 -4.39488177E+00  2.40051644E-04  1.35410540E-02 -4.39488177E+00
  2.40051644E-04  1.35410540E-02 -1.56137782E+00  9.19222598E-04 -1.81662431E-02
 -1.56137782E+00  9.19222598E-04 -1.81662431E-02 -1.56137782E+00  9.19222598E-04
 -1.81662431E-02 -1.56137782E+00  9.19222598E-04 -1.81662431E-02 -3.17231802E-01
  2.31303125E+00 -9.22875466E-03 -3.17231802E-01  2.31303125E+00 -9.22875466E-03
 -3.17231802E-01  2.31303125E+00 -9.22875466E-03 -3.17231802E-01  2.31303125E+00
 -9.22875466E-03  2.32134226E+00  2.29133787E+00  2.79093054E-03  2.32134226E+00
  2.29133787E+00  2.79093054E-03  2.32134226E+00  2.29133787E+00  2.79093054E-03
  2.32134226E+00  2.29133787E+00  2.79093054E-03  3.62914928E+00 -5.96942328E-04
  1.02278717E-02  3.62914928E+00 -5.96942328E-04  1.02278717E-02  3.62914928E+00
 -5.96942328E-04  1.02278717E-02  3.62914928E+00 -5.96942328E-04  1.02278717E-02
  2.31855247E+00 -2.29252436E+00  2.88897448E-03  2.31855247E+00 -2.29252436E+00
  2.88897448E-03  2.31855247E+00 -2.29252436E+00  2.88897448E-03  2.31855247E+00
 -2.29252436E+00  2.88897448E-03 -3.18857667E-01 -2.31351725E+00 -9.30370042E-03
 -3.18857667E-01 -2.31351725E+00 -9.30370042E-03 -3.18857667E-01 -2.31351725E+00
 -9.30370042E-03 -3.18857667E-01 -2.31351725E+00 -9.30370042E-03 -5.11908253E+00
 -1.44267972E+00 -1.06792054E+00 -5.11908253E+00 -1.44267972E+00 -1.06792054E+00
 -5.10980028E+00 -2.09840930E-01  1.81149283E+00 -5.10980028E+00 -2.09840930E-01
  1.81149283E+00 -1.34469630E+00  4.09240271E+00 -1.52791714E-02 -1.34469630E+00
  4.09240271E+00 -1.52791714E-02  3.34310413E+00  4.06889449E+00  3.11573613E-04
  3.34310413E+00  4.06889449E+00  3.11573613E-04  5.67996251E+00 -1.79807852E-03
  1.51970246E-02  5.67996251E+00 -1.79807852E-03  1.51970246E-02  3.33981383E+00
 -4.07041310E+00  5.60811369E-04  3.33981383E+00 -4.07041310E+00  5.60811369E-04
 -1.34803517E+00 -4.09164297E+00 -1.57176622E-02 -1.34803517E+00 -4.09164297E+00
 -1.57176622E-02 -5.10655417E+00  1.66149848E+00 -6.98686710E-01 -5.10655417E+00
  1.66149848E+00 -6.98686710E-01
Num ILSW                                   I              100
ILSW                                       I   N=         100
           0           1           0           0           2           0
           0           0           0           0         402          -1
           5           0           0           0           2           0
           0           0           0           0           1           0
           1           0           0           0           0           0
           0           0      100000           0          -1           0
           0           0           0           0           0           0
           0           0           0           1           0           0
           0 -2000000000           1           0           0           0
           0           0           4          52           0           0
           0           0           5           0           0           0
           0           0           0          15           0           1
           0           0           0           0           0           0
           0           0           0           0           0           0
           0           0           0           0           0           0
           0           0           0           0           0           0
           0           0           0           0
Num RLSW                                   I               52
RLSW                                       R   N=          52
  8.00000000E-01  7.20000000E-01  1.00000000E+00  8.10000000E-01  2.00000000E-01
  0.00000000E+00  0.00000000E+00  1.00000000E+00  0.00000000E+00  0.00000000E+00
  0.00000000E+00  0.00000000E+00  1.00000000E+00  0.00000000E+00  0.00000000E+00
  0.00000000E+00  0.00000000E+00  1.00000000E+00  0.00000000E+00  0.00000000E+00
  0.00000000E+00  0.00000000E+00  1.00000000E+00  0.00000000E+00  0.00000000E+00
  0.00000000E+00  0.00000000E+00  1.00000000E+00  0.00000000E+00  0.00000000E+00
  0.00000000E+00  0.00000000E+00  1.00000000E+00  0.00000000E+00  0.00000000E+00
  0.00000000E+00  0.00000000E+00  0.00000000E+00  1.00000000E+00  1.00000000E+00
  0.00000000E+00  1.00000000E+00  0.00000000E+00  0.00000000E+00  0.00000000E+00
  0.00000000E+00  0.00000000E+00  0.00000000E+00  0.00000000E+00  0.00000000E+00
  0.00000000E+00  0.00000000E+00
MxBond                                     I                4
NBond                                      I   N=          15
           4           3           3           3           3           3
           3           1           1           1           1           1
           1           1           1
IBond                                      I   N=          60
           2           8           9          15           1           3
           7           0           2           4          10           0
           3           5          11           0           4           6
          12           0           5           7          13           0
           2           6          14           0           1           0
           0           0           1           0           0           0
           3           0           0           0           4           0
           0           0           5           0           0           0
           6           0           0           0           7           0
           0           0           1           0           0           0
RBond                                      R   N=          60
  1.00000000E+00  1.00000000E+00  1.00000000E+00  1.00000000E+00  1.00000000E+00
  2.00000000E+00  1.00000000E+00  0.00000000E+00  2.00000000E+00  1.00000000E+00
  1.00000000E+00  0.00000000E+00  1.00000000E+00  2.00000000E+00  1.00000000E+00
  0.00000000E+00  2.00000000E+00  1.00000000E+00  1.00000000E+00  0.00000000E+00
  1.00000000E+00  2.00000000E+00  1.00000000E+00  0.00000000E+00  1.00000000E+00
  2.00000000E+00  1.00000000E+00  0.00000000E+00  1.00000000E+00  0.00000000E+00
  0.00000000E+00  0.00000000E+00  1.00000000E+00  0.00000000E+00  0.00000000E+00