 Entering Gaussian System, Link 0=/apps/cent7/gaussian/g16-A.03/g16-haswell/g16/g16
 Initial command:
 /apps/cent7/gaussian/g16-A.03/g16-haswell/g16/l1.exe "/scratch/brown/finej/gaussian/Gau-193152.inp" -scrdir="/scratch/brown/finej/gaussian/"
 Entering Link 1 = /apps/cent7/gaussian/g16-A.03/g16-haswell/g16/l1.exe PID=    193153.
  
 Copyright (c) 1988,1990,1992,1993,1995,1998,2003,2009,2016,
            Gaussian, Inc.  All Rights Reserved.
  
 This is part of the Gaussian(R) 16 program.  It is based on
 the Gaussian(R) 09 system (copyright 2009, Gaussian, Inc.),
 the Gaussian(R) 03 system (copyright 2003, Gaussian, Inc.),
 the Gaussian(R) 98 system (copyright 1998, Gaussian, Inc.),
 the Gaussian(R) 94 system (copyright 1995, Gaussian, Inc.),
 the Gaussian 92(TM) system (copyright 1992, Gaussian, Inc.),
 the Gaussian 90(TM) system (copyright 1990, Gaussian, Inc.),
 the Gaussian 88(TM) system (copyright 1988, Gaussian, Inc.),
 the Gaussian 86(TM) system (copyright 1986, Carnegie Mellon
 University), and the Gaussian 82(TM) system (copyright 1983,
 Carnegie Mellon University). Gaussian is a federally registered
 trademark of Gaussian, Inc.
  
 This software contains proprietary and confidential information,
 including trade secrets, belonging to Gaussian, Inc.
  
 This software is provided under written license and may be
 used, copied, transmitted, or stored only in accord with that
 written license.
  
 The following legend is applicable only to US Government
 contracts under FAR:
  
                    RESTRICTED RIGHTS LEGEND
  
 Use, reproduction and disclosure by the US Government is
 subject to restrictions as set forth in subparagraphs (a)
 and (c) of the Commercial Computer Software - Restricted
 Rights clause in FAR 52.227-19.
  
 Gaussian, Inc.
 340 Quinnipiac St., Bldg. 40, Wallingford CT 06492
  
  
 ---------------------------------------------------------------
 Warning -- This program may not be used in any manner that
 competes with the business of Gaussian, Inc. or will provide
 assistance to any competitor of Gaussian, Inc.  The licensee
 of this program is prohibited from giving any competitor of
 Gaussian, Inc. access to this program.  By using this program,
 the user acknowledges that Gaussian, Inc. is engaged in the
 business of creating and licensing software in the field of
 computational chemistry and represents and warrants to the
 licensee that it is not a competitor of Gaussian, Inc. and that
 it will not use this program in any manner prohibited above.
 ---------------------------------------------------------------
  

 Cite this work as:
 Gaussian 16, Revision A.03,
 M. J. Frisch, G. W. Trucks, H. B. Schlegel, G. E. Scuseria, 
 M. A. Robb, J. R. Cheeseman, G. Scalmani, V. Barone, 
 G. A. Petersson, H. Nakatsuji, X. Li, M. Caricato, A. V. Marenich, 
 J. Bloino, B. G. Janesko, R. Gomperts, B. Mennucci, H. P. Hratchian, 
 J. V. Ortiz, A. F. Izmaylov, J. L. Sonnenberg, D. Williams-Young, 
 F. Ding, F. Lipparini, F. Egidi, J. Goings, B. Peng, A. Petrone, 
 T. Henderson, D. Ranasinghe, V. G. Zakrzewski, J. Gao, N. Rega, 
 G. Zheng, W. Liang, M. Hada, M. Ehara, K. Toyota, R. Fukuda, 
 J. Hasegawa, M. Ishida, T. Nakajima, Y. Honda, O. Kitao, H. Nakai, 
 T. Vreven, K. Throssell, J. A. Montgomery, Jr., J. E. Peralta, 
 F. Ogliaro, M. J. Bearpark, J. J. Heyd, E. N. Brothers, K. N. Kudin, 
 V. N. Staroverov, T. A. Keith, R. Kobayashi, J. Normand, 
 K. Raghavachari, A. P. Rendell, J. C. Burant, S. S. Iyengar, 
 J. Tomasi, M. Cossi, J. M. Millam, M. Klene, C. Adamo, R. Cammi, 
 J. W. Ochterski, R. L. Martin, K. Morokuma, O. Farkas, 
 J. B. Foresman, and D. J. Fox, Gaussian, Inc., Wallingford CT, 2016.
 
 ******************************************
 Gaussian 16:  ES64L-G16RevA.03 25-Dec-2016
                14-Oct-2019 
 ******************************************
 %chk=1_p.chk
 %nprocshared=24
 Will use up to   24 processors via shared memory.
 %mem=80GB
 --------------------------------------------------------------
 #P opt freq b3lyp/6-31g(d) geom=connectivity temperature=0.001
 --------------------------------------------------------------
 1/18=20,19=15,26=3,38=1,57=2,112=-1000/1,3;
 2/9=110,12=2,17=6,18=5,40=1/2;
 3/5=1,6=6,7=1,11=2,25=1,30=1,71=1,74=-5/1,2,3;
 4//1;
 5/5=2,38=5/2;
 6/7=2,8=2,9=2,10=2,28=1/1;
 7//1,2,3,16;
 1/18=20,19=15,26=3/3(2);
 2/9=110/2;
 99//99;
 2/9=110/2;
 3/5=1,6=6,7=1,11=2,25=1,30=1,71=1,74=-5/1,2,3;
 4/5=5,16=3,69=1/1;
 5/5=2,38=5/2;
 7//1,2,3,16;
 1/18=20,19=15,26=3/3(-5);
 2/9=110/2;
 6/7=2,8=2,9=2,10=2,19=2,28=1/1;
 99/9=1/99;
 Leave Link    1 at Mon Oct 14 01:01:50 2019, MaxMem= 10737418240 cpu:               1.1 elap:               0.0
 (Enter /apps/cent7/gaussian/g16-A.03/g16-haswell/g16/l101.exe)
 -------------------
 Title Card Required
 -------------------
 Symbolic Z-matrix:
 Charge =  1 Multiplicity = 1
 C                     2.3617   -2.8939   -2.3784 
 C                     1.9997   -2.1258   -1.0882 
 N                     2.1434   -0.6498   -1.2274 
 O                     1.277    -0.1964   -2.179 
 C                     1.9127    0.075     0.0556 
 C                     2.1843    1.5911   -0.0453 
 H                     2.3088   -3.9661   -2.1898 
 H                     1.6591   -2.6288   -3.1683 
 H                     3.3728   -2.6288   -2.6874 
 H                     0.9379   -2.2961   -0.9102 
 H                     2.7321   -2.4165   -0.335 
 H                     0.5145    0.2026   -1.7535 
 H                     0.8486   -0.038     0.263 
 H                     2.6492   -0.3281    0.7507 
 H                     2.2601    2.0141    0.9564 
 H                     3.1183    1.758    -0.5818 
 H                     1.3663    2.0718   -0.5818 
 H                     3.07508  -0.45412  -1.53346 
 
 ITRead=  0  0  0  0  0  0  0  0  0  0  0  0  0  0  0  0  0  0
 MicOpt= -1 -1 -1 -1 -1 -1 -1 -1 -1 -1 -1 -1 -1 -1 -1 -1 -1 -1
 NAtoms=     18 NQM=       18 NQMF=       0 NMMI=      0 NMMIF=      0
                NMic=       0 NMicF=      0.
                    Isotopes and Nuclear Properties:
 (Nuclear quadrupole moments (NQMom) in fm**2, nuclear magnetic moments (NMagM)
  in nuclear magnetons)

  Atom         1           2           3           4           5           6           7           8           9          10
 IAtWgt=          12          12          14          16          12          12           1           1           1           1
 AtmWgt=  12.0000000  12.0000000  14.0030740  15.9949146  12.0000000  12.0000000   1.0078250   1.0078250   1.0078250   1.0078250
 NucSpn=           0           0           2           0           0           0           1           1           1           1
 AtZEff=  -0.0000000  -0.0000000  -0.0000000  -0.0000000  -0.0000000  -0.0000000  -0.0000000  -0.0000000  -0.0000000  -0.0000000
 NQMom=    0.0000000   0.0000000   2.0440000   0.0000000   0.0000000   0.0000000   0.0000000   0.0000000   0.0000000   0.0000000
 NMagM=    0.0000000   0.0000000   0.4037610   0.0000000   0.0000000   0.0000000   2.7928460   2.7928460   2.7928460   2.7928460
 AtZNuc=   6.0000000   6.0000000   7.0000000   8.0000000   6.0000000   6.0000000   1.0000000   1.0000000   1.0000000   1.0000000

  Atom        11          12          13          14          15          16          17          18
 IAtWgt=           1           1           1           1           1           1           1           1
 AtmWgt=   1.0078250   1.0078250   1.0078250   1.0078250   1.0078250   1.0078250   1.0078250   1.0078250
 NucSpn=           1           1           1           1           1           1           1           1
 AtZEff=  -0.0000000  -0.0000000  -0.0000000  -0.0000000  -0.0000000  -0.0000000  -0.0000000  -0.0000000
 NQMom=    0.0000000   0.0000000   0.0000000   0.0000000   0.0000000   0.0000000   0.0000000   0.0000000
 NMagM=    2.7928460   2.7928460   2.7928460   2.7928460   2.7928460   2.7928460   2.7928460   2.7928460
 AtZNuc=   1.0000000   1.0000000   1.0000000   1.0000000   1.0000000   1.0000000   1.0000000   1.0000000
 Leave Link  101 at Mon Oct 14 01:01:51 2019, MaxMem= 10737418240 cpu:               8.2 elap:               0.4
 (Enter /apps/cent7/gaussian/g16-A.03/g16-haswell/g16/l103.exe)

 GradGradGradGradGradGradGradGradGradGradGradGradGradGradGradGradGradGrad
 Berny optimization.
 Initialization pass.
                           ----------------------------
                           !    Initial Parameters    !
                           ! (Angstroms and Degrees)  !
 --------------------------                            --------------------------
 ! Name  Definition              Value          Derivative Info.                !
 --------------------------------------------------------------------------------
 ! R1    R(1,2)                  1.5446         estimate D2E/DX2                !
 ! R2    R(1,7)                  1.0899         estimate D2E/DX2                !
 ! R3    R(1,8)                  1.0899         estimate D2E/DX2                !
 ! R4    R(1,9)                  1.09           estimate D2E/DX2                !
 ! R5    R(2,3)                  1.4895         estimate D2E/DX2                !
 ! R6    R(2,10)                 1.09           estimate D2E/DX2                !
 ! R7    R(2,11)                 1.0901         estimate D2E/DX2                !
 ! R8    R(3,4)                  1.3645         estimate D2E/DX2                !
 ! R9    R(3,5)                  1.4915         estimate D2E/DX2                !
 ! R10   R(3,18)                 1.0            estimate D2E/DX2                !
 ! R11   R(4,12)                 0.96           estimate D2E/DX2                !
 ! R12   R(5,6)                  1.5435         estimate D2E/DX2                !
 ! R13   R(5,13)                 1.09           estimate D2E/DX2                !
 ! R14   R(5,14)                 1.09           estimate D2E/DX2                !
 ! R15   R(6,15)                 1.09           estimate D2E/DX2                !
 ! R16   R(6,16)                 1.09           estimate D2E/DX2                !
 ! R17   R(6,17)                 1.09           estimate D2E/DX2                !
 ! A1    A(2,1,7)              109.4682         estimate D2E/DX2                !
 ! A2    A(2,1,8)              109.4724         estimate D2E/DX2                !
 ! A3    A(2,1,9)              109.467          estimate D2E/DX2                !
 ! A4    A(7,1,8)              109.475          estimate D2E/DX2                !
 ! A5    A(7,1,9)              109.4709         estimate D2E/DX2                !
 ! A6    A(8,1,9)              109.4738         estimate D2E/DX2                !
 ! A7    A(1,2,3)              113.0861         estimate D2E/DX2                !
 ! A8    A(1,2,10)             106.6797         estimate D2E/DX2                !
 ! A9    A(1,2,11)             106.684          estimate D2E/DX2                !
 ! A10   A(3,2,10)             105.3113         estimate D2E/DX2                !
 ! A11   A(3,2,11)             105.3087         estimate D2E/DX2                !
 ! A12   A(10,2,11)            120.0002         estimate D2E/DX2                !
 ! A13   A(2,3,4)              109.463          estimate D2E/DX2                !
 ! A14   A(2,3,5)              112.7202         estimate D2E/DX2                !
 ! A15   A(2,3,18)             108.2036         estimate D2E/DX2                !
 ! A16   A(4,3,5)              109.8905         estimate D2E/DX2                !
 ! A17   A(4,3,18)             108.2472         estimate D2E/DX2                !
 ! A18   A(5,3,18)             108.1974         estimate D2E/DX2                !
 ! A19   A(3,4,12)             109.4707         estimate D2E/DX2                !
 ! A20   A(3,5,6)              113.195          estimate D2E/DX2                !
 ! A21   A(3,5,13)             105.3251         estimate D2E/DX2                !
 ! A22   A(3,5,14)             105.3272         estimate D2E/DX2                !
 ! A23   A(6,5,13)             106.6213         estimate D2E/DX2                !
 ! A24   A(6,5,14)             106.6209         estimate D2E/DX2                !
 ! A25   A(13,5,14)            119.9973         estimate D2E/DX2                !
 ! A26   A(5,6,15)             109.4717         estimate D2E/DX2                !
 ! A27   A(5,6,16)             109.4726         estimate D2E/DX2                !
 ! A28   A(5,6,17)             109.4695         estimate D2E/DX2                !
 ! A29   A(15,6,16)            109.471          estimate D2E/DX2                !
 ! A30   A(15,6,17)            109.4744         estimate D2E/DX2                !
 ! A31   A(16,6,17)            109.4681         estimate D2E/DX2                !
 ! D1    D(7,1,2,3)            175.7823         estimate D2E/DX2                !
 ! D2    D(7,1,2,10)           -68.9165         estimate D2E/DX2                !
 ! D3    D(7,1,2,11)            60.4816         estimate D2E/DX2                !
 ! D4    D(8,1,2,3)            -64.2143         estimate D2E/DX2                !
 ! D5    D(8,1,2,10)            51.0869         estimate D2E/DX2                !
 ! D6    D(8,1,2,11)          -179.5149         estimate D2E/DX2                !
 ! D7    D(9,1,2,3)             55.7871         estimate D2E/DX2                !
 ! D8    D(9,1,2,10)           171.0882         estimate D2E/DX2                !
 ! D9    D(9,1,2,11)           -59.5136         estimate D2E/DX2                !
 ! D10   D(1,2,3,4)             62.6001         estimate D2E/DX2                !
 ! D11   D(1,2,3,5)           -174.7725         estimate D2E/DX2                !
 ! D12   D(1,2,3,18)           -55.1621         estimate D2E/DX2                !
 ! D13   D(10,2,3,4)           -53.5159         estimate D2E/DX2                !
 ! D14   D(10,2,3,5)            69.1115         estimate D2E/DX2                !
 ! D15   D(10,2,3,18)         -171.2781         estimate D2E/DX2                !
 ! D16   D(11,2,3,4)           178.7196         estimate D2E/DX2                !
 ! D17   D(11,2,3,5)           -58.653          estimate D2E/DX2                !
 ! D18   D(11,2,3,18)           60.9574         estimate D2E/DX2                !
 ! D19   D(2,3,4,12)           101.8628         estimate D2E/DX2                !
 ! D20   D(5,3,4,12)           -22.4345         estimate D2E/DX2                !
 ! D21   D(18,3,4,12)         -140.4022         estimate D2E/DX2                !
 ! D22   D(2,3,5,6)            174.7499         estimate D2E/DX2                !
 ! D23   D(2,3,5,13)           -69.14           estimate D2E/DX2                !
 ! D24   D(2,3,5,14)            58.6391         estimate D2E/DX2                !
 ! D25   D(4,3,5,6)            -62.8626         estimate D2E/DX2                !
 ! D26   D(4,3,5,13)            53.2474         estimate D2E/DX2                !
 ! D27   D(4,3,5,14)          -178.9735         estimate D2E/DX2                !
 ! D28   D(18,3,5,6)            55.136          estimate D2E/DX2                !
 ! D29   D(18,3,5,13)          171.2461         estimate D2E/DX2                !
 ! D30   D(18,3,5,14)          -60.9749         estimate D2E/DX2                !
 ! D31   D(3,5,6,15)          -164.9961         estimate D2E/DX2                !
 ! D32   D(3,5,6,16)           -44.9952         estimate D2E/DX2                !
 ! D33   D(3,5,6,17)            75.0008         estimate D2E/DX2                !
 ! D34   D(13,5,6,15)           79.6639         estimate D2E/DX2                !
 ! D35   D(13,5,6,16)         -160.3352         estimate D2E/DX2                !
 ! D36   D(13,5,6,17)          -40.3392         estimate D2E/DX2                !
 ! D37   D(14,5,6,15)          -49.6538         estimate D2E/DX2                !
 ! D38   D(14,5,6,16)           70.3471         estimate D2E/DX2                !
 ! D39   D(14,5,6,17)         -169.657          estimate D2E/DX2                !
 --------------------------------------------------------------------------------
 Trust Radius=3.00D-01 FncErr=1.00D-07 GrdErr=1.00D-06 EigMax=2.50D+02 EigMin=1.00D-04
 Number of steps in this run=     97 maximum allowed number of steps=    108.
 GradGradGradGradGradGradGradGradGradGradGradGradGradGradGradGradGradGrad

 Leave Link  103 at Mon Oct 14 01:01:51 2019, MaxMem= 10737418240 cpu:               0.3 elap:               0.0
 (Enter /apps/cent7/gaussian/g16-A.03/g16-haswell/g16/l202.exe)
                          Input orientation:                          
 ---------------------------------------------------------------------
 Center     Atomic      Atomic             Coordinates (Angstroms)
 Number     Number       Type             X           Y           Z
 ---------------------------------------------------------------------
      1          6           0        2.361700   -2.893900   -2.378400
      2          6           0        1.999700   -2.125800   -1.088200
      3          7           0        2.143400   -0.649800   -1.227400
      4          8           0        1.277000   -0.196400   -2.179000
      5          6           0        1.912700    0.075000    0.055600
      6          6           0        2.184300    1.591100   -0.045300
      7          1           0        2.308800   -3.966100   -2.189800
      8          1           0        1.659100   -2.628800   -3.168300
      9          1           0        3.372800   -2.628800   -2.687400
     10          1           0        0.937900   -2.296100   -0.910200
     11          1           0        2.732100   -2.416500   -0.335000
     12          1           0        0.514500    0.202600   -1.753500
     13          1           0        0.848600   -0.038000    0.263000
     14          1           0        2.649200   -0.328100    0.750700
     15          1           0        2.260100    2.014100    0.956400
     16          1           0        3.118300    1.758000   -0.581800
     17          1           0        1.366300    2.071800   -0.581800
     18          1           0        3.075083   -0.454120   -1.533465
 ---------------------------------------------------------------------
                    Distance matrix (angstroms):
                    1          2          3          4          5
     1  C    0.000000
     2  C    1.544551   0.000000
     3  N    2.531490   1.489497   0.000000
     4  O    2.914248   2.331250   1.364464   0.000000
     5  C    3.865272   2.481807   1.491525   2.339062   0.000000
     6  C    5.058661   3.864850   2.533903   2.927631   1.543537
     7  H    1.089946   2.166972   3.457082   3.908371   4.639957
     8  H    1.089893   2.166987   2.813908   2.653542   4.215255
     9  H    1.089992   2.166992   2.749448   3.250757   4.119038
    10  H    2.130770   1.090002   2.064982   2.476607   2.739547
    11  H    2.130866   1.090058   2.064988   3.232104   2.651708
    12  H    3.659366   2.840755   1.912245   0.960030   2.289997
    13  H    4.174042   2.740380   2.066906   2.484347   1.089997
    14  H    4.056754   2.652382   2.066931   3.237811   1.089994
    15  H    5.934617   4.624605   3.446587   3.960244   2.166157
    16  H    5.043847   4.073280   2.676701   3.124278   2.166158
    17  H    5.373711   4.275217   2.903066   2.775564   2.166112
    18  H    2.678686   2.036964   1.000000   1.927755   2.038683
                    6          7          8          9         10
     6  C    0.000000
     7  H    5.957923   0.000000
     8  H    5.276033   1.779872   0.000000
     9  H    5.118670   1.779908   1.779897   0.000000
    10  H    4.172756   2.511104   2.393707   3.032799   0.000000
    11  H    4.055227   2.453717   3.037102   2.447316   1.887990
    12  H    2.762990   4.559378   3.365798   4.130239   2.670941
    13  H    2.129110   4.855758   4.375269   4.667836   2.546250
    14  H    2.129102   4.690145   4.651030   4.199684   3.091951
    15  H    1.089990   6.757495   6.239461   6.005989   4.879573
    16  H    1.089974   6.000523   5.297477   4.872611   4.614945
    17  H    1.089967   6.319035   5.373207   5.527679   4.401128
    18  H    2.681614   3.654035   3.067071   2.479805   2.889447
                   11         12         13         14         15
    11  H    0.000000
    12  H    3.713432   0.000000
    13  H    3.092319   2.058102   0.000000
    14  H    2.355214   3.333107   1.887901   0.000000
    15  H    4.639042   3.697595   2.585392   2.383194   0.000000
    16  H    4.199585   3.251450   3.015102   2.519410   1.779931
    17  H    4.697995   2.364816   2.330870   3.030001   1.779963
    18  H    2.324842   2.652599   2.890963   2.326944   3.599408
                   16         17         18
    16  H    0.000000
    17  H    1.779880   0.000000
    18  H    2.408528   3.194664   0.000000
 Stoichiometry    C4H12NO(1+)
 Framework group  C1[X(C4H12NO)]
 Deg. of freedom    48
 Full point group                 C1      NOp   1
 Largest Abelian subgroup         C1      NOp   1
 Largest concise Abelian subgroup C1      NOp   1
                         Standard orientation:                         
 ---------------------------------------------------------------------
 Center     Atomic      Atomic             Coordinates (Angstroms)
 Number     Number       Type             X           Y           Z
 ---------------------------------------------------------------------
      1          6           0        2.540641   -0.042099    0.289854
      2          6           0        1.253279   -0.635222   -0.323777
      3          7           0        0.011748    0.009587    0.187521
      4          8           0        0.008742    1.329179   -0.159511
      5          6           0       -1.228467   -0.649867   -0.314110
      6          6           0       -2.517887   -0.073659    0.308695
      7          1           0        3.404612   -0.603350   -0.065861
      8          1           0        2.637653    1.001764   -0.008151
      9          1           0        2.488022   -0.106340    1.376678
     10          1           0        1.279533   -0.404996   -1.388865
     11          1           0        1.197018   -1.671863    0.008541
     12          1           0       -0.571636    1.460620   -0.912865
     13          1           0       -1.266655   -0.419698   -1.378843
     14          1           0       -1.158138   -1.685875    0.017290
     15          1           0       -3.348752   -0.752690    0.117232
     16          1           0       -2.382370    0.040483    1.384172
     17          1           0       -2.733045    0.898159   -0.135497
     18          1           0        0.016191   -0.051680    1.185633
 ---------------------------------------------------------------------
 Rotational constants (GHZ):           7.8187808           1.9300419           1.7100732
 Leave Link  202 at Mon Oct 14 01:01:51 2019, MaxMem= 10737418240 cpu:               0.4 elap:               0.0
 (Enter /apps/cent7/gaussian/g16-A.03/g16-haswell/g16/l301.exe)
 Standard basis: 6-31G(d) (6D, 7F)
 Ernie: Thresh=  0.10000D-02 Tol=  0.10000D-05 Strict=F.
 There are   114 symmetry adapted cartesian basis functions of A   symmetry.
 There are   114 symmetry adapted basis functions of A   symmetry.
   114 basis functions,   216 primitive gaussians,   114 cartesian basis functions
    25 alpha electrons       25 beta electrons
       nuclear repulsion energy       276.2169145627 Hartrees.
 IExCor=  402 DFT=T Ex+Corr=B3LYP ExCW=0 ScaHFX=  0.200000
 ScaDFX=  0.800000  0.720000  1.000000  0.810000 ScalE2=  1.000000  1.000000
 IRadAn=      5 IRanWt=     -1 IRanGd=            0 ICorTp=0 IEmpDi=  4
 NAtoms=   18 NActive=   18 NUniq=   18 SFac= 1.00D+00 NAtFMM=   60 NAOKFM=F Big=F
 Integral buffers will be    131072 words long.
 Raffenetti 2 integral format.
 Two-electron integral symmetry is turned on.
 Leave Link  301 at Mon Oct 14 01:01:51 2019, MaxMem= 10737418240 cpu:               2.0 elap:               0.1
 (Enter /apps/cent7/gaussian/g16-A.03/g16-haswell/g16/l302.exe)
 NPDir=0 NMtPBC=     1 NCelOv=     1 NCel=       1 NClECP=     1 NCelD=      1
         NCelK=      1 NCelE2=     1 NClLst=     1 CellRange=     0.0.
 One-electron integrals computed using PRISM.
 One-electron integral symmetry used in STVInt
 NBasis=   114 RedAO= T EigKep=  4.13D-03  NBF=   114
 NBsUse=   114 1.00D-06 EigRej= -1.00D+00 NBFU=   114
 Precomputing XC quadrature grid using
 IXCGrd= 4 IRadAn=           5 IRanWt=          -1 IRanGd=           0 AccXCQ= 0.00D+00.
 Generated NRdTot=       0 NPtTot=           0 NUsed=           0 NTot=          32
 NSgBfM=   114   114   114   114   114 MxSgAt=    18 MxSgA2=    18.
 Leave Link  302 at Mon Oct 14 01:01:51 2019, MaxMem= 10737418240 cpu:               3.7 elap:               0.2
 (Enter /apps/cent7/gaussian/g16-A.03/g16-haswell/g16/l303.exe)
 DipDrv:  MaxL=1.
 Leave Link  303 at Mon Oct 14 01:01:51 2019, MaxMem= 10737418240 cpu:               1.0 elap:               0.1
 (Enter /apps/cent7/gaussian/g16-A.03/g16-haswell/g16/l401.exe)
 ExpMin= 1.61D-01 ExpMax= 5.48D+03 ExpMxC= 8.25D+02 IAcc=3 IRadAn=         5 AccDes= 0.00D+00
 Harris functional with IExCor=  402 and IRadAn=       5 diagonalized for initial guess.
 HarFok:  IExCor=  402 AccDes= 0.00D+00 IRadAn=         5 IDoV= 1 UseB2=F ITyADJ=14
 ICtDFT=  3500011 ScaDFX=  1.000000  1.000000  1.000000  1.000000
 FoFCou: FMM=F IPFlag=           0 FMFlag=      100000 FMFlg1=           0
         NFxFlg=           0 DoJE=T BraDBF=F KetDBF=T FulRan=T
         wScrn=  0.000000 ICntrl=       500 IOpCl=  0 I1Cent=   200000004 NGrid=           0
         NMat0=    1 NMatS0=      1 NMatT0=    0 NMatD0=    1 NMtDS0=    0 NMtDT0=    0
 Petite list used in FoFCou.
 Harris En= -289.389621788238    
 JPrj=0 DoOrth=F DoCkMO=F.
 Leave Link  401 at Mon Oct 14 01:01:52 2019, MaxMem= 10737418240 cpu:               6.9 elap:               0.3
 (Enter /apps/cent7/gaussian/g16-A.03/g16-haswell/g16/l502.exe)
 Integral symmetry usage will be decided dynamically.
 Closed shell SCF:
 Using DIIS extrapolation, IDIIS=  1040.
 NGot= 10737418240 LenX= 10737387936 LenY= 10737374499
 Requested convergence on RMS density matrix=1.00D-08 within 128 cycles.
 Requested convergence on MAX density matrix=1.00D-06.
 Requested convergence on             energy=1.00D-06.
 No special actions if energy rises.
 Fock matrices will be formed incrementally for  20 cycles.
 Integral accuracy reduced to 1.0D-05 until final iterations.

 Cycle   1  Pass 0  IDiag  1:
 FoFJK:  IHMeth= 1 ICntrl=       0 DoSepK=F KAlg= 0 I1Cent=           0 FoldK=F
 IRaf= 980000000 NMat=       1 IRICut=       1 DoRegI=T DoRafI=F ISym2E= 0 IDoP0=0 IntGTp=1.
 FoFCou: FMM=F IPFlag=           0 FMFlag=      100000 FMFlg1=           0
         NFxFlg=           0 DoJE=F BraDBF=F KetDBF=F FulRan=T
         wScrn=  0.000000 ICntrl=         0 IOpCl=  0 I1Cent=           0 NGrid=           0
         NMat0=    1 NMatS0=      1 NMatT0=    0 NMatD0=    1 NMtDS0=    0 NMtDT0=    0
 Symmetry not used in FoFCou.
 E= -289.115881936484    
 DIIS: error= 2.91D-02 at cycle   1 NSaved=   1.
 NSaved= 1 IEnMin= 1 EnMin= -289.115881936484     IErMin= 1 ErrMin= 2.91D-02
 ErrMax= 2.91D-02  0.00D+00 EMaxC= 1.00D-01 BMatC= 2.07D-01 BMatP= 2.07D-01
 IDIUse=3 WtCom= 7.09D-01 WtEn= 2.91D-01
 Coeff-Com:  0.100D+01
 Coeff-En:   0.100D+01
 Coeff:      0.100D+01
 Gap=     0.356 Goal=   None    Shift=    0.000
 GapD=    0.356 DampG=1.000 DampE=0.500 DampFc=0.5000 IDamp=-1.
 Damping current iteration by 5.00D-01
 RMSDP=7.43D-03 MaxDP=1.28D-01              OVMax= 1.58D-01

 Cycle   2  Pass 0  IDiag  1:
 RMSU=  3.69D-03    CP:  9.85D-01
 E= -289.198436665972     Delta-E=       -0.082554729488 Rises=F Damp=T
 DIIS: error= 9.07D-03 at cycle   2 NSaved=   2.
 NSaved= 2 IEnMin= 2 EnMin= -289.198436665972     IErMin= 2 ErrMin= 9.07D-03
 ErrMax= 9.07D-03  0.00D+00 EMaxC= 1.00D-01 BMatC= 1.56D-02 BMatP= 2.07D-01
 IDIUse=3 WtCom= 9.09D-01 WtEn= 9.07D-02
 Coeff-Com:  0.118D+00 0.882D+00
 Coeff-En:   0.169D+00 0.831D+00
 Coeff:      0.123D+00 0.877D+00
 Gap=     0.406 Goal=   None    Shift=    0.000
 RMSDP=1.44D-03 MaxDP=4.19D-02 DE=-8.26D-02 OVMax= 8.24D-02

 Cycle   3  Pass 0  IDiag  1:
 RMSU=  1.43D-03    CP:  9.81D-01  9.89D-01
 E= -289.307169071286     Delta-E=       -0.108732405314 Rises=F Damp=F
 DIIS: error= 5.60D-03 at cycle   3 NSaved=   3.
 NSaved= 3 IEnMin= 3 EnMin= -289.307169071286     IErMin= 3 ErrMin= 5.60D-03
 ErrMax= 5.60D-03  0.00D+00 EMaxC= 1.00D-01 BMatC= 6.78D-03 BMatP= 1.56D-02
 IDIUse=3 WtCom= 9.44D-01 WtEn= 5.60D-02
 Coeff-Com:  0.157D-01 0.381D+00 0.603D+00
 Coeff-En:   0.000D+00 0.000D+00 0.100D+01
 Coeff:      0.148D-01 0.360D+00 0.626D+00
 Gap=     0.382 Goal=   None    Shift=    0.000
 RMSDP=7.62D-04 MaxDP=2.19D-02 DE=-1.09D-01 OVMax= 2.20D-02

 Cycle   4  Pass 0  IDiag  1:
 RMSU=  6.05D-04    CP:  9.85D-01  9.91D-01  6.89D-01
 E= -289.311407862026     Delta-E=       -0.004238790740 Rises=F Damp=F
 DIIS: error= 2.93D-03 at cycle   4 NSaved=   4.
 NSaved= 4 IEnMin= 4 EnMin= -289.311407862026     IErMin= 4 ErrMin= 2.93D-03
 ErrMax= 2.93D-03  0.00D+00 EMaxC= 1.00D-01 BMatC= 1.41D-03 BMatP= 6.78D-03
 IDIUse=3 WtCom= 9.71D-01 WtEn= 2.93D-02
 Coeff-Com: -0.197D-02 0.644D-01 0.330D+00 0.608D+00
 Coeff-En:   0.000D+00 0.000D+00 0.175D+00 0.825D+00
 Coeff:     -0.191D-02 0.625D-01 0.325D+00 0.614D+00
 Gap=     0.376 Goal=   None    Shift=    0.000
 RMSDP=2.81D-04 MaxDP=6.56D-03 DE=-4.24D-03 OVMax= 7.37D-03

 Cycle   5  Pass 0  IDiag  1:
 RMSU=  1.12D-04    CP:  9.84D-01  9.88D-01  7.63D-01  6.19D-01
 E= -289.312559973567     Delta-E=       -0.001152111541 Rises=F Damp=F
 DIIS: error= 3.48D-04 at cycle   5 NSaved=   5.
 NSaved= 5 IEnMin= 5 EnMin= -289.312559973567     IErMin= 5 ErrMin= 3.48D-04
 ErrMax= 3.48D-04  0.00D+00 EMaxC= 1.00D-01 BMatC= 2.93D-05 BMatP= 1.41D-03
 IDIUse=3 WtCom= 9.97D-01 WtEn= 3.48D-03
 Coeff-Com: -0.129D-02 0.450D-02 0.884D-01 0.230D+00 0.679D+00
 Coeff-En:   0.000D+00 0.000D+00 0.000D+00 0.000D+00 0.100D+01
 Coeff:     -0.129D-02 0.448D-02 0.881D-01 0.229D+00 0.680D+00
 Gap=     0.375 Goal=   None    Shift=    0.000
 RMSDP=4.42D-05 MaxDP=1.27D-03 DE=-1.15D-03 OVMax= 1.11D-03

 Cycle   6  Pass 0  IDiag  1:
 RMSU=  3.22D-05    CP:  9.84D-01  9.87D-01  7.64D-01  6.40D-01  7.56D-01
 E= -289.312580393640     Delta-E=       -0.000020420073 Rises=F Damp=F
 DIIS: error= 1.16D-04 at cycle   6 NSaved=   6.
 NSaved= 6 IEnMin= 6 EnMin= -289.312580393640     IErMin= 6 ErrMin= 1.16D-04
 ErrMax= 1.16D-04  0.00D+00 EMaxC= 1.00D-01 BMatC= 3.63D-06 BMatP= 2.93D-05
 IDIUse=3 WtCom= 9.99D-01 WtEn= 1.16D-03
 Coeff-Com: -0.576D-03-0.547D-03 0.312D-01 0.944D-01 0.367D+00 0.509D+00
 Coeff-En:   0.000D+00 0.000D+00 0.000D+00 0.000D+00 0.000D+00 0.100D+01
 Coeff:     -0.575D-03-0.546D-03 0.312D-01 0.943D-01 0.366D+00 0.509D+00
 Gap=     0.375 Goal=   None    Shift=    0.000
 RMSDP=1.55D-05 MaxDP=3.77D-04 DE=-2.04D-05 OVMax= 3.79D-04

 Cycle   7  Pass 0  IDiag  1:
 RMSU=  6.63D-06    CP:  9.84D-01  9.88D-01  7.65D-01  6.47D-01  7.70D-01
                    CP:  6.17D-01
 E= -289.312583308181     Delta-E=       -0.000002914541 Rises=F Damp=F
 DIIS: error= 1.23D-05 at cycle   7 NSaved=   7.
 NSaved= 7 IEnMin= 7 EnMin= -289.312583308181     IErMin= 7 ErrMin= 1.23D-05
 ErrMax= 1.23D-05  0.00D+00 EMaxC= 1.00D-01 BMatC= 3.47D-08 BMatP= 3.63D-06
 IDIUse=1 WtCom= 1.00D+00 WtEn= 0.00D+00
 Coeff-Com: -0.110D-03-0.366D-03 0.412D-02 0.143D-01 0.652D-01 0.132D+00
 Coeff-Com:  0.785D+00
 Coeff:     -0.110D-03-0.366D-03 0.412D-02 0.143D-01 0.652D-01 0.132D+00
 Coeff:      0.785D+00
 Gap=     0.375 Goal=   None    Shift=    0.000
 RMSDP=2.23D-06 MaxDP=2.98D-05 DE=-2.91D-06 OVMax= 4.50D-05

 Initial convergence to 1.0D-05 achieved.  Increase integral accuracy.
 Cycle   8  Pass 1  IDiag  1:
 E= -289.312566021100     Delta-E=        0.000017287082 Rises=F Damp=F
 DIIS: error= 1.06D-05 at cycle   1 NSaved=   1.
 NSaved= 1 IEnMin= 1 EnMin= -289.312566021100     IErMin= 1 ErrMin= 1.06D-05
 ErrMax= 1.06D-05  0.00D+00 EMaxC= 1.00D-01 BMatC= 1.25D-08 BMatP= 1.25D-08
 IDIUse=1 WtCom= 1.00D+00 WtEn= 0.00D+00
 Coeff-Com:  0.100D+01
 Coeff:      0.100D+01
 Gap=     0.375 Goal=   None    Shift=    0.000
 RMSDP=2.23D-06 MaxDP=2.98D-05 DE= 1.73D-05 OVMax= 3.25D-05

 Cycle   9  Pass 1  IDiag  1:
 RMSU=  2.22D-06    CP:  1.00D+00
 E= -289.312566021984     Delta-E=       -0.000000000884 Rises=F Damp=F
 DIIS: error= 4.77D-06 at cycle   2 NSaved=   2.
 NSaved= 2 IEnMin= 2 EnMin= -289.312566021984     IErMin= 2 ErrMin= 4.77D-06
 ErrMax= 4.77D-06  0.00D+00 EMaxC= 1.00D-01 BMatC= 1.02D-08 BMatP= 1.25D-08
 IDIUse=1 WtCom= 1.00D+00 WtEn= 0.00D+00
 Coeff-Com:  0.469D+00 0.531D+00
 Coeff:      0.469D+00 0.531D+00
 Gap=     0.375 Goal=   None    Shift=    0.000
 RMSDP=9.13D-07 MaxDP=1.91D-05 DE=-8.84D-10 OVMax= 1.87D-05

 Cycle  10  Pass 1  IDiag  1:
 RMSU=  6.35D-07    CP:  1.00D+00  7.05D-01
 E= -289.312566030660     Delta-E=       -0.000000008676 Rises=F Damp=F
 DIIS: error= 1.33D-06 at cycle   3 NSaved=   3.
 NSaved= 3 IEnMin= 3 EnMin= -289.312566030660     IErMin= 3 ErrMin= 1.33D-06
 ErrMax= 1.33D-06  0.00D+00 EMaxC= 1.00D-01 BMatC= 6.52D-10 BMatP= 1.02D-08
 IDIUse=1 WtCom= 1.00D+00 WtEn= 0.00D+00
 Coeff-Com:  0.255D-01 0.204D+00 0.770D+00
 Coeff:      0.255D-01 0.204D+00 0.770D+00
 Gap=     0.375 Goal=   None    Shift=    0.000
 RMSDP=1.90D-07 MaxDP=5.74D-06 DE=-8.68D-09 OVMax= 4.98D-06

 Cycle  11  Pass 1  IDiag  1:
 RMSU=  1.17D-07    CP:  1.00D+00  7.55D-01  8.40D-01
 E= -289.312566031143     Delta-E=       -0.000000000484 Rises=F Damp=F
 DIIS: error= 6.39D-07 at cycle   4 NSaved=   4.
 NSaved= 4 IEnMin= 4 EnMin= -289.312566031143     IErMin= 4 ErrMin= 6.39D-07
 ErrMax= 6.39D-07  0.00D+00 EMaxC= 1.00D-01 BMatC= 7.20D-11 BMatP= 6.52D-10
 IDIUse=1 WtCom= 1.00D+00 WtEn= 0.00D+00
 Coeff-Com: -0.192D-02 0.946D-01 0.416D+00 0.492D+00
 Coeff:     -0.192D-02 0.946D-01 0.416D+00 0.492D+00
 Gap=     0.375 Goal=   None    Shift=    0.000
 RMSDP=5.56D-08 MaxDP=1.79D-06 DE=-4.84D-10 OVMax= 1.51D-06

 Cycle  12  Pass 1  IDiag  1:
 RMSU=  3.09D-08    CP:  1.00D+00  7.60D-01  8.49D-01  6.18D-01
 E= -289.312566031192     Delta-E=       -0.000000000048 Rises=F Damp=F
 DIIS: error= 1.24D-07 at cycle   5 NSaved=   5.
 NSaved= 5 IEnMin= 5 EnMin= -289.312566031192     IErMin= 5 ErrMin= 1.24D-07
 ErrMax= 1.24D-07  0.00D+00 EMaxC= 1.00D-01 BMatC= 2.73D-12 BMatP= 7.20D-11
 IDIUse=1 WtCom= 1.00D+00 WtEn= 0.00D+00
 Coeff-Com: -0.218D-02 0.355D-01 0.162D+00 0.246D+00 0.559D+00
 Coeff:     -0.218D-02 0.355D-01 0.162D+00 0.246D+00 0.559D+00
 Gap=     0.375 Goal=   None    Shift=    0.000
 RMSDP=1.40D-08 MaxDP=3.40D-07 DE=-4.83D-11 OVMax= 3.65D-07

 Cycle  13  Pass 1  IDiag  1:
 RMSU=  7.03D-09    CP:  1.00D+00  7.62D-01  8.48D-01  6.08D-01  6.56D-01
 E= -289.312566031195     Delta-E=       -0.000000000004 Rises=F Damp=F
 DIIS: error= 1.95D-08 at cycle   6 NSaved=   6.
 NSaved= 6 IEnMin= 6 EnMin= -289.312566031195     IErMin= 6 ErrMin= 1.95D-08
 ErrMax= 1.95D-08  0.00D+00 EMaxC= 1.00D-01 BMatC= 1.02D-13 BMatP= 2.73D-12
 IDIUse=1 WtCom= 1.00D+00 WtEn= 0.00D+00
 Coeff-Com: -0.938D-03 0.114D-01 0.531D-01 0.864D-01 0.244D+00 0.606D+00
 Coeff:     -0.938D-03 0.114D-01 0.531D-01 0.864D-01 0.244D+00 0.606D+00
 Gap=     0.375 Goal=   None    Shift=    0.000
 RMSDP=3.00D-09 MaxDP=7.56D-08 DE=-3.52D-12 OVMax= 6.52D-08

 SCF Done:  E(RB3LYP) =  -289.312566031     A.U. after   13 cycles
            NFock= 13  Conv=0.30D-08     -V/T= 2.0086
 KE= 2.868342887270D+02 PE=-1.214311578463D+03 EE= 3.619478091421D+02
 Leave Link  502 at Mon Oct 14 01:01:53 2019, MaxMem= 10737418240 cpu:              45.8 elap:               2.0
 (Enter /apps/cent7/gaussian/g16-A.03/g16-haswell/g16/l601.exe)
 Copying SCF densities to generalized density rwf, IOpCl= 0 IROHF=0.

 **********************************************************************

            Population analysis using the SCF density.

 **********************************************************************

 Orbital symmetries:
       Occupied  (A) (A) (A) (A) (A) (A) (A) (A) (A) (A) (A) (A)
                 (A) (A) (A) (A) (A) (A) (A) (A) (A) (A) (A) (A)
                 (A)
       Virtual   (A) (A) (A) (A) (A) (A) (A) (A) (A) (A) (A) (A)
                 (A) (A) (A) (A) (A) (A) (A) (A) (A) (A) (A) (A)
                 (A) (A) (A) (A) (A) (A) (A) (A) (A) (A) (A) (A)
                 (A) (A) (A) (A) (A) (A) (A) (A) (A) (A) (A) (A)
                 (A) (A) (A) (A) (A) (A) (A) (A) (A) (A) (A) (A)
                 (A) (A) (A) (A) (A) (A) (A) (A) (A) (A) (A) (A)
                 (A) (A) (A) (A) (A) (A) (A) (A) (A) (A) (A) (A)
                 (A) (A) (A) (A) (A)
 The electronic state is 1-A.
 Alpha  occ. eigenvalues --  -19.41028 -14.70202 -10.43556 -10.42133 -10.36189
 Alpha  occ. eigenvalues --  -10.34665  -1.35829  -1.12617  -0.98358  -0.92980
 Alpha  occ. eigenvalues --   -0.86186  -0.81958  -0.80174  -0.72571  -0.69991
 Alpha  occ. eigenvalues --   -0.66862  -0.64595  -0.60238  -0.58793  -0.55725
 Alpha  occ. eigenvalues --   -0.55455  -0.54886  -0.53846  -0.53420  -0.52023
 Alpha virt. eigenvalues --   -0.14499  -0.12680  -0.09901  -0.07075  -0.05810
 Alpha virt. eigenvalues --   -0.04852  -0.02781  -0.02223  -0.00198   0.00613
 Alpha virt. eigenvalues --    0.01339   0.01703   0.02332   0.02795   0.03570
 Alpha virt. eigenvalues --    0.05722   0.07366   0.28776   0.31469   0.32849
 Alpha virt. eigenvalues --    0.36182   0.37909   0.39191   0.41130   0.42078
 Alpha virt. eigenvalues --    0.43623   0.48111   0.51264   0.57166   0.58758
 Alpha virt. eigenvalues --    0.59704   0.62859   0.64380   0.68899   0.70593
 Alpha virt. eigenvalues --    0.71430   0.72913   0.73323   0.74208   0.75253
 Alpha virt. eigenvalues --    0.76306   0.79275   0.79877   0.81182   0.83109
 Alpha virt. eigenvalues --    0.86508   0.90473   0.95077   1.10175   1.12477
 Alpha virt. eigenvalues --    1.14034   1.17605   1.31124   1.38925   1.40034
 Alpha virt. eigenvalues --    1.46046   1.50750   1.64521   1.67514   1.68950
 Alpha virt. eigenvalues --    1.72163   1.76064   1.77262   1.79004   1.80668
 Alpha virt. eigenvalues --    1.82554   1.84704   1.94553   1.99250   2.02721
 Alpha virt. eigenvalues --    2.06957   2.10604   2.12695   2.13258   2.18788
 Alpha virt. eigenvalues --    2.21774   2.26029   2.34199   2.36858   2.41489
 Alpha virt. eigenvalues --    2.53021   2.59195   2.65701   3.47781   3.82781
 Alpha virt. eigenvalues --    4.00189   4.03929   4.20121   4.26402
          Condensed to atoms (all electrons):
               1          2          3          4          5          6
     1  C    5.099227   0.352455  -0.038068  -0.002835   0.003993  -0.000166
     2  C    0.352455   5.072824   0.219027  -0.054343  -0.048762   0.004692
     3  N   -0.038068   0.219027   6.623591   0.129994   0.221881  -0.041620
     4  O   -0.002835  -0.054343   0.129994   8.174904  -0.038460   0.002110
     5  C    0.003993  -0.048762   0.221881  -0.038460   5.098546   0.338805
     6  C   -0.000166   0.004692  -0.041620   0.002110   0.338805   5.110641
     7  H    0.379948  -0.023653   0.002822   0.000072  -0.000065   0.000002
     8  H    0.379352  -0.031076  -0.005992   0.007195   0.000041   0.000001
     9  H    0.378027  -0.037296  -0.004188  -0.000333  -0.000025  -0.000001
    10  H   -0.036793   0.378227  -0.035884   0.001213  -0.003269  -0.000094
    11  H   -0.038853   0.370336  -0.038565   0.004523  -0.001358  -0.000080
    12  H   -0.000153   0.001052  -0.032212   0.243779   0.003711  -0.000659
    13  H   -0.000060  -0.004019  -0.040203  -0.003614   0.381131  -0.043602
    14  H   -0.000043  -0.000602  -0.037763   0.003721   0.375330  -0.036947
    15  H    0.000001  -0.000037   0.002797   0.000171  -0.024249   0.380209
    16  H   -0.000005   0.000026  -0.004910  -0.000640  -0.036790   0.377816
    17  H    0.000003  -0.000032  -0.003701   0.003956  -0.032332   0.378892
    18  H   -0.001165  -0.032348   0.294758  -0.033298  -0.021303  -0.003394
               7          8          9         10         11         12
     1  C    0.379948   0.379352   0.378027  -0.036793  -0.038853  -0.000153
     2  C   -0.023653  -0.031076  -0.037296   0.378227   0.370336   0.001052
     3  N    0.002822  -0.005992  -0.004188  -0.035884  -0.038565  -0.032212
     4  O    0.000072   0.007195  -0.000333   0.001213   0.004523   0.243779
     5  C   -0.000065   0.000041  -0.000025  -0.003269  -0.001358   0.003711
     6  C    0.000002   0.000001  -0.000001  -0.000094  -0.000080  -0.000659
     7  H    0.463705  -0.019954  -0.020964  -0.001877  -0.002516  -0.000005
     8  H   -0.019954   0.484132  -0.024939  -0.003948   0.004319  -0.000051
     9  H   -0.020964  -0.024939   0.523462   0.004431  -0.003189   0.000002
    10  H   -0.001877  -0.003948   0.004431   0.483193  -0.013990   0.001717
    11  H   -0.002516   0.004319  -0.003189  -0.013990   0.502637  -0.000160
    12  H   -0.000005  -0.000051   0.000002   0.001717  -0.000160   0.311091
    13  H    0.000002   0.000007   0.000006   0.004291   0.000154   0.006483
    14  H   -0.000009  -0.000005  -0.000003  -0.000259   0.003010   0.000489
    15  H   -0.000000  -0.000000  -0.000000  -0.000000  -0.000016  -0.000146
    16  H    0.000000   0.000000  -0.000004   0.000005   0.000005   0.000036
    17  H   -0.000000  -0.000001   0.000000  -0.000008  -0.000003   0.003046
    18  H   -0.000119  -0.000087   0.005754   0.005157   0.001138   0.004156
              13         14         15         16         17         18
     1  C   -0.000060  -0.000043   0.000001  -0.000005   0.000003  -0.001165
     2  C   -0.004019  -0.000602  -0.000037   0.000026  -0.000032  -0.032348
     3  N   -0.040203  -0.037763   0.002797  -0.004910  -0.003701   0.294758
     4  O   -0.003614   0.003721   0.000171  -0.000640   0.003956  -0.033298
     5  C    0.381131   0.375330  -0.024249  -0.036790  -0.032332  -0.021303
     6  C   -0.043602  -0.036947   0.380209   0.377816   0.378892  -0.003394
     7  H    0.000002  -0.000009  -0.000000   0.000000  -0.000000  -0.000119
     8  H    0.000007  -0.000005  -0.000000   0.000000  -0.000001  -0.000087
     9  H    0.000006  -0.000003  -0.000000  -0.000004   0.000000   0.005754
    10  H    0.004291  -0.000259  -0.000000   0.000005  -0.000008   0.005157
    11  H    0.000154   0.003010  -0.000016   0.000005  -0.000003   0.001138
    12  H    0.006483   0.000489  -0.000146   0.000036   0.003046   0.004156
    13  H    0.488763  -0.012467  -0.000740   0.004516  -0.006469   0.005197
    14  H   -0.012467   0.479918  -0.004004  -0.001640   0.004343  -0.000618
    15  H   -0.000740  -0.004004   0.455779  -0.019912  -0.020474  -0.000161
    16  H    0.004516  -0.001640  -0.019912   0.510009  -0.024664   0.006110
    17  H   -0.006469   0.004343  -0.020474  -0.024664   0.508538  -0.000447
    18  H    0.005197  -0.000618  -0.000161   0.006110  -0.000447   0.355566
 Mulliken charges:
               1
     1  C   -0.474867
     2  C   -0.166472
     3  N   -0.211765
     4  O   -0.438115
     5  C   -0.216825
     6  C   -0.466603
     7  H    0.222611
     8  H    0.211005
     9  H    0.179260
    10  H    0.217889
    11  H    0.212606
    12  H    0.457823
    13  H    0.220624
    14  H    0.227548
    15  H    0.230781
    16  H    0.190044
    17  H    0.189351
    18  H    0.415106
 Sum of Mulliken charges =   1.00000
 Mulliken charges with hydrogens summed into heavy atoms:
               1
     1  C    0.138009
     2  C    0.264023
     3  N    0.203341
     4  O    0.019708
     5  C    0.231347
     6  C    0.143572
 Electronic spatial extent (au):  <R**2>=            757.2049
 Charge=              1.0000 electrons
 Dipole moment (field-independent basis, Debye):
    X=             -1.0644    Y=             -1.3917    Z=             -0.4555  Tot=              1.8103
 Quadrupole moment (field-independent basis, Debye-Ang):
   XX=            -23.6320   YY=            -34.2549   ZZ=            -31.8662
   XY=             -1.2853   XZ=              0.9490   YZ=             -2.8340
 Traceless Quadrupole moment (field-independent basis, Debye-Ang):
   XX=              6.2857   YY=             -4.3372   ZZ=             -1.9485
   XY=             -1.2853   XZ=              0.9490   YZ=             -2.8340
 Octapole moment (field-independent basis, Debye-Ang**2):
  XXX=             -0.8080  YYY=              2.7660  ZZZ=             -0.1492  XYY=             -3.2725
  XXY=             -4.1001  XXZ=             -1.7303  XZZ=             -1.2638  YZZ=              4.1485
  YYZ=             -3.7121  XYZ=              2.1077
 Hexadecapole moment (field-independent basis, Debye-Ang**3):
 XXXX=           -624.4306 YYYY=           -142.1250 ZZZZ=            -72.0933 XXXY=              1.9943
 XXXZ=             -2.7421 YYYX=             -3.0637 YYYZ=            -11.4516 ZZZX=              1.3729
 ZZZY=             -4.8183 XXYY=           -135.6490 XXZZ=           -132.0748 YYZZ=            -37.9001
 XXYZ=             -1.2740 YYXZ=              2.9886 ZZXY=             -2.4368
 N-N= 2.762169145627D+02 E-N=-1.214311582518D+03  KE= 2.868342887270D+02
 No NMR shielding tensors so no spin-rotation constants.
 Leave Link  601 at Mon Oct 14 01:01:54 2019, MaxMem= 10737418240 cpu:               2.8 elap:               0.1
 (Enter /apps/cent7/gaussian/g16-A.03/g16-haswell/g16/l701.exe)
 ... and contract with generalized density number  0.
 Compute integral first derivatives.
 Leave Link  701 at Mon Oct 14 01:01:54 2019, MaxMem= 10737418240 cpu:               2.7 elap:               0.1
 (Enter /apps/cent7/gaussian/g16-A.03/g16-haswell/g16/l702.exe)
 L702 exits ... SP integral derivatives will be done elsewhere.
 Leave Link  702 at Mon Oct 14 01:01:54 2019, MaxMem= 10737418240 cpu:               0.8 elap:               0.1
 (Enter /apps/cent7/gaussian/g16-A.03/g16-haswell/g16/l703.exe)
 Integral derivatives from FoFJK, PRISM(SPDF).
 Compute integral first derivatives, UseDBF=F ICtDFT=           0.
 Calling FoFJK, ICntrl=      2127 FMM=F ISym2X=0 I1Cent= 0 IOpClX= 0 NMat=1 NMatS=1 NMatT=0.
 FoFJK:  IHMeth= 1 ICntrl=    2127 DoSepK=F KAlg= 0 I1Cent=           0 FoldK=F
 IRaf=         0 NMat=       1 IRICut=       1 DoRegI=T DoRafI=F ISym2E= 0 IDoP0=0 IntGTp=1.
 FoFCou: FMM=F IPFlag=           0 FMFlag=      100000 FMFlg1=         800
         NFxFlg=           0 DoJE=F BraDBF=F KetDBF=F FulRan=T
         wScrn=  0.000000 ICntrl=      2127 IOpCl=  0 I1Cent=           0 NGrid=           0
         NMat0=    1 NMatS0=      1 NMatT0=    0 NMatD0=    1 NMtDS0=    0 NMtDT0=    0
 Symmetry not used in FoFCou.
 Leave Link  703 at Mon Oct 14 01:01:55 2019, MaxMem= 10737418240 cpu:              12.2 elap:               0.5
 (Enter /apps/cent7/gaussian/g16-A.03/g16-haswell/g16/l716.exe)
 Dipole        =-4.18759561D-01-5.47549552D-01-1.79193394D-01
 ***** Axes restored to original set *****
 -------------------------------------------------------------------
 Center     Atomic                   Forces (Hartrees/Bohr)
 Number     Number              X              Y              Z
 -------------------------------------------------------------------
      1        6          -0.003224616    0.018288317    0.003376423
      2        6           0.006925027   -0.024483259   -0.020760089
      3        7          -0.016048588   -0.009035026    0.029807843
      4        8           0.000120531    0.007424643   -0.047629020
      5        6           0.012453663    0.028086502    0.007679793
      6        6          -0.002933614   -0.012575159   -0.012240011
      7        1           0.000157645   -0.000866017    0.001596542
      8        1           0.000568528   -0.002368700   -0.003634412
      9        1           0.004137065   -0.003446761   -0.003929024
     10        1           0.002790469   -0.001729392    0.016857158
     11        1          -0.010523861   -0.001894291    0.011906892
     12        1          -0.010550222    0.004967663    0.009422419
     13        1           0.002657353   -0.015008557    0.013970466
     14        1          -0.011700708   -0.009411228    0.008130359
     15        1          -0.000527144   -0.000072744    0.001041508
     16        1           0.003624958    0.005952339    0.000370691
     17        1           0.001495334    0.006613484   -0.000365226
     18        1           0.020578180    0.009558186   -0.015602314
 -------------------------------------------------------------------
 Cartesian Forces:  Max     0.047629020 RMS     0.012708776
 Leave Link  716 at Mon Oct 14 01:01:55 2019, MaxMem= 10737418240 cpu:               0.6 elap:               0.1
 (Enter /apps/cent7/gaussian/g16-A.03/g16-haswell/g16/l103.exe)

 GradGradGradGradGradGradGradGradGradGradGradGradGradGradGradGradGradGrad
 Berny optimization.
 FormGI is forming the generalized inverse of G from B-inverse, IUseBI=4.
 Internal  Forces:  Max     0.037386237 RMS     0.007600373
 Search for a local minimum.
 Step number   1 out of a maximum of   97
 All quantities printed in internal units (Hartrees-Bohrs-Radians)
 RMS Force = .76004D-02 SwitMx=.10000D-02 MixMth= 1
 Mixed Optimization -- RFO/linear search
 Second derivative matrix not updated -- first step.
 ITU=  0
     Eigenvalues ---    0.00230   0.00230   0.00481   0.00508   0.01765
     Eigenvalues ---    0.03979   0.04000   0.04362   0.04928   0.05189
     Eigenvalues ---    0.05199   0.05715   0.05715   0.05715   0.05716
     Eigenvalues ---    0.07513   0.07962   0.07970   0.11909   0.11919
     Eigenvalues ---    0.16000   0.16000   0.16000   0.16000   0.16000
     Eigenvalues ---    0.16000   0.16000   0.16991   0.20003   0.22524
     Eigenvalues ---    0.22526   0.28120   0.28208   0.33283   0.33505
     Eigenvalues ---    0.34806   0.34812   0.34813   0.34813   0.34814
     Eigenvalues ---    0.34814   0.34816   0.34816   0.34819   0.34825
     Eigenvalues ---    0.47688   0.52055   0.55467
 RFO step:  Lambda=-2.29427284D-02 EMin= 2.30000000D-03
 Linear search not attempted -- first point.
 Iteration  1 RMS(Cart)=  0.05236804 RMS(Int)=  0.00173889
 Iteration  2 RMS(Cart)=  0.00210905 RMS(Int)=  0.00060708
 Iteration  3 RMS(Cart)=  0.00000244 RMS(Int)=  0.00060708
 Iteration  4 RMS(Cart)=  0.00000000 RMS(Int)=  0.00060708
 ITry= 1 IFail=0 DXMaxC= 2.11D-01 DCOld= 1.00D+10 DXMaxT= 3.00D-01 DXLimC= 3.00D+00 Rises=F
 Variable       Old X    -DE/DX   Delta X   Delta X   Delta X     New X
                                 (Linear)    (Quad)   (Total)
    R1        2.91878  -0.00322   0.00000  -0.01060  -0.01060   2.90818
    R2        2.05970   0.00112   0.00000   0.00302   0.00302   2.06272
    R3        2.05960   0.00169   0.00000   0.00456   0.00456   2.06416
    R4        2.05979   0.00411   0.00000   0.01108   0.01108   2.07087
    R5        2.81474   0.01678   0.00000   0.04686   0.04686   2.86161
    R6        2.05981   0.00030   0.00000   0.00082   0.00082   2.06063
    R7        2.05991   0.00166   0.00000   0.00448   0.00448   2.06439
    R8        2.57846   0.03739   0.00000   0.06879   0.06879   2.64725
    R9        2.81857   0.01695   0.00000   0.04763   0.04763   2.86621
   R10        1.88973   0.02582   0.00000   0.05165   0.05165   1.94138
   R11        1.81419   0.01462   0.00000   0.02531   0.02531   1.83951
   R12        2.91686   0.00094   0.00000   0.00309   0.00309   2.91996
   R13        2.05980   0.00162   0.00000   0.00436   0.00436   2.06416
   R14        2.05979   0.00076   0.00000   0.00205   0.00205   2.06184
   R15        2.05978   0.00089   0.00000   0.00240   0.00240   2.06219
   R16        2.05975   0.00384   0.00000   0.01033   0.01033   2.07009
   R17        2.05974   0.00197   0.00000   0.00532   0.00532   2.06506
    A1        1.91058  -0.00460   0.00000  -0.03130  -0.03094   1.87965
    A2        1.91065   0.00561   0.00000   0.03462   0.03404   1.94470
    A3        1.91056   0.00679   0.00000   0.03931   0.03876   1.94932
    A4        1.91070  -0.00129   0.00000  -0.01148  -0.01116   1.89954
    A5        1.91063  -0.00250   0.00000  -0.02152  -0.02114   1.88949
    A6        1.91068  -0.00401   0.00000  -0.00962  -0.01095   1.89973
    A7        1.97373  -0.01491   0.00000  -0.04312  -0.04234   1.93138
    A8        1.86191   0.00921   0.00000   0.06605   0.06596   1.92787
    A9        1.86199   0.00814   0.00000   0.05904   0.05899   1.92098
   A10        1.83803   0.00252   0.00000   0.00442   0.00512   1.84315
   A11        1.83798   0.00370   0.00000   0.01331   0.01393   1.85191
   A12        2.09440  -0.01087   0.00000  -0.10768  -0.10879   1.98561
   A13        1.91049   0.00023   0.00000   0.01890   0.01686   1.92735
   A14        1.96734  -0.00417   0.00000   0.00534   0.00360   1.97094
   A15        1.88851   0.00270   0.00000   0.00216   0.00214   1.89065
   A16        1.91795   0.00936   0.00000   0.06725   0.06652   1.98447
   A17        1.88927  -0.00798   0.00000  -0.08904  -0.08830   1.80097
   A18        1.88840  -0.00054   0.00000  -0.01082  -0.00979   1.87861
   A19        1.91062  -0.00596   0.00000  -0.03256  -0.03256   1.87807
   A20        1.97562  -0.01403   0.00000  -0.03629  -0.03571   1.93992
   A21        1.83827   0.00213   0.00000   0.00486   0.00522   1.84349
   A22        1.83831   0.00374   0.00000   0.01339   0.01375   1.85206
   A23        1.86089   0.01015   0.00000   0.07674   0.07669   1.93758
   A24        1.86089   0.00790   0.00000   0.05818   0.05814   1.91903
   A25        2.09435  -0.01201   0.00000  -0.12427  -0.12537   1.96898
   A26        1.91064  -0.00416   0.00000  -0.02895  -0.02849   1.88215
   A27        1.91066   0.00700   0.00000   0.04038   0.03951   1.95017
   A28        1.91060   0.00893   0.00000   0.05292   0.05211   1.96272
   A29        1.91063  -0.00288   0.00000  -0.02392  -0.02353   1.88710
   A30        1.91069  -0.00313   0.00000  -0.02134  -0.02085   1.88984
   A31        1.91058  -0.00576   0.00000  -0.01909  -0.02096   1.88962
    D1        3.06798   0.00021   0.00000   0.00698   0.00700   3.07498
    D2       -1.20282   0.00096   0.00000   0.02985   0.02939  -1.17343
    D3        1.05560  -0.00132   0.00000  -0.02236  -0.02197   1.03364
    D4       -1.12075  -0.00076   0.00000  -0.00506  -0.00545  -1.12620
    D5        0.89164  -0.00000   0.00000   0.01782   0.01694   0.90858
    D6       -3.13313  -0.00228   0.00000  -0.03439  -0.03442   3.11564
    D7        0.97367   0.00193   0.00000   0.02843   0.02891   1.00258
    D8        2.98605   0.00268   0.00000   0.05130   0.05130   3.03736
    D9       -1.03871   0.00040   0.00000  -0.00091  -0.00006  -1.03877
   D10        1.09258  -0.00574   0.00000  -0.07194  -0.07185   1.02073
   D11       -3.05036   0.00359   0.00000   0.03174   0.03164  -3.01871
   D12       -0.96276   0.00215   0.00000   0.02298   0.02308  -0.93969
   D13       -0.93403  -0.01068   0.00000  -0.13190  -0.13176  -1.06579
   D14        1.20622  -0.00136   0.00000  -0.02822  -0.02827   1.17795
   D15       -2.98937  -0.00279   0.00000  -0.03697  -0.03684  -3.02621
   D16        3.11925  -0.00136   0.00000  -0.01500  -0.01504   3.10421
   D17       -1.02369   0.00796   0.00000   0.08868   0.08845  -0.93524
   D18        1.06391   0.00653   0.00000   0.07992   0.07988   1.14379
   D19        1.77784   0.00053   0.00000   0.02736   0.02792   1.80576
   D20       -0.39156  -0.00069   0.00000  -0.03756  -0.03905  -0.43061
   D21       -2.45048  -0.00068   0.00000  -0.01049  -0.00955  -2.46003
   D22        3.04996  -0.00144   0.00000  -0.01782  -0.01827   3.03169
   D23       -1.20672   0.00485   0.00000   0.05884   0.05826  -1.14847
   D24        1.02344  -0.00602   0.00000  -0.07735  -0.07764   0.94580
   D25       -1.09716   0.00276   0.00000   0.05899   0.05944  -1.03772
   D26        0.92934   0.00905   0.00000   0.13565   0.13597   1.06531
   D27       -3.12368  -0.00182   0.00000  -0.00054   0.00007  -3.12361
   D28        0.96230  -0.00188   0.00000  -0.01657  -0.01660   0.94571
   D29        2.98881   0.00442   0.00000   0.06009   0.05993   3.04873
   D30       -1.06421  -0.00645   0.00000  -0.07610  -0.07597  -1.14018
   D31       -2.87973  -0.00045   0.00000  -0.01771  -0.01774  -2.89746
   D32       -0.78531  -0.00223   0.00000  -0.04001  -0.04060  -0.82592
   D33        1.30901   0.00047   0.00000  -0.00625  -0.00565   1.30336
   D34        1.39040  -0.00180   0.00000  -0.05148  -0.05119   1.33921
   D35       -2.79838  -0.00358   0.00000  -0.07378  -0.07405  -2.87243
   D36       -0.70405  -0.00088   0.00000  -0.04002  -0.03910  -0.74315
   D37       -0.86662   0.00147   0.00000   0.01497   0.01464  -0.85198
   D38        1.22779  -0.00032   0.00000  -0.00733  -0.00823   1.21956
   D39       -2.96107   0.00239   0.00000   0.02643   0.02673  -2.93434
         Item               Value     Threshold  Converged?
 Maximum Force            0.037386     0.000450     NO 
 RMS     Force            0.007600     0.000300     NO 
 Maximum Displacement     0.210533     0.001800     NO 
 RMS     Displacement     0.051753     0.001200     NO 
 Predicted change in Energy=-1.365829D-02
 Lowest energy point so far.  Saving SCF results.
 GradGradGradGradGradGradGradGradGradGradGradGradGradGradGradGradGradGrad

 Leave Link  103 at Mon Oct 14 01:01:55 2019, MaxMem= 10737418240 cpu:               0.9 elap:               0.1
 (Enter /apps/cent7/gaussian/g16-A.03/g16-haswell/g16/l202.exe)
                          Input orientation:                          
 ---------------------------------------------------------------------
 Center     Atomic      Atomic             Coordinates (Angstroms)
 Number     Number       Type             X           Y           Z
 ---------------------------------------------------------------------
      1          6           0        2.369345   -2.861612   -2.389267
      2          6           0        1.988855   -2.158341   -1.074361
      3          7           0        2.108336   -0.655634   -1.218191
      4          8           0        1.282649   -0.196230   -2.252413
      5          6           0        1.910470    0.080975    0.092812
      6          6           0        2.194610    1.591271   -0.067914
      7          1           0        2.333083   -3.938107   -2.212321
      8          1           0        1.671210   -2.612376   -3.191525
      9          1           0        3.384310   -2.600246   -2.709327
     10          1           0        0.943153   -2.347373   -0.829766
     11          1           0        2.684802   -2.443241   -0.281966
     12          1           0        0.499273    0.212674   -1.844153
     13          1           0        0.869694   -0.094015    0.374409
     14          1           0        2.618827   -0.358278    0.796897
     15          1           0        2.284436    2.022641    0.930437
     16          1           0        3.132940    1.772820   -0.603238
     17          1           0        1.392589    2.113020   -0.595848
     18          1           0        3.053000   -0.437769   -1.558130
 ---------------------------------------------------------------------
                    Distance matrix (angstroms):
                    1          2          3          4          5
     1  C    0.000000
     2  C    1.538941   0.000000
     3  N    2.511152   1.514296   0.000000
     4  O    2.881649   2.395081   1.400866   0.000000
     5  C    3.876867   2.526455   1.516730   2.443579   0.000000
     6  C    5.024677   3.887784   2.525701   2.966289   1.545174
     7  H    1.091543   2.140330   3.437068   3.886729   4.652447
     8  H    1.092304   2.188476   2.813177   2.621197   4.254204
     9  H    1.095858   2.194468   2.762809   3.225685   4.148872
    10  H    2.174973   1.090436   2.090575   2.601268   2.771954
    11  H    2.171466   1.092429   2.098660   3.301175   2.666781
    12  H    3.639443   2.903988   1.932581   0.973425   2.400136
    13  H    4.188848   2.759148   2.094283   2.661047   1.092306
    14  H    4.059626   2.671834   2.099905   3.333154   1.091076
    15  H    5.906231   4.646202   3.438134   4.007180   2.147448
    16  H    5.025031   4.121276   2.706542   3.165519   2.200286
    17  H    5.377487   4.339243   2.926610   2.844104   2.207183
    18  H    2.652016   2.080098   1.027334   1.916902   2.073663
                    6          7          8          9         10
     6  C    0.000000
     7  H    5.932258   0.000000
     8  H    5.263226   1.776085   0.000000
     9  H    5.095220   1.772558   1.779711   0.000000
    10  H    4.202319   2.524638   2.485598   3.091268   0.000000
    11  H    4.069816   2.466698   3.085694   2.531017   1.828283
    12  H    2.815977   4.552734   3.342118   4.121223   2.789238
    13  H    2.188891   4.858984   4.438520   4.702544   2.555984
    14  H    2.174534   4.685319   4.678295   4.231547   3.067640
    15  H    1.091262   6.738680   6.232977   5.985707   4.898405
    16  H    1.095443   5.986953   5.297719   4.860299   4.671453
    17  H    1.092783   6.333534   5.398568   5.536120   4.489077
    18  H    2.659809   3.632989   3.050613   2.472110   2.937440
                   11         12         13         14         15
    11  H    0.000000
    12  H    3.777678   0.000000
    13  H    3.040446   2.270085   0.000000
    14  H    2.348483   3.434186   1.818735   0.000000
    15  H    4.644816   3.763129   2.605934   2.407991   0.000000
    16  H    4.251967   3.303048   3.092435   2.601205   1.770460
    17  H    4.746352   2.442866   2.466945   3.090422   1.770058
    18  H    2.405428   2.650737   2.935932   2.396033   3.582914
                   16         17         18
    16  H    0.000000
    17  H    1.773306   0.000000
    18  H    2.409339   3.192096   0.000000
 Stoichiometry    C4H12NO(1+)
 Framework group  C1[X(C4H12NO)]
 Deg. of freedom    48
 Full point group                 C1      NOp   1
 RotChk:  IX=0 Diff= 8.45D-02
 Largest Abelian subgroup         C1      NOp   1
 Largest concise Abelian subgroup C1      NOp   1
                         Standard orientation:                         
 ---------------------------------------------------------------------
 Center     Atomic      Atomic             Coordinates (Angstroms)
 Number     Number       Type             X           Y           Z
 ---------------------------------------------------------------------
      1          6           0        2.513251   -0.023764    0.314276
      2          6           0        1.269592   -0.687352   -0.303221
      3          7           0        0.007766    0.016242    0.150480
      4          8           0        0.045840    1.369384   -0.210048
      5          6           0       -1.256808   -0.696511   -0.289186
      6          6           0       -2.511402   -0.035483    0.324490
      7          1           0        3.384988   -0.607283    0.012533
      8          1           0        2.635623    1.002108   -0.040324
      9          1           0        2.466998   -0.016720    1.409134
     10          1           0        1.285313   -0.590179   -1.389205
     11          1           0        1.183308   -1.719099    0.045282
     12          1           0       -0.534229    1.484503   -0.983239
     13          1           0       -1.270399   -0.626091   -1.379135
     14          1           0       -1.165067   -1.723625    0.067281
     15          1           0       -3.350474   -0.719690    0.187844
     16          1           0       -2.390584    0.145397    1.398120
     17          1           0       -2.760959    0.913350   -0.156771
     18          1           0        0.006609    0.047223    1.177347
 ---------------------------------------------------------------------
 Rotational constants (GHZ):           7.3238357           1.9329074           1.6915547
 Leave Link  202 at Mon Oct 14 01:01:55 2019, MaxMem= 10737418240 cpu:               0.3 elap:               0.0
 (Enter /apps/cent7/gaussian/g16-A.03/g16-haswell/g16/l301.exe)
 Standard basis: 6-31G(d) (6D, 7F)
 Ernie: Thresh=  0.10000D-02 Tol=  0.10000D-05 Strict=F.
 There are   114 symmetry adapted cartesian basis functions of A   symmetry.
 There are   114 symmetry adapted basis functions of A   symmetry.
   114 basis functions,   216 primitive gaussians,   114 cartesian basis functions
    25 alpha electrons       25 beta electrons
       nuclear repulsion energy       273.2170212247 Hartrees.
 IExCor=  402 DFT=T Ex+Corr=B3LYP ExCW=0 ScaHFX=  0.200000
 ScaDFX=  0.800000  0.720000  1.000000  0.810000 ScalE2=  1.000000  1.000000
 IRadAn=      5 IRanWt=     -1 IRanGd=            0 ICorTp=0 IEmpDi=  4
 NAtoms=   18 NActive=   18 NUniq=   18 SFac= 1.00D+00 NAtFMM=   60 NAOKFM=F Big=F
 Integral buffers will be    131072 words long.
 Raffenetti 2 integral format.
 Two-electron integral symmetry is turned on.
 Leave Link  301 at Mon Oct 14 01:01:55 2019, MaxMem= 10737418240 cpu:               1.2 elap:               0.1
 (Enter /apps/cent7/gaussian/g16-A.03/g16-haswell/g16/l302.exe)
 NPDir=0 NMtPBC=     1 NCelOv=     1 NCel=       1 NClECP=     1 NCelD=      1
         NCelK=      1 NCelE2=     1 NClLst=     1 CellRange=     0.0.
 One-electron integrals computed using PRISM.
 One-electron integral symmetry used in STVInt
 NBasis=   114 RedAO= T EigKep=  4.41D-03  NBF=   114
 NBsUse=   114 1.00D-06 EigRej= -1.00D+00 NBFU=   114
 Precomputing XC quadrature grid using
 IXCGrd= 4 IRadAn=           5 IRanWt=          -1 IRanGd=           0 AccXCQ= 0.00D+00.
 Generated NRdTot=       0 NPtTot=           0 NUsed=           0 NTot=          32
 NSgBfM=   114   114   114   114   114 MxSgAt=    18 MxSgA2=    18.
 Leave Link  302 at Mon Oct 14 01:01:55 2019, MaxMem= 10737418240 cpu:               2.9 elap:               0.1
 (Enter /apps/cent7/gaussian/g16-A.03/g16-haswell/g16/l303.exe)
 DipDrv:  MaxL=1.
 Leave Link  303 at Mon Oct 14 01:01:55 2019, MaxMem= 10737418240 cpu:               0.5 elap:               0.0
 (Enter /apps/cent7/gaussian/g16-A.03/g16-haswell/g16/l401.exe)
 Initial guess from the checkpoint file:  "1_p.chk"
 B after Tr=    -0.000000   -0.000000    0.000000
         Rot=    0.999657    0.026023    0.000997    0.002912 Ang=   3.00 deg.
 Guess basis will be translated and rotated to current coordinates.
 JPrj=2 DoOrth=T DoCkMO=T.
 Generating alternative initial guess.
 ExpMin= 1.61D-01 ExpMax= 5.48D+03 ExpMxC= 8.25D+02 IAcc=2 IRadAn=         4 AccDes= 0.00D+00
 Harris functional with IExCor=  402 and IRadAn=       4 diagonalized for initial guess.
 HarFok:  IExCor=  402 AccDes= 0.00D+00 IRadAn=         4 IDoV= 1 UseB2=F ITyADJ=14
 ICtDFT=  3500011 ScaDFX=  1.000000  1.000000  1.000000  1.000000
 FoFCou: FMM=F IPFlag=           0 FMFlag=      100000 FMFlg1=           0
         NFxFlg=           0 DoJE=T BraDBF=F KetDBF=T FulRan=T
         wScrn=  0.000000 ICntrl=       500 IOpCl=  0 I1Cent=   200000004 NGrid=           0
         NMat0=    1 NMatS0=      1 NMatT0=    0 NMatD0=    1 NMtDS0=    0 NMtDT0=    0
 Petite list used in FoFCou.
 Harris En= -289.401129923370    
 Leave Link  401 at Mon Oct 14 01:01:55 2019, MaxMem= 10737418240 cpu:               5.5 elap:               0.3
 (Enter /apps/cent7/gaussian/g16-A.03/g16-haswell/g16/l502.exe)
 Integral symmetry usage will be decided dynamically.
 Closed shell SCF:
 Using DIIS extrapolation, IDIIS=  1040.
 NGot= 10737418240 LenX= 10737387936 LenY= 10737374499
 Requested convergence on RMS density matrix=1.00D-08 within 128 cycles.
 Requested convergence on MAX density matrix=1.00D-06.
 Requested convergence on             energy=1.00D-06.
 No special actions if energy rises.
 Fock matrices will be formed incrementally for  20 cycles.
 Integral accuracy reduced to 1.0D-05 until final iterations.

 Cycle   1  Pass 0  IDiag  1:
 FoFJK:  IHMeth= 1 ICntrl=       0 DoSepK=F KAlg= 0 I1Cent=           0 FoldK=F
 IRaf= 980000000 NMat=       1 IRICut=       1 DoRegI=T DoRafI=F ISym2E= 0 IDoP0=0 IntGTp=1.
 FoFCou: FMM=F IPFlag=           0 FMFlag=      100000 FMFlg1=           0
         NFxFlg=           0 DoJE=F BraDBF=F KetDBF=F FulRan=T
         wScrn=  0.000000 ICntrl=         0 IOpCl=  0 I1Cent=           0 NGrid=           0
         NMat0=    1 NMatS0=      1 NMatT0=    0 NMatD0=    1 NMtDS0=    0 NMtDT0=    0
 Symmetry not used in FoFCou.
 E= -289.321543952294    
 DIIS: error= 2.57D-03 at cycle   1 NSaved=   1.
 NSaved= 1 IEnMin= 1 EnMin= -289.321543952294     IErMin= 1 ErrMin= 2.57D-03
 ErrMax= 2.57D-03  0.00D+00 EMaxC= 1.00D-01 BMatC= 2.74D-03 BMatP= 2.74D-03
 IDIUse=3 WtCom= 9.74D-01 WtEn= 2.57D-02
 Coeff-Com:  0.100D+01
 Coeff-En:   0.100D+01
 Coeff:      0.100D+01
 Gap=     1.507 Goal=   None    Shift=    0.000
 GapD=    1.507 DampG=2.000 DampE=1.000 DampFc=2.0000 IDamp=-1.
 RMSDP=8.20D-04 MaxDP=1.28D-02              OVMax= 1.79D-02

 Cycle   2  Pass 0  IDiag  1:
 RMSU=  8.19D-04    CP:  9.99D-01
 E= -289.325703474461     Delta-E=       -0.004159522167 Rises=F Damp=F
 DIIS: error= 1.16D-03 at cycle   2 NSaved=   2.
 NSaved= 2 IEnMin= 2 EnMin= -289.325703474461     IErMin= 2 ErrMin= 1.16D-03
 ErrMax= 1.16D-03  0.00D+00 EMaxC= 1.00D-01 BMatC= 3.93D-04 BMatP= 2.74D-03
 IDIUse=3 WtCom= 9.88D-01 WtEn= 1.16D-02
 Coeff-Com:  0.166D+00 0.834D+00
 Coeff-En:   0.000D+00 0.100D+01
 Coeff:      0.164D+00 0.836D+00
 Gap=     0.373 Goal=   None    Shift=    0.000
 RMSDP=2.86D-04 MaxDP=8.12D-03 DE=-4.16D-03 OVMax= 6.75D-03

 Cycle   3  Pass 0  IDiag  1:
 RMSU=  2.82D-04    CP:  1.00D+00  9.73D-01
 E= -289.325730416432     Delta-E=       -0.000026941971 Rises=F Damp=F
 DIIS: error= 1.25D-03 at cycle   3 NSaved=   3.
 NSaved= 3 IEnMin= 3 EnMin= -289.325730416432     IErMin= 2 ErrMin= 1.16D-03
 ErrMax= 1.25D-03  0.00D+00 EMaxC= 1.00D-01 BMatC= 3.97D-04 BMatP= 3.93D-04
 IDIUse=3 WtCom= 9.87D-01 WtEn= 1.25D-02
 Coeff-Com: -0.274D-01 0.505D+00 0.522D+00
 Coeff-En:   0.000D+00 0.481D+00 0.519D+00
 Coeff:     -0.270D-01 0.505D+00 0.522D+00
 Gap=     0.372 Goal=   None    Shift=    0.000
 RMSDP=1.40D-04 MaxDP=4.65D-03 DE=-2.69D-05 OVMax= 3.66D-03

 Cycle   4  Pass 0  IDiag  1:
 RMSU=  5.10D-05    CP:  1.00D+00  1.02D+00  5.65D-01
 E= -289.326049195936     Delta-E=       -0.000318779504 Rises=F Damp=F
 DIIS: error= 2.28D-04 at cycle   4 NSaved=   4.
 NSaved= 4 IEnMin= 4 EnMin= -289.326049195936     IErMin= 4 ErrMin= 2.28D-04
 ErrMax= 2.28D-04  0.00D+00 EMaxC= 1.00D-01 BMatC= 7.25D-06 BMatP= 3.93D-04
 IDIUse=3 WtCom= 9.98D-01 WtEn= 2.28D-03
 Coeff-Com: -0.154D-01 0.185D+00 0.222D+00 0.608D+00
 Coeff-En:   0.000D+00 0.000D+00 0.000D+00 0.100D+01
 Coeff:     -0.154D-01 0.184D+00 0.222D+00 0.609D+00
 Gap=     0.371 Goal=   None    Shift=    0.000
 RMSDP=2.52D-05 MaxDP=7.97D-04 DE=-3.19D-04 OVMax= 7.67D-04

 Cycle   5  Pass 0  IDiag  1:
 RMSU=  1.80D-05    CP:  1.00D+00  1.03D+00  5.72D-01  6.96D-01
 E= -289.326053951636     Delta-E=       -0.000004755700 Rises=F Damp=F
 DIIS: error= 9.69D-05 at cycle   5 NSaved=   5.
 NSaved= 5 IEnMin= 5 EnMin= -289.326053951636     IErMin= 5 ErrMin= 9.69D-05
 ErrMax= 9.69D-05  0.00D+00 EMaxC= 1.00D-01 BMatC= 1.67D-06 BMatP= 7.25D-06
 IDIUse=1 WtCom= 1.00D+00 WtEn= 0.00D+00
 Coeff-Com: -0.595D-02 0.539D-01 0.738D-01 0.361D+00 0.517D+00
 Coeff:     -0.595D-02 0.539D-01 0.738D-01 0.361D+00 0.517D+00
 Gap=     0.371 Goal=   None    Shift=    0.000
 RMSDP=8.21D-06 MaxDP=2.66D-04 DE=-4.76D-06 OVMax= 2.63D-04

 Initial convergence to 1.0D-05 achieved.  Increase integral accuracy.
 Cycle   6  Pass 1  IDiag  1:
 E= -289.326027433364     Delta-E=        0.000026518271 Rises=F Damp=F
 DIIS: error= 1.26D-05 at cycle   1 NSaved=   1.
 NSaved= 1 IEnMin= 1 EnMin= -289.326027433364     IErMin= 1 ErrMin= 1.26D-05
 ErrMax= 1.26D-05  0.00D+00 EMaxC= 1.00D-01 BMatC= 4.86D-08 BMatP= 4.86D-08
 IDIUse=1 WtCom= 1.00D+00 WtEn= 0.00D+00
 Coeff-Com:  0.100D+01
 Coeff:      0.100D+01
 Gap=     0.371 Goal=   None    Shift=    0.000
 RMSDP=8.21D-06 MaxDP=2.66D-04 DE= 2.65D-05 OVMax= 8.43D-05

 Cycle   7  Pass 1  IDiag  1:
 RMSU=  3.51D-06    CP:  1.00D+00
 E= -289.326027423334     Delta-E=        0.000000010030 Rises=F Damp=F
 DIIS: error= 1.38D-05 at cycle   2 NSaved=   2.
 NSaved= 2 IEnMin= 1 EnMin= -289.326027433364     IErMin= 1 ErrMin= 1.26D-05
 ErrMax= 1.38D-05  0.00D+00 EMaxC= 1.00D-01 BMatC= 6.42D-08 BMatP= 4.86D-08
 IDIUse=1 WtCom= 1.00D+00 WtEn= 0.00D+00
 Coeff-Com:  0.537D+00 0.463D+00
 Coeff:      0.537D+00 0.463D+00
 Gap=     0.371 Goal=   None    Shift=    0.000
 RMSDP=1.93D-06 MaxDP=4.71D-05 DE= 1.00D-08 OVMax= 4.78D-05

 Cycle   8  Pass 1  IDiag  1:
 RMSU=  1.16D-06    CP:  1.00D+00  5.63D-01
 E= -289.326027474964     Delta-E=       -0.000000051630 Rises=F Damp=F
 DIIS: error= 3.95D-06 at cycle   3 NSaved=   3.
 NSaved= 3 IEnMin= 3 EnMin= -289.326027474964     IErMin= 3 ErrMin= 3.95D-06
 ErrMax= 3.95D-06  0.00D+00 EMaxC= 1.00D-01 BMatC= 2.42D-09 BMatP= 4.86D-08
 IDIUse=1 WtCom= 1.00D+00 WtEn= 0.00D+00
 Coeff-Com:  0.171D+00 0.214D+00 0.614D+00
 Coeff:      0.171D+00 0.214D+00 0.614D+00
 Gap=     0.371 Goal=   None    Shift=    0.000
 RMSDP=4.51D-07 MaxDP=1.44D-05 DE=-5.16D-08 OVMax= 1.34D-05

 Cycle   9  Pass 1  IDiag  1:
 RMSU=  3.75D-07    CP:  1.00D+00  5.77D-01  7.88D-01
 E= -289.326027476644     Delta-E=       -0.000000001680 Rises=F Damp=F
 DIIS: error= 1.03D-06 at cycle   4 NSaved=   4.
 NSaved= 4 IEnMin= 4 EnMin= -289.326027476644     IErMin= 4 ErrMin= 1.03D-06
 ErrMax= 1.03D-06  0.00D+00 EMaxC= 1.00D-01 BMatC= 3.21D-10 BMatP= 2.42D-09
 IDIUse=1 WtCom= 1.00D+00 WtEn= 0.00D+00
 Coeff-Com:  0.206D-01 0.522D-01 0.316D+00 0.612D+00
 Coeff:      0.206D-01 0.522D-01 0.316D+00 0.612D+00
 Gap=     0.371 Goal=   None    Shift=    0.000
 RMSDP=1.28D-07 MaxDP=3.97D-06 DE=-1.68D-09 OVMax= 3.50D-06

 Cycle  10  Pass 1  IDiag  1:
 RMSU=  9.00D-08    CP:  1.00D+00  5.90D-01  8.23D-01  8.17D-01
 E= -289.326027476881     Delta-E=       -0.000000000237 Rises=F Damp=F
 DIIS: error= 3.22D-07 at cycle   5 NSaved=   5.
 NSaved= 5 IEnMin= 5 EnMin= -289.326027476881     IErMin= 5 ErrMin= 3.22D-07
 ErrMax= 3.22D-07  0.00D+00 EMaxC= 1.00D-01 BMatC= 3.02D-11 BMatP= 3.21D-10
 IDIUse=1 WtCom= 1.00D+00 WtEn= 0.00D+00
 Coeff-Com: -0.591D-02 0.695D-02 0.115D+00 0.316D+00 0.568D+00
 Coeff:     -0.591D-02 0.695D-02 0.115D+00 0.316D+00 0.568D+00
 Gap=     0.371 Goal=   None    Shift=    0.000
 RMSDP=4.48D-08 MaxDP=1.30D-06 DE=-2.37D-10 OVMax= 9.99D-07

 Cycle  11  Pass 1  IDiag  1:
 RMSU=  2.60D-08    CP:  1.00D+00  5.92D-01  8.38D-01  8.15D-01  6.57D-01
 E= -289.326027476904     Delta-E=       -0.000000000023 Rises=F Damp=F
 DIIS: error= 7.56D-08 at cycle   6 NSaved=   6.
 NSaved= 6 IEnMin= 6 EnMin= -289.326027476904     IErMin= 6 ErrMin= 7.56D-08
 ErrMax= 7.56D-08  0.00D+00 EMaxC= 1.00D-01 BMatC= 1.26D-12 BMatP= 3.02D-11
 IDIUse=1 WtCom= 1.00D+00 WtEn= 0.00D+00
 Coeff-Com: -0.396D-02 0.118D-03 0.364D-01 0.105D+00 0.250D+00 0.612D+00
 Coeff:     -0.396D-02 0.118D-03 0.364D-01 0.105D+00 0.250D+00 0.612D+00
 Gap=     0.371 Goal=   None    Shift=    0.000
 RMSDP=1.05D-08 MaxDP=2.33D-07 DE=-2.31D-11 OVMax= 2.21D-07

 Cycle  12  Pass 1  IDiag  1:
 RMSU=  8.07D-09    CP:  1.00D+00  5.92D-01  8.41D-01  8.17D-01  6.79D-01
                    CP:  7.90D-01
 E= -289.326027476905     Delta-E=       -0.000000000001 Rises=F Damp=F
 DIIS: error= 1.42D-08 at cycle   7 NSaved=   7.
 NSaved= 7 IEnMin= 7 EnMin= -289.326027476905     IErMin= 7 ErrMin= 1.42D-08
 ErrMax= 1.42D-08  0.00D+00 EMaxC= 1.00D-01 BMatC= 7.97D-14 BMatP= 1.26D-12
 IDIUse=1 WtCom= 1.00D+00 WtEn= 0.00D+00
 Coeff-Com: -0.583D-03-0.673D-03-0.539D-03-0.339D-02 0.135D-01 0.205D+00
 Coeff-Com:  0.787D+00
 Coeff:     -0.583D-03-0.673D-03-0.539D-03-0.339D-02 0.135D-01 0.205D+00
 Coeff:      0.787D+00
 Gap=     0.371 Goal=   None    Shift=    0.000
 RMSDP=3.33D-09 MaxDP=6.30D-08 DE=-1.48D-12 OVMax= 8.87D-08

 SCF Done:  E(RB3LYP) =  -289.326027477     A.U. after   12 cycles
            NFock= 12  Conv=0.33D-08     -V/T= 2.0096
 KE= 2.865703835572D+02 PE=-1.208332619417D+03 EE= 3.592191871586D+02
 Leave Link  502 at Mon Oct 14 01:01:57 2019, MaxMem= 10737418240 cpu:              46.3 elap:               2.0
 (Enter /apps/cent7/gaussian/g16-A.03/g16-haswell/g16/l701.exe)
 ... and contract with generalized density number  0.
 Compute integral first derivatives.
 Leave Link  701 at Mon Oct 14 01:01:57 2019, MaxMem= 10737418240 cpu:               2.3 elap:               0.1
 (Enter /apps/cent7/gaussian/g16-A.03/g16-haswell/g16/l702.exe)
 L702 exits ... SP integral derivatives will be done elsewhere.
 Leave Link  702 at Mon Oct 14 01:01:57 2019, MaxMem= 10737418240 cpu:               1.0 elap:               0.1
 (Enter /apps/cent7/gaussian/g16-A.03/g16-haswell/g16/l703.exe)
 Integral derivatives from FoFJK, PRISM(SPDF).
 Compute integral first derivatives, UseDBF=F ICtDFT=           0.
 Calling FoFJK, ICntrl=      2127 FMM=F ISym2X=0 I1Cent= 0 IOpClX= 0 NMat=1 NMatS=1 NMatT=0.
 FoFJK:  IHMeth= 1 ICntrl=    2127 DoSepK=F KAlg= 0 I1Cent=           0 FoldK=F
 IRaf=         0 NMat=       1 IRICut=       1 DoRegI=T DoRafI=F ISym2E= 0 IDoP0=0 IntGTp=1.
 FoFCou: FMM=F IPFlag=           0 FMFlag=      100000 FMFlg1=         800
         NFxFlg=           0 DoJE=F BraDBF=F KetDBF=F FulRan=T
         wScrn=  0.000000 ICntrl=      2127 IOpCl=  0 I1Cent=           0 NGrid=           0
         NMat0=    1 NMatS0=      1 NMatT0=    0 NMatD0=    1 NMtDS0=    0 NMtDT0=    0
 Symmetry not used in FoFCou.
 Leave Link  703 at Mon Oct 14 01:01:58 2019, MaxMem= 10737418240 cpu:              11.7 elap:               0.5
 (Enter /apps/cent7/gaussian/g16-A.03/g16-haswell/g16/l716.exe)
 Dipole        =-4.31795843D-01-5.81456845D-01-2.06576817D-01
 ***** Axes restored to original set *****
 -------------------------------------------------------------------
 Center     Atomic                   Forces (Hartrees/Bohr)
 Number     Number              X              Y              Z
 -------------------------------------------------------------------
      1        6          -0.002651161    0.005267161    0.005147711
      2        6           0.004400885   -0.005819502   -0.020183070
      3        7           0.006132142   -0.005193917    0.014461880
      4        8          -0.001636863    0.004387831   -0.009668148
      5        6           0.003208962    0.021215094   -0.009561957
      6        6          -0.002353233   -0.008511833   -0.001276072
      7        1           0.000389911   -0.001440207   -0.000911257
      8        1           0.000076276   -0.000640033    0.000343312
      9        1           0.000462691   -0.001085289    0.000685127
     10        1           0.001002516   -0.000998969    0.006730940
     11        1          -0.004522819    0.000692815    0.004222027
     12        1          -0.002921723   -0.000200446    0.002639919
     13        1           0.001495108   -0.004976750    0.005503065
     14        1          -0.003752239   -0.004410795    0.001121792
     15        1          -0.000324370    0.001564823    0.000727985
     16        1           0.000837790   -0.000149597    0.001438223
     17        1          -0.000022177    0.000205548    0.000079077
     18        1           0.000178305    0.000094068   -0.001500551
 -------------------------------------------------------------------
 Cartesian Forces:  Max     0.021215094 RMS     0.005692398
 Leave Link  716 at Mon Oct 14 01:01:58 2019, MaxMem= 10737418240 cpu:               1.0 elap:               0.1
 (Enter /apps/cent7/gaussian/g16-A.03/g16-haswell/g16/l103.exe)

 GradGradGradGradGradGradGradGradGradGradGradGradGradGradGradGradGradGrad
 Berny optimization.
 Using GEDIIS/GDIIS optimizer.
 FormGI is forming the generalized inverse of G from B-inverse, IUseBI=4.
 Internal  Forces:  Max     0.009248582 RMS     0.002105398
 Search for a local minimum.
 Step number   2 out of a maximum of   97
 All quantities printed in internal units (Hartrees-Bohrs-Radians)
 RMS Force = .21054D-02 SwitMx=.10000D-02 MixMth= 1
 Mixed Optimization -- RFO/linear search
 Update second derivatives using D2CorX and points    1    2
 DE= -1.35D-02 DEPred=-1.37D-02 R= 9.86D-01
 TightC=F SS=  1.41D+00  RLast= 4.35D-01 DXNew= 5.0454D-01 1.3044D+00
 Trust test= 9.86D-01 RLast= 4.35D-01 DXMaxT set to 5.05D-01
 ITU=  1  0
 Use linear search instead of GDIIS.
[...]
 0.0593526,0.0804043,0.0269735,-0.0472926,0.0445267,-0.0176059,0.050398
 9,0.0461943,-0.0131442,-0.0633338,-0.0146936,0.0243677,-0.0415347,-0.0
 464912,-0.015593,-0.0080016,0.3182067,-0.048375,0.0884718,-0.0556267,0
 .34701,0.0764099,0.1021562,0.0766967,0.2481023,-0.0304692,-0.0598735,0
 .0172086,-0.0833519,0.007932,-0.0088646,-0.0419185,-0.0402029,0.064094
 6,0.043126,0.0622594,-0.0252059,0.0487413,-0.0205386,0.0174498,-0.0135
 771,-0.0078677,0.0400034,0.1090604,-0.0095736,0.02154,-0.0071923,0.044
 8359,-0.030062,0.0206959,-0.0242471,0.0088253,-0.0533188,-0.0101983,0.
 0539,0.0337987,0.0425844,-0.004304,0.0650774,0.0340267,0.0785082,0.020
 5639,0.0093585,-0.0633145,-0.0098678,0.0664557,0.0165607,-0.0548318,0.
 0692598,0.0488436,0.2142301,0.0170499,-0.0326089,0.0125034,0.2077944,0
 .0308756,-0.0240169,0.0310591,0.1642421\Polar=48.6132706,-0.9691975,58
 .8508317,1.2896756,5.0129733,52.1179306\Quadrupole=0.0640255,2.3254233
 ,-2.3894488,-0.2153081,0.2337458,3.4824848\PG=C01 [X(C4H12N1O1)]\NImag
 =0\\0.58772473,0.00978740,0.56077221,0.02363131,-0.04916113,0.52217604
 ,-0.09442022,0.00910630,0.02287686,0.64699803,0.01253004,-0.09005557,-
 0.04341779,-0.00371936,0.37717976,0.02529496,-0.03321798,-0.18217037,0
 .02205483,-0.01731055,0.57513275,0.00055687,0.00857452,-0.00061038,-0.
 10044520,-0.01529707,0.00415887,0.72001271,-0.00121143,-0.03582491,-0.
 00329465,-0.02024083,-0.11430326,-0.00425989,0.05678129,0.45831719,-0.
 00448108,-0.03550588,0.00793090,0.01106981,0.00547686,-0.09027656,-0.0
 9570425,-0.02822265,0.49146833,0.00077660,-0.00080730,-0.00039217,-0.0
 0453709,0.00522583,-0.00643094,-0.15487552,0.03121284,-0.06269142,0.58
 870024,-0.00066145,0.00086620,-0.00086097,0.02892520,-0.01477145,0.032
 63214,0.00629114,-0.08490660,0.04122100,0.03685779,0.12535817,0.000399
 15,-0.00312485,0.00013915,-0.01348472,0.01146737,-0.01308134,-0.015620
 44,0.04223420,-0.14361176,-0.04818802,-0.11263167,0.27563800,-0.000637
 43,-0.00052861,0.00032375,0.00264309,-0.00144218,-0.00377254,-0.101402
 16,0.00218883,0.02360927,-0.00371674,-0.00540254,-0.03154953,0.6472274
 8,-0.00121349,-0.00377300,0.00252876,0.00513560,-0.01790506,-0.0272104
 5,0.00530242,-0.09704365,-0.01492315,0.00168925,0.00676533,0.01688585,
 -0.00915650,0.49572856,0.00060444,0.00517075,-0.00146669,-0.00059493,-
 0.01344748,0.00956445,0.01531108,-0.00552466,-0.10662582,-0.00725770,-
 0.00358865,-0.03543805,0.02228384,-0.09791873,0.45641007,0.00075503,0.
 00053277,-0.00004180,-0.00067851,0.00008086,0.00148002,0.00065076,0.00
 601687,-0.00103903,0.00072282,0.00014678,0.00071582,-0.09285500,-0.025
 22901,0.00284775,0.58912331,-0.00023260,-0.00035662,0.00036361,-0.0000
 2418,0.00138892,-0.00092191,-0.00325638,-0.02385054,-0.01150075,0.0008
 4284,-0.00145544,0.00077480,-0.02112694,-0.19044355,0.02327797,-0.0215
 5174,0.48706176,-0.00038250,-0.00264555,0.00117976,0.00067136,0.001695
 54,-0.00658616,-0.00584137,-0.04373630,-0.00413611,0.00047018,-0.00151
 642,0.00251116,0.00396522,0.03344985,-0.08335472,0.00509789,-0.0004860
 0,0.59448215,-0.04910625,-0.02601646,0.00393514,-0.00108693,0.00678621
 ,-0.00203049,-0.00043141,0.00156478,0.00113143,0.00028051,0.00045519,0
 .00052194,0.00040411,0.00036392,-0.00031846,-0.00007155,0.00003475,0.0
 0022349,0.04929025,-0.02520588,-0.31560172,0.03793668,-0.00137606,-0.0
 1554486,0.00198382,0.00090636,0.00082829,-0.00241835,-0.00019884,0.000
 11826,-0.00038283,-0.00006550,-0.00026054,0.00066198,0.00006318,-0.000
 01880,-0.00025763,0.02704215,0.33963036,0.00407479,0.04012023,-0.05365
 913,-0.00364002,-0.02882107,0.00515113,0.00117026,-0.00515804,-0.00789
 904,0.00000530,0.00113086,0.00049643,-0.00026054,-0.00142205,0.0013621
 0,0.00016096,-0.00012257,-0.00076670,-0.00521368,-0.03953857,0.0573801
 6,-0.16110092,0.04853190,-0.12604729,0.00682047,-0.00503950,0.00767073
 ,-0.00010598,0.00024499,-0.00114756,-0.00034361,0.00111588,0.00071622,
 0.00000235,-0.00012311,-0.00007441,-0.00004050,0.00004004,-0.00003587,
 0.00219981,-0.00088036,0.00402030,0.16821604,0.04903987,-0.06973292,0.
 05821387,-0.01214618,0.00342184,-0.01427258,-0.00134713,0.00183032,-0.
 00008993,0.00072559,-0.00120443,0.00003245,0.00025957,-0.00028794,-0.0
 0027029,0.00001546,0.00000047,0.00018336,0.02136018,-0.00664397,0.0239
 6751,-0.05454846,0.07284086,-0.12432568,0.05518613,-0.19640756,-0.0179
 5582,0.00792323,-0.02210589,-0.00118200,0.00151468,-0.00050719,0.00066
 584,0.00113038,0.00167295,-0.00002173,-0.00017263,-0.00024502,0.000056
 54,0.00002315,0.00012500,-0.00148063,0.00098447,-0.00216501,0.13568356
 ,-0.05926496,0.21312124,-0.28891130,-0.04672132,0.06861345,-0.00454881
 ,-0.00046764,0.00171360,0.00069359,-0.00026882,-0.00035672,0.00012031,
 0.00052730,-0.00000869,0.00031473,0.00023953,0.00002315,-0.00004328,-0
 .00002508,0.00000606,-0.00197948,-0.00037450,-0.00009728,-0.01691449,-
 0.00468775,0.00620879,0.30938739,-0.04642733,-0.05742856,0.01408097,0.
 01778634,0.00017429,-0.00615284,0.00164261,0.00257685,0.00022585,-0.00
 028943,-0.00023107,0.00026808,-0.00002680,-0.00006895,-0.00046656,-0.0
 0008335,0.00005585,0.00015884,-0.03181553,-0.00380591,0.00898628,0.009
 22504,0.00120507,-0.00355850,0.05051782,0.05859862,0.06671814,0.012416
 55,-0.07115672,0.02995229,0.00656067,-0.01002898,-0.00006696,0.0013773
 5,0.00131622,0.00004495,0.00002605,0.00015742,-0.00008593,-0.00000976,
 -0.00013980,-0.00010425,0.00003847,0.00007100,0.00349148,0.00090111,-0
 .00166769,-0.02263975,-0.00613142,0.00906402,-0.07744245,-0.01122387,0
 .07561845,-0.00382764,0.00047236,0.00184810,-0.29178055,-0.04385881,0.
 07388386,-0.00293647,-0.00004522,-0.00059736,0.00264223,0.00044133,-0.
 00000707,-0.00008087,0.00029312,0.00021484,0.00039681,-0.00007431,-0.0
 0022830,0.00017042,0.00021382,0.00022119,0.00077823,0.00009853,0.00007
 608,0.00149072,0.00053506,0.00057323,0.30859600,0.01641783,0.00432929,
 -0.00422005,-0.03173185,-0.05560006,0.01296523,-0.03976797,-0.01939272
 ,0.01231381,-0.00074845,0.00312968,-0.00243488,-0.00087532,0.00152215,
 0.00215018,0.00020916,-0.00036483,-0.00035116,-0.00005794,0.00052035,0
 .00048409,-0.00080513,0.00027385,0.00024443,-0.00005619,-0.00099182,-0
 .00360560,0.04615091,0.07033346,0.02717525,0.00480552,-0.00747308,0.07
 469412,0.01269360,-0.07514146,0.00257716,0.00361837,-0.00212677,0.0004
 8896,-0.00080940,0.00002098,-0.00064852,-0.00018388,0.00004763,-0.0000
 0551,-0.00010884,-0.00009299,-0.00035463,0.00009651,0.00112335,-0.0002
 8357,0.00098296,0.00102693,0.00055911,-0.00313154,-0.00431464,-0.08237
 771,-0.01351694,0.07786239,0.00658841,-0.00333691,0.00671344,-0.163589
 77,0.04612948,-0.12594680,0.00139725,-0.00186233,0.00353873,0.00211795
 ,-0.00110447,0.00094124,-0.00005768,-0.00028319,-0.00056817,0.00021632
 ,0.00011296,0.00038187,0.00028801,-0.00020355,-0.00062177,0.00066254,0
 .00102664,0.00195912,0.00078619,-0.00055469,-0.00017427,-0.01718660,0.
 00888263,-0.02192018,0.16766337,-0.01148757,0.00593038,-0.01289448,0.0
 3637154,-0.06641926,0.04626911,0.02499650,-0.01528377,0.02547176,0.000
 86703,-0.00829437,0.00269287,0.00046266,0.00057280,0.00098203,-0.00029
 580,0.00002327,-0.00019245,-0.00017149,0.00056866,0.00044867,0.0018102
 2,-0.00138824,-0.00316847,0.00045676,0.00024352,0.00064197,-0.00371796
 ,0.00350334,-0.00558155,-0.04821269,0.08098687,-0.01731992,0.00637745,
 -0.02017199,-0.12611647,0.05340054,-0.19365471,-0.00160632,0.00243769,
 -0.00339150,0.00057599,-0.00021713,0.00129657,-0.00019202,-0.00120574,
 -0.00065526,0.00024127,0.00016278,0.00015378,-0.00013618,-0.00000922,0
 .00100451,0.00207753,-0.00311693,-0.00332446,0.00023528,0.00081663,0.0
 0108334,0.00647946,-0.00386109,0.00841622,0.13519467,-0.05383948,0.209
 09598,-0.00038652,-0.00006257,0.00026147,0.00227140,0.00168271,0.00115
 267,-0.02925627,-0.00588826,0.01000296,-0.40611593,-0.06444373,0.10511
 824,0.00248720,-0.00182616,-0.00073284,-0.00038023,-0.00019200,0.00021
 074,0.00014033,-0.00007720,-0.00004853,0.00003500,0.00035697,0.0002167
 9,0.00002517,-0.00002401,-0.00002146,0.00010299,0.00076675,-0.00010632
 ,0.00024040,-0.00089288,0.00004931,0.43119897,-0.00013659,-0.00053607,
 0.00011437,0.00441321,0.00159122,-0.00092062,0.02457934,0.00011084,-0.
 00311248,-0.09587024,-0.02914869,0.04932681,-0.00184084,0.00035373,-0.
 00044656,-0.00031690,0.00005006,-0.00037898,-0.00008964,-0.00002500,-0
 .00015492,0.00031630,-0.00033640,-0.00060302,-0.00031156,0.00016875,0.
 00005369,-0.00097179,-0.00040699,0.00119596,-0.00096900,-0.00039230,0.
 00006921,0.06855584,0.03026861,0.00046328,0.00002757,0.00024622,-0.000
 68033,-0.00114208,0.00136511,-0.04753369,-0.00435968,0.00421801,0.1644
 6815,0.05061283,-0.08979638,-0.00402568,-0.00033857,0.00239335,0.00038
 193,-0.00028414,-0.00034441,-0.00007146,0.00003529,-0.00001246,0.00025
 579,-0.00024669,-0.00031689,-0.00018343,0.00001516,-0.00031033,0.00080
 640,0.00056502,0.00008240,0.00019223,-0.00006943,-0.00015412,-0.111959
 09,-0.04774011,0.08907380,0.00039554,0.00026392,-0.00005504,-0.0001047
 1,-0.00043579,-0.00012372,-0.00427379,0.00039199,0.00033716,0.00263780
 ,-0.00013441,-0.00044246,-0.29123040,-0.04485441,0.07336133,-0.0026976
 7,-0.00178658,0.00024145,-0.00002945,0.00002668,0.00007678,0.00000500,
 -0.00000781,-0.00000997,-0.00001710,-0.00012215,-0.00016091,0.00051289
 ,0.00049556,0.00002161,-0.00005525,0.00001706,0.00012143,0.00010851,-0
 .00013928,0.00126342,0.30830618,-0.00008334,-0.00038719,-0.00009366,0.
 00097664,0.00144805,-0.00010489,0.02024180,0.00054730,-0.00907201,0.00
 009415,-0.00051094,0.00164495,-0.05233580,-0.06013995,0.01544837,-0.03
 185357,-0.00464560,0.00955450,-0.00002593,-0.00002484,-0.00001707,-0.0
 0000081,0.00005608,0.00004365,-0.00013560,-0.00000607,0.00010593,-0.00
 025633,-0.00037520,-0.00049557,0.00013242,-0.00008747,-0.00004596,-0.0
 0037228,0.00072944,0.00045151,0.05088474,0.06616247,-0.00015653,-0.000
 33340,-0.00006980,0.00028041,0.00221909,0.00014861,0.03466943,0.000470
 37,-0.02072930,0.00087328,0.00005851,0.00366254,0.06377908,0.01551866,
 -0.07116330,0.00157774,0.00110450,0.00037140,-0.00007176,-0.00002568,-
 0.00002566,0.00001771,0.00000275,-0.00001226,-0.00013048,0.00008292,0.
 00010956,-0.00037709,-0.00050612,0.00029401,-0.00012481,-0.00013183,0.
 00008461,-0.00066555,-0.00024186,-0.00105993,-0.08011116,-0.01051404,0
 .08233254,0.00022179,-0.00037068,0.00011983,-0.00006634,0.00061048,-0.
 00007303,0.00222357,-0.00220468,0.00441559,0.00212740,-0.00001868,0.00
 178792,-0.16532245,0.07490737,-0.11185955,0.00586747,-0.00297660,0.005
 90347,-0.00000174,-0.00001477,-0.00005511,-0.00003510,0.00004665,0.000
 12156,-0.00003687,0.00001650,0.00005036,-0.00004955,0.00003175,-0.0001
 7847,0.00076498,-0.00011862,0.00036050,0.00018029,0.00040228,0.0009197
 5,-0.01726826,0.01253810,-0.02001127,0.16926811,-0.00003059,0.00008445
 ,0.00011490,-0.00008201,-0.00035345,-0.00056772,-0.01262769,0.00531487
 ,-0.01198367,-0.00077034,-0.00061083,-0.00541234,0.08039885,-0.1016709
 2,0.07870786,0.02113600,-0.01435716,0.02115364,-0.00001184,-0.00000641
 ,0.00001688,-0.00004573,0.00012421,0.00002120,-0.00001377,0.00002289,0
 .00002811,-0.00010819,-0.00005513,-0.00007862,-0.00014143,-0.00118186,
 -0.00130289,0.00047569,-0.00020057,-0.00000123,-0.00390069,0.00279953,
 -0.00391972,-0.08154482,0.11285576,0.00039058,-0.00023710,0.00008744,-
 0.00055113,0.00161577,0.00027744,-0.02148628,0.01035866,-0.02482098,-0
 .00015193,-0.00255681,-0.00639627,-0.10363345,0.07175877,-0.15666370,-
 0.00017033,0.00122465,0.00083091,0.00002432,-0.00000202,0.00002741,-0.
 00002215,0.00021729,0.00020120,-0.00001156,0.00001085,-0.00003959,0.00
 005781,-0.00015285,0.00004742,0.00034113,-0.00100279,0.00040156,0.0007
 8180,-0.00014672,-0.00028668,0.00640368,-0.00442923,0.00920460,0.11844
 840,-0.07680939,0.17562102,-0.00006159,-0.00018556,0.00008486,0.000402
 83,0.00005280,-0.00041542,-0.00030977,-0.00159499,-0.00073817,0.000299
 74,-0.00068906,-0.00010170,-0.00103971,-0.00170386,-0.00579051,-0.0509
 6675,0.01498592,0.03127677,0.00002895,-0.00002481,-0.00004656,0.000002
 92,0.00001632,0.00001590,0.00001067,0.00000229,0.00000754,-0.00002933,
 0.00007474,-0.00001921,-0.00000315,-0.00001396,0.00002351,0.00013229,0
 .00011611,0.00004025,0.00017423,0.00029676,-0.00015662,0.00026199,0.00
 018728,0.00005758,0.05123086,-0.00015301,-0.00071988,0.00034502,0.0002
 8462,0.00050829,-0.00194699,-0.00121158,-0.00877380,0.00123883,0.00007
 996,0.00070487,0.00071875,0.00476116,-0.01376820,-0.03011740,0.0143760
 6,-0.09909605,-0.10502365,0.00006003,-0.00006187,-0.00023496,-0.000013
 97,0.00003060,0.00000799,0.00001328,0.00003708,0.00001674,-0.00007786,
 -0.00004557,-0.00000531,0.00005303,0.00002503,-0.00000172,0.00009271,-
 0.00006548,-0.00012012,-0.00033917,0.00120252,0.00000982,0.00059871,0.
 00109964,0.00011987,-0.01497457,0.10874804,0.00003119,0.00020755,-0.00
 007575,-0.00010080,0.00014521,0.00059464,-0.00026674,0.00399062,0.0015
 8068,0.00020212,-0.00080146,-0.00010899,-0.00101144,0.00076236,0.00332
 218,0.03076156,-0.10721643,-0.26829903,-0.00000769,0.00003487,0.000072
 45,0.00000878,0.00000024,0.00000467,-0.00000241,-0.00000700,-0.0000088
 8,0.00002097,-0.00000969,-0.00000520,-0.00001794,-0.00002332,-0.000002
 60,0.00003623,0.00007104,0.00003591,-0.00004481,-0.00036289,0.00043697
 ,-0.00017251,-0.00035256,0.00050060,-0.03352053,0.11529171,0.28631956,
 -0.00004858,0.00000032,0.00002488,0.00031996,-0.00012592,-0.00018752,0
 .00073636,0.00038034,-0.00004043,0.00012890,-0.00028992,-0.00042577,-0
 .00336010,-0.00101471,0.00095758,-0.28917002,-0.03887144,0.07294344,0.
 00001133,-0.00000564,-0.00001368,-0.00000611,-0.00000982,-0.00000166,0
 .00002857,-0.00002155,-0.00000213,-0.00003119,0.00017796,0.00003966,-0
 .00003592,0.00001572,0.00000290,0.00001018,0.00032800,0.00014643,0.001
 51916,-0.00016544,0.00036588,0.00078432,-0.00047526,-0.00022153,-0.003
 01096,0.00002162,0.00045061,0.30952584,0.00012638,0.00016261,-0.000027
 53,0.00010605,-0.00034046,0.00016848,-0.00095269,0.00244196,0.00143963
 ,0.00012822,0.00016584,-0.00026020,-0.03485046,-0.00786666,0.01059491,
 -0.03744022,-0.05687905,0.01245517,-0.00000812,0.00000968,0.00003442,0
 .00000162,-0.00001095,-0.00000965,0.00001731,-0.00003985,-0.00005661,0
 .00019519,0.00017402,-0.00000220,-0.00005310,-0.00000280,0.00004406,0.
 00003131,-0.00011505,0.00026037,-0.00050061,-0.00642971,0.00006513,0.0
 0043459,0.00149528,-0.00020863,0.01485844,0.00277577,-0.00293373,0.044
 56222,0.06260947,0.00000717,0.00008994,-0.00003044,-0.00001323,-0.0002
 8651,0.00012626,-0.00141852,0.00026467,0.00140911,0.00027140,-0.000000
 49,-0.00024740,0.00214213,-0.00148709,-0.00317492,0.07158062,0.0140477
 6,-0.07142789,0.00000180,0.00001125,0.00001785,-0.00001128,-0.00001757
 ,-0.00000406,0.00001746,-0.00001407,0.00000852,0.00001228,-0.00002676,
 -0.00005645,0.00001334,0.00002839,-0.00001460,0.00000092,0.00022230,-0
 .00001147,-0.00013204,0.00052714,0.00109502,0.00037915,-0.00002896,-0.
 00016710,0.02818796,0.00585752,-0.00721903,-0.08062513,-0.01422235,0.0
 7145191,-0.00003802,-0.00000148,-0.00004948,0.00000490,0.00014957,0.00
 006336,-0.00018448,0.00076508,-0.00093213,-0.00025384,-0.00124532,-0.0
 0049180,0.00602281,-0.00270827,0.00785305,-0.16227726,0.07351881,-0.11
 356814,0.00000350,-0.00000005,0.00001561,0.00002868,0.00000323,0.00000
 328,-0.00000662,0.00000905,-0.00000769,0.00000484,-0.00001536,0.000008
 32,-0.00003272,0.00003095,0.00002720,0.00006587,-0.00036174,-0.0001062
 6,0.00075056,0.00066161,0.00053825,0.00082727,-0.00250659,-0.00032311,
 0.00295012,-0.00325584,0.00364588,-0.01704648,0.01300007,-0.02063540,0
 .16939030,-0.00006127,0.00017963,-0.00010270,-0.00011097,-0.00046359,-
 0.00005301,0.00165812,0.00097698,0.00215254,-0.00100217,0.00123012,-0.
 00060904,0.02208626,-0.01634855,0.02245604,0.07186445,-0.09860742,0.07
 570479,-0.00002308,0.00001588,0.00001754,0.00000131,-0.00009132,-0.000
 09020,0.00000737,-0.00001829,-0.00000435,0.00001044,0.00003052,0.00006
 117,-0.00013603,0.00028462,-0.00009147,-0.00034733,-0.00074546,-0.0003
 5530,-0.00013078,0.00137903,-0.00047691,-0.00196712,-0.00579725,-0.000
 33451,-0.01079149,0.00753674,-0.00904131,-0.00309194,0.00244743,-0.004
 91423,-0.07810749,0.10826472,0.00001727,0.00006107,-0.00005678,-0.0002
 2073,-0.00015582,-0.00007174,0.00042173,0.00057606,0.00042343,-0.00015
 836,-0.00170087,-0.00085079,0.00012544,-0.00046273,-0.00153259,-0.1131
 2952,0.07877855,-0.16636124,-0.00000521,0.00000952,0.00001880,0.000001
 15,-0.00004159,-0.00000181,0.00000741,-0.00001177,0.00000387,0.,0.0000
 1955,0.00001315,0.00002470,0.00010800,0.00003868,-0.00017420,-0.000000
 95,0.00005955,-0.00003282,0.00025674,-0.00005018,0.00025661,-0.0002724
 6,0.00092036,-0.01863185,0.01331868,-0.01709350,0.00714466,-0.00623826
 ,0.00794951,0.12420806,-0.08423319,0.17652511,0.00151951,0.00076140,-0
 .00123693,0.00179745,-0.00286169,0.00150755,-0.33205004,-0.06623047,0.
 11362321,-0.03071179,-0.00077102,0.00011965,0.00060077,0.00018149,0.00
 373950,0.00144824,0.00058251,-0.00133578,-0.00011042,0.00017496,0.0002
 5199,-0.00020434,-0.00020186,-0.00002997,-0.00039939,-0.00036987,-0.00
 013218,0.00122706,0.00085092,0.00032993,0.00023568,-0.00011747,-0.0000
 1814,-0.00085965,0.00229650,-0.00437769,0.00126677,-0.00059714,-0.0002
 9652,0.00025310,0.00006112,0.00006618,-0.00007334,-0.00031519,-0.00001
 248,-0.00035525,0.00034381,0.00022135,-0.00020942,0.00014173,0.0001456
 7,0.35662508,-0.00099697,0.00209165,0.00037476,-0.03367407,-0.00995537
 ,0.01292064,-0.07651358,-0.07356535,0.02728859,0.02196327,0.00279536,-
 0.00119033,0.01749416,0.00463442,-0.00766976,0.00232900,0.00149472,0.0
 0023245,0.00055280,0.00030245,0.00026278,0.00016978,-0.00008714,-0.000
 21185,0.00128285,-0.00049241,-0.00113502,0.00069971,-0.00658434,0.0004
 5976,0.00052021,0.00091160,0.00038328,0.00216445,-0.00130066,0.0026896
 0,0.00027172,-0.00171745,-0.00338218,-0.00037045,0.00043695,0.00057418
 ,-0.00061238,-0.00013773,0.00024479,-0.00141455,-0.00059753,-0.0000509
 7,0.00006378,-0.00027380,-0.00001052,0.06607026,0.08204465,-0.00214182
 ,-0.00023689,0.00097880,0.00175849,0.00138341,0.00075682,0.13302840,0.
 02771322,-0.10422165,-0.04279563,-0.00212790,0.00393579,0.02897266,0.0
 0443054,-0.01263991,-0.00041166,0.00084441,0.00164410,0.00036060,-0.00
 002122,-0.00045850,-0.00018990,-0.00014847,-0.00012583,0.00084872,-0.0
 0007942,0.00023425,-0.00060669,-0.00005716,0.00027609,0.00007347,0.000
 26100,-0.00020601,-0.00412315,0.00269283,-0.00518169,-0.00071392,-0.00
 289746,-0.00462944,-0.00041323,0.00068697,0.00025436,-0.00027382,0.000
 52521,-0.00005467,-0.00055818,-0.00110299,0.00029518,-0.00024900,-0.00
 008587,0.00006619,-0.11256534,-0.03178022,0.11907612\\0.00000092,-0.00
 000629,-0.00000044,-0.00000245,0.00001784,-0.00000191,0.00004790,-0.00
 000525,0.00002742,-0.00006146,-0.00000171,0.00000477,-0.00000535,-0.00
 001270,-0.00001524,-0.00001848,-0.00000490,0.00000167,0.00000134,-0.00
 000027,-0.00000184,0.00000069,-0.00000214,0.00000176,-0.00000005,0.000
 00101,-0.00000027,-0.00000135,-0.00000179,-0.00000038,0.00000049,-0.00
 000519,-0.00000248,0.00000563,0.00001234,-0.00001912,-0.00000039,0.000
 00364,-0.00000581,0.00000899,0.00000681,-0.00000134,0.00000511,-0.0000
 0383,0.00000425,0.00000472,0.00000520,-0.00000393,0.00000731,0.0000031
 4,-0.00000199,0.00000644,-0.00000591,0.00001487\\\@


 THERE ARE TWO THINGS THAT EVERYBODY THINKS THEY CAN DO BETTER THAN
 ANYONE ELSE - PUNCH THE FIRE, AND EDIT A DAILY PAPER.
 -- UNCLE ESEK, "CENTURY MAGAZINE", 1885
 Job cpu time:       0 days  0 hours  5 minutes 22.9 seconds.
 Elapsed time:       0 days  0 hours  0 minutes 13.9 seconds.
 File lengths (MBytes):  RWF=     32 Int=      0 D2E=      0 Chk=      2 Scr=      1
 Normal termination of Gaussian 16 at Mon Oct 14 01:02:40 2019.
real 50.36
user 1077.21
sys 13.33
Machine:
brown-a488
brown-a488
brown-a488
brown-a488
brown-a488
brown-a488
brown-a488
brown-a488
brown-a488
brown-a488
brown-a488
brown-a488
brown-a488
brown-a488
brown-a488
brown-a488
brown-a488
brown-a488
brown-a488
brown-a488
brown-a488
brown-a488
brown-a488
brown-a488
