Title Card Required                                                     
Freq      RB3LYP                                                      6-31G(d)            
Number of atoms                            I               18
Info1-9                                    I   N=           9
          46          46        1002           0           0         100
           6          18        -502
Full Title                                 C   N=           2
Title Card Required     
Route                                      C   N=           6
#P opt freq b3lyp/6-31g(d) geom=connectivity temperature=0.0
01          
Charge                                     I                1
Multiplicity                               I                1
Number of electrons                        I               50
Number of alpha electrons                  I               25
Number of beta electrons                   I               25
Number of basis functions                  I              114
Number of independent functions            I              114
Number of point charges in /Mol/           I                0
Number of translation vectors              I                0
Atomic numbers                             I   N=          18
           6           6           7           8           6           6
           1           1           1           1           1           1
           1           1           1           1           1           1
Nuclear charges                            R   N=          18
  6.00000000E+00  6.00000000E+00  7.00000000E+00  8.00000000E+00  6.00000000E+00
  6.00000000E+00  1.00000000E+00  1.00000000E+00  1.00000000E+00  1.00000000E+00
  1.00000000E+00  1.00000000E+00  1.00000000E+00  1.00000000E+00  1.00000000E+00
  1.00000000E+00  1.00000000E+00  1.00000000E+00
Current cartesian coordinates              R   N=          54
  4.75293905E+00 -4.59408791E-02  5.89898022E-01  2.42099399E+00 -1.29552690E+00
 -5.28997803E-01  4.34587094E-05  9.39455072E-03  2.96189309E-01 -2.13676523E-04
  2.60783078E+00 -3.71045193E-01 -2.42079385E+00 -1.29592157E+00 -5.28480972E-01
 -4.75286859E+00 -4.59548883E-02  5.89687197E-01  6.41866385E+00 -1.08208835E+00
 -6.22227789E-02  4.93911004E+00  1.91992225E+00 -9.13180756E-03  4.74263634E+00
 -1.23293880E-01  2.65861324E+00  2.39918238E+00 -1.25699180E+00 -2.59707239E+00
  2.21527030E+00 -3.25941521E+00  8.37961816E-02 -9.63109240E-04  2.64913892E+00
 -2.22131780E+00 -2.39889044E+00 -1.25834831E+00 -2.59656454E+00 -2.21504576E+00
 -3.25947607E+00  8.53882766E-02 -6.41837598E+00 -1.08285117E+00 -6.18180081E-02
 -4.74260792E+00 -1.22108482E-01  2.65846832E+00 -4.93940798E+00  1.91956887E+00
 -1.03226832E-02  2.09918248E-04  1.27600557E-01  2.23458170E+00
Number of symbols in /Mol/                 I                0
Force Field                                I                0
Atom Types                                 C   N=          18
                                                            
                                                            
                                                            
                                    
Int Atom Types                             I   N=          18
           0           0           0           0           0           0
           0           0           0           0           0           0
           0           0           0           0           0           0
MM charges                                 R   N=          18
  0.00000000E+00  0.00000000E+00  0.00000000E+00  0.00000000E+00  0.00000000E+00
  0.00000000E+00  0.00000000E+00  0.00000000E+00  0.00000000E+00  0.00000000E+00
  0.00000000E+00  0.00000000E+00  0.00000000E+00  0.00000000E+00  0.00000000E+00
  0.00000000E+00  0.00000000E+00  0.00000000E+00
Integer atomic weights                     I   N=          18
          12          12          14          16          12          12
           1           1           1           1           1           1
           1           1           1           1           1           1
Real atomic weights                        R   N=          18
  1.20000000E+01  1.20000000E+01  1.40030740E+01  1.59949146E+01  1.20000000E+01
  1.20000000E+01  1.00782504E+00  1.00782504E+00  1.00782504E+00  1.00782504E+00
  1.00782504E+00  1.00782504E+00  1.00782504E+00  1.00782504E+00  1.00782504E+00
  1.00782504E+00  1.00782504E+00  1.00782504E+00
Atom fragment info                         I   N=          18
           0           0           0           0           0           0
           0           0           0           0           0           0
           0           0           0           0           0           0
Atom residue num                           I   N=          18
           0           0           0           0           0           0
           0           0           0           0           0           0
           0           0           0           0           0           0
Nuclear spins                              I   N=          18
           0           0           2           0           0           0
           1           1           1           1           1           1
           1           1           1           1           1           1
Nuclear ZEff                               R   N=          18
 -3.60000000E+00 -3.60000000E+00 -4.55000000E+00 -5.60000000E+00 -3.60000000E+00
 -3.60000000E+00 -1.00000000E+00 -1.00000000E+00 -1.00000000E+00 -1.00000000E+00
 -1.00000000E+00 -1.00000000E+00 -1.00000000E+00 -1.00000000E+00 -1.00000000E+00
 -1.00000000E+00 -1.00000000E+00 -1.00000000E+00
Nuclear ZNuc                               R   N=          18
  6.00000000E+00  6.00000000E+00  7.00000000E+00  8.00000000E+00  6.00000000E+00
  6.00000000E+00  1.00000000E+00  1.00000000E+00  1.00000000E+00  1.00000000E+00
  1.00000000E+00  1.00000000E+00  1.00000000E+00  1.00000000E+00  1.00000000E+00
  1.00000000E+00  1.00000000E+00  1.00000000E+00
Nuclear QMom                               R   N=          18
  0.00000000E+00  0.00000000E+00  2.04400000E+00  0.00000000E+00  0.00000000E+00
  0.00000000E+00  0.00000000E+00  0.00000000E+00  0.00000000E+00  0.00000000E+00
  0.00000000E+00  0.00000000E+00  0.00000000E+00  0.00000000E+00  0.00000000E+00
  0.00000000E+00  0.00000000E+00  0.00000000E+00
Nuclear GFac                               R   N=          18
  0.00000000E+00  0.00000000E+00  4.03761000E-01  0.00000000E+00  0.00000000E+00
  0.00000000E+00  2.79284600E+00  2.79284600E+00  2.79284600E+00  2.79284600E+00
  2.79284600E+00  2.79284600E+00  2.79284600E+00  2.79284600E+00  2.79284600E+00
  2.79284600E+00  2.79284600E+00  2.79284600E+00
MicOpt                                     I   N=          18
          -1          -1          -1          -1          -1          -1
          -1          -1          -1          -1          -1          -1
          -1          -1          -1          -1          -1          -1
Number of residues                         I                0
Number of secondary structures             I                0
Redundant internal dimensions              I   N=           4
          87          17          31          39
Redundant internal coordinate indices      I   N=         348
           1           2           0           0           1           7
           0           0           1           8           0           0
           1           9           0           0           2           3
           0           0           2          10           0           0
           2          11           0           0           3           4
           0           0           3           5           0           0
           3          18           0           0           4          12
           0           0           5           6           0           0
           5          13           0           0           5          14
           0           0           6          15           0           0
           6          16           0           0           6          17
           0           0           2           1           7           0
           2           1           8           0           2           1
           9           0           7           1           8           0
           7           1           9           0           8           1
           9           0           1           2           3           0
           1           2          10           0           1           2
          11           0           3           2          10           0
           3           2          11           0          10           2
          11           0           2           3           4           0
           2           3           5           0           2           3
          18           0           4           3           5           0
           4           3          18           0           5           3
          18           0           3           4          12           0
           3           5           6           0           3           5
          13           0           3           5          14           0
           6           5          13           0           6           5
          14           0          13           5          14           0
           5           6          15           0           5           6
          16           0           5           6          17           0
          15           6          16           0          15           6
          17           0          16           6          17           0
           7           1           2           3           7           1
           2          10           7           1           2          11
           8           1           2           3           8           1
           2          10           8           1           2          11
           9           1           2           3           9           1
           2          10           9           1           2          11
           1           2           3           4           1           2
           3           5           1           2           3          18
          10           2           3           4          10           2
           3           5          10           2           3          18
          11           2           3           4          11           2
           3           5          11           2           3          18
           2           3           4          12           5           3
           4          12          18           3           4          12
           2           3           5           6           2           3
           5          13           2           3           5          14
           4           3           5           6           4           3
           5          13           4           3           5          14
          18           3           5           6          18           3
           5          13          18           3           5          14
           3           5           6          15           3           5
           6          16           3           5           6          17
          13           5           6          15          13           5
           6          16          13           5           6          17
          14           5           6          15          14           5
           6          16          14           5           6          17
Redundant internal coordinates             R   N=          87
  2.87251821E+00  2.06724508E+00  2.06351986E+00  2.07018654E+00  2.87136818E+00
  2.06854857E+00  2.06753380E+00  2.68273606E+00  2.87130363E+00  1.94199324E+00
  1.85073381E+00  2.87250576E+00  2.06854083E+00  2.06753816E+00  2.06725126E+00
  2.07020772E+00  2.06351459E+00  1.88937903E+00  1.95475487E+00  1.94867110E+00
  1.88938806E+00  1.87602540E+00  1.90300819E+00  1.95500898E+00  1.97130229E+00
  1.95900950E+00  1.84415019E+00  1.83651891E+00  1.88911162E+00  1.94849622E+00
  2.00613575E+00  1.89066483E+00  1.94852265E+00  1.76124279E+00  1.89064409E+00
  1.84447056E+00  1.95505097E+00  1.84415039E+00  1.83647794E+00  1.97128921E+00
  1.95894811E+00  1.88918807E+00  1.88929816E+00  1.94869315E+00  1.95485726E+00
  1.87599255E+00  1.88945637E+00  1.90292611E+00  3.13300717E+00 -1.07027792E+00
  1.07135774E+00 -1.06846576E+00  1.01143446E+00 -3.13011519E+00  1.07136235E+00
 -3.13192273E+00 -9.90287074E-01  1.00411135E+00 -3.03683358E+00 -9.19940010E-01
 -1.14918962E+00  1.09305076E+00 -3.07324098E+00  3.13727406E+00 -9.03670867E-01
  1.21322270E+00  1.13657280E+00 -1.13593636E+00 -3.14126779E+00  3.03737596E+00
 -1.09249912E+00  9.04290734E-01 -1.00358217E+00  1.14972806E+00 -3.13666739E+00
  9.20471086E-01  3.07378131E+00 -1.21261414E+00 -3.13278874E+00 -1.07122190E+00
  1.06859023E+00  1.07047539E+00  3.13204224E+00 -1.01133094E+00 -1.07120458E+00
  9.90362272E-01  3.13017440E+00
ZRed-IntVec                                I   N=          87
           0           0           0           0           0           0
           0           0           0           0           0           0
           0           0           0           0           0           0
           0           0           0           0           0           0
           0           0           0           0           0           0
           0           0           0           0           0           0
           0           0           0           0           0           0
           0           0           0           0           0           0
           0           0           0           0           0           0
           0           0           0           0           0           0
           0           0           0           0           0           0
           0           0           0           0           0           0
           0           0           0           0           0           0
           0           0           0           0           0           0
           0           0           0
ZRed-FPVec                                 R   N=          87
  0.00000000E+00  0.00000000E+00  0.00000000E+00  0.00000000E+00  0.00000000E+00
  0.00000000E+00  0.00000000E+00  0.00000000E+00  0.00000000E+00  0.00000000E+00
  0.00000000E+00  0.00000000E+00  0.00000000E+00  0.00000000E+00  0.00000000E+00
  0.00000000E+00  0.00000000E+00  0.00000000E+00  0.00000000E+00  0.00000000E+00
  0.00000000E+00  0.00000000E+00  0.00000000E+00  0.00000000E+00  0.00000000E+00
  0.00000000E+00  0.00000000E+00  0.00000000E+00  0.00000000E+00  0.00000000E+00
  0.00000000E+00  0.00000000E+00  0.00000000E+00  0.00000000E+00  0.00000000E+00
  0.00000000E+00  0.00000000E+00  0.00000000E+00  0.00000000E+00  0.00000000E+00
  0.00000000E+00  0.00000000E+00  0.00000000E+00  0.00000000E+00  0.00000000E+00
  0.00000000E+00  0.00000000E+00  0.00000000E+00  0.00000000E+00  0.00000000E+00
  0.00000000E+00  0.00000000E+00  0.00000000E+00  0.00000000E+00  0.00000000E+00
  0.00000000E+00  0.00000000E+00  0.00000000E+00  0.00000000E+00  0.00000000E+00
  0.00000000E+00  0.00000000E+00  0.00000000E+00  0.00000000E+00  0.00000000E+00
  0.00000000E+00  0.00000000E+00  0.00000000E+00  0.00000000E+00  0.00000000E+00
  0.00000000E+00  0.00000000E+00  0.00000000E+00  0.00000000E+00  0.00000000E+00
  0.00000000E+00  0.00000000E+00  0.00000000E+00  0.00000000E+00  0.00000000E+00
  0.00000000E+00  0.00000000E+00  0.00000000E+00  0.00000000E+00  0.00000000E+00
  0.00000000E+00  0.00000000E+00
ZRed-Constraint1                           R   N=          87
  2.87251821E+00  2.06724508E+00  2.06351986E+00  2.07018654E+00  2.87136818E+00
  2.06854857E+00  2.06753380E+00  2.68273606E+00  2.87130363E+00  1.94199324E+00
  1.85073381E+00  2.87250576E+00  2.06854083E+00  2.06753816E+00  2.06725126E+00
  2.07020772E+00  2.06351459E+00  1.88937903E+00  1.95475487E+00  1.94867110E+00
  1.88938806E+00  1.87602540E+00  1.90300819E+00  1.95500898E+00  1.97130229E+00
  1.95900950E+00  1.84415019E+00  1.83651891E+00  1.88911162E+00  1.94849622E+00
  2.00613575E+00  1.89066483E+00  1.94852265E+00  1.76124279E+00  1.89064409E+00
  1.84447056E+00  1.95505097E+00  1.84415039E+00  1.83647794E+00  1.97128921E+00
  1.95894811E+00  1.88918807E+00  1.88929816E+00  1.94869315E+00  1.95485726E+00
  1.87599255E+00  1.88945637E+00  1.90292611E+00  3.13300717E+00 -1.07027792E+00
  1.07135774E+00 -1.06846576E+00  1.01143446E+00 -3.13011519E+00  1.07136235E+00
 -3.13192273E+00 -9.90287074E-01  1.00411135E+00 -3.03683358E+00 -9.19940010E-01
 -1.14918962E+00  1.09305076E+00 -3.07324098E+00  3.13727406E+00 -9.03670867E-01
  1.21322270E+00  1.13657280E+00 -1.13593636E+00 -3.14126779E+00  3.03737596E+00
 -1.09249912E+00  9.04290734E-01 -1.00358217E+00  1.14972806E+00 -3.13666739E+00
  9.20471086E-01  3.07378131E+00 -1.21261414E+00 -3.13278874E+00 -1.07122190E+00
  1.06859023E+00  1.07047539E+00  3.13204224E+00 -1.01133094E+00 -1.07120458E+00
  9.90362272E-01  3.13017440E+00
ZRed-Constraint2                           R   N=          87
  2.91877829E+00  2.05969850E+00  2.05959930E+00  2.05978606E+00  2.81474204E+00
  2.05980610E+00  2.05991112E+00  2.57846401E+00  2.81857357E+00  1.88972613E+00
  1.81419367E+00  2.91686226E+00  2.05979504E+00  2.05978923E+00  2.05978200E+00
  2.05975281E+00  2.05973970E+00  1.91058063E+00  1.91065384E+00  1.91056018E+00
  1.91069856E+00  1.91062809E+00  1.91067810E+00  1.97372536E+00  1.86191276E+00
  1.86198640E+00  1.83802868E+00  1.83798387E+00  2.09439856E+00  1.91048924E+00
  1.96733842E+00  1.88850889E+00  1.91795092E+00  1.88927029E+00  1.88840132E+00
  1.91062398E+00  1.97562480E+00  1.83826932E+00  1.83830593E+00  1.86089257E+00
  1.86088509E+00  2.09434748E+00  1.91064137E+00  1.91065791E+00  1.91060277E+00
  1.91062959E+00  1.91068916E+00  1.91057862E+00  3.06797960E+00 -1.20282047E+00
  1.05560345E+00 -1.12075020E+00  8.91635037E-01 -3.13312635E+00  9.73667731E-01
  2.98605297E+00 -1.03870842E+00  1.09257860E+00 -3.05035600E+00 -9.62761107E-01
 -9.34027867E-01  1.20622284E+00 -2.98936757E+00  3.11924632E+00 -1.02368828E+00
  1.06390662E+00  1.77784068E+00 -3.91555270E-01 -2.45048147E+00  3.04996156E+00
 -1.20672047E+00  1.02344490E+00 -1.09716018E+00  9.29343093E-01 -3.12367684E+00
  9.62304434E-01  2.98880771E+00 -1.06421222E+00 -2.87972531E+00 -7.85314583E-01
  1.30901008E+00  1.39039748E+00 -2.79837710E+00 -7.04052435E-01 -8.66623038E-01
  1.22778769E+00 -2.96107296E+00
SymInf integers                            I   N=          26
           1           1           1           1           1           0
           0           0           0           0           0           0
           0           0           0           0           0           0
           0           0           0           0           0           0
           0           0
RotTr to input orientation                 R   N=          12
  1.95179760E-02 -8.83491477E-01 -4.68040445E-01 -3.70089431E-01  4.28493214E-01
 -8.24273849E-01  9.28791076E-01  1.89304979E-01 -3.18607537E-01  3.74375720E+00
 -1.24103180E+00 -2.17669653E+00
Number of contracted shells                I               48
Number of primitive shells                 I              114
Pure/Cartesian d shells                    I                1
Pure/Cartesian f shells                    I                0
Highest angular momentum                   I                2
Largest degree of contraction              I                6
Shell types                                I   N=          48
           0          -1          -1           2           0          -1
          -1           2           0          -1          -1           2
           0          -1          -1           2           0          -1
          -1           2           0          -1          -1           2
           0           0           0           0           0           0
           0           0           0           0           0           0
           0           0           0           0           0           0
           0           0           0           0           0           0
Number of primitives per shell             I   N=          48
           6           3           1           1           6           3
           1           1           6           3           1           1
           6           3           1           1           6           3
           1           1           6           3           1           1
           3           1           3           1           3           1
           3           1           3           1           3           1
           3           1           3           1           3           1
           3           1           3           1           3           1
Shell to atom map                          I   N=          48
           1           1           1           1           2           2
           2           2           3           3           3           3
           4           4           4           4           5           5
           5           5           6           6           6           6
           7           7           8           8           9           9
          10          10          11          11          12          12
          13          13          14          14          15          15
          16          16          17          17          18          18
Primitive exponents                        R   N=         114
  3.04752488E+03  4.57369518E+02  1.03948685E+02  2.92101553E+01  9.28666296E+00
  3.16392696E+00  7.86827235E+00  1.88128854E+00  5.44249258E-01  1.68714478E-01
  8.00000000E-01  3.04752488E+03  4.57369518E+02  1.03948685E+02  2.92101553E+01
  9.28666296E+00  3.16392696E+00  7.86827235E+00  1.88128854E+00  5.44249258E-01
  1.68714478E-01  8.00000000E-01  4.17351146E+03  6.27457911E+02  1.42902093E+02
  4.02343293E+01  1.28202129E+01  4.39043701E+00  1.16263619E+01  2.71627981E+00
  7.72218397E-01  2.12031498E-01  8.00000000E-01  5.48467166E+03  8.25234946E+02
  1.88046958E+02  5.29645000E+01  1.68975704E+01  5.79963534E+00  1.55396162E+01
  3.59993359E+00  1.01376175E+00  2.70005823E-01  8.00000000E-01  3.04752488E+03
  4.57369518E+02  1.03948685E+02  2.92101553E+01  9.28666296E+00  3.16392696E+00
  7.86827235E+00  1.88128854E+00  5.44249258E-01  1.68714478E-01  8.00000000E-01
  3.04752488E+03  4.57369518E+02  1.03948685E+02  2.92101553E+01  9.28666296E+00
  3.16392696E+00  7.86827235E+00  1.88128854E+00  5.44249258E-01  1.68714478E-01
  8.00000000E-01  1.87311370E+01  2.82539436E+00  6.40121692E-01  1.61277759E-01
  1.87311370E+01  2.82539436E+00  6.40121692E-01  1.61277759E-01  1.87311370E+01
  2.82539436E+00  6.40121692E-01  1.61277759E-01  1.87311370E+01  2.82539436E+00
  6.40121692E-01  1.61277759E-01  1.87311370E+01  2.82539436E+00  6.40121692E-01
  1.61277759E-01  1.87311370E+01  2.82539436E+00  6.40121692E-01  1.61277759E-01
  1.87311370E+01  2.82539436E+00  6.40121692E-01  1.61277759E-01  1.87311370E+01
  2.82539436E+00  6.40121692E-01  1.61277759E-01  1.87311370E+01  2.82539436E+00
  6.40121692E-01  1.61277759E-01  1.87311370E+01  2.82539436E+00  6.40121692E-01
  1.61277759E-01  1.87311370E+01  2.82539436E+00  6.40121692E-01  1.61277759E-01
  1.87311370E+01  2.82539436E+00  6.40121692E-01  1.61277759E-01
Contraction coefficients                   R   N=         114
  1.83473713E-03  1.40373228E-02  6.88426223E-02  2.32184443E-01  4.67941348E-01
  3.62311985E-01 -1.19332420E-01 -1.60854152E-01  1.14345644E+00  1.00000000E+00
  1.00000000E+00  1.83473713E-03  1.40373228E-02  6.88426223E-02  2.32184443E-01
  4.67941348E-01  3.62311985E-01 -1.19332420E-01 -1.60854152E-01  1.14345644E+00
  1.00000000E+00  1.00000000E+00  1.83477216E-03  1.39946270E-02  6.85865518E-02
  2.32240873E-01  4.69069948E-01  3.60455199E-01 -1.14961182E-01 -1.69117479E-01
  1.14585195E+00  1.00000000E+00  1.00000000E+00  1.83107443E-03  1.39501722E-02
  6.84450781E-02  2.32714336E-01  4.70192898E-01  3.58520853E-01 -1.10777550E-01
 -1.48026263E-01  1.13076702E+00  1.00000000E+00  1.00000000E+00  1.83473713E-03
  1.40373228E-02  6.88426223E-02  2.32184443E-01  4.67941348E-01  3.62311985E-01
 -1.19332420E-01 -1.60854152E-01  1.14345644E+00  1.00000000E+00  1.00000000E+00
  1.83473713E-03  1.40373228E-02  6.88426223E-02  2.32184443E-01  4.67941348E-01
  3.62311985E-01 -1.19332420E-01 -1.60854152E-01  1.14345644E+00  1.00000000E+00
  1.00000000E+00  3.34946043E-02  2.34726953E-01  8.13757326E-01  1.00000000E+00
  3.34946043E-02  2.34726953E-01  8.13757326E-01  1.00000000E+00  3.34946043E-02
  2.34726953E-01  8.13757326E-01  1.00000000E+00  3.34946043E-02  2.34726953E-01
  8.13757326E-01  1.00000000E+00  3.34946043E-02  2.34726953E-01  8.13757326E-01
  1.00000000E+00  3.34946043E-02  2.34726953E-01  8.13757326E-01  1.00000000E+00
  3.34946043E-02  2.34726953E-01  8.13757326E-01  1.00000000E+00  3.34946043E-02
  2.34726953E-01  8.13757326E-01  1.00000000E+00  3.34946043E-02  2.34726953E-01
  8.13757326E-01  1.00000000E+00  3.34946043E-02  2.34726953E-01  8.13757326E-01
  1.00000000E+00  3.34946043E-02  2.34726953E-01  8.13757326E-01  1.00000000E+00
  3.34946043E-02  2.34726953E-01  8.13757326E-01  1.00000000E+00
P(S=P) Contraction coefficients            R   N=         114
  0.00000000E+00  0.00000000E+00  0.00000000E+00  0.00000000E+00  0.00000000E+00
  0.00000000E+00  6.89990666E-02  3.16423961E-01  7.44308291E-01  1.00000000E+00
  0.00000000E+00  0.00000000E+00  0.00000000E+00  0.00000000E+00  0.00000000E+00
  0.00000000E+00  0.00000000E+00  6.89990666E-02  3.16423961E-01  7.44308291E-01
  1.00000000E+00  0.00000000E+00  0.00000000E+00  0.00000000E+00  0.00000000E+00
  0.00000000E+00  0.00000000E+00  0.00000000E+00  6.75797439E-02  3.23907296E-01
  7.40895140E-01  1.00000000E+00  0.00000000E+00  0.00000000E+00  0.00000000E+00
  0.00000000E+00  0.00000000E+00  0.00000000E+00  0.00000000E+00  7.08742682E-02
  3.39752839E-01  7.27158577E-01  1.00000000E+00  0.00000000E+00  0.00000000E+00
  0.00000000E+00  0.00000000E+00  0.00000000E+00  0.00000000E+00  0.00000000E+00
  6.89990666E-02  3.16423961E-01  7.44308291E-01  1.00000000E+00  0.00000000E+00
  0.00000000E+00  0.00000000E+00  0.00000000E+00  0.00000000E+00  0.00000000E+00
  0.00000000E+00  6.89990666E-02  3.16423961E-01  7.44308291E-01  1.00000000E+00
  0.00000000E+00  0.00000000E+00  0.00000000E+00  0.00000000E+00  0.00000000E+00
  0.00000000E+00  0.00000000E+00  0.00000000E+00  0.00000000E+00  0.00000000E+00
  0.00000000E+00  0.00000000E+00  0.00000000E+00  0.00000000E+00  0.00000000E+00
  0.00000000E+00  0.00000000E+00  0.00000000E+00  0.00000000E+00  0.00000000E+00
  0.00000000E+00  0.00000000E+00  0.00000000E+00  0.00000000E+00  0.00000000E+00
  0.00000000E+00  0.00000000E+00  0.00000000E+00  0.00000000E+00  0.00000000E+00
  0.00000000E+00  0.00000000E+00  0.00000000E+00  0.00000000E+00  0.00000000E+00
  0.00000000E+00  0.00000000E+00  0.00000000E+00  0.00000000E+00  0.00000000E+00
  0.00000000E+00  0.00000000E+00  0.00000000E+00  0.00000000E+00  0.00000000E+00
  0.00000000E+00  0.00000000E+00  0.00000000E+00  0.00000000E+00
Coordinates of each shell                  R   N=         144
  4.75293905E+00 -4.59408791E-02  5.89898022E-01  4.75293905E+00 -4.59408791E-02
  5.89898022E-01  4.75293905E+00 -4.59408791E-02  5.89898022E-01  4.75293905E+00
 -4.59408791E-02  5.89898022E-01  2.42099399E+00 -1.29552690E+00 -5.28997803E-01
  2.42099399E+00 -1.29552690E+00 -5.28997803E-01  2.42099399E+00 -1.29552690E+00
 -5.28997803E-01  2.42099399E+00 -1.29552690E+00 -5.28997803E-01  4.34587094E-05
  9.39455072E-03  2.96189309E-01  4.34587094E-05  9.39455072E-03  2.96189309E-01
  4.34587094E-05  9.39455072E-03  2.96189309E-01  4.34587094E-05  9.39455072E-03
  2.96189309E-01 -2.13676523E-04  2.60783078E+00 -3.71045193E-01 -2.13676523E-04
  2.60783078E+00 -3.71045193E-01 -2.13676523E-04  2.60783078E+00 -3.71045193E-01
 -2.13676523E-04  2.60783078E+00 -3.71045193E-01 -2.42079385E+00 -1.29592157E+00
 -5.28480972E-01 -2.42079385E+00 -1.29592157E+00 -5.28480972E-01 -2.42079385E+00
 -1.29592157E+00 -5.28480972E-01 -2.42079385E+00 -1.29592157E+00 -5.28480972E-01
 -4.75286859E+00 -4.59548883E-02  5.89687197E-01 -4.75286859E+00 -4.59548883E-02
  5.89687197E-01 -4.75286859E+00 -4.59548883E-02  5.89687197E-01 -4.75286859E+00
 -4.59548883E-02  5.89687197E-01  6.41866385E+00 -1.08208835E+00 -6.22227789E-02
  6.41866385E+00 -1.08208835E+00 -6.22227789E-02  4.93911004E+00  1.91992225E+00
 -9.13180756E-03  4.93911004E+00  1.91992225E+00 -9.13180756E-03  4.74263634E+00
 -1.23293880E-01  2.65861324E+00  4.74263634E+00 -1.23293880E-01  2.65861324E+00
  2.39918238E+00 -1.25699180E+00 -2.59707239E+00  2.39918238E+00 -1.25699180E+00
 -2.59707239E+00  2.21527030E+00 -3.25941521E+00  8.37961816E-02  2.21527030E+00
 -3.25941521E+00  8.37961816E-02 -9.63109240E-04  2.64913892E+00 -2.22131780E+00
 -9.63109240E-04  2.64913892E+00 -2.22131780E+00 -2.39889044E+00 -1.25834831E+00
 -2.59656454E+00 -2.39889044E+00 -1.25834831E+00 -2.59656454E+00 -2.21504576E+00
 -3.25947607E+00  8.53882766E-02 -2.21504576E+00 -3.25947607E+00  8.53882766E-02
 -6.41837598E+00 -1.08285117E+00 -6.18180081E-02 -6.41837598E+00 -1.08285117E+00
 -6.18180081E-02 -4.74260792E+00 -1.22108482E-01  2.65846832E+00 -4.74260792E+00
 -1.22108482E-01  2.65846832E+00 -4.93940798E+00  1.91956887E+00 -1.03226832E-02
 -4.93940798E+00  1.91956887E+00 -1.03226832E-02  2.09918248E-04  1.27600557E-01
  2.23458170E+00  2.09918248E-04  1.27600557E-01  2.23458170E+00
Num ILSW                                   I              100
ILSW                                       I   N=         100
           0           1           0           0           2           0
           0           0           0           0         402          -1
           5           0           0           0           2           0
           0           0           0           0           1           0