Title Card Required                                                     
Freq      RB3LYP                                                      6-31G(d)            
Number of atoms                            I               21
Info1-9                                    I   N=           9
          52          52        1002           0           0         100
           6          18        -502
Full Title                                 C   N=           2
Title Card Required     
Route                                      C   N=           6
#P opt freq b3lyp/6-31g(d) geom=connectivity temperature=0.0
01          
Charge                                     I                0
Multiplicity                               I                1
Number of electrons                        I               92
Number of alpha electrons                  I               46
Number of beta electrons                   I               46
Number of basis functions                  I              211
Number of independent functions            I              211
Number of point charges in /Mol/           I                0
Number of translation vectors              I                0
Atomic numbers                             I   N=          21
           8           7           6           6           8           6
           7           6           6           6           6           6
           6           1           1           1           1           1
           1           1           1
Nuclear charges                            R   N=          21
  8.00000000E+00  7.00000000E+00  6.00000000E+00  6.00000000E+00  8.00000000E+00
  6.00000000E+00  7.00000000E+00  6.00000000E+00  6.00000000E+00  6.00000000E+00
  6.00000000E+00  6.00000000E+00  6.00000000E+00  1.00000000E+00  1.00000000E+00
  1.00000000E+00  1.00000000E+00  1.00000000E+00  1.00000000E+00  1.00000000E+00
  1.00000000E+00
Current cartesian coordinates              R   N=          63
  1.43954709E-01  5.78309897E+00  3.12895855E-04  2.00805826E+00  3.93524304E+00
  3.01787659E-04  1.05493653E+00  1.69997847E+00 -2.16901668E-04  2.69263626E+00
 -6.04612532E-01 -9.27164245E-05  5.19329812E+00 -3.81279690E-01 -3.82471185E-04
  6.57888644E+00 -2.71565738E+00 -4.66861387E-05  1.44219238E+00 -2.70442473E+00
  2.24439749E-04 -1.14844757E+00 -1.99643091E+00  1.91885710E-04 -3.20152473E+00
 -3.62476979E+00  3.66116034E-04 -5.63328623E+00 -2.56705946E+00  1.27883892E-04
 -5.99516512E+00  4.87821932E-02 -2.81142106E-04 -3.92292735E+00  1.69930072E+00
 -4.57429846E-04 -1.50868802E+00  6.57300779E-01 -1.90659707E-04  1.12011425E+00
  7.33689524E+00  8.62279467E-04  8.56655704E+00 -2.17338951E+00  2.39928473E-03
  6.11710251E+00 -3.82634329E+00  1.68049320E+00  6.12087168E+00 -3.82442347E+00
 -1.68291970E+00 -2.91600109E+00 -5.65611307E+00  6.73118992E-04 -7.26740137E+00
 -3.81149964E+00  2.36272950E-04 -7.89986937E+00  8.13838538E-01 -4.90172011E-04
 -4.18967193E+00  3.72976012E+00 -7.83374298E-04
Number of symbols in /Mol/                 I                0
Force Field                                I                0
Atom Types                                 C   N=          21
                                                            
                                                            
                                                            
                                                            
            
Int Atom Types                             I   N=          21
           0           0           0           0           0           0
           0           0           0           0           0           0
           0           0           0           0           0           0
           0           0           0
MM charges                                 R   N=          21
  0.00000000E+00  0.00000000E+00  0.00000000E+00  0.00000000E+00  0.00000000E+00
  0.00000000E+00  0.00000000E+00  0.00000000E+00  0.00000000E+00  0.00000000E+00
  0.00000000E+00  0.00000000E+00  0.00000000E+00  0.00000000E+00  0.00000000E+00
  0.00000000E+00  0.00000000E+00  0.00000000E+00  0.00000000E+00  0.00000000E+00
  0.00000000E+00
Integer atomic weights                     I   N=          21
          16          14          12          12          16          12
          14          12          12          12          12          12
          12           1           1           1           1           1
           1           1           1
Real atomic weights                        R   N=          21
  1.59949146E+01  1.40030740E+01  1.20000000E+01  1.20000000E+01  1.59949146E+01
  1.20000000E+01  1.40030740E+01  1.20000000E+01  1.20000000E+01  1.20000000E+01
  1.20000000E+01  1.20000000E+01  1.20000000E+01  1.00782504E+00  1.00782504E+00
  1.00782504E+00  1.00782504E+00  1.00782504E+00  1.00782504E+00  1.00782504E+00
  1.00782504E+00
Atom fragment info                         I   N=          21
           0           0           0           0           0           0
           0           0           0           0           0           0
           0           0           0           0           0           0
           0           0           0
Atom residue num                           I   N=          21
           0           0           0           0           0           0
           0           0           0           0           0           0
           0           0           0           0           0           0
           0           0           0
Nuclear spins                              I   N=          21
           0           2           0           0           0           0
           2           0           0           0           0           0
           0           1           1           1           1           1
           1           1           1
Nuclear ZEff                               R   N=          21
 -5.60000000E+00 -4.55000000E+00 -3.60000000E+00 -3.60000000E+00 -5.60000000E+00
 -3.60000000E+00 -4.55000000E+00 -3.60000000E+00 -3.60000000E+00 -3.60000000E+00
 -3.60000000E+00 -3.60000000E+00 -3.60000000E+00 -1.00000000E+00 -1.00000000E+00
 -1.00000000E+00 -1.00000000E+00 -1.00000000E+00 -1.00000000E+00 -1.00000000E+00
 -1.00000000E+00
Nuclear ZNuc                               R   N=          21
  8.00000000E+00  7.00000000E+00  6.00000000E+00  6.00000000E+00  8.00000000E+00
  6.00000000E+00  7.00000000E+00  6.00000000E+00  6.00000000E+00  6.00000000E+00
  6.00000000E+00  6.00000000E+00  6.00000000E+00  1.00000000E+00  1.00000000E+00
  1.00000000E+00  1.00000000E+00  1.00000000E+00  1.00000000E+00  1.00000000E+00
  1.00000000E+00
Nuclear QMom                               R   N=          21
  0.00000000E+00  2.04400000E+00  0.00000000E+00  0.00000000E+00  0.00000000E+00
  0.00000000E+00  2.04400000E+00  0.00000000E+00  0.00000000E+00  0.00000000E+00
  0.00000000E+00  0.00000000E+00  0.00000000E+00  0.00000000E+00  0.00000000E+00
  0.00000000E+00  0.00000000E+00  0.00000000E+00  0.00000000E+00  0.00000000E+00
  0.00000000E+00
Nuclear GFac                               R   N=          21
  0.00000000E+00  4.03761000E-01  0.00000000E+00  0.00000000E+00  0.00000000E+00
  0.00000000E+00  4.03761000E-01  0.00000000E+00  0.00000000E+00  0.00000000E+00
  0.00000000E+00  0.00000000E+00  0.00000000E+00  2.79284600E+00  2.79284600E+00
  2.79284600E+00  2.79284600E+00  2.79284600E+00  2.79284600E+00  2.79284600E+00
  2.79284600E+00
MicOpt                                     I   N=          21
          -1          -1          -1          -1          -1          -1
          -1          -1          -1          -1          -1          -1
          -1          -1          -1          -1          -1          -1
          -1          -1          -1
Number of residues                         I                0
Number of secondary structures             I                0
Redundant internal dimensions              I   N=           4
         100          22          34          44
Redundant internal coordinate indices      I   N=         400
           1           2           0           0           1          14
           0           0           2           3           0           0
           3           4           0           0           3          13
           0           0           4           5           0           0
           4           7           0           0           5           6
           0           0           6          15           0           0
           6          16           0           0           6          17
           0           0           7           8           0           0
           8           9           0           0           8          13
           0           0           9          10           0           0
           9          18           0           0          10          11
           0           0          10          19           0           0
          11          12           0           0          11          20
           0           0          12          13           0           0
          12          21           0           0           2           1
          14           0           1           2           3           0
           2           3           4           0           2           3
          13           0           4           3          13           0
           3           4           5           0           3           4
           7           0           5           4           7           0
           4           5           6           0           5           6
          15           0           5           6          16           0
           5           6          17           0          15           6
          16           0          15           6          17           0
          16           6          17           0           4           7
           8           0           7           8           9           0
           7           8          13           0           9           8
          13           0           8           9          10           0
           8           9          18           0          10           9
          18           0           9          10          11           0
           9          10          19           0          11          10
          19           0          10          11          12           0
          10          11          20           0          12          11
          20           0          11          12          13           0
          11          12          21           0          13          12
          21           0           3          13           8           0
           3          13          12           0           8          13
          12           0          14           1           2           3
           1           2           3           4           1           2
           3          13           2           3           4           5
           2           3           4           7          13           3
           4           5          13           3           4           7
           2           3          13           8           2           3
          13          12           4           3          13           8
           4           3          13          12           3           4
           5           6           7           4           5           6
           3           4           7           8           5           4
           7           8           4           5           6          15
           4           5           6          16           4           5
           6          17           4           7           8           9
           4           7           8          13           7           8
           9          10           7           8           9          18
          13           8           9          10          13           8
           9          18           7           8          13           3
           7           8          13          12           9           8
          13           3           9           8          13          12
           8           9          10          11           8           9
          10          19          18           9          10          11
          18           9          10          19           9          10
          11          12           9          10          11          20
          19          10          11          12          19          10
          11          20          10          11          12          13
          10          11          12          21          20          11
          12          13          20          11          12          21
          11          12          13           3          11          12
          13           8          21          12          13           3
          21          12          13           8
Redundant internal coordinates             R   N=         100
  2.62477686E+00  1.83498517E+00  2.42998950E+00  2.82722481E+00  2.76755264E+00
  2.51061494E+00  2.44393561E+00  2.71462231E+00  2.06031426E+00  2.06665960E+00
  2.06668850E+00  2.68564156E+00  2.62042236E+00  2.67807117E+00  2.65183242E+00
  2.05131162E+00  2.64075445E+00  2.05401160E+00  2.64922269E+00  2.05261042E+00
  2.62950860E+00  2.04790579E+00  1.79089041E+00  1.94875969E+00  2.12071368E+00
  2.36014015E+00  1.80233142E+00  2.09954437E+00  1.98666531E+00  2.19697562E+00
  2.01739233E+00  1.84013107E+00  1.92644859E+00  1.92636954E+00  1.93483466E+00
  1.93475240E+00  1.90107026E+00  1.84112748E+00  2.20428528E+00  1.97249517E+00
  2.10640486E+00  2.06078670E+00  2.10168456E+00  2.12071404E+00  2.11853860E+00
  2.08047472E+00  2.08417198E+00  2.10592517E+00  2.09020747E+00  2.08705267E+00
  2.06154249E+00  2.11277040E+00  2.10887242E+00  1.82215857E+00  2.34785394E+00
  2.11317279E+00  3.14151479E+00 -3.14149049E+00 -3.08806108E-04 -4.36618521E-04
  3.14119290E+00  3.14145342E+00 -1.02368269E-04 -3.14113499E+00  4.64242631E-04
  9.76787416E-05 -3.14148840E+00  3.14151854E+00 -1.15728065E-04  5.78338312E-05
 -3.14149554E+00 -3.14020802E+00 -1.04977994E+00  1.05268914E+00  3.14154603E+00
  1.20260587E-05 -3.14151925E+00  7.06385739E-05  1.06352125E-05 -3.14158479E+00
 -7.44013740E-05  3.14151278E+00  3.14157322E+00 -2.49081679E-05  3.35954272E-06
  3.14158005E+00 -3.14158649E+00 -9.80719446E-06 -3.71660770E-06  3.14157466E+00
 -3.14158037E+00 -1.99658879E-06 -9.97170521E-06  3.14158755E+00 -3.14158837E+00
  9.14953139E-06 -3.14157607E+00  2.40209954E-05  1.17288042E-05 -3.14157349E+00
ZRed-IntVec                                I   N=         100
           0           0           0           0           0           0
           0           0           0           0           0           0
           0           0           0           0           0           0
           0           0           0           0           0           0
           0           0           0           0           0           0
           0           0           0           0           0           0
           0           0           0           0           0           0
           0           0           0           0           0           0
           0           0           0           0           0           0
           0           0           0           0           0           0
           0           0           0           0           0           0
           0           0           0           0           0           0
           0           0           0           0           0           0
           0           0           0           0           0           0
           0           0           0           0           0           0
           0           0           0           0           0           0
           0           0           0           0
ZRed-FPVec                                 R   N=         100
  0.00000000E+00  0.00000000E+00  0.00000000E+00  0.00000000E+00  0.00000000E+00
  0.00000000E+00  0.00000000E+00  0.00000000E+00  0.00000000E+00  0.00000000E+00
  0.00000000E+00  0.00000000E+00  0.00000000E+00  0.00000000E+00  0.00000000E+00
  0.00000000E+00  0.00000000E+00  0.00000000E+00  0.00000000E+00  0.00000000E+00
  0.00000000E+00  0.00000000E+00  0.00000000E+00  0.00000000E+00  0.00000000E+00
  0.00000000E+00  0.00000000E+00  0.00000000E+00  0.00000000E+00  0.00000000E+00
  0.00000000E+00  0.00000000E+00  0.00000000E+00  0.00000000E+00  0.00000000E+00
  0.00000000E+00  0.00000000E+00  0.00000000E+00  0.00000000E+00  0.00000000E+00
  0.00000000E+00  0.00000000E+00  0.00000000E+00  0.00000000E+00  0.00000000E+00
  0.00000000E+00  0.00000000E+00  0.00000000E+00  0.00000000E+00  0.00000000E+00
  0.00000000E+00  0.00000000E+00  0.00000000E+00  0.00000000E+00  0.00000000E+00
  0.00000000E+00  0.00000000E+00  0.00000000E+00  0.00000000E+00  0.00000000E+00
  0.00000000E+00  0.00000000E+00  0.00000000E+00  0.00000000E+00  0.00000000E+00
  0.00000000E+00  0.00000000E+00  0.00000000E+00  0.00000000E+00  0.00000000E+00
  0.00000000E+00  0.00000000E+00  0.00000000E+00  0.00000000E+00  0.00000000E+00
  0.00000000E+00  0.00000000E+00  0.00000000E+00  0.00000000E+00  0.00000000E+00
  0.00000000E+00  0.00000000E+00  0.00000000E+00  0.00000000E+00  0.00000000E+00
  0.00000000E+00  0.00000000E+00  0.00000000E+00  0.00000000E+00  0.00000000E+00
  0.00000000E+00  0.00000000E+00  0.00000000E+00  0.00000000E+00  0.00000000E+00
  0.00000000E+00  0.00000000E+00  0.00000000E+00  0.00000000E+00  0.00000000E+00
ZRed-Constraint1                           R   N=         100
  2.62477686E+00  1.83498517E+00  2.42998950E+00  2.82722481E+00  2.76755264E+00
  2.51061494E+00  2.44393561E+00  2.71462231E+00  2.06031426E+00  2.06665960E+00
  2.06668850E+00  2.68564156E+00  2.62042236E+00  2.67807117E+00  2.65183242E+00
  2.05131162E+00  2.64075445E+00  2.05401160E+00  2.64922269E+00  2.05261042E+00
  2.62950860E+00  2.04790579E+00  1.79089041E+00  1.94875969E+00  2.12071368E+00
  2.36014015E+00  1.80233142E+00  2.09954437E+00  1.98666531E+00  2.19697562E+00
  2.01739233E+00  1.84013107E+00  1.92644859E+00  1.92636954E+00  1.93483466E+00
  1.93475240E+00  1.90107026E+00  1.84112748E+00  2.20428528E+00  1.97249517E+00
  2.10640486E+00  2.06078670E+00  2.10168456E+00  2.12071404E+00  2.11853860E+00
  2.08047472E+00  2.08417198E+00  2.10592517E+00  2.09020747E+00  2.08705267E+00
  2.06154249E+00  2.11277040E+00  2.10887242E+00  1.82215857E+00  2.34785394E+00
  2.11317279E+00  3.14151479E+00 -3.14149049E+00 -3.08806108E-04 -4.36618521E-04
  3.14119290E+00  3.14145342E+00 -1.02368272E-04 -3.14113499E+00  4.64242631E-04
  9.76787427E-05 -3.14148840E+00  3.14151854E+00 -1.15728065E-04  5.78338350E-05
 -3.14149554E+00 -3.14020802E+00 -1.04977994E+00  1.05268914E+00  3.14154603E+00
  1.20260772E-05 -3.14151925E+00  7.06385723E-05  1.06352125E-05 -3.14158479E+00
 -7.44013740E-05  3.14151278E+00  3.14157322E+00 -2.49081679E-05  3.35950967E-06
  3.14158005E+00 -3.14158649E+00 -9.80719446E-06 -3.71660770E-06  3.14157466E+00
 -3.14158037E+00 -1.99664439E-06 -9.97170521E-06  3.14158755E+00 -3.14158837E+00
  9.14950712E-06 -3.14157607E+00  2.40209954E-05  1.17288042E-05 -3.14157349E+00
ZRed-Constraint2                           R   N=         100
  2.39717546E+00  1.81413609E+00  2.42413795E+00  2.54739460E+00  2.58159998E+00
  2.53432727E+00  2.42807994E+00  2.72336334E+00  2.05984882E+00  2.05979999E+00
  2.05980052E+00  2.47221290E+00  2.65747542E+00  2.62932659E+00  2.66678246E+00
  2.05982051E+00  2.67198480E+00  2.05970687E+00  2.66952802E+00  2.05979510E+00
  2.66320607E+00  2.05975839E+00  1.91063665E+00  2.18580316E+00  2.16920157E+00
  2.26852159E+00  1.84544792E+00  2.18491224E+00  1.94936808E+00  2.14886938E+00
  1.96393191E+00  1.91057252E+00  1.91063431E+00  1.91061693E+00  1.91067106E+00
  1.91062250E+00  1.91068209E+00  1.88973150E+00  2.26475056E+00  1.90055831E+00
  2.11762711E+00  2.06678460E+00  2.10526141E+00  2.11113930E+00  2.10160152E+00
  2.08910402E+00  2.09247977E+00  2.10367527E+00  2.09057420E+00  2.08893583E+00
  2.06688066E+00  2.11006073E+00  2.10624391E+00  1.83945909E+00  2.33374187E+00
  2.10979080E+00  1.58493441E+00  3.14074664E+00 -7.42308163E-03  4.89204633E-03
 -3.12783783E+00 -3.13146432E+00  1.89911125E-02  3.13687135E+00 -2.65546650E-02
 -1.03671000E-02  3.10939219E+00  1.64241057E+00 -1.50901503E+00 -1.99046979E-02
  3.13033661E+00 -2.39770581E+00 -3.03300902E-01  1.79114471E+00 -3.10486763E+00
  1.25255561E-02  3.11644902E+00 -2.50335650E-02  1.66123087E-03 -3.13982136E+00
 -9.09050704E-04 -3.12411391E+00  3.11890551E+00 -4.29934767E-03  2.33420282E-03
 -3.13935524E+00 -3.13936890E+00  2.12696480E-03 -3.75929755E-03  3.13769603E+00
  3.13793033E+00 -3.79965257E-03  1.16713591E-03 -3.14033521E+00 -3.14028832E+00
  1.39464551E-03 -3.11424362E+00  2.82101198E-03  2.72589265E-02 -3.13886175E+00
SymInf integers                            I   N=          26
           1           1           1           1           1           0
           0           0           0           0           0           0
           0           0           0           0           0           0
           0           0           0           0           0           0
           0           0
RotTr to input orientation                 R   N=          12
 -5.89889002E-01 -7.84453483E-01  1.91477669E-01  7.77659208E-01 -6.15749846E-01
 -1.26879008E-01  2.17433026E-01  7.40598411E-02  9.73261537E-01 -1.14292633E+00
  3.84938129E+00  6.22227015E-01
Number of contracted shells                I               68
Number of primitive shells                 I              175
Pure/Cartesian d shells                    I                1
Pure/Cartesian f shells                    I                0
Highest angular momentum                   I                2
Largest degree of contraction              I                6
Shell types                                I   N=          68
           0          -1          -1           2           0          -1
          -1           2           0          -1          -1           2
           0          -1          -1           2           0          -1
          -1           2           0          -1          -1           2
           0          -1          -1           2           0          -1
          -1           2           0          -1          -1           2
           0          -1          -1           2           0          -1
          -1           2           0          -1          -1           2
           0          -1          -1           2           0           0
           0           0           0           0           0           0
           0           0           0           0           0           0
           0           0
Number of primitives per shell             I   N=          68
           6           3           1           1           6           3
           1           1           6           3           1           1
           6           3           1           1           6           3
           1           1           6           3           1           1
           6           3           1           1           6           3
           1           1           6           3           1           1
           6           3           1           1           6           3
           1           1           6           3           1           1
           6           3           1           1           3           1
           3           1           3           1           3           1
           3           1           3           1           3           1
           3           1
Shell to atom map                          I   N=          68
           1           1           1           1           2           2
           2           2           3           3           3           3
           4           4           4           4           5           5
           5           5           6           6           6           6
           7           7           7           7           8           8
           8           8           9           9           9           9
          10          10          10          10          11          11
          11          11          12          12          12          12
          13          13          13          13          14          14
          15          15          16          16          17          17
          18          18          19          19          20          20
          21          21
Primitive exponents                        R   N=         175
  5.48467166E+03  8.25234946E+02  1.88046958E+02  5.29645000E+01  1.68975704E+01
  5.79963534E+00  1.55396162E+01  3.59993359E+00  1.01376175E+00  2.70005823E-01
  8.00000000E-01  4.17351146E+03  6.27457911E+02  1.42902093E+02  4.02343293E+01
  1.28202129E+01  4.39043701E+00  1.16263619E+01  2.71627981E+00  7.72218397E-01
  2.12031498E-01  8.00000000E-01  3.04752488E+03  4.57369518E+02  1.03948685E+02
  2.92101553E+01  9.28666296E+00  3.16392696E+00  7.86827235E+00  1.88128854E+00
  5.44249258E-01  1.68714478E-01  8.00000000E-01  3.04752488E+03  4.57369518E+02
  1.03948685E+02  2.92101553E+01  9.28666296E+00  3.16392696E+00  7.86827235E+00
  1.88128854E+00  5.44249258E-01  1.68714478E-01  8.00000000E-01  5.48467166E+03
  8.25234946E+02  1.88046958E+02  5.29645000E+01  1.68975704E+01  5.79963534E+00
  1.55396162E+01  3.59993359E+00  1.01376175E+00  2.70005823E-01  8.00000000E-01
  3.04752488E+03  4.57369518E+02  1.03948685E+02  2.92101553E+01  9.28666296E+00
  3.16392696E+00  7.86827235E+00  1.88128854E+00  5.44249258E-01  1.68714478E-01
  8.00000000E-01  4.17351146E+03  6.27457911E+02  1.42902093E+02  4.02343293E+01
  1.28202129E+01  4.39043701E+00  1.16263619E+01  2.71627981E+00  7.72218397E-01
  2.12031498E-01  8.00000000E-01  3.04752488E+03  4.57369518E+02  1.03948685E+02
  2.92101553E+01  9.28666296E+00  3.16392696E+00  7.86827235E+00  1.88128854E+00
  5.44249258E-01  1.68714478E-01  8.00000000E-01  3.04752488E+03  4.57369518E+02
  1.03948685E+02  2.92101553E+01  9.28666296E+00  3.16392696E+00  7.86827235E+00
  1.88128854E+00  5.44249258E-01  1.68714478E-01  8.00000000E-01  3.04752488E+03
  4.57369518E+02  1.03948685E+02  2.92101553E+01  9.28666296E+00  3.16392696E+00
  7.86827235E+00  1.88128854E+00  5.44249258E-01  1.68714478E-01  8.00000000E-01
  3.04752488E+03  4.57369518E+02  1.03948685E+02  2.92101553E+01  9.28666296E+00
  3.16392696E+00  7.86827235E+00  1.88128854E+00  5.44249258E-01  1.68714478E-01
  8.00000000E-01  3.04752488E+03  4.57369518E+02  1.03948685E+02  2.92101553E+01
  9.28666296E+00  3.16392696E+00  7.86827235E+00  1.88128854E+00  5.44249258E-01
  1.68714478E-01  8.00000000E-01  3.04752488E+03  4.57369518E+02  1.03948685E+02
  2.92101553E+01  9.28666296E+00  3.16392696E+00  7.86827235E+00  1.88128854E+00
  5.44249258E-01  1.68714478E-01  8.00000000E-01  1.87311370E+01  2.82539436E+00
  6.40121692E-01  1.61277759E-01  1.87311370E+01  2.82539436E+00  6.40121692E-01
  1.61277759E-01  1.87311370E+01  2.82539436E+00  6.40121692E-01  1.61277759E-01
  1.87311370E+01  2.82539436E+00  6.40121692E-01  1.61277759E-01  1.87311370E+01
  2.82539436E+00  6.40121692E-01  1.61277759E-01  1.87311370E+01  2.82539436E+00
  6.40121692E-01  1.61277759E-01  1.87311370E+01  2.82539436E+00  6.40121692E-01
  1.61277759E-01  1.87311370E+01  2.82539436E+00  6.40121692E-01  1.61277759E-01
Contraction coefficients                   R   N=         175
  1.83107443E-03  1.39501722E-02  6.84450781E-02  2.32714336E-01  4.70192898E-01
  3.58520853E-01 -1.10777550E-01 -1.48026263E-01  1.13076702E+00  1.00000000E+00
  1.00000000E+00  1.83477216E-03  1.39946270E-02  6.85865518E-02  2.32240873E-01
  4.69069948E-01  3.60455199E-01 -1.14961182E-01 -1.69117479E-01  1.14585195E+00
  1.00000000E+00  1.00000000E+00  1.83473713E-03  1.40373228E-02  6.88426223E-02
  2.32184443E-01  4.67941348E-01  3.62311985E-01 -1.19332420E-01 -1.60854152E-01
  1.14345644E+00  1.00000000E+00  1.00000000E+00  1.83473713E-03  1.40373228E-02
  6.88426223E-02  2.32184443E-01  4.67941348E-01  3.62311985E-01 -1.19332420E-01
 -1.60854152E-01  1.14345644E+00  1.00000000E+00  1.00000000E+00  1.83107443E-03
  1.39501722E-02  6.84450781E-02  2.32714336E-01  4.70192898E-01  3.58520853E-01
 -1.10777550E-01 -1.48026263E-01  1.13076702E+00  1.00000000E+00  1.00000000E+00
  1.83473713E-03  1.40373228E-02  6.88426223E-02  2.32184443E-01  4.67941348E-01
  3.62311985E-01 -1.19332420E-01 -1.60854152E-01  1.14345644E+00  1.00000000E+00
  1.00000000E+00  1.83477216E-03  1.39946270E-02  6.85865518E-02  2.32240873E-01
  4.69069948E-01  3.60455199E-01 -1.14961182E-01 -1.69117479E-01  1.14585195E+00
  1.00000000E+00  1.00000000E+00  1.83473713E-03  1.40373228E-02  6.88426223E-02
  2.32184443E-01  4.67941348E-01  3.62311985E-01 -1.19332420E-01 -1.60854152E-01
  1.14345644E+00  1.00000000E+00  1.00000000E+00  1.83473713E-03  1.40373228E-02
  6.88426223E-02  2.32184443E-01  4.67941348E-01  3.62311985E-01 -1.19332420E-01
 -1.60854152E-01  1.14345644E+00  1.00000000E+00  1.00000000E+00  1.83473713E-03
  1.40373228E-02  6.88426223E-02  2.32184443E-01  4.67941348E-01  3.62311985E-01
 -1.19332420E-01 -1.60854152E-01  1.14345644E+00  1.00000000E+00  1.00000000E+00
  1.83473713E-03  1.40373228E-02  6.88426223E-02  2.32184443E-01  4.67941348E-01
  3.62311985E-01 -1.19332420E-01 -1.60854152E-01  1.14345644E+00  1.00000000E+00
  1.00000000E+00  1.83473713E-03  1.40373228E-02  6.88426223E-02  2.32184443E-01
  4.67941348E-01  3.62311985E-01 -1.19332420E-01 -1.60854152E-01  1.14345644E+00
  1.00000000E+00  1.00000000E+00  1.83473713E-03  1.40373228E-02  6.88426223E-02
  2.32184443E-01  4.67941348E-01  3.62311985E-01 -1.19332420E-01 -1.60854152E-01
  1.14345644E+00  1.00000000E+00  1.00000000E+00  3.34946043E-02  2.34726953E-01
  8.13757326E-01  1.00000000E+00  3.34946043E-02  2.34726953E-01  8.13757326E-01