 Entering Gaussian System, Link 0=/apps/cent7/gaussian/g16-A.03/g16-haswell/g16/g16
 Initial command:
 /apps/cent7/gaussian/g16-A.03/g16-haswell/g16/l1.exe "/scratch/brown/finej/gaussian/Gau-307361.inp" -scrdir="/scratch/brown/finej/gaussian/"
 Entering Link 1 = /apps/cent7/gaussian/g16-A.03/g16-haswell/g16/l1.exe PID=    307363.
  
 Copyright (c) 1988,1990,1992,1993,1995,1998,2003,2009,2016,
            Gaussian, Inc.  All Rights Reserved.
  
 This is part of the Gaussian(R) 16 program.  It is based on
 the Gaussian(R) 09 system (copyright 2009, Gaussian, Inc.),
 the Gaussian(R) 03 system (copyright 2003, Gaussian, Inc.),
 the Gaussian(R) 98 system (copyright 1998, Gaussian, Inc.),
 the Gaussian(R) 94 system (copyright 1995, Gaussian, Inc.),
 the Gaussian 92(TM) system (copyright 1992, Gaussian, Inc.),
 the Gaussian 90(TM) system (copyright 1990, Gaussian, Inc.),
 the Gaussian 88(TM) system (copyright 1988, Gaussian, Inc.),
 the Gaussian 86(TM) system (copyright 1986, Carnegie Mellon
 University), and the Gaussian 82(TM) system (copyright 1983,
 Carnegie Mellon University). Gaussian is a federally registered
 trademark of Gaussian, Inc.
  
 This software contains proprietary and confidential information,
 including trade secrets, belonging to Gaussian, Inc.
  
 This software is provided under written license and may be
 used, copied, transmitted, or stored only in accord with that
 written license.
  
 The following legend is applicable only to US Government
 contracts under FAR:
  
                    RESTRICTED RIGHTS LEGEND
  
 Use, reproduction and disclosure by the US Government is
 subject to restrictions as set forth in subparagraphs (a)
 and (c) of the Commercial Computer Software - Restricted
 Rights clause in FAR 52.227-19.
  
 Gaussian, Inc.
 340 Quinnipiac St., Bldg. 40, Wallingford CT 06492
  
  
 ---------------------------------------------------------------
 Warning -- This program may not be used in any manner that
 competes with the business of Gaussian, Inc. or will provide
 assistance to any competitor of Gaussian, Inc.  The licensee
 of this program is prohibited from giving any competitor of
 Gaussian, Inc. access to this program.  By using this program,
 the user acknowledges that Gaussian, Inc. is engaged in the
 business of creating and licensing software in the field of
 computational chemistry and represents and warrants to the
 licensee that it is not a competitor of Gaussian, Inc. and that
 it will not use this program in any manner prohibited above.
 ---------------------------------------------------------------
  

 Cite this work as:
 Gaussian 16, Revision A.03,
 M. J. Frisch, G. W. Trucks, H. B. Schlegel, G. E. Scuseria, 
 M. A. Robb, J. R. Cheeseman, G. Scalmani, V. Barone, 
 G. A. Petersson, H. Nakatsuji, X. Li, M. Caricato, A. V. Marenich, 
 J. Bloino, B. G. Janesko, R. Gomperts, B. Mennucci, H. P. Hratchian, 
 J. V. Ortiz, A. F. Izmaylov, J. L. Sonnenberg, D. Williams-Young, 
 F. Ding, F. Lipparini, F. Egidi, J. Goings, B. Peng, A. Petrone, 
 T. Henderson, D. Ranasinghe, V. G. Zakrzewski, J. Gao, N. Rega, 
 G. Zheng, W. Liang, M. Hada, M. Ehara, K. Toyota, R. Fukuda, 
 J. Hasegawa, M. Ishida, T. Nakajima, Y. Honda, O. Kitao, H. Nakai, 
 T. Vreven, K. Throssell, J. A. Montgomery, Jr., J. E. Peralta, 
 F. Ogliaro, M. J. Bearpark, J. J. Heyd, E. N. Brothers, K. N. Kudin, 
 V. N. Staroverov, T. A. Keith, R. Kobayashi, J. Normand, 
 K. Raghavachari, A. P. Rendell, J. C. Burant, S. S. Iyengar, 
 J. Tomasi, M. Cossi, J. M. Millam, M. Klene, C. Adamo, R. Cammi, 
 J. W. Ochterski, R. L. Martin, K. Morokuma, O. Farkas, 
 J. B. Foresman, and D. J. Fox, Gaussian, Inc., Wallingford CT, 2016.
 
 ******************************************
 Gaussian 16:  ES64L-G16RevA.03 25-Dec-2016
                14-Oct-2019 
 ******************************************
 %chk=2.chk
 %nprocshared=24
 Will use up to   24 processors via shared memory.
 %mem=80GB
 --------------------------------------------------------------
 #P opt freq b3lyp/6-31g(d) geom=connectivity temperature=0.001
 --------------------------------------------------------------
 1/18=20,19=15,26=3,38=1,57=2,112=-1000/1,3;
 2/9=110,12=2,17=6,18=5,40=1/2;
 3/5=1,6=6,7=1,11=2,25=1,30=1,71=1,74=-5/1,2,3;
 4//1;
 5/5=2,38=5/2;
 6/7=2,8=2,9=2,10=2,28=1/1;
 7//1,2,3,16;
 1/18=20,19=15,26=3/3(2);
 2/9=110/2;
 99//99;
 2/9=110/2;
 3/5=1,6=6,7=1,11=2,25=1,30=1,71=1,74=-5/1,2,3;
 4/5=5,16=3,69=1/1;
 5/5=2,38=5/2;
 7//1,2,3,16;
 1/18=20,19=15,26=3/3(-5);
 2/9=110/2;
 6/7=2,8=2,9=2,10=2,19=2,28=1/1;
 99/9=1/99;
 Leave Link    1 at Mon Oct 14 01:40:48 2019, MaxMem= 10737418240 cpu:               1.3 elap:               0.1
 (Enter /apps/cent7/gaussian/g16-A.03/g16-haswell/g16/l101.exe)
 -------------------
 Title Card Required
 -------------------
 Symbolic Z-matrix:
 Charge =  0 Multiplicity = 1
 O                     1.2297   -0.118    -0.0218 
 N                    -0.0286    0.0421   -0.007 
 C                    -0.6307    1.1748   -0.0132 
 C                    -1.9705    1.3227    0.0019 
 O                    -2.8586    0.3182    0.0307 
 C                    -3.2781   -0.0096    1.3699 
 N                    -2.3119    2.5611   -0.0253 
 C                    -1.2233    3.2866   -0.0347 
 C                    -1.0742    4.6849   -0.023 
 C                     0.2311    5.221    -0.0064 
 C                     1.3565    4.365    -0.0046 
 C                     1.1911    2.9621   -0.0148 
 C                    -0.1183    2.4411   -0.0282 
 H                     1.5576   -0.1597    0.8795 
 H                    -3.314    -1.093     1.4844 
 H                    -2.5695    0.4081    2.0851 
 H                    -4.2681    0.4081    1.553 
 H                    -1.948     5.3365   -0.0266 
 H                     0.3708    6.3019    0.005 
 H                     2.3601    4.7902    0.0046 
 H                     2.0544    2.2967   -0.0123 
 
 ITRead=  0  0  0  0  0  0  0  0  0  0  0  0  0  0  0  0  0  0  0  0
 ITRead=  0
 MicOpt= -1 -1 -1 -1 -1 -1 -1 -1 -1 -1 -1 -1 -1 -1 -1 -1 -1 -1 -1 -1
 MicOpt= -1
 NAtoms=     21 NQM=       21 NQMF=       0 NMMI=      0 NMMIF=      0
                NMic=       0 NMicF=      0.
                    Isotopes and Nuclear Properties:
 (Nuclear quadrupole moments (NQMom) in fm**2, nuclear magnetic moments (NMagM)
  in nuclear magnetons)

  Atom         1           2           3           4           5           6           7           8           9          10
 IAtWgt=          16          14          12          12          16          12          14          12          12          12
 AtmWgt=  15.9949146  14.0030740  12.0000000  12.0000000  15.9949146  12.0000000  14.0030740  12.0000000  12.0000000  12.0000000
 NucSpn=           0           2           0           0           0           0           2           0           0           0
 AtZEff=  -0.0000000  -0.0000000  -0.0000000  -0.0000000  -0.0000000  -0.0000000  -0.0000000  -0.0000000  -0.0000000  -0.0000000
 NQMom=    0.0000000   2.0440000   0.0000000   0.0000000   0.0000000   0.0000000   2.0440000   0.0000000   0.0000000   0.0000000
 NMagM=    0.0000000   0.4037610   0.0000000   0.0000000   0.0000000   0.0000000   0.4037610   0.0000000   0.0000000   0.0000000
 AtZNuc=   8.0000000   7.0000000   6.0000000   6.0000000   8.0000000   6.0000000   7.0000000   6.0000000   6.0000000   6.0000000

  Atom        11          12          13          14          15          16          17          18          19          20
 IAtWgt=          12          12          12           1           1           1           1           1           1           1
 AtmWgt=  12.0000000  12.0000000  12.0000000   1.0078250   1.0078250   1.0078250   1.0078250   1.0078250   1.0078250   1.0078250
 NucSpn=           0           0           0           1           1           1           1           1           1           1
 AtZEff=  -0.0000000  -0.0000000  -0.0000000  -0.0000000  -0.0000000  -0.0000000  -0.0000000  -0.0000000  -0.0000000  -0.0000000
 NQMom=    0.0000000   0.0000000   0.0000000   0.0000000   0.0000000   0.0000000   0.0000000   0.0000000   0.0000000   0.0000000
 NMagM=    0.0000000   0.0000000   0.0000000   2.7928460   2.7928460   2.7928460   2.7928460   2.7928460   2.7928460   2.7928460
 AtZNuc=   6.0000000   6.0000000   6.0000000   1.0000000   1.0000000   1.0000000   1.0000000   1.0000000   1.0000000   1.0000000

  Atom        21
 IAtWgt=           1
 AtmWgt=   1.0078250
 NucSpn=           1
 AtZEff=  -0.0000000
 NQMom=    0.0000000
 NMagM=    2.7928460
 AtZNuc=   1.0000000
 Leave Link  101 at Mon Oct 14 01:40:49 2019, MaxMem= 10737418240 cpu:               8.5 elap:               0.4
 (Enter /apps/cent7/gaussian/g16-A.03/g16-haswell/g16/l103.exe)

 GradGradGradGradGradGradGradGradGradGradGradGradGradGradGradGradGradGrad
 Berny optimization.
 Initialization pass.
                           ----------------------------
                           !    Initial Parameters    !
                           ! (Angstroms and Degrees)  !
 --------------------------                            --------------------------
 ! Name  Definition              Value          Derivative Info.                !
 --------------------------------------------------------------------------------
 ! R1    R(1,2)                  1.2685         estimate D2E/DX2                !
 ! R2    R(1,14)                 0.96           estimate D2E/DX2                !
 ! R3    R(2,3)                  1.2828         estimate D2E/DX2                !
 ! R4    R(3,4)                  1.348          estimate D2E/DX2                !
 ! R5    R(3,13)                 1.3661         estimate D2E/DX2                !
 ! R6    R(4,5)                  1.3411         estimate D2E/DX2                !
 ! R7    R(4,7)                  1.2849         estimate D2E/DX2                !
 ! R8    R(5,6)                  1.4411         estimate D2E/DX2                !
 ! R9    R(6,15)                 1.09           estimate D2E/DX2                !
 ! R10   R(6,16)                 1.09           estimate D2E/DX2                !
 ! R11   R(6,17)                 1.09           estimate D2E/DX2                !
 ! R12   R(7,8)                  1.3082         estimate D2E/DX2                !
 ! R13   R(8,9)                  1.4063         estimate D2E/DX2                !
 ! R14   R(8,13)                 1.3914         estimate D2E/DX2                !
 ! R15   R(9,10)                 1.4112         estimate D2E/DX2                !
 ! R16   R(9,18)                 1.09           estimate D2E/DX2                !
 ! R17   R(10,11)                1.414          estimate D2E/DX2                !
 ! R18   R(10,19)                1.0899         estimate D2E/DX2                !
 ! R19   R(11,12)                1.4127         estimate D2E/DX2                !
 ! R20   R(11,20)                1.09           estimate D2E/DX2                !
 ! R21   R(12,13)                1.4093         estimate D2E/DX2                !
 ! R22   R(12,21)                1.09           estimate D2E/DX2                !
 ! A1    A(2,1,14)             109.4714         estimate D2E/DX2                !
 ! A2    A(1,2,3)              125.2373         estimate D2E/DX2                !
 ! A3    A(2,3,4)              124.2861         estimate D2E/DX2                !
 ! A4    A(2,3,13)             129.9767         estimate D2E/DX2                !
 ! A5    A(4,3,13)             105.7364         estimate D2E/DX2                !
 ! A6    A(3,4,5)              125.1862         estimate D2E/DX2                !
 ! A7    A(3,4,7)              111.6906         estimate D2E/DX2                !
 ! A8    A(5,4,7)              123.1211         estimate D2E/DX2                !
 ! A9    A(4,5,6)              112.525          estimate D2E/DX2                !
 ! A10   A(5,6,15)             109.4677         estimate D2E/DX2                !
 ! A11   A(5,6,16)             109.4713         estimate D2E/DX2                !
 ! A12   A(5,6,17)             109.4703         estimate D2E/DX2                !
 ! A13   A(15,6,16)            109.4734         estimate D2E/DX2                !
 ! A14   A(15,6,17)            109.4706         estimate D2E/DX2                !
 ! A15   A(16,6,17)            109.474          estimate D2E/DX2                !
 ! A16   A(4,7,8)              108.2736         estimate D2E/DX2                !
 ! A17   A(7,8,9)              129.7606         estimate D2E/DX2                !
 ! A18   A(7,8,13)             108.894          estimate D2E/DX2                !
 ! A19   A(9,8,13)             121.3311         estimate D2E/DX2                !
 ! A20   A(8,9,10)             118.418          estimate D2E/DX2                !
 ! A21   A(8,9,18)             120.6226         estimate D2E/DX2                !
 ! A22   A(10,9,18)            120.9594         estimate D2E/DX2                !
 ! A23   A(9,10,11)            120.4129         estimate D2E/DX2                !
 ! A24   A(9,10,19)            119.6968         estimate D2E/DX2                !
 ! A25   A(11,10,19)           119.8903         estimate D2E/DX2                !
 ! A26   A(10,11,12)           120.5317         estimate D2E/DX2                !
 ! A27   A(10,11,20)           119.7811         estimate D2E/DX2                !
 ! A28   A(12,11,20)           119.6872         estimate D2E/DX2                !
 ! A29   A(11,12,13)           118.4235         estimate D2E/DX2                !
 ! A30   A(11,12,21)           120.8976         estimate D2E/DX2                !
 ! A31   A(13,12,21)           120.6789         estimate D2E/DX2                !
 ! A32   A(3,13,8)             105.3932         estimate D2E/DX2                !
 ! A33   A(3,13,12)            133.7136         estimate D2E/DX2                !
 ! A34   A(8,13,12)            120.8821         estimate D2E/DX2                !
 ! D1    D(14,1,2,3)            90.8101         estimate D2E/DX2                !
 ! D2    D(1,2,3,4)            179.9515         estimate D2E/DX2                !
 ! D3    D(1,2,3,13)            -0.4253         estimate D2E/DX2                !
 ! D4    D(2,3,4,5)              0.2803         estimate D2E/DX2                !
 ! D5    D(2,3,4,7)           -179.2119         estimate D2E/DX2                !
 ! D6    D(13,3,4,5)          -179.4197         estimate D2E/DX2                !
 ! D7    D(13,3,4,7)             1.0881         estimate D2E/DX2                !
 ! D8    D(2,3,13,8)           179.7295         estimate D2E/DX2                !
 ! D9    D(2,3,13,12)           -1.5215         estimate D2E/DX2                !
 ! D10   D(4,3,13,8)            -0.594          estimate D2E/DX2                !
 ! D11   D(4,3,13,12)          178.155          estimate D2E/DX2                !
 ! D12   D(3,4,5,6)             94.1032         estimate D2E/DX2                !
 ! D13   D(7,4,5,6)            -86.4602         estimate D2E/DX2                !
 ! D14   D(3,4,7,8)             -1.1405         estimate D2E/DX2                !
 ! D15   D(5,4,7,8)            179.3551         estimate D2E/DX2                !
 ! D16   D(4,5,6,15)          -137.3784         estimate D2E/DX2                !
 ! D17   D(4,5,6,16)           -17.3779         estimate D2E/DX2                !
 ! D18   D(4,5,6,17)           102.625          estimate D2E/DX2                !
 ! D19   D(4,7,8,9)           -177.8958         estimate D2E/DX2                !
 ! D20   D(4,7,8,13)             0.7177         estimate D2E/DX2                !
 ! D21   D(7,8,9,10)           178.5594         estimate D2E/DX2                !
 ! D22   D(7,8,9,18)            -1.4343         estimate D2E/DX2                !
 ! D23   D(13,8,9,10)            0.0952         estimate D2E/DX2                !
 ! D24   D(13,8,9,18)         -179.8985         estimate D2E/DX2                !
 ! D25   D(7,8,13,3)            -0.0521         estimate D2E/DX2                !
 ! D26   D(7,8,13,12)         -178.9985         estimate D2E/DX2                !
 ! D27   D(9,8,13,3)           178.7001         estimate D2E/DX2                !
 ! D28   D(9,8,13,12)           -0.2463         estimate D2E/DX2                !
 ! D29   D(8,9,10,11)            0.1337         estimate D2E/DX2                !
 ! D30   D(8,9,10,19)         -179.8718         estimate D2E/DX2                !
 ! D31   D(18,9,10,11)        -179.8726         estimate D2E/DX2                !
 ! D32   D(18,9,10,19)           0.1219         estimate D2E/DX2                !
 ! D33   D(9,10,11,12)          -0.2154         estimate D2E/DX2                !
 ! D34   D(9,10,11,20)         179.7767         estimate D2E/DX2                !
 ! D35   D(19,10,11,12)        179.7902         estimate D2E/DX2                !
 ! D36   D(19,10,11,20)         -0.2177         estimate D2E/DX2                !
 ! D37   D(10,11,12,13)          0.0669         estimate D2E/DX2                !
 ! D38   D(10,11,12,21)       -179.928          estimate D2E/DX2                !
 ! D39   D(20,11,12,13)       -179.9253         estimate D2E/DX2                !
 ! D40   D(20,11,12,21)          0.0799         estimate D2E/DX2                !
 ! D41   D(11,12,13,3)        -178.433          estimate D2E/DX2                !
 ! D42   D(11,12,13,8)           0.1616         estimate D2E/DX2                !
 ! D43   D(21,12,13,3)           1.5618         estimate D2E/DX2                !
 ! D44   D(21,12,13,8)        -179.8435         estimate D2E/DX2                !
 --------------------------------------------------------------------------------
 Trust Radius=3.00D-01 FncErr=1.00D-07 GrdErr=1.00D-06 EigMax=2.50D+02 EigMin=1.00D-04
 Number of steps in this run=    110 maximum allowed number of steps=    126.
 GradGradGradGradGradGradGradGradGradGradGradGradGradGradGradGradGradGrad

 Leave Link  103 at Mon Oct 14 01:40:49 2019, MaxMem= 10737418240 cpu:               0.5 elap:               0.0
 (Enter /apps/cent7/gaussian/g16-A.03/g16-haswell/g16/l202.exe)
                          Input orientation:                          
 ---------------------------------------------------------------------
 Center     Atomic      Atomic             Coordinates (Angstroms)
 Number     Number       Type             X           Y           Z
 ---------------------------------------------------------------------
      1          8           0        1.229700   -0.118000   -0.021800
      2          7           0       -0.028600    0.042100   -0.007000
      3          6           0       -0.630700    1.174800   -0.013200
      4          6           0       -1.970500    1.322700    0.001900
      5          8           0       -2.858600    0.318200    0.030700
      6          6           0       -3.278100   -0.009600    1.369900
      7          7           0       -2.311900    2.561100   -0.025300
      8          6           0       -1.223300    3.286600   -0.034700
      9          6           0       -1.074200    4.684900   -0.023000
     10          6           0        0.231100    5.221000   -0.006400
     11          6           0        1.356500    4.365000   -0.004600
     12          6           0        1.191100    2.962100   -0.014800
     13          6           0       -0.118300    2.441100   -0.028200
     14          1           0        1.557600   -0.159700    0.879500
     15          1           0       -3.314000   -1.093000    1.484400
     16          1           0       -2.569500    0.408100    2.085100
     17          1           0       -4.268100    0.408100    1.553000
     18          1           0       -1.948000    5.336500   -0.026600
     19          1           0        0.370800    6.301900    0.005000
     20          1           0        2.360100    4.790200    0.004600
     21          1           0        2.054400    2.296700   -0.012300
 ---------------------------------------------------------------------
                    Distance matrix (angstroms):
                    1          2          3          4          5
     1  O    0.000000
     2  N    1.268531   0.000000
     3  C    2.265501   1.282799   0.000000
     4  C    3.509624   2.326154   1.348023   0.000000
     5  O    4.111839   2.843686   2.387306   1.341108   0.000000
     6  C    4.718987   3.529558   3.213175   2.314361   1.441142
     7  N    4.440779   3.399876   2.179084   1.284885   2.309246
     8  C    4.196269   3.457579   2.193476   2.101559   3.389673
     9  C    5.326895   4.759110   3.538021   3.479707   4.717524
    10  C    5.431608   5.185407   4.136965   4.477036   5.795263
    11  C    4.484826   4.539380   3.758512   4.508277   5.843364
    12  C    3.080350   3.164511   2.552136   3.561408   4.836564
    13  C    2.892428   2.400770   1.366124   2.163878   3.466903
    14  H    0.959999   1.828288   2.714122   3.926217   4.522353
    15  H    4.885128   3.782404   3.819139   3.136623   2.076564
    16  H    4.376040   3.311648   2.957979   2.352662   2.076589
    17  H    5.743046   4.532209   4.033794   2.919139   2.076576
    18  H    6.312636   5.631621   4.365227   4.013964   5.100570
    19  H    6.477156   6.272540   5.224030   5.502193   6.799585
    20  H    5.036758   5.315118   4.692155   5.547762   6.872721
    21  H    2.551665   3.069550   2.910055   4.141099   5.296591
                    6          7          8          9         10
     6  C    0.000000
     7  N    3.080361   0.000000
     8  C    4.130380   1.308239   0.000000
     9  C    5.369886   2.458136   1.406275   0.000000
    10  C    6.447314   3.679983   2.420327   1.411201   0.000000
    11  C    6.519654   4.087988   2.796287   2.451729   1.413953
    12  C    5.542756   3.525893   2.436190   2.845996   2.454445
    13  C    4.236148   2.196882   1.391380   2.438936   2.801856
    14  H    4.862820   4.816061   4.521742   5.586683   5.612161
    15  H    1.090025   4.078706   5.085232   6.377546   7.393025
    16  H    1.089999   3.025815   3.819891   4.997102   5.948255
    17  H    1.089999   3.309556   4.480777   5.565590   6.770416
    18  H    5.683323   2.799155   2.174246   1.090010   2.182252
    19  H    7.417038   4.603410   3.410977   2.168755   1.089950
    20  H    7.529371   5.176617   3.886272   3.436025   2.172176
    21  H    5.972023   4.374317   3.423992   3.935956   3.446156
                   11         12         13         14         15
    11  C    0.000000
    12  C    1.412653   0.000000
    13  C    2.424249   1.409308   0.000000
    14  H    4.614649   3.267986   3.224395   0.000000
    15  H    7.336243   6.243986   4.999032   4.996943   0.000000
    16  H    5.952930   5.007455   3.821977   4.336914   1.780006
    17  H    7.051191   6.227662   4.884068   5.891925   1.779976
    18  H    3.444418   3.935970   3.425076   6.581676   6.744446
    19  H    2.173310   3.439120   3.891799   6.627633   8.393505
    20  H    1.089997   2.169997   3.414940   5.090282   8.306459
    21  H    2.182885   1.089977   2.177551   2.660079   6.523028
                   16         17         18         19         20
    16  H    0.000000
    17  H    1.779992   0.000000
    18  H    5.397654   5.671607   0.000000
    19  H    6.907174   7.658497   2.511937   0.000000
    20  H    6.916085   8.095269   4.342711   2.498510   0.000000
    21  H    5.417227   6.781665   5.025912   4.344702   2.512226
                   21
    21  H    0.000000
 Stoichiometry    C9H8N2O2
 Framework group  C1[X(C9H8N2O2)]
 Deg. of freedom    57
 Full point group                 C1      NOp   1
 Largest Abelian subgroup         C1      NOp   1
 Largest concise Abelian subgroup C1      NOp   1
                         Standard orientation:                         
 ---------------------------------------------------------------------
 Center     Atomic      Atomic             Coordinates (Angstroms)
 Number     Number       Type             X           Y           Z
 ---------------------------------------------------------------------
      1          8           0        0.785245    2.845752   -0.072833
      2          7           0        1.315944    1.700135   -0.195680
      3          6           0        0.679578    0.586318   -0.200459
      4          6           0        1.263567   -0.621350   -0.333351
      5          8           0        2.580705   -0.831675   -0.472937
      6          6           0        3.233824   -1.096179    0.784188
      7          7           0        0.398294   -1.571136   -0.321619
      8          6           0       -0.787547   -1.043711   -0.157016
      9          6           0       -2.041575   -1.669085   -0.038989
     10          6           0       -3.179298   -0.859421    0.164772
     11          6           0       -3.052325    0.546577    0.244212
     12          6           0       -1.785653    1.160606    0.125466
     13          6           0       -0.658103    0.339184   -0.074644
     14          1           0        0.752363    3.085230    0.856236
     15          1           0        4.177837   -0.552704    0.824546
     16          1           0        2.591850   -0.770657    1.602725
     17          1           0        3.425823   -2.165199    0.876010
     18          1           0       -2.129454   -2.753619   -0.103680
     19          1           0       -4.161293   -1.322428    0.261211
     20          1           0       -3.938446    1.162353    0.398172
     21          1           0       -1.680751    2.243779    0.186957
 ---------------------------------------------------------------------
 Rotational constants (GHZ):           1.3750627           0.6962916           0.4809499
 Leave Link  202 at Mon Oct 14 01:40:49 2019, MaxMem= 10737418240 cpu:               0.3 elap:               0.0
 (Enter /apps/cent7/gaussian/g16-A.03/g16-haswell/g16/l301.exe)
 Standard basis: 6-31G(d) (6D, 7F)
 Ernie: Thresh=  0.10000D-02 Tol=  0.10000D-05 Strict=F.
 There are   211 symmetry adapted cartesian basis functions of A   symmetry.
 There are   211 symmetry adapted basis functions of A   symmetry.
   211 basis functions,   396 primitive gaussians,   211 cartesian basis functions
    46 alpha electrons       46 beta electrons
       nuclear repulsion energy       766.2738240373 Hartrees.
 IExCor=  402 DFT=T Ex+Corr=B3LYP ExCW=0 ScaHFX=  0.200000
 ScaDFX=  0.800000  0.720000  1.000000  0.810000 ScalE2=  1.000000  1.000000
 IRadAn=      5 IRanWt=     -1 IRanGd=            0 ICorTp=0 IEmpDi=  4
 NAtoms=   21 NActive=   21 NUniq=   21 SFac= 1.00D+00 NAtFMM=   60 NAOKFM=F Big=F
 Integral buffers will be    131072 words long.
 Raffenetti 2 integral format.
 Two-electron integral symmetry is turned on.
 Leave Link  301 at Mon Oct 14 01:40:49 2019, MaxMem= 10737418240 cpu:               1.2 elap:               0.1
 (Enter /apps/cent7/gaussian/g16-A.03/g16-haswell/g16/l302.exe)
 NPDir=0 NMtPBC=     1 NCelOv=     1 NCel=       1 NClECP=     1 NCelD=      1
         NCelK=      1 NCelE2=     1 NClLst=     1 CellRange=     0.0.
 One-electron integrals computed using PRISM.
 One-electron integral symmetry used in STVInt
 NBasis=   211 RedAO= T EigKep=  3.19D-04  NBF=   211
 NBsUse=   211 1.00D-06 EigRej= -1.00D+00 NBFU=   211
 Precomputing XC quadrature grid using
 IXCGrd= 4 IRadAn=           5 IRanWt=          -1 IRanGd=           0 AccXCQ= 0.00D+00.
 Generated NRdTot=       0 NPtTot=           0 NUsed=           0 NTot=          32
 NSgBfM=   210   210   210   210   210 MxSgAt=    21 MxSgA2=    21.
 Leave Link  302 at Mon Oct 14 01:40:49 2019, MaxMem= 10737418240 cpu:               3.7 elap:               0.2
 (Enter /apps/cent7/gaussian/g16-A.03/g16-haswell/g16/l303.exe)
 DipDrv:  MaxL=1.
 Leave Link  303 at Mon Oct 14 01:40:49 2019, MaxMem= 10737418240 cpu:               0.7 elap:               0.1
 (Enter /apps/cent7/gaussian/g16-A.03/g16-haswell/g16/l401.exe)
 ExpMin= 1.61D-01 ExpMax= 5.48D+03 ExpMxC= 8.25D+02 IAcc=3 IRadAn=         5 AccDes= 0.00D+00
 Harris functional with IExCor=  402 and IRadAn=       5 diagonalized for initial guess.
 HarFok:  IExCor=  402 AccDes= 0.00D+00 IRadAn=         5 IDoV= 1 UseB2=F ITyADJ=14
 ICtDFT=  3500011 ScaDFX=  1.000000  1.000000  1.000000  1.000000
 FoFCou: FMM=F IPFlag=           0 FMFlag=      100000 FMFlg1=           0
         NFxFlg=           0 DoJE=T BraDBF=F KetDBF=T FulRan=T
         wScrn=  0.000000 ICntrl=       500 IOpCl=  0 I1Cent=   200000004 NGrid=           0
         NMat0=    1 NMatS0=      1 NMatT0=    0 NMatD0=    1 NMtDS0=    0 NMtDT0=    0
 Petite list used in FoFCou.
 Harris En= -607.554011163279    
 JPrj=0 DoOrth=F DoCkMO=F.
 Leave Link  401 at Mon Oct 14 01:40:49 2019, MaxMem= 10737418240 cpu:               9.0 elap:               0.4
 (Enter /apps/cent7/gaussian/g16-A.03/g16-haswell/g16/l502.exe)
 Integral symmetry usage will be decided dynamically.
 Closed shell SCF:
 Using DIIS extrapolation, IDIIS=  1040.
 NGot= 10737418240 LenX= 10737321766 LenY= 10737276804
 Requested convergence on RMS density matrix=1.00D-08 within 128 cycles.
 Requested convergence on MAX density matrix=1.00D-06.
 Requested convergence on             energy=1.00D-06.
 No special actions if energy rises.
 Fock matrices will be formed incrementally for  20 cycles.
 Integral accuracy reduced to 1.0D-05 until final iterations.

 Cycle   1  Pass 0  IDiag  1:
 FoFJK:  IHMeth= 1 ICntrl=       0 DoSepK=F KAlg= 0 I1Cent=           0 FoldK=F
 IRaf= 890000000 NMat=       1 IRICut=       1 DoRegI=T DoRafI=F ISym2E= 0 IDoP0=0 IntGTp=1.
 FoFCou: FMM=F IPFlag=           0 FMFlag=      100000 FMFlg1=           0
         NFxFlg=           0 DoJE=F BraDBF=F KetDBF=F FulRan=T
         wScrn=  0.000000 ICntrl=         0 IOpCl=  0 I1Cent=           0 NGrid=           0
         NMat0=    1 NMatS0=      1 NMatT0=    0 NMatD0=    1 NMtDS0=    0 NMtDT0=    0
 Symmetry not used in FoFCou.
 E= -607.290851384605    
 DIIS: error= 2.52D-02 at cycle   1 NSaved=   1.
 NSaved= 1 IEnMin= 1 EnMin= -607.290851384605     IErMin= 1 ErrMin= 2.52D-02
 ErrMax= 2.52D-02  0.00D+00 EMaxC= 1.00D-01 BMatC= 2.65D-01 BMatP= 2.65D-01
 IDIUse=3 WtCom= 7.48D-01 WtEn= 2.52D-01
 Coeff-Com:  0.100D+01
 Coeff-En:   0.100D+01
 Coeff:      0.100D+01
 Gap=     0.169 Goal=   None    Shift=    0.000
 GapD=    0.169 DampG=1.000 DampE=0.500 DampFc=0.5000 IDamp=-1.
 Damping current iteration by 5.00D-01
 RMSDP=7.07D-03 MaxDP=1.83D-01              OVMax= 3.53D-01

 Cycle   2  Pass 0  IDiag  1:
 RMSU=  3.48D-03    CP:  9.75D-01
 E= -607.364748959677     Delta-E=       -0.073897575072 Rises=F Damp=T
 DIIS: error= 8.45D-03 at cycle   2 NSaved=   2.
 NSaved= 2 IEnMin= 2 EnMin= -607.364748959677     IErMin= 2 ErrMin= 8.45D-03
 ErrMax= 8.45D-03  0.00D+00 EMaxC= 1.00D-01 BMatC= 4.75D-02 BMatP= 2.65D-01
 IDIUse=3 WtCom= 9.16D-01 WtEn= 8.45D-02
 Coeff-Com:  0.179D+00 0.821D+00
 Coeff-En:   0.326D+00 0.674D+00
 Coeff:      0.191D+00 0.809D+00
 Gap=     0.116 Goal=   None    Shift=    0.000
 RMSDP=3.91D-03 MaxDP=1.43D-01 DE=-7.39D-02 OVMax= 4.97D-01

 Cycle   3  Pass 0  IDiag  1:
 RMSU=  3.78D-03    CP:  9.59D-01  7.42D-01
 E= -607.475455818996     Delta-E=       -0.110706859319 Rises=F Damp=F
 DIIS: error= 1.44D-02 at cycle   3 NSaved=   3.
 NSaved= 3 IEnMin= 3 EnMin= -607.475455818996     IErMin= 2 ErrMin= 8.45D-03
 ErrMax= 1.44D-02  0.00D+00 EMaxC= 1.00D-01 BMatC= 7.43D-02 BMatP= 4.75D-02
 IDIUse=2 WtCom= 0.00D+00 WtEn= 1.00D+00
 Coeff-En:   0.000D+00 0.154D+00 0.846D+00
 Coeff:      0.000D+00 0.154D+00 0.846D+00
 Gap=     0.184 Goal=   None    Shift=    0.000
 RMSDP=5.04D-03 MaxDP=2.14D-01 DE=-1.11D-01 OVMax= 3.32D-01

 Cycle   4  Pass 0  IDiag  1:
 RMSU=  2.19D-03    CP:  9.56D-01  1.28D+00 -9.44D-02
 E= -607.242530718169     Delta-E=        0.232925100827 Rises=F Damp=F
 DIIS: error= 2.38D-02 at cycle   4 NSaved=   4.
 NSaved= 4 IEnMin= 3 EnMin= -607.475455818996     IErMin= 2 ErrMin= 8.45D-03
 ErrMax= 2.38D-02  0.00D+00 EMaxC= 1.00D-01 BMatC= 2.90D-01 BMatP= 4.75D-02
 IDIUse=2 WtCom= 0.00D+00 WtEn= 1.00D+00
 Coeff-En:   0.000D+00 0.000D+00 0.730D+00 0.270D+00
 Coeff:      0.000D+00 0.000D+00 0.730D+00 0.270D+00
 Gap=     0.091 Goal=   None    Shift=    0.000
 RMSDP=2.46D-03 MaxDP=1.17D-01 DE= 2.33D-01 OVMax= 2.36D-01

 Cycle   5  Pass 0  IDiag  1:
 RMSU=  6.76D-04    CP:  9.58D-01  9.27D-01  3.77D-01  5.53D-01
 E= -607.540428405214     Delta-E=       -0.297897687045 Rises=F Damp=F
 DIIS: error= 5.76D-03 at cycle   5 NSaved=   5.
 NSaved= 5 IEnMin= 5 EnMin= -607.540428405214     IErMin= 5 ErrMin= 5.76D-03
 ErrMax= 5.76D-03  0.00D+00 EMaxC= 1.00D-01 BMatC= 1.53D-02 BMatP= 4.75D-02
 IDIUse=3 WtCom= 9.42D-01 WtEn= 5.76D-02
 Coeff-Com: -0.275D-02 0.396D-01 0.269D+00-0.484D-01 0.742D+00
 Coeff-En:   0.000D+00 0.000D+00 0.214D+00 0.000D+00 0.786D+00
 Coeff:     -0.259D-02 0.373D-01 0.266D+00-0.456D-01 0.745D+00
 Gap=     0.118 Goal=   None    Shift=    0.000
 RMSDP=8.34D-04 MaxDP=3.63D-02 DE=-2.98D-01 OVMax= 5.62D-02

 Cycle   6  Pass 0  IDiag  1:
 RMSU=  2.85D-04    CP:  9.58D-01  8.63D-01  5.58D-01  4.16D-01  8.67D-01
 E= -607.554705014740     Delta-E=       -0.014276609525 Rises=F Damp=F
 DIIS: error= 1.46D-03 at cycle   6 NSaved=   6.
 NSaved= 6 IEnMin= 6 EnMin= -607.554705014740     IErMin= 6 ErrMin= 1.46D-03
 ErrMax= 1.46D-03  0.00D+00 EMaxC= 1.00D-01 BMatC= 1.07D-03 BMatP= 1.53D-02
 IDIUse=3 WtCom= 9.85D-01 WtEn= 1.46D-02
 Coeff-Com: -0.761D-02 0.191D-01 0.129D+00-0.622D-01 0.523D+00 0.399D+00
 Coeff-En:   0.000D+00 0.000D+00 0.000D+00 0.000D+00 0.000D+00 0.100D+01
 Coeff:     -0.750D-02 0.188D-01 0.127D+00-0.613D-01 0.515D+00 0.408D+00
 Gap=     0.119 Goal=   None    Shift=    0.000
 RMSDP=2.03D-04 MaxDP=4.86D-03 DE=-1.43D-02 OVMax= 1.33D-02

 Cycle   7  Pass 0  IDiag  1:
 RMSU=  7.58D-05    CP:  9.57D-01  8.68D-01  5.45D-01  4.03D-01  9.36D-01
                    CP:  3.93D-01
 E= -607.555794404331     Delta-E=       -0.001089389591 Rises=F Damp=F
 DIIS: error= 3.75D-04 at cycle   7 NSaved=   7.
 NSaved= 7 IEnMin= 7 EnMin= -607.555794404331     IErMin= 7 ErrMin= 3.75D-04
 ErrMax= 3.75D-04  0.00D+00 EMaxC= 1.00D-01 BMatC= 5.90D-05 BMatP= 1.07D-03
 IDIUse=3 WtCom= 9.96D-01 WtEn= 3.75D-03
 Coeff-Com: -0.333D-02 0.974D-02 0.519D-01-0.297D-01 0.210D+00 0.228D+00
 Coeff-Com:  0.534D+00
 Coeff-En:   0.000D+00 0.000D+00 0.000D+00 0.000D+00 0.000D+00 0.000D+00
 Coeff-En:   0.100D+01
 Coeff:     -0.332D-02 0.970D-02 0.517D-01-0.296D-01 0.209D+00 0.227D+00
 Coeff:      0.535D+00
 Gap=     0.120 Goal=   None    Shift=    0.000
 RMSDP=4.97D-05 MaxDP=1.50D-03 DE=-1.09D-03 OVMax= 3.19D-03

 Cycle   8  Pass 0  IDiag  1:
 RMSU=  2.82D-05    CP:  9.58D-01  8.64D-01  5.51D-01  4.02D-01  9.32D-01
                    CP:  4.66D-01  6.87D-01
 E= -607.555849586492     Delta-E=       -0.000055182161 Rises=F Damp=F
 DIIS: error= 8.66D-05 at cycle   8 NSaved=   8.
 NSaved= 8 IEnMin= 8 EnMin= -607.555849586492     IErMin= 8 ErrMin= 8.66D-05
 ErrMax= 8.66D-05  0.00D+00 EMaxC= 1.00D-01 BMatC= 6.18D-06 BMatP= 5.90D-05
 IDIUse=1 WtCom= 1.00D+00 WtEn= 0.00D+00
 Coeff-Com:  0.118D-03-0.201D-03 0.523D-02-0.356D-02 0.123D-01 0.547D-01
 Coeff-Com:  0.302D+00 0.630D+00
 Coeff:      0.118D-03-0.201D-03 0.523D-02-0.356D-02 0.123D-01 0.547D-01
 Coeff:      0.302D+00 0.630D+00
 Gap=     0.120 Goal=   None    Shift=    0.000
 RMSDP=1.53D-05 MaxDP=4.67D-04 DE=-5.52D-05 OVMax= 1.45D-03

 Cycle   9  Pass 0  IDiag  1:
 RMSU=  8.13D-06    CP:  9.58D-01  8.63D-01  5.52D-01  4.00D-01  9.33D-01
                    CP:  4.70D-01  7.86D-01  7.48D-01
 E= -607.555855534326     Delta-E=       -0.000005947834 Rises=F Damp=F
 DIIS: error= 2.59D-05 at cycle   9 NSaved=   9.
 NSaved= 9 IEnMin= 9 EnMin= -607.555855534326     IErMin= 9 ErrMin= 2.59D-05
 ErrMax= 2.59D-05  0.00D+00 EMaxC= 1.00D-01 BMatC= 5.08D-07 BMatP= 6.18D-06
 IDIUse=1 WtCom= 1.00D+00 WtEn= 0.00D+00
 Coeff-Com:  0.258D-03-0.766D-03-0.974D-03 0.135D-03-0.807D-02 0.166D-01
 Coeff-Com:  0.132D+00 0.350D+00 0.510D+00
 Coeff:      0.258D-03-0.766D-03-0.974D-03 0.135D-03-0.807D-02 0.166D-01
 Coeff:      0.132D+00 0.350D+00 0.510D+00
 Gap=     0.120 Goal=   None    Shift=    0.000
 RMSDP=4.46D-06 MaxDP=1.54D-04 DE=-5.95D-06 OVMax= 3.11D-04

 Initial convergence to 1.0D-05 achieved.  Increase integral accuracy.
 Cycle  10  Pass 1  IDiag  1:
 E= -607.555846957104     Delta-E=        0.000008577222 Rises=F Damp=F
 DIIS: error= 1.36D-05 at cycle   1 NSaved=   1.
 NSaved= 1 IEnMin= 1 EnMin= -607.555846957104     IErMin= 1 ErrMin= 1.36D-05
 ErrMax= 1.36D-05  0.00D+00 EMaxC= 1.00D-01 BMatC= 1.11D-07 BMatP= 1.11D-07
 IDIUse=1 WtCom= 1.00D+00 WtEn= 0.00D+00
 Coeff-Com:  0.100D+01
 Coeff:      0.100D+01
 Gap=     0.120 Goal=   None    Shift=    0.000
 RMSDP=4.46D-06 MaxDP=1.54D-04 DE= 8.58D-06 OVMax= 4.01D-04

 Cycle  11  Pass 1  IDiag  1:
 RMSU=  1.13D-05    CP:  1.00D+00
 E= -607.555846706570     Delta-E=        0.000000250534 Rises=F Damp=F
 DIIS: error= 2.78D-05 at cycle   2 NSaved=   2.
 NSaved= 2 IEnMin= 1 EnMin= -607.555846957104     IErMin= 1 ErrMin= 1.36D-05
 ErrMax= 2.78D-05  0.00D+00 EMaxC= 1.00D-01 BMatC= 3.29D-07 BMatP= 1.11D-07
 IDIUse=1 WtCom= 1.00D+00 WtEn= 0.00D+00
 Coeff-Com:  0.649D+00 0.351D+00
 Coeff:      0.649D+00 0.351D+00
 Gap=     0.120 Goal=   None    Shift=    0.000
 RMSDP=4.07D-06 MaxDP=1.58D-04 DE= 2.51D-07 OVMax= 3.75D-04

 Cycle  12  Pass 1  IDiag  1:
 RMSU=  3.70D-06    CP:  1.00D+00  8.48D-01
 E= -607.555847055148     Delta-E=       -0.000000348578 Rises=F Damp=F
 DIIS: error= 5.73D-06 at cycle   3 NSaved=   3.
 NSaved= 3 IEnMin= 3 EnMin= -607.555847055148     IErMin= 3 ErrMin= 5.73D-06
 ErrMax= 5.73D-06  0.00D+00 EMaxC= 1.00D-01 BMatC= 1.58D-08 BMatP= 1.11D-07
 IDIUse=1 WtCom= 1.00D+00 WtEn= 0.00D+00
 Coeff-Com:  0.161D+00 0.188D+00 0.651D+00
 Coeff:      0.161D+00 0.188D+00 0.651D+00
 Gap=     0.120 Goal=   None    Shift=    0.000
 RMSDP=1.08D-06 MaxDP=3.85D-05 DE=-3.49D-07 OVMax= 7.37D-05

 Cycle  13  Pass 1  IDiag  1:
 RMSU=  8.26D-07    CP:  1.00D+00  8.67D-01  8.22D-01
 E= -607.555847064062     Delta-E=       -0.000000008914 Rises=F Damp=F
 DIIS: error= 3.42D-06 at cycle   4 NSaved=   4.
 NSaved= 4 IEnMin= 4 EnMin= -607.555847064062     IErMin= 4 ErrMin= 3.42D-06
 ErrMax= 3.42D-06  0.00D+00 EMaxC= 1.00D-01 BMatC= 7.62D-09 BMatP= 1.58D-08
 IDIUse=1 WtCom= 1.00D+00 WtEn= 0.00D+00
 Coeff-Com:  0.425D-02 0.788D-01 0.469D+00 0.448D+00
 Coeff:      0.425D-02 0.788D-01 0.469D+00 0.448D+00
 Gap=     0.120 Goal=   None    Shift=    0.000
 RMSDP=5.36D-07 MaxDP=2.17D-05 DE=-8.91D-09 OVMax= 3.26D-05

 Cycle  14  Pass 1  IDiag  1:
 RMSU=  1.77D-07    CP:  1.00D+00  8.74D-01  8.69D-01  4.32D-01
 E= -607.555847070765     Delta-E=       -0.000000006703 Rises=F Damp=F
 DIIS: error= 6.13D-07 at cycle   5 NSaved=   5.
 NSaved= 5 IEnMin= 5 EnMin= -607.555847070765     IErMin= 5 ErrMin= 6.13D-07
 ErrMax= 6.13D-07  0.00D+00 EMaxC= 1.00D-01 BMatC= 2.20D-10 BMatP= 7.62D-09
 IDIUse=1 WtCom= 1.00D+00 WtEn= 0.00D+00
 Coeff-Com: -0.352D-02 0.409D-01 0.244D+00 0.266D+00 0.453D+00
 Coeff:     -0.352D-02 0.409D-01 0.244D+00 0.266D+00 0.453D+00
 Gap=     0.120 Goal=   None    Shift=    0.000
 RMSDP=9.43D-08 MaxDP=3.33D-06 DE=-6.70D-09 OVMax= 5.01D-06

 Cycle  15  Pass 1  IDiag  1:
 RMSU=  7.17D-08    CP:  1.00D+00  8.75D-01  8.65D-01  4.67D-01  7.20D-01
 E= -607.555847070952     Delta-E=       -0.000000000186 Rises=F Damp=F
 DIIS: error= 1.92D-07 at cycle   6 NSaved=   6.
 NSaved= 6 IEnMin= 6 EnMin= -607.555847070952     IErMin= 6 ErrMin= 1.92D-07
 ErrMax= 1.92D-07  0.00D+00 EMaxC= 1.00D-01 BMatC= 2.01D-11 BMatP= 2.20D-10
 IDIUse=1 WtCom= 1.00D+00 WtEn= 0.00D+00
 Coeff-Com: -0.262D-02 0.127D-01 0.658D-01 0.907D-01 0.242D+00 0.591D+00
 Coeff:     -0.262D-02 0.127D-01 0.658D-01 0.907D-01 0.242D+00 0.591D+00
 Gap=     0.120 Goal=   None    Shift=    0.000
 RMSDP=3.64D-08 MaxDP=9.55D-07 DE=-1.86D-10 OVMax= 3.29D-06

 Cycle  16  Pass 1  IDiag  1:
 RMSU=  2.80D-08    CP:  1.00D+00  8.75D-01  8.61D-01  4.69D-01  8.03D-01
                    CP:  8.61D-01
 E= -607.555847070982     Delta-E=       -0.000000000031 Rises=F Damp=F
 DIIS: error= 1.07D-07 at cycle   7 NSaved=   7.
 NSaved= 7 IEnMin= 7 EnMin= -607.555847070982     IErMin= 7 ErrMin= 1.07D-07
 ErrMax= 1.07D-07  0.00D+00 EMaxC= 1.00D-01 BMatC= 3.36D-12 BMatP= 2.01D-11
 IDIUse=1 WtCom= 1.00D+00 WtEn= 0.00D+00
 Coeff-Com: -0.914D-03 0.120D-02-0.284D-03 0.128D-01 0.515D-01 0.328D+00
 Coeff-Com:  0.608D+00
 Coeff:     -0.914D-03 0.120D-02-0.284D-03 0.128D-01 0.515D-01 0.328D+00
 Coeff:      0.608D+00
 Gap=     0.120 Goal=   None    Shift=    0.000
 RMSDP=1.63D-08 MaxDP=5.38D-07 DE=-3.07D-11 OVMax= 1.80D-06

 Cycle  17  Pass 1  IDiag  1:
 RMSU=  1.20D-08    CP:  1.00D+00  8.76D-01  8.61D-01  4.74D-01  8.26D-01
                    CP:  9.72D-01  8.61D-01
 E= -607.555847070980     Delta-E=        0.000000000003 Rises=F Damp=F
 DIIS: error= 4.04D-08 at cycle   8 NSaved=   8.
 NSaved= 8 IEnMin= 7 EnMin= -607.555847070982     IErMin= 8 ErrMin= 4.04D-08
 ErrMax= 4.04D-08  0.00D+00 EMaxC= 1.00D-01 BMatC= 9.05D-13 BMatP= 3.36D-12
 IDIUse=1 WtCom= 1.00D+00 WtEn= 0.00D+00
 Coeff-Com:  0.473D-04-0.278D-02-0.183D-01-0.156D-01-0.365D-01 0.545D-01
 Coeff-Com:  0.400D+00 0.619D+00
 Coeff:      0.473D-04-0.278D-02-0.183D-01-0.156D-01-0.365D-01 0.545D-01
 Coeff:      0.400D+00 0.619D+00
 Gap=     0.120 Goal=   None    Shift=    0.000
 RMSDP=7.06D-09 MaxDP=1.89D-07 DE= 2.50D-12 OVMax= 5.22D-07

 SCF Done:  E(RB3LYP) =  -607.555847071     A.U. after   17 cycles
            NFock= 17  Conv=0.71D-08     -V/T= 2.0072
 KE= 6.032122231151D+02 PE=-2.948739247205D+03 EE= 9.716973529818D+02
 Leave Link  502 at Mon Oct 14 01:40:55 2019, MaxMem= 10737418240 cpu:             124.4 elap:               5.2
 (Enter /apps/cent7/gaussian/g16-A.03/g16-haswell/g16/l601.exe)
 Copying SCF densities to generalized density rwf, IOpCl= 0 IROHF=0.

 **********************************************************************

            Population analysis using the SCF density.

 **********************************************************************

 Orbital symmetries:
       Occupied  (A) (A) (A) (A) (A) (A) (A) (A) (A) (A) (A) (A)
                 (A) (A) (A) (A) (A) (A) (A) (A) (A) (A) (A) (A)
                 (A) (A) (A) (A) (A) (A) (A) (A) (A) (A) (A) (A)
                 (A) (A) (A) (A) (A) (A) (A) (A) (A) (A)
       Virtual   (A) (A) (A) (A) (A) (A) (A) (A) (A) (A) (A) (A)
                 (A) (A) (A) (A) (A) (A) (A) (A) (A) (A) (A) (A)
                 (A) (A) (A) (A) (A) (A) (A) (A) (A) (A) (A) (A)
                 (A) (A) (A) (A) (A) (A) (A) (A) (A) (A) (A) (A)
                 (A) (A) (A) (A) (A) (A) (A) (A) (A) (A) (A) (A)
                 (A) (A) (A) (A) (A) (A) (A) (A) (A) (A) (A) (A)
                 (A) (A) (A) (A) (A) (A) (A) (A) (A) (A) (A) (A)
                 (A) (A) (A) (A) (A) (A) (A) (A) (A) (A) (A) (A)
                 (A) (A) (A) (A) (A) (A) (A) (A) (A) (A) (A) (A)
                 (A) (A) (A) (A) (A) (A) (A) (A) (A) (A) (A) (A)
                 (A) (A) (A) (A) (A) (A) (A) (A) (A) (A) (A) (A)
                 (A) (A) (A) (A) (A) (A) (A) (A) (A) (A) (A) (A)
                 (A) (A) (A) (A) (A) (A) (A) (A) (A) (A) (A) (A)
                 (A) (A) (A) (A) (A) (A) (A) (A) (A)
 The electronic state is 1-A.
 Alpha  occ. eigenvalues --  -19.21340 -19.16901 -14.40090 -14.31951 -10.26992
 Alpha  occ. eigenvalues --  -10.24022 -10.22630 -10.21170 -10.20692 -10.20431
 Alpha  occ. eigenvalues --  -10.19840 -10.19745 -10.18334  -1.16482  -1.07580
 Alpha  occ. eigenvalues --   -0.99557  -0.88114  -0.84109  -0.76446  -0.74335
 Alpha  occ. eigenvalues --   -0.72008  -0.69526  -0.63255  -0.61251  -0.59134
 Alpha  occ. eigenvalues --   -0.55248  -0.51413  -0.51313  -0.50090  -0.47863
 Alpha  occ. eigenvalues --   -0.45442  -0.44536  -0.44187  -0.43949  -0.42341
 Alpha  occ. eigenvalues --   -0.40759  -0.37274  -0.36819  -0.36022  -0.33503
 Alpha  occ. eigenvalues --   -0.31767  -0.28401  -0.27009  -0.24897  -0.22903
 Alpha  occ. eigenvalues --   -0.22340
 Alpha virt. eigenvalues --   -0.10359  -0.01660   0.03442   0.04991   0.09738
 Alpha virt. eigenvalues --    0.10771   0.11044   0.14459   0.14624   0.15916
 Alpha virt. eigenvalues --    0.16753   0.17355   0.17690   0.18907   0.21384
 Alpha virt. eigenvalues --    0.25850   0.26338   0.27460   0.29893   0.32932
 Alpha virt. eigenvalues --    0.35153   0.37513   0.42078   0.42586   0.47679
 Alpha virt. eigenvalues --    0.49181   0.50259   0.50890   0.52276   0.53298
 Alpha virt. eigenvalues --    0.54454   0.54916   0.55622   0.57680   0.59727
 Alpha virt. eigenvalues --    0.60076   0.60459   0.60809   0.62219   0.63194
 Alpha virt. eigenvalues --    0.64662   0.65080   0.66769   0.69497   0.70559
 Alpha virt. eigenvalues --    0.72517   0.74489   0.76674   0.77631   0.79303
 Alpha virt. eigenvalues --    0.79627   0.82288   0.83092   0.83554   0.84703
 Alpha virt. eigenvalues --    0.85713   0.85923   0.88216   0.88932   0.90405
 Alpha virt. eigenvalues --    0.91653   0.92884   0.94388   0.96379   0.97317
 Alpha virt. eigenvalues --    0.98740   1.01645   1.04011   1.05937   1.07323
 Alpha virt. eigenvalues --    1.08087   1.10438   1.12514   1.14628   1.18201
 Alpha virt. eigenvalues --    1.19810   1.23305   1.28623   1.30189   1.31845
 Alpha virt. eigenvalues --    1.33744   1.36352   1.39903   1.41856   1.44178
 Alpha virt. eigenvalues --    1.45743   1.46944   1.48498   1.48867   1.50226
 Alpha virt. eigenvalues --    1.53508   1.54100   1.58128   1.60137   1.65111
 Alpha virt. eigenvalues --    1.70046   1.70776   1.77143   1.79486   1.80919
 Alpha virt. eigenvalues --    1.82557   1.83562   1.86512   1.88340   1.90178
 Alpha virt. eigenvalues --    1.91121   1.94795   1.98066   2.00456   2.01740
 Alpha virt. eigenvalues --    2.03239   2.06252   2.07171   2.09775   2.12209
 Alpha virt. eigenvalues --    2.14035   2.16572   2.20272   2.21220   2.23962
 Alpha virt. eigenvalues --    2.24953   2.27915   2.28070   2.32043   2.33937
 Alpha virt. eigenvalues --    2.35535   2.39651   2.43582   2.44731   2.50478
 Alpha virt. eigenvalues --    2.52487   2.54948   2.55825   2.61564   2.63012
 Alpha virt. eigenvalues --    2.65325   2.68054   2.69640   2.74242   2.75866
 Alpha virt. eigenvalues --    2.77927   2.80475   2.83450   2.87323   2.92093
 Alpha virt. eigenvalues --    2.94010   3.00144   3.12010   3.20919   3.31474
 Alpha virt. eigenvalues --    3.42265   3.50454   3.75051   3.98641   4.07102
 Alpha virt. eigenvalues --    4.11019   4.12422   4.20901   4.25140   4.31479
 Alpha virt. eigenvalues --    4.34026   4.40414   4.54824   4.71893   4.89280
          Condensed to atoms (all electrons):
               1          2          3          4          5          6
     1  O    8.216100   0.077591  -0.061179   0.004967   0.000031  -0.000044
     2  N    0.077591   6.936480   0.482916  -0.107731   0.000722   0.001047
     3  C   -0.061179   0.482916   5.464830   0.221172  -0.091273  -0.004062
     4  C    0.004967  -0.107731   0.221172   4.716442   0.293619  -0.037349
     5  O    0.000031   0.000722  -0.091273   0.293619   8.222575   0.245237
     6  C   -0.000044   0.001047  -0.004062  -0.037349   0.245237   4.889983
     7  N   -0.000132   0.008643  -0.160391   0.559237  -0.071009  -0.004598
     8  C   -0.000378   0.014067   0.102231  -0.150960  -0.001785   0.000384
     9  C   -0.000002  -0.000236   0.019393  -0.000234  -0.000161   0.000012
    10  C    0.000004  -0.000009  -0.000711  -0.000120   0.000001  -0.000000
    11  C    0.000370  -0.000191   0.009263  -0.000412  -0.000000  -0.000000
    12  C    0.007655  -0.027274  -0.164887   0.020991   0.000010   0.000003
    13  C   -0.015123  -0.135215   0.003614  -0.023558   0.010313   0.000820
    14  H    0.226223  -0.019485  -0.005049  -0.000440   0.000015   0.000014
    15  H   -0.000005  -0.000068   0.001331   0.002412  -0.032046   0.377111
    16  H   -0.000004   0.000696   0.006163   0.000434  -0.035624   0.358234
    17  H   -0.000000   0.000062  -0.001083  -0.001688  -0.036658   0.377586
    18  H    0.000000   0.000001  -0.000181   0.000171  -0.000004   0.000001
    19  H    0.000000  -0.000000   0.000006   0.000003  -0.000000  -0.000000
    20  H   -0.000005   0.000003  -0.000201   0.000004  -0.000000  -0.000000
    21  H    0.015317  -0.002706  -0.012927  -0.000149   0.000000   0.000000
               7          8          9         10         11         12
     1  O   -0.000132  -0.000378  -0.000002   0.000004   0.000370   0.007655
     2  N    0.008643   0.014067  -0.000236  -0.000009  -0.000191  -0.027274
     3  C   -0.160391   0.102231   0.019393  -0.000711   0.009263  -0.164887
     4  C    0.559237  -0.150960  -0.000234  -0.000120  -0.000412   0.020991
     5  O   -0.071009  -0.001785  -0.000161   0.000001  -0.000000   0.000010
     6  C   -0.004598   0.000384   0.000012  -0.000000  -0.000000   0.000003
     7  N    6.962283   0.338828  -0.084956   0.005730  -0.000633   0.017472
     8  C    0.338828   4.726562   0.484425   0.001947  -0.044273  -0.070032
     9  C   -0.084956   0.484425   5.086784   0.487904  -0.021918  -0.056888
    10  C    0.005730   0.001947   0.487904   4.896097   0.526422  -0.020125
    11  C   -0.000633  -0.044273  -0.021918   0.526422   4.933690   0.466315
    12  C    0.017472  -0.070032  -0.056888  -0.020125   0.466315   5.229124
    13  C   -0.075536   0.374608  -0.044065  -0.045775  -0.001989   0.469493
    14  H    0.000021  -0.000043  -0.000001  -0.000000   0.000013   0.001477
    15  H   -0.000143   0.000004  -0.000000   0.000000   0.000000  -0.000000
    16  H    0.000286   0.000821   0.000025  -0.000001   0.000001  -0.000001
    17  H    0.002387  -0.000196  -0.000001   0.000000  -0.000000   0.000000
    18  H   -0.000775  -0.032647   0.344674  -0.046555   0.004637   0.000003
    19  H   -0.000092   0.002779  -0.037492   0.360440  -0.040387   0.004214
    20  H    0.000002   0.000930   0.003919  -0.039728   0.357422  -0.036341
    21  H   -0.000214   0.004100   0.000359   0.004243  -0.040602   0.345626
              13         14         15         16         17         18
     1  O   -0.015123   0.226223  -0.000005  -0.000004  -0.000000   0.000000
     2  N   -0.135215  -0.019485  -0.000068   0.000696   0.000062   0.000001
     3  C    0.003614  -0.005049   0.001331   0.006163  -0.001083  -0.000181
     4  C   -0.023558  -0.000440   0.002412   0.000434  -0.001688   0.000171
     5  O    0.010313   0.000015  -0.032046  -0.035624  -0.036658  -0.000004
     6  C    0.000820   0.000014   0.377111   0.358234   0.377586   0.000001
     7  N   -0.075536   0.000021  -0.000143   0.000286   0.002387  -0.000775
     8  C    0.374608  -0.000043   0.000004   0.000821  -0.000196  -0.032647
     9  C   -0.044065  -0.000001  -0.000000   0.000025  -0.000001   0.344674
    10  C   -0.045775  -0.000000   0.000000  -0.000001   0.000000  -0.046555
    11  C   -0.001989   0.000013   0.000000   0.000001  -0.000000   0.004637
    12  C    0.469493   0.001477  -0.000000  -0.000001   0.000000   0.000003
    13  C    5.360422   0.003386  -0.000012  -0.001432   0.000135   0.006659
    14  H    0.003386   0.364203   0.000002  -0.000022  -0.000000  -0.000000
    15  H   -0.000012   0.000002   0.552429  -0.029313  -0.040441  -0.000000
    16  H   -0.001432  -0.000022  -0.029313   0.590598  -0.036037   0.000001
    17  H    0.000135  -0.000000  -0.040441  -0.036037   0.567339   0.000000
    18  H    0.006659  -0.000000  -0.000000   0.000001   0.000000   0.585727
    19  H    0.000512  -0.000000  -0.000000  -0.000000   0.000000  -0.004880
    20  H    0.002908  -0.000002   0.000000   0.000000  -0.000000  -0.000137
    21  H   -0.033940   0.000241   0.000000   0.000000   0.000000   0.000016
              19         20         21
     1  O    0.000000  -0.000005   0.015317
     2  N   -0.000000   0.000003  -0.002706
     3  C    0.000006  -0.000201  -0.012927
     4  C    0.000003   0.000004  -0.000149
     5  O   -0.000000  -0.000000   0.000000
     6  C   -0.000000  -0.000000   0.000000
     7  N   -0.000092   0.000002  -0.000214
     8  C    0.002779   0.000930   0.004100
     9  C   -0.037492   0.003919   0.000359
    10  C    0.360440  -0.039728   0.004243
    11  C   -0.040387   0.357422  -0.040602
    12  C    0.004214  -0.036341   0.345626
    13  C    0.000512   0.002908  -0.033940
    14  H   -0.000000  -0.000002   0.000241
    15  H   -0.000000   0.000000   0.000000
    16  H   -0.000000   0.000000   0.000000
    17  H    0.000000  -0.000000   0.000000
    18  H   -0.004880  -0.000137   0.000016
    19  H    0.581523  -0.004755  -0.000149
    20  H   -0.004755   0.587557  -0.004429
    21  H   -0.000149  -0.004429   0.586878
 Mulliken charges:
               1
     1  O   -0.471389
     2  N   -0.229313
     3  C    0.191026
     4  C    0.503188
     5  O   -0.503963
     6  C   -0.204381
     7  N   -0.496408
     8  C    0.248628
     9  C   -0.181540
    10  C   -0.129765
    11  C   -0.147729
    12  C   -0.186836
    13  C    0.143775
    14  H    0.429446
    15  H    0.168740
    16  H    0.145176
    17  H    0.168595
    18  H    0.143289
    19  H    0.138276
    20  H    0.132851
    21  H    0.138334
 Sum of Mulliken charges =  -0.00000
 Mulliken charges with hydrogens summed into heavy atoms:
               1
     1  O   -0.041942
     2  N   -0.229313
     3  C    0.191026
     4  C    0.503188
     5  O   -0.503963
     6  C    0.278130
     7  N   -0.496408
     8  C    0.248628
     9  C   -0.038251
    10  C    0.008512
    11  C   -0.014877
    12  C   -0.048502
    13  C    0.143775
 Electronic spatial extent (au):  <R**2>=           2269.9921
 Charge=             -0.0000 electrons
 Dipole moment (field-independent basis, Debye):
    X=             -1.1838    Y=              1.4724    Z=              3.4253  Tot=              3.9118
 Quadrupole moment (field-independent basis, Debye-Ang):
   XX=            -66.3419   YY=            -70.8712   ZZ=            -72.7429
   XY=             -0.8809   XZ=              5.8471   YZ=              3.7138
 Traceless Quadrupole moment (field-independent basis, Debye-Ang):
   XX=              3.6434   YY=             -0.8858   ZZ=             -2.7576
   XY=             -0.8809   XZ=              5.8471   YZ=              3.7138
 Octapole moment (field-independent basis, Debye-Ang**2):
  XXX=              8.2393  YYY=             26.7080  ZZZ=             -0.1704  XYY=             -4.2531
  XXY=            -11.5166  XXZ=             19.9190  XZZ=             15.1782  YZZ=              9.7926
  YYZ=             21.2956  XYZ=             -1.2487
 Hexadecapole moment (field-independent basis, Debye-Ang**3):
 XXXX=          -1726.3519 YYYY=           -848.2584 ZZZZ=           -127.8537 XXXY=            -23.9315
 XXXZ=             31.8359 YYYX=             13.1966 YYYZ=             53.9712 ZZZX=              3.1930
 ZZZY=              6.0166 XXYY=           -440.8073 XXZZ=           -355.5053 YYZZ=           -159.1937
 XXYZ=             -7.3114 YYXZ=             19.2972 ZZXY=              2.5515
 N-N= 7.662738240373D+02 E-N=-2.948739244556D+03  KE= 6.032122231151D+02
 No NMR shielding tensors so no spin-rotation constants.
 Leave Link  601 at Mon Oct 14 01:40:55 2019, MaxMem= 10737418240 cpu:               2.4 elap:               0.1
 (Enter /apps/cent7/gaussian/g16-A.03/g16-haswell/g16/l701.exe)
 ... and contract with generalized density number  0.
 Compute integral first derivatives.
 Leave Link  701 at Mon Oct 14 01:40:55 2019, MaxMem= 10737418240 cpu:               2.6 elap:               0.1
 (Enter /apps/cent7/gaussian/g16-A.03/g16-haswell/g16/l702.exe)
 L702 exits ... SP integral derivatives will be done elsewhere.
 Leave Link  702 at Mon Oct 14 01:40:55 2019, MaxMem= 10737418240 cpu:               0.5 elap:               0.0
 (Enter /apps/cent7/gaussian/g16-A.03/g16-haswell/g16/l703.exe)
 Integral derivatives from FoFJK, PRISM(SPDF).
 Compute integral first derivatives, UseDBF=F ICtDFT=           0.
 Calling FoFJK, ICntrl=      2127 FMM=F ISym2X=0 I1Cent= 0 IOpClX= 0 NMat=1 NMatS=1 NMatT=0.
 FoFJK:  IHMeth= 1 ICntrl=    2127 DoSepK=F KAlg= 0 I1Cent=           0 FoldK=F
 IRaf=         0 NMat=       1 IRICut=       1 DoRegI=T DoRafI=F ISym2E= 0 IDoP0=0 IntGTp=1.
 FoFCou: FMM=F IPFlag=           0 FMFlag=      100000 FMFlg1=         800
         NFxFlg=           0 DoJE=F BraDBF=F KetDBF=F FulRan=T
         wScrn=  0.000000 ICntrl=      2127 IOpCl=  0 I1Cent=           0 NGrid=           0
         NMat0=    1 NMatS0=      1 NMatT0=    0 NMatD0=    1 NMtDS0=    0 NMtDT0=    0
 Symmetry not used in FoFCou.
 Leave Link  703 at Mon Oct 14 01:40:56 2019, MaxMem= 10737418240 cpu:              29.6 elap:               1.3
 (Enter /apps/cent7/gaussian/g16-A.03/g16-haswell/g16/l716.exe)
 Dipole        =-4.65725289D-01 5.79277329D-01 1.34761907D+00
 ***** Axes restored to original set *****
 -------------------------------------------------------------------
 Center     Atomic                   Forces (Hartrees/Bohr)
 Number     Number              X              Y              Z
 -------------------------------------------------------------------
      1        8           0.111488850    0.012802537   -0.016438346
      2        7          -0.141315371   -0.043053487    0.007508060
      3        6           0.112808805   -0.062344345   -0.003324476
      4        6          -0.111833202   -0.000855206   -0.006997024
      5        8          -0.003165084   -0.010569520    0.005023819
      6        6          -0.001418659    0.001097017   -0.003058105
      7        7          -0.102988770   -0.024725946    0.003558850
      8        6           0.064220581    0.065497919   -0.000404463
      9        6           0.001468685   -0.003967972   -0.000742127
     10        6           0.002435810   -0.012986838   -0.000367332
     11        6          -0.008023860   -0.000240514   -0.000282252
     12        6          -0.006465608    0.002842844    0.000010679
     13        6           0.081198014    0.082233284    0.000042952
     14        1           0.006437162   -0.001800960    0.013239628
     15        1           0.000968318   -0.002391431   -0.002926990
     16        1           0.000123667   -0.000820358    0.004576988
     17        1          -0.002671276    0.002014325    0.001120826
     18        1           0.001757754   -0.002403997    0.000100217
     19        1          -0.000207999   -0.002670210   -0.000078019
     20        1          -0.002534520   -0.001126011    0.000113881
     21        1          -0.002283297    0.003468868   -0.000676766
 -------------------------------------------------------------------
 Cartesian Forces:  Max     0.141315371 RMS     0.039380601
 Leave Link  716 at Mon Oct 14 01:40:56 2019, MaxMem= 10737418240 cpu:               0.6 elap:               0.0
 (Enter /apps/cent7/gaussian/g16-A.03/g16-haswell/g16/l103.exe)

 GradGradGradGradGradGradGradGradGradGradGradGradGradGradGradGradGradGrad
 Berny optimization.
 FormGI is forming the generalized inverse of G from B-inverse, IUseBI=4.
 Internal  Forces:  Max     0.123700608 RMS     0.023829278
 Search for a local minimum.
 Step number   1 out of a maximum of  110
 All quantities printed in internal units (Hartrees-Bohrs-Radians)
 RMS Force = .23829D-01 SwitMx=.10000D-02 MixMth= 1
 Mixed Optimization -- RFO/linear search
 Second derivative matrix not updated -- first step.
 ITU=  0
     Eigenvalues ---    0.01148   0.01912   0.01922   0.01925   0.01945
     Eigenvalues ---    0.01962   0.01975   0.02213   0.02256   0.02370
     Eigenvalues ---    0.02471   0.02729   0.02795   0.02955   0.03034
     Eigenvalues ---    0.03242   0.10288   0.10288   0.16000   0.16000
     Eigenvalues ---    0.16000   0.16000   0.16000   0.16000   0.16000
     Eigenvalues ---    0.16000   0.22000   0.22607   0.24521   0.24983
     Eigenvalues ---    0.24998   0.24999   0.25000   0.25000   0.25000
     Eigenvalues ---    0.34810   0.34811   0.34813   0.34813   0.34813
     Eigenvalues ---    0.34815   0.34818   0.38978   0.39429   0.40279
     Eigenvalues ---    0.43455   0.43663   0.43981   0.44348   0.48449
     Eigenvalues ---    0.52781   0.55474   0.56957   0.62248   0.68087
     Eigenvalues ---    0.72206   0.76749
 RFO step:  Lambda=-8.96581788D-02 EMin= 1.14755305D-02
 Linear search not attempted -- first point.
 Maximum step size (   0.300) exceeded in Quadratic search.
    -- Step size scaled by   0.764
 Iteration  1 RMS(Cart)=  0.06594430 RMS(Int)=  0.00149083
 Iteration  2 RMS(Cart)=  0.00274947 RMS(Int)=  0.00005449
 Iteration  3 RMS(Cart)=  0.00001078 RMS(Int)=  0.00005424
 Iteration  4 RMS(Cart)=  0.00000000 RMS(Int)=  0.00005424
 ITry= 1 IFail=0 DXMaxC= 2.08D-01 DCOld= 1.00D+10 DXMaxT= 3.00D-01 DXLimC= 3.00D+00 Rises=F
 Variable       Old X    -DE/DX   Delta X   Delta X   Delta X     New X
                                 (Linear)    (Quad)   (Total)
    R1        2.39718   0.11562   0.00000   0.10311   0.10311   2.50028
    R2        1.81414   0.01471   0.00000   0.01744   0.01744   1.83158
    R3        2.42414   0.01734   0.00000   0.01633   0.01633   2.44047
    R4        2.54739   0.12370   0.00000   0.14926   0.14933   2.69672
    R5        2.58160   0.09115   0.00000   0.11505   0.11509   2.69669
    R6        2.53433   0.01218   0.00000   0.01412   0.01412   2.54844
    R7        2.42808   0.02195   0.00000   0.02189   0.02189   2.44997
    R8        2.72336   0.00063   0.00000   0.00099   0.00099   2.72435
    R9        2.05985   0.00204   0.00000   0.00356   0.00356   2.06341
   R10        2.05980   0.00277   0.00000   0.00483   0.00483   2.06463
   R11        2.05980   0.00339   0.00000   0.00591   0.00591   2.06571
   R12        2.47221   0.10677   0.00000   0.10901   0.10894   2.58116
   R13        2.65748  -0.01312   0.00000  -0.01821  -0.01819   2.63929
   R14        2.62933   0.03196   0.00000   0.04200   0.04194   2.67126
   R15        2.66678  -0.00727   0.00000  -0.01121  -0.01117   2.65561
   R16        2.05982  -0.00285   0.00000  -0.00497  -0.00497   2.05485
   R17        2.67198  -0.01134   0.00000  -0.01774  -0.01772   2.65426
   R18        2.05971  -0.00268   0.00000  -0.00467  -0.00467   2.05504
   R19        2.66953  -0.01072   0.00000  -0.01610  -0.01612   2.65341
   R20        2.05980  -0.00277   0.00000  -0.00484  -0.00484   2.05496
   R21        2.66321  -0.01262   0.00000  -0.01748  -0.01752   2.64568
   R22        2.05976  -0.00393   0.00000  -0.00686  -0.00686   2.05290
    A1        1.91064   0.00299   0.00000   0.00916   0.00916   1.91980
    A2        2.18580  -0.06135   0.00000  -0.13806  -0.13806   2.04774
    A3        2.16920  -0.01078   0.00000  -0.02674  -0.02679   2.14241
    A4        2.26852   0.01455   0.00000   0.03027   0.03022   2.29874
    A5        1.84545  -0.00377   0.00000  -0.00351  -0.00341   1.84204
    A6        2.18491  -0.00036   0.00000  -0.00402  -0.00404   2.18087
    A7        1.94937  -0.00294   0.00000  -0.00020  -0.00016   1.94921
    A8        2.14887   0.00329   0.00000   0.00421   0.00419   2.15306
    A9        1.96393   0.01699   0.00000   0.03824   0.03824   2.00217
   A10        1.91057  -0.00641   0.00000  -0.02036  -0.02034   1.89023
   A11        1.91063   0.00660   0.00000   0.02078   0.02078   1.93141
   A12        1.91062   0.00044   0.00000   0.00151   0.00146   1.91208
   A13        1.91067  -0.00050   0.00000  -0.00184  -0.00178   1.90890
   A14        1.91062   0.00139   0.00000   0.00309   0.00305   1.91368
   A15        1.91068  -0.00151   0.00000  -0.00317  -0.00324   1.90745
   A16        1.88973  -0.00513   0.00000  -0.01169  -0.01181   1.87792
   A17        2.26475  -0.01213   0.00000  -0.02511  -0.02505   2.23970
   A18        1.90056   0.02168   0.00000   0.04185   0.04174   1.94230
   A19        2.11763  -0.00954   0.00000  -0.01668  -0.01664   2.10099
   A20        2.06678   0.00022   0.00000  -0.00075  -0.00070   2.06608
   A21        2.10526  -0.00101   0.00000  -0.00238  -0.00241   2.10285
   A22        2.11114   0.00079   0.00000   0.00313   0.00311   2.11425
   A23        2.10160   0.00710   0.00000   0.01335   0.01340   2.11500
   A24        2.08910  -0.00341   0.00000  -0.00624  -0.00627   2.08283
   A25        2.09248  -0.00369   0.00000  -0.00710  -0.00713   2.08535
   A26        2.10368   0.00235   0.00000   0.00191   0.00190   2.10558
   A27        2.09057  -0.00112   0.00000  -0.00080  -0.00080   2.08978
   A28        2.08894  -0.00122   0.00000  -0.00110  -0.00110   2.08783
   A29        2.06688  -0.00201   0.00000  -0.00564  -0.00571   2.06117
   A30        2.11006  -0.00038   0.00000  -0.00143  -0.00139   2.10867
   A31        2.10624   0.00239   0.00000   0.00707   0.00710   2.11334
   A32        1.83946  -0.00981   0.00000  -0.02623  -0.02620   1.81326
   A33        2.33374   0.00793   0.00000   0.01843   0.01846   2.35221
   A34        2.10979   0.00188   0.00000   0.00782   0.00775   2.11754
    D1        1.58493   0.00167   0.00000   0.01062   0.01062   1.59555
    D2        3.14075  -0.00253   0.00000  -0.01598  -0.01598   3.12477
    D3       -0.00742  -0.00187   0.00000  -0.01155  -0.01155  -0.01898
    D4        0.00489  -0.00108   0.00000  -0.00765  -0.00778  -0.00289
    D5       -3.12784  -0.00089   0.00000  -0.00633  -0.00650  -3.13434
    D6       -3.13146  -0.00168   0.00000  -0.01132  -0.01135   3.14037
    D7        0.01899  -0.00148   0.00000  -0.00999  -0.01007   0.00893
    D8        3.13687   0.00051   0.00000   0.00283   0.00268   3.13955
    D9       -0.02655   0.00060   0.00000   0.00362   0.00349  -0.02306
   D10       -0.01037   0.00104   0.00000   0.00654   0.00645  -0.00392
   D11        3.10939   0.00112   0.00000   0.00733   0.00726   3.11665
   D12        1.64241   0.00089   0.00000   0.00588   0.00586   1.64827
   D13       -1.50902   0.00064   0.00000   0.00438   0.00440  -1.50461
   D14       -0.01990   0.00174   0.00000   0.00997   0.00985  -0.01006
   D15        3.13034   0.00195   0.00000   0.01130   0.01116   3.14149
   D16       -2.39771  -0.00145   0.00000  -0.00922  -0.00914  -2.40685
   D17       -0.30330  -0.00195   0.00000  -0.01122  -0.01133  -0.31463
   D18        1.79114   0.00050   0.00000  -0.00146  -0.00144   1.78970
   D19       -3.10487  -0.00106   0.00000  -0.00770  -0.00779  -3.11266
   D20        0.01253  -0.00075   0.00000  -0.00506  -0.00513   0.00740
   D21        3.11645   0.00065   0.00000   0.00339   0.00339   3.11984
   D22       -0.02503   0.00053   0.00000   0.00279   0.00278  -0.02226
   D23        0.00166  -0.00005   0.00000  -0.00018  -0.00016   0.00150
   D24       -3.13982  -0.00017   0.00000  -0.00079  -0.00077  -3.14059
   D25       -0.00091   0.00006   0.00000  -0.00081  -0.00089  -0.00180
   D26       -3.12411  -0.00013   0.00000  -0.00171  -0.00181  -3.12592
   D27        3.11891   0.00025   0.00000   0.00132   0.00131   3.12021
   D28       -0.00430   0.00006   0.00000   0.00043   0.00039  -0.00391
   D29        0.00233   0.00000   0.00000  -0.00008  -0.00008   0.00225
   D30       -3.13936  -0.00007   0.00000  -0.00039  -0.00039  -3.13975
   D31       -3.13937   0.00013   0.00000   0.00052   0.00053  -3.13884
   D32        0.00213   0.00006   0.00000   0.00022   0.00022   0.00235
   D33       -0.00376  -0.00002   0.00000   0.00004   0.00004  -0.00372
   D34        3.13770  -0.00004   0.00000  -0.00019  -0.00020   3.13750
   D35        3.13793   0.00005   0.00000   0.00035   0.00035   3.13828
   D36       -0.00380   0.00003   0.00000   0.00011   0.00011  -0.00369
   D37        0.00117   0.00001   0.00000   0.00016   0.00016   0.00132
   D38       -3.14034  -0.00032   0.00000  -0.00244  -0.00244   3.14041
   D39       -3.14029   0.00004   0.00000   0.00040   0.00039  -3.13990
   D40        0.00139  -0.00030   0.00000  -0.00221  -0.00220  -0.00081
   D41       -3.11424  -0.00004   0.00000  -0.00100  -0.00102  -3.11526
   D42        0.00282  -0.00004   0.00000  -0.00041  -0.00038   0.00244
   D43        0.02726   0.00029   0.00000   0.00160   0.00158   0.02884
   D44       -3.13886   0.00029   0.00000   0.00219   0.00222  -3.13664
         Item               Value     Threshold  Converged?
 Maximum Force            0.123701     0.000450     NO 
 RMS     Force            0.023829     0.000300     NO 
 Maximum Displacement     0.208362     0.001800     NO 
 RMS     Displacement     0.066365     0.001200     NO 
 Predicted change in Energy=-4.644347D-02
 Lowest energy point so far.  Saving SCF results.
 GradGradGradGradGradGradGradGradGradGradGradGradGradGradGradGradGradGrad

 Leave Link  103 at Mon Oct 14 01:40:56 2019, MaxMem= 10737418240 cpu:               1.0 elap:               0.1
 (Enter /apps/cent7/gaussian/g16-A.03/g16-haswell/g16/l202.exe)
                          Input orientation:                          
 ---------------------------------------------------------------------
 Center     Atomic      Atomic             Coordinates (Angstroms)
 Number     Number       Type             X           Y           Z
 ---------------------------------------------------------------------
      1          8           0        1.285225   -0.056843   -0.033841
      2          7           0       -0.036600   -0.020826    0.011517
      3          6           0       -0.598584    1.141906    0.004513
      4          6           0       -2.014865    1.314999    0.029825
      5          8           0       -2.915460    0.311666    0.060075
      6          6           0       -3.368069   -0.052502    1.379518
      7          7           0       -2.344655    2.568630    0.008067
      8          6           0       -1.190631    3.298788   -0.019314
      9          6           0       -1.044278    4.687748   -0.017309
     10          6           0        0.255311    5.222428   -0.022452
     11          6           0        1.384992    4.387828   -0.032154
     12          6           0        1.242721    2.990931   -0.032482
     13          6           0       -0.052754    2.460101   -0.024526
     14          1           0        1.647537   -0.067556    0.865060
     15          1           0       -3.413439   -1.141901    1.437930
     16          1           0       -2.679760    0.322863    2.140448
     17          1           0       -4.362496    0.366617    1.553830
     18          1           0       -1.918371    5.334533   -0.012363
     19          1           0        0.387376    6.301853   -0.019233
     20          1           0        2.379854    4.826813   -0.039837
     21          1           0        2.114448    2.342725   -0.041073
 ---------------------------------------------------------------------
                    Distance matrix (angstroms):
                    1          2          3          4          5
     1  O    0.000000
     2  N    1.323093   0.000000
     3  C    2.233205   1.291441   0.000000
     4  C    3.574437   2.387111   1.427044   0.000000
     5  O    4.217863   2.898404   2.461768   1.348579   0.000000
     6  C    4.863203   3.601543   3.314709   2.350083   1.441666
     7  N    4.480055   3.468777   2.254843   1.296466   2.328607
     8  C    4.170172   3.514623   2.236790   2.148766   3.450252
     9  C    5.285641   4.815279   3.573809   3.509942   4.759979
    10  C    5.378806   5.251484   4.168996   4.519340   5.846040
    11  C    4.445791   4.632393   3.804199   4.583137   5.926002
    12  C    3.048071   3.272503   2.609725   3.663945   4.947474
    13  C    2.850488   2.481242   1.427029   2.272464   3.580226
    14  H    0.969231   1.888660   2.692285   4.002782   4.648952
    15  H    5.041915   3.833341   3.897931   3.158343   2.063813
    16  H    4.537930   3.411270   3.092627   2.425108   2.093712
    17  H    5.881902   4.608928   4.143488   2.955231   2.080441
    18  H    6.271397   5.676399   4.395480   4.020913   5.121389
    19  H    6.421788   6.336953   5.253354   5.535510   6.840859
    20  H    5.004832   5.416779   4.738312   5.625944   6.959661
    21  H    2.538817   3.196271   2.967253   4.255875   5.425441
                    6          7          8          9         10
     6  C    0.000000
     7  N    3.130269   0.000000
     8  C    4.234278   1.365889   0.000000
     9  C    5.460869   2.486420   1.396650   0.000000
    10  C    6.551282   3.715293   2.406481   1.405291   0.000000
    11  C    6.655895   4.149864   2.796428   2.447760   1.404575
    12  C    5.702246   3.612374   2.452784   2.847768   2.440217
    13  C    4.390425   2.294701   1.413572   2.438356   2.779453
    14  H    5.041944   4.860196   4.491056   5.535102   5.541652
    15  H    1.091908   4.117627   5.175341   6.458750   7.489802
    16  H    1.092557   3.114933   3.967141   5.136432   6.107251
    17  H    1.093129   3.363023   4.597079   5.670205   6.883874
    18  H    5.749704   2.798634   2.161923   1.087380   2.176595
    19  H    7.512502   4.626196   3.392418   2.157538   1.087478
    20  H    7.672086   5.236666   3.883767   3.427029   2.161133
    21  H    6.149243   4.465092   3.440651   3.934113   3.427744
                   11         12         13         14         15
    11  C    0.000000
    12  C    1.404123   0.000000
    13  C    2.404850   1.400035   0.000000
    14  H    4.552403   3.213067   3.173548   0.000000
    15  H    7.467530   6.397049   5.138814   5.205370   0.000000
    16  H    6.145434   5.217861   4.019461   4.528194   1.782512
    17  H    7.191600   6.389199   5.044578   6.064933   1.785993
    18  H    3.436401   3.935146   3.426811   6.532085   6.803145
    19  H    2.158448   3.419648   3.866885   6.552812   8.484044
    20  H    1.087436   2.159534   3.393986   5.030902   8.448171
    21  H    2.171320   1.086349   2.170441   2.616971   6.699822
                   16         17         18         19         20
    16  H    0.000000
    17  H    1.782592   0.000000
    18  H    5.507372   5.753859   0.000000
    19  H    7.058319   7.762914   2.500445   0.000000
    20  H    7.116102   8.239685   4.328195   2.479140   0.000000
    21  H    5.641215   6.956977   5.021491   4.319485   2.498226
                   21
    21  H    0.000000
 Stoichiometry    C9H8N2O2
 Framework group  C1[X(C9H8N2O2)]
 Deg. of freedom    57
 Full point group                 C1      NOp   1
 RotChk:  IX=0 Diff= 5.08D-02
 Largest Abelian subgroup         C1      NOp   1
 Largest concise Abelian subgroup C1      NOp   1
                         Standard orientation:                         
 ---------------------------------------------------------------------
 Center     Atomic      Atomic             Coordinates (Angstroms)
 Number     Number       Type             X           Y           Z
 ---------------------------------------------------------------------
      1          8           0        0.603329    2.881105   -0.070780
      2          7           0        1.314799    1.771608   -0.186543
      3          6           0        0.671164    0.651986   -0.187543
      4          6           0        1.320084   -0.611423   -0.325935
      5          8           0        2.649401   -0.785366   -0.471968
      6          6           0        3.362777   -1.037299    0.755234
      7          7           0        0.470741   -1.590751   -0.307028
      8          6           0       -0.774755   -1.054091   -0.144577
      9          6           0       -1.997317   -1.720344   -0.034664
     10          6           0       -3.160439   -0.954854    0.155111
     11          6           0       -3.104377    0.446559    0.230810
     12          6           0       -1.877357    1.120549    0.122547
     13          6           0       -0.719343    0.356076   -0.063686
     14          1           0        0.521093    3.126154    0.863349
     15          1           0        4.290418   -0.461616    0.736986
     16          1           0        2.764922   -0.733948    1.617921
     17          1           0        3.593125   -2.103097    0.832334
     18          1           0       -2.041841   -2.805095   -0.095707
     19          1           0       -4.120541   -1.457679    0.244434
     20          1           0       -4.019618    1.016000    0.374297
     21          1           0       -1.830798    2.204400    0.179596
 ---------------------------------------------------------------------
 Rotational constants (GHZ):           1.3501321           0.6762822           0.4673060
 Leave Link  202 at Mon Oct 14 01:40:57 2019, MaxMem= 10737418240 cpu:               1.2 elap:               0.1
 (Enter /apps/cent7/gaussian/g16-A.03/g16-haswell/g16/l301.exe)
 Standard basis: 6-31G(d) (6D, 7F)
 Ernie: Thresh=  0.10000D-02 Tol=  0.10000D-05 Strict=F.
 There are   211 symmetry adapted cartesian basis functions of A   symmetry.
 There are   211 symmetry adapted basis functions of A   symmetry.
   211 basis functions,   396 primitive gaussians,   211 cartesian basis functions
    46 alpha electrons       46 beta electrons
       nuclear repulsion energy       756.1527998074 Hartrees.
 IExCor=  402 DFT=T Ex+Corr=B3LYP ExCW=0 ScaHFX=  0.200000
 ScaDFX=  0.800000  0.720000  1.000000  0.810000 ScalE2=  1.000000  1.000000
 IRadAn=      5 IRanWt=     -1 IRanGd=            0 ICorTp=0 IEmpDi=  4
 NAtoms=   21 NActive=   21 NUniq=   21 SFac= 1.00D+00 NAtFMM=   60 NAOKFM=F Big=F
 Integral buffers will be    131072 words long.
 Raffenetti 2 integral format.
 Two-electron integral symmetry is turned on.
 Leave Link  301 at Mon Oct 14 01:40:57 2019, MaxMem= 10737418240 cpu:               1.2 elap:               0.1
 (Enter /apps/cent7/gaussian/g16-A.03/g16-haswell/g16/l302.exe)
 NPDir=0 NMtPBC=     1 NCelOv=     1 NCel=       1 NClECP=     1 NCelD=      1
         NCelK=      1 NCelE2=     1 NClLst=     1 CellRange=     0.0.
 One-electron integrals computed using PRISM.
 One-electron integral symmetry used in STVInt
 NBasis=   211 RedAO= T EigKep=  3.62D-04  NBF=   211
 NBsUse=   211 1.00D-06 EigRej= -1.00D+00 NBFU=   211
 Precomputing XC quadrature grid using
 IXCGrd= 4 IRadAn=           5 IRanWt=          -1 IRanGd=           0 AccXCQ= 0.00D+00.
 Generated NRdTot=       0 NPtTot=           0 NUsed=           0 NTot=          32
 NSgBfM=   210   210   210   210   210 MxSgAt=    21 MxSgA2=    21.
 Leave Link  302 at Mon Oct 14 01:40:57 2019, MaxMem= 10737418240 cpu:               3.5 elap:               0.2
 (Enter /apps/cent7/gaussian/g16-A.03/g16-haswell/g16/l303.exe)
 DipDrv:  MaxL=1.
 Leave Link  303 at Mon Oct 14 01:40:57 2019, MaxMem= 10737418240 cpu:               0.8 elap:               0.1
 (Enter /apps/cent7/gaussian/g16-A.03/g16-haswell/g16/l401.exe)
 Initial guess from the checkpoint file:  "2.chk"
 B after Tr=     0.000000   -0.000000   -0.000000
         Rot=    0.999853   -0.000967   -0.000766   -0.017075 Ang=  -1.96 deg.
 Guess basis will be translated and rotated to current coordinates.
 JPrj=2 DoOrth=T DoCkMO=T.
 Generating alternative initial guess.
 ExpMin= 1.61D-01 ExpMax= 5.48D+03 ExpMxC= 8.25D+02 IAcc=2 IRadAn=         4 AccDes= 0.00D+00
 Harris functional with IExCor=  402 and IRadAn=       4 diagonalized for initial guess.
 HarFok:  IExCor=  402 AccDes= 0.00D+00 IRadAn=         4 IDoV= 1 UseB2=F ITyADJ=14
 ICtDFT=  3500011 ScaDFX=  1.000000  1.000000  1.000000  1.000000
 FoFCou: FMM=F IPFlag=           0 FMFlag=      100000 FMFlg1=           0
         NFxFlg=           0 DoJE=T BraDBF=F KetDBF=T FulRan=T
         wScrn=  0.000000 ICntrl=       500 IOpCl=  0 I1Cent=   200000004 NGrid=           0
         NMat0=    1 NMatS0=      1 NMatT0=    0 NMatD0=    1 NMtDS0=    0 NMtDT0=    0
 Petite list used in FoFCou.
 Harris En= -607.588314023269    
 Leave Link  401 at Mon Oct 14 01:40:57 2019, MaxMem= 10737418240 cpu:               7.4 elap:               0.3
 (Enter /apps/cent7/gaussian/g16-A.03/g16-haswell/g16/l502.exe)
 Integral symmetry usage will be decided dynamically.
 Closed shell SCF:
 Using DIIS extrapolation, IDIIS=  1040.
 NGot= 10737418240 LenX= 10737321766 LenY= 10737276804
 Requested convergence on RMS density matrix=1.00D-08 within 128 cycles.
 Requested convergence on MAX density matrix=1.00D-06.
 Requested convergence on             energy=1.00D-06.
 No special actions if energy rises.
[...]
 74343,-0.00018882,-0.00032887,-0.00095854,0.00013830,0.00006043,0.0000
 8879,0.00161959,-0.00047677,0.00656800,-0.00427234,0.02038301,0.002761
 79,0.05583065,0.01846514,-0.07087619,-0.11133662,-0.04252184,0.1602818
 3,0.00170727,0.00107792,0.00001177,-0.00114496,0.00221295,-0.00058692,
 -0.00649244,-0.00759888,0.00384384,-0.00013233,0.00218037,-0.00028751,
 -0.00136144,-0.00205347,0.00048624,0.00079571,-0.00005142,-0.00016690,
 0.00152376,-0.00437259,-0.00010129,-0.01607305,0.03299289,-0.00024081,
 -0.05327441,-0.02470070,0.01522509,-0.27412345,0.12192155,0.03886821,0
 .69321118,-0.00095053,-0.00072278,0.00042936,0.00125281,-0.00247283,-0
 .00032043,0.00166216,0.01346712,-0.00078006,-0.00509089,0.00162227,0.0
 0096459,-0.00087985,-0.00041668,0.00023682,0.00025621,-0.00016914,-0.0
 0004163,-0.00462271,-0.00410888,0.00131346,0.03255355,-0.05237295,-0.0
 0374634,0.02240392,0.06331294,-0.00933311,0.05391733,-0.18048202,-0.00
 280105,0.02552791,0.66895052,0.00016561,-0.00002352,0.00209178,-0.0005
 1318,-0.00053736,-0.00285922,0.00313955,0.00129228,0.00731430,0.000265
 72,-0.00066174,-0.00068306,0.00039692,0.00049929,-0.00001276,-0.000190
 03,0.00002706,0.00007330,-0.00008208,0.00125790,-0.00049297,-0.0002075
 8,-0.00384452,-0.00559448,0.01164358,0.00119704,0.00373625,0.04403913,
 -0.01800421,-0.06727180,-0.12940266,-0.04721272,0.15559180,-0.00198431
 ,-0.00305399,0.00064980,0.00045662,0.00584472,-0.00053956,0.00136846,-
 0.01823430,0.00055424,0.00285947,0.00061022,-0.00033262,0.00172267,0.0
 0001283,-0.00024221,-0.00028494,0.00022107,0.00013595,0.00185452,0.004
 69867,0.00027090,-0.05124029,0.02009088,0.01078992,-0.01414632,-0.0235
 9457,0.00373801,0.03036963,0.02699889,-0.00743277,-0.12609273,0.039716
 92,0.01204388,0.71460839,0.00369120,-0.00186760,-0.00069101,-0.0035414
 3,0.00569162,0.00035942,-0.02864906,-0.02302739,0.00797722,0.00563192,
 -0.00850816,-0.00049230,-0.00199728,-0.00007852,0.00050146,0.00035549,
 -0.00029951,-0.00002716,0.01204810,0.00303096,-0.00256847,-0.02663415,
 0.06440012,0.00135188,-0.02663674,-0.04676627,0.00909587,0.07571839,-0
 .02900802,-0.01424259,-0.02637823,-0.32233917,0.02594080,-0.04733464,0
 .66696492,0.00013700,0.00081580,-0.00021261,0.00017451,-0.00173631,0.0
 0012878,0.00134468,0.00564586,-0.00309133,-0.00071425,0.00063032,0.001
 69627,-0.00008960,0.00005298,0.00065857,0.00012521,0.00000277,0.000369
 50,-0.00028900,-0.00092720,0.00479639,0.01434228,-0.00909380,0.0013399
 3,0.00396969,0.00841589,-0.00697561,-0.01113683,-0.00335098,0.00904785
 ,0.01706896,0.01116461,-0.06338077,-0.12632689,-0.02998236,0.16397161,
 0.00589128,-0.00178363,-0.00378911,0.01359223,0.01928046,0.00129639,-0
 .11118167,-0.02201341,0.01230886,-0.03158935,-0.01856244,0.00993007,-0
 .00803828,-0.00059843,0.00192554,0.00132004,-0.00124578,-0.00015385,-0
 .05461079,-0.01757678,0.01579959,-0.21666932,0.04414991,0.02907192,0.0
 2753615,0.05736560,-0.00874244,-0.05714246,0.00394124,0.01121430,0.028
 97388,-0.07176266,0.00065025,-0.29289809,-0.06274421,0.05798588,0.7117
 8137,-0.00939264,0.00598971,0.00075118,0.01243197,-0.05053212,0.003050
 24,-0.04412191,-0.18673568,0.01922789,-0.02997940,-0.00462587,0.007549
 91,0.00108552,0.00022877,-0.00023208,0.00016167,-0.00025100,-0.0000001
 5,-0.01637646,0.00626607,0.00395157,0.09454750,-0.16125145,-0.01432269
 ,0.02211298,-0.02636956,-0.00233397,-0.00048836,-0.00127216,-0.0002224
 1,-0.02641763,-0.03246708,0.00894353,-0.10539592,-0.16271400,0.0317643
 1,0.08605148,0.61105351,-0.00321052,-0.00094995,-0.01089895,0.00182231
 ,0.00153246,0.02547039,0.01398818,0.01427729,-0.06781590,0.01079376,0.
 00499549,0.00372160,0.00179725,0.00014510,-0.00004152,-0.00026225,0.00
 031381,0.00023714,0.01570723,0.00421871,0.00627320,0.02524246,-0.00305
 528,-0.07700225,-0.00606057,-0.01021492,0.01007440,0.01155046,-0.00121
 334,-0.00812851,-0.00279688,0.01907999,0.00665510,0.06122746,0.0222266
 2,-0.07024805,-0.13584865,-0.05556935,0.16791282,-0.07601010,0.0956875
 8,0.00832824,-0.03236614,0.05012914,0.00131710,-0.01159416,-0.00234542
 ,0.00395124,-0.00004412,0.00197376,0.00043340,0.00023891,-0.00003578,-
 0.00006823,-0.00029620,-0.00007252,0.00003686,-0.00080995,0.00001178,-
 0.00000346,-0.00016250,-0.00014532,0.00007621,-0.00008216,-0.00020210,
 0.00000937,0.00013324,-0.00011362,-0.00001875,0.00016145,0.00005716,-0
 .00012505,-0.00012090,-0.00049068,0.00005537,0.00039163,-0.00054738,0.
 00000986,0.12005197,0.15595769,-0.46070828,-0.00009270,-0.00920906,0.0
 0929374,0.00063406,-0.00351217,0.00243805,0.00100235,0.00169646,0.0005
 0258,-0.00022084,-0.00056101,-0.00050935,0.00015822,0.00028164,0.00005
 627,-0.00007927,-0.00009368,0.00096203,-0.00011506,-0.00081779,-0.0003
 8409,0.00022187,0.00033127,0.00026849,-0.00010284,-0.00024579,0.000020
 38,0.00005423,0.00023478,-0.00009555,-0.00007413,-0.00038707,0.0001492
 2,0.00007219,-0.00011471,-0.00027222,0.00006575,-0.14396801,0.44807239
 ,0.00372212,0.01336872,-0.00784570,0.00585190,-0.01261819,-0.00966906,
 0.00404027,0.00074098,0.00433552,0.00045473,-0.00028329,0.00249026,-0.
 00002818,0.00004087,-0.00007538,0.00000984,-0.00000003,-0.00015840,0.0
 0000409,-0.00013871,-0.00081287,0.00012769,0.00007167,0.00009515,-0.00
 003131,0.00001643,-0.00010336,-0.00000867,0.00002462,0.00001086,-0.000
 13866,-0.00003441,-0.00034538,0.00004754,0.00009530,-0.00005822,-0.000
 02292,0.00016247,0.00024249,-0.01397462,-0.00144800,0.01147500,-0.0004
 3805,0.00004713,0.00008685,0.00040393,-0.00000376,-0.00008621,0.000001
 94,-0.00137370,0.00015152,-0.00560056,0.00405963,0.00103578,-0.0288248
 5,-0.03528174,0.00918841,-0.07594689,-0.07869519,0.01059249,0.00101178
 ,0.00044562,-0.00013998,0.00034121,-0.00027653,-0.00000922,-0.00010058
 ,-0.00006131,0.00002716,0.00001628,0.00001028,-0.00000656,-0.00008691,
 -0.00002732,0.00002264,0.00011387,-0.00018069,-0.00002372,-0.00054232,
 0.00007452,0.00011134,-0.00000540,-0.00005502,0.00000829,0.09885697,-0
 .00025598,-0.00000130,0.00005454,0.00016320,0.00001404,-0.00003606,0.0
 0011676,0.00025190,-0.00002750,0.00271329,0.00063088,-0.00062484,0.002
 78588,0.00860372,-0.00128254,-0.09162313,-0.29524005,0.03900477,-0.001
 05805,-0.00064462,0.00032591,0.00006349,0.00063531,-0.00004597,-0.0000
 4193,-0.00004177,0.00001251,0.00001496,0.00002251,-0.00000582,-0.00002
 576,-0.00003686,0.00000895,0.00000487,0.00009036,-0.00001202,-0.000298
 04,-0.00019274,0.00007968,0.00001849,-0.00003693,-0.00000034,0.0961045
 4,0.30959909,0.00011005,-0.00001304,-0.00005783,-0.00009880,0.00000120
 ,0.00003991,0.00003947,0.00030403,0.00018756,0.00112525,-0.00093436,0.
 00019278,0.00625997,0.00723669,-0.00182936,0.01159222,0.03611426,-0.06
 119923,-0.00002911,-0.00001134,0.00054325,-0.00003531,0.00003002,0.000
 21236,0.00002575,0.00001697,-0.00000698,-0.00000701,-0.00000474,-0.000
 00754,0.00002251,0.00000918,-0.00000077,-0.00003758,0.00002967,-0.0000
 4623,0.00013900,-0.00000386,-0.00005033,0.00000261,0.00001613,0.000010
 83,-0.01862280,-0.04166099,0.05618773,-0.00042354,-0.00006422,0.000124
 88,0.00032720,-0.00011051,-0.00006682,-0.00081765,0.00006201,-0.000652
 75,0.00353083,0.00848795,0.00016224,-0.02269202,0.01815317,0.03468423,
 -0.05066537,0.00606913,0.00934592,0.00079519,-0.00265335,0.00057424,0.
 00022395,0.00015224,-0.00053940,-0.00013995,-0.00014151,0.00002282,0.0
 0010484,0.00001673,-0.00002092,-0.00009535,0.00006413,-0.00000355,-0.0
 0001242,-0.00014704,-0.00001246,-0.00003482,0.00021142,0.00000427,0.00
 004641,-0.00004681,0.00003829,0.00277574,-0.00470007,-0.01020619,0.063
 15614,0.00013186,0.00001969,0.00001969,-0.00012932,-0.00005212,0.00003
 155,0.00013046,0.00008661,-0.00034809,-0.00165347,0.00072314,0.0012878
 5,0.00615419,-0.00008366,-0.00161273,0.01081748,-0.13921249,-0.1258362
 0,0.00063158,0.00010449,0.00070863,-0.00051370,-0.00024628,-0.00047884
 ,0.00007194,0.00004824,-0.00001495,0.00003268,-0.00004519,0.00003298,0
 .00006412,0.00008286,-0.00002982,-0.00004324,-0.00002391,0.00004586,0.
 00025765,0.00007561,-0.00002412,-0.00001495,0.00001303,-0.00000070,0.0
 0215263,-0.01352866,-0.02445691,-0.01626654,0.14290127,0.00002783,0.00
 005232,0.00001484,-0.00009414,0.00003510,0.00002908,0.00021911,0.00017
 620,-0.00021658,-0.00108129,-0.00424226,0.00081102,0.01034440,-0.00029
 459,-0.00182345,0.01532378,-0.12319557,-0.23359626,-0.00087725,0.00029
 324,0.00048621,-0.00043060,0.00041543,0.00007497,0.00010190,0.00003877
 ,-0.00000901,-0.00003537,-0.00001838,0.00001402,0.00005893,-0.00002686
 ,-0.00000858,-0.00003654,0.00014057,-0.00000692,-0.00013474,-0.0001878
 1,0.00003738,-0.00002087,0.00000423,-0.00000215,-0.00197951,0.00420337
 ,0.00724773,-0.02230449,0.13774668,0.24658784,-0.00040564,-0.00008222,
 0.00008597,0.00034468,-0.00011262,-0.00006172,-0.00055172,0.00007539,0
 .00079583,0.00315097,0.00926769,-0.00271898,-0.03694716,0.01247387,-0.
 02059619,-0.09697833,0.04690540,-0.08648943,0.00092932,-0.00257841,-0.
 00035115,0.00057865,0.00003243,0.00028387,-0.00016213,-0.00014275,0.00
 007169,0.00010875,0.00002446,-0.00002626,-0.00010561,0.00006914,0.0000
 3718,0.00001571,-0.00018830,0.00003440,0.00000960,0.00026596,-0.000035
 53,0.00003286,-0.00005109,-0.00004720,0.00802741,-0.00395036,0.0097147
 8,0.00391888,-0.00184479,0.00093635,0.11803756,0.00012053,0.00000741,-
 0.00007305,-0.00012381,-0.00005281,0.00003457,0.00023356,0.00009588,0.
 00019954,-0.00196140,0.00092566,-0.00050615,0.00587782,-0.00042894,0.0
 0003037,0.05137799,-0.10549440,0.09414891,0.00040506,0.00004240,-0.000
 86980,-0.00020270,-0.00022435,0.00065187,0.00005966,0.00004632,-0.0000
 1986,0.00001888,-0.00004785,-0.00003609,0.00006186,0.00008491,-0.00001
 158,-0.00005199,-0.00004421,-0.00002029,0.00025856,0.00008941,-0.00010
 437,-0.00001176,0.00001430,0.00000513,0.01311063,-0.01011297,0.0233144
 3,-0.00906968,0.00912709,-0.01515701,-0.06013672,0.10596042,0.00015224
 ,-0.00001658,0.00000789,-0.00003198,0.00002384,0.00001373,-0.00009596,
 -0.00027264,-0.00049426,0.00015434,0.00024274,0.00098160,0.00518859,-0
 .00543758,0.01278759,-0.09316701,0.09357625,-0.22095736,0.00062406,0.0
 0093502,0.00042957,0.00024348,-0.00043990,-0.00030245,-0.00003906,0.00
 001959,0.00001479,-0.00001283,0.00001738,0.00001270,-0.00002466,-0.000
 01618,-0.00000078,0.00003971,-0.00006119,-0.00001437,0.00009938,0.0000
 6757,-0.00002272,0.00000664,0.00001599,0.00001014,-0.00036305,-0.00000
 248,-0.00143045,-0.01117537,0.01295947,-0.01962913,0.09839216,-0.10160
 142,0.22860047,-0.00013993,-0.00001640,0.00006996,0.00016694,0.0000873
 7,-0.00015825,-0.00006119,-0.00044163,0.00016667,0.00008156,-0.0001586
 3,-0.00010049,0.00012123,0.00014155,0.00004382,-0.00007782,-0.00000044
 ,0.00001744,0.00052955,0.00048304,-0.00106758,0.00276540,-0.00079571,0
 .00034417,-0.26276540,0.12225668,0.04158882,-0.01709869,0.01531892,0.0
 0299115,-0.00176197,-0.00396927,0.00218474,0.00024991,-0.00053474,-0.0
 0002393,0.00135409,-0.00025758,0.00121047,0.00002098,-0.00001701,-0.00
 000285,0.00000280,0.00001425,-0.00000185,0.00000812,-0.00001317,0.0000
 0847,0.00000402,-0.00000531,-0.00001640,0.27673082,-0.00007783,0.00016
 411,0.00001749,-0.00041844,-0.00082753,0.00011786,0.00185374,-0.000071
 87,-0.00036829,0.00007943,-0.00040953,-0.00001863,-0.00014563,0.000171
 19,0.00004737,0.00007030,-0.00007690,-0.00000996,-0.00039079,0.0031980
 4,-0.00046605,0.03031481,-0.01083125,-0.00564670,0.12154909,-0.1325708
 8,-0.01976469,-0.01451476,0.01260781,0.00239952,-0.00287295,-0.0011487
 7,0.00123611,-0.00077443,-0.00095855,0.00024299,-0.00174959,-0.0048518
 0,0.00126784,-0.00004810,0.00000774,0.00001034,-0.00002202,0.00001890,
 0.00000343,-0.00000235,-0.00001560,0.00002444,-0.00001206,-0.00001572,
 -0.00002103,-0.13266550,0.13414880,0.00007448,0.00000395,0.00015065,-0
 .00011972,0.00000443,-0.00048513,-0.00000746,0.00014497,0.00052497,-0.
 00011888,0.00003478,-0.00039751,0.00006579,-0.00001704,0.00035188,0.00
 001209,0.00000621,-0.00000273,-0.00100098,-0.00066142,-0.00380823,-0.0
 0202144,0.00130874,0.00438684,0.04164259,-0.01992349,-0.04294055,0.005
 25938,-0.00426959,0.00064063,0.00210128,0.00148102,0.00607858,-0.00000
 577,0.00018940,-0.00005196,0.00132426,0.00093417,0.00631436,-0.0000004
 9,0.00000337,0.00000224,0.00000090,-0.00000464,-0.00000056,-0.00000778
 ,-0.00001996,-0.00001632,-0.00000063,0.00002404,-0.00001213,-0.0462177
 1,0.02134813,0.03357389,0.00011149,0.00006286,-0.00010346,-0.00009512,
 0.00005776,0.00011985,0.00011086,-0.00013762,-0.00026148,-0.00052277,0
 .00016801,0.00013457,-0.00000797,-0.00032576,0.00001140,0.00010290,0.0
 0001055,-0.00002655,0.00038360,-0.00155458,0.00003761,-0.00420919,-0.0
 0144599,0.00261733,0.00454215,-0.02832891,0.00180072,-0.05954721,0.000
 84668,0.00514600,0.00467650,0.02816077,-0.00250903,-0.00425596,0.00227
 226,0.00232018,-0.00113556,-0.00017161,0.00013936,0.00002333,0.0000278
 5,0.00001192,-0.00000369,-0.00000879,0.00000146,-0.00000198,0.00000969
 ,-0.00000252,-0.00000377,0.00000937,0.00000243,0.00085250,0.00051240,-
 0.00105524,0.05809245,0.00017528,-0.00005408,-0.00006011,-0.00010381,-
 0.00006555,0.00006322,-0.00002706,-0.00000095,-0.00007794,-0.00020766,
 0.00039900,0.00002649,-0.00027476,-0.00044646,0.00009022,0.00022590,0.
 00000196,-0.00005157,0.00031277,-0.00094595,0.00000375,-0.00258279,0.0
 0126939,0.00101371,0.00212642,-0.01127529,0.00060714,0.00098926,-0.336
 95469,0.02264512,-0.00253346,-0.01196796,0.00170690,0.00328143,0.00041
 258,-0.00024061,0.00003845,0.00077980,-0.00011131,-0.00003872,0.000012
 18,0.00001427,-0.00001823,-0.00001797,0.00000543,-0.00001767,0.0000201
 8,0.00000376,-0.00001926,0.00001977,0.00000144,-0.00027467,0.00085835,
 -0.00028472,-0.00102746,0.35771288,-0.00011194,-0.00003515,-0.00030223
 ,0.00013213,0.00002724,0.00042912,-0.00026987,-0.00005315,-0.00104118,
 0.00016321,-0.00005749,0.00010440,0.00000755,0.00010165,-0.00007706,-0
 .00004296,-0.00000346,-0.00000261,-0.00010448,0.00042128,0.00001428,0.
 00270391,0.00075932,0.00634556,-0.00051526,0.00741549,0.00251223,0.005
 13520,0.02267727,-0.03911293,-0.00017498,-0.00515503,0.00346259,0.0022
 4338,-0.00001509,0.00639516,0.00012343,-0.00006445,-0.00059352,0.00001
 696,-0.00000058,0.00008239,0.00000219,0.00000333,-0.00000086,0.0000081
 9,-0.00000219,-0.00000099,-0.00000399,-0.00000507,0.00000113,-0.000995
 43,-0.00046068,-0.00343610,-0.00725534,-0.02504770,0.02881535,0.000237
 84,0.00002728,-0.00006571,-0.00022040,-0.00016758,0.00007295,0.0003051
 6,0.00027677,0.00013071,0.00013914,0.00018344,-0.00003668,-0.00014235,
 -0.00016558,0.00001074,0.00008992,0.00000768,-0.00004637,-0.00001809,-
 0.00024096,-0.00011015,0.00012477,0.00115868,-0.00027089,-0.00231121,0
 .00406653,0.00174197,-0.01845826,-0.01581370,0.00560756,-0.25497892,-0
 .11655494,0.05863130,0.00436225,0.00231403,-0.00089378,0.00146175,0.00
 065209,0.00102389,-0.00003729,0.00002248,0.00001069,-0.00000703,-0.000
 01214,0.00000331,-0.00000586,0.00000993,-0.00000319,-0.00001336,0.0000
 1122,0.00000579,-0.00091041,-0.00080415,0.00037436,0.00075888,0.000174
 61,-0.00107196,0.26912245,0.00043995,0.00005906,-0.00010636,-0.0003851
 3,-0.00021608,0.00010620,-0.00120219,0.00054644,0.00030207,0.00027586,
 -0.00052837,-0.00001855,-0.00033147,0.00002686,0.00006058,0.00006590,-
 0.00003857,-0.00002053,-0.00028582,0.00024606,0.00000008,0.00087169,-0
 .00097021,-0.00017374,0.00290136,-0.00124900,-0.00003174,0.01524057,0.
 01180121,-0.00420984,-0.11660319,-0.12927788,0.03343717,-0.02847497,-0
 .01133012,0.00731535,0.00168722,-0.00580593,0.00054022,-0.00006731,0.0
 0002721,0.00001434,-0.00002524,-0.00000614,0.00000639,-0.00001094,0.00
 000499,0.00000238,-0.00001419,0.00000519,0.00000243,0.00077670,0.00046
 918,-0.00017197,-0.00049784,0.00089564,-0.00025917,0.12533112,0.134221
 44,-0.00009719,-0.00001419,-0.00002425,0.00008959,0.00005766,0.0000245
 6,0.00024299,-0.00002859,0.00093192,-0.00004357,0.00000203,0.00004687,
 0.00002331,0.00002336,-0.00015757,-0.00005075,-0.00000747,-0.00010302,
 -0.00010655,-0.00000972,-0.00056812,-0.00024919,-0.00023816,-0.0006188
 9,0.00183050,-0.00029224,0.00647645,0.00324611,0.00273282,0.00031237,0
 .05863529,0.03342659,-0.04801551,0.00144736,0.00043182,0.00079549,0.00
 094492,0.00077184,0.00599296,0.00001754,-0.00000570,0.00001476,0.00000
 436,0.00000346,0.00000242,0.00002339,-0.00000440,-0.00000417,-0.000017
 27,-0.00000110,0.00000305,0.00025421,0.00018143,0.00042018,-0.00102080
 ,-0.00040953,-0.00371718,-0.06421420,-0.03636092,0.04164180,0.00097731
 ,0.00171666,-0.00065291,-0.00175370,-0.00052561,0.00078817,0.00125911,
 0.00011514,-0.00118740,-0.00075859,0.00103545,0.00008821,-0.00001673,-
 0.00032249,0.00003264,0.00005656,0.00000751,-0.00001702,-0.00159541,-0
 .00039555,0.00027721,-0.00037441,-0.00365488,0.00214850,-0.00008609,-0
 .00072540,0.00007724,0.00172837,-0.00058176,0.00114367,0.00467381,-0.0
 0178384,-0.00018733,-0.26694556,0.12342581,0.04195232,-0.01846936,0.01
 555378,0.00358610,0.00042817,0.00052705,-0.00007297,0.00000434,-0.0000
 2548,0.00000225,0.00000164,0.00001500,-0.00002027,0.00000931,0.0000182
 4,0.00001750,-0.00007250,0.00011885,-0.00029906,0.00012855,-0.00019855
 ,0.00001006,0.00050099,0.00030793,-0.00096002,0.28030417,0.00103528,-0
 .00211604,-0.00017322,-0.00157303,-0.00025582,0.00049207,0.00113814,0.
 00057692,-0.00060333,-0.00047603,0.00057058,0.00006204,0.00018516,-0.0
 0007110,-0.00003449,-0.00006269,0.00000801,0.00001212,-0.00108099,-0.0
 0009989,0.00021196,-0.00220142,-0.00113959,0.00118666,-0.00099187,-0.0
 0059722,0.00026814,-0.00118936,-0.00535591,0.00117840,0.02733393,-0.00
 944206,-0.00514744,0.12586462,-0.13377433,-0.02080535,-0.01458087,0.01
 285872,0.00249969,0.00022376,0.00016881,-0.00004146,0.00001578,-0.0000
 0672,-0.00000259,0.00001390,0.00000072,-0.00001400,0.00001842,0.000002
 47,0.00000728,0.00007156,0.00013431,-0.00013038,0.00136036,-0.00065283
 ,-0.00024637,-0.00047682,0.00111905,-0.00025897,-0.13462786,0.13807192
 ,-0.00060083,-0.00032599,-0.00119850,0.00086832,0.00025883,0.00137994,
 -0.00126585,-0.00037484,-0.00370285,0.00020366,-0.00027582,-0.00003600
 ,-0.00000603,0.00007900,0.00001496,-0.00001176,-0.00000364,-0.00001470
 ,0.00032953,0.00005926,-0.00056747,0.00203729,0.00151125,0.00742250,0.
 00009748,0.00020846,-0.00002512,0.00118983,0.00104253,0.00630095,-0.00
 240085,0.00136220,0.00366238,0.04176579,-0.02025987,-0.04511348,0.0058
 7793,-0.00423791,0.00186990,-0.00004994,-0.00010927,0.00030088,-0.0000
 0085,0.00000666,0.00000557,0.00000124,-0.00000380,0.00001049,-0.000003
 88,-0.00000306,0.00000099,-0.00029543,-0.00014093,-0.00129300,-0.00010
 841,0.00010206,0.00012247,-0.00090036,-0.00043437,-0.00345410,-0.04672
 689,0.02153922,0.03431421\\0.00003317,0.00003309,-0.00001305,-0.000035
 09,-0.00008458,0.00002663,-0.00000838,0.00013357,-0.00002297,0.0000310
 8,-0.00002600,0.00000193,0.00000593,-0.00000167,-0.00001527,-0.0000102
 3,0.00000423,0.00000868,0.00000246,0.00002353,0.00000246,-0.00001889,-
 0.00002115,0.00000822,0.00001368,0.00002152,-0.00000600,-0.00002840,-0
 .00000196,0.00000665,0.00001553,-0.00003372,-0.00000027,0.00000851,0.0
 0003513,-0.00000782,-0.00000981,-0.00007473,0.00001293,-0.00000368,-0.
 00000786,0.00000223,0.00000456,-0.00000035,0.00000079,0.00000024,0.000
 00271,-0.00000318,0.00000146,-0.00000191,-0.00000235,0.00000003,-0.000
 00294,0.00000060,0.00000349,0.00000040,-0.00000119,-0.00000297,0.00000
 509,0.00000020,-0.00000268,-0.00000238,0.00000077\\\@


 YOU SHOULDN'T LET PEOPLE DRIVE YOU CRAZY
 WHEN YOU KNOW IT'S WITHIN WALKING DISTANCE.
 Job cpu time:       0 days  0 hours 16 minutes 13.5 seconds.
 Elapsed time:       0 days  0 hours  0 minutes 41.2 seconds.
 File lengths (MBytes):  RWF=    117 Int=      0 D2E=      0 Chk=      5 Scr=      1
 Normal termination of Gaussian 16 at Mon Oct 14 01:43:12 2019.
real 144.17
user 3277.02
sys 20.91
Machine:
brown-a040
brown-a040
brown-a040
brown-a040
brown-a040
brown-a040
brown-a040
brown-a040
brown-a040
brown-a040
brown-a040
brown-a040
brown-a040
brown-a040
brown-a040
brown-a040
brown-a040
brown-a040
brown-a040
brown-a040
brown-a040
brown-a040
brown-a040
brown-a040
