Title Card Required                                                     
Freq      RB3LYP                                                      6-31G(d)            
Number of atoms                            I               15
Info1-9                                    I   N=           9
          40          40        1002           0           0         100
           6          18        -502
Full Title                                 C   N=           2
Title Card Required     
Route                                      C   N=           6
#P opt freq b3lyp/6-31g(d) geom=connectivity temperature=0.0
01          
Charge                                     I                0
Multiplicity                               I                1
Number of electrons                        I               42
Number of alpha electrons                  I               21
Number of beta electrons                   I               21
Number of basis functions                  I               95
Number of independent functions            I               95
Number of point charges in /Mol/           I                0
Number of translation vectors              I                0
Atomic numbers                             I   N=          15
           6           6           6           6           8           1
           1           1           1           1           1           1
           1           1           1
Nuclear charges                            R   N=          15
  6.00000000E+00  6.00000000E+00  6.00000000E+00  6.00000000E+00  8.00000000E+00
  1.00000000E+00  1.00000000E+00  1.00000000E+00  1.00000000E+00  1.00000000E+00
  1.00000000E+00  1.00000000E+00  1.00000000E+00  1.00000000E+00  1.00000000E+00
Current cartesian coordinates              R   N=          45
 -4.76231537E+00 -5.60145630E-01  3.90470406E-05 -2.32347771E+00  1.00042682E+00
 -5.93373645E-05  6.53862551E-02 -6.39658093E-01 -6.68792507E-05  2.49588052E+00
  9.02075112E-01  8.37466356E-05  4.57155771E+00 -8.12465421E-01  4.98433460E-05
 -6.43789264E+00  6.57000054E-01 -2.98636023E-04 -4.86840630E+00 -1.78110632E+00
 -1.67141398E+00 -4.86869330E+00 -1.78057772E+00  1.67186098E+00 -2.30534246E+00
  2.24939799E+00 -1.66021249E+00 -2.30528093E+00  2.24947117E+00  1.66004789E+00
  7.73918806E-02 -1.88125756E+00  1.66276429E+00  7.74823811E-02 -1.88112754E+00
 -1.66298451E+00  2.54545066E+00  2.13940147E+00 -1.67739356E+00  2.54528804E+00
  2.13917639E+00  1.67773069E+00  6.11469889E+00  1.73156160E-01 -4.78886022E-04
Number of symbols in /Mol/                 I                0
Force Field                                I                0
Atom Types                                 C   N=          15
                                                            
                                                            
                                                            
Int Atom Types                             I   N=          15
           0           0           0           0           0           0
           0           0           0           0           0           0
           0           0           0
MM charges                                 R   N=          15
  0.00000000E+00  0.00000000E+00  0.00000000E+00  0.00000000E+00  0.00000000E+00
  0.00000000E+00  0.00000000E+00  0.00000000E+00  0.00000000E+00  0.00000000E+00
  0.00000000E+00  0.00000000E+00  0.00000000E+00  0.00000000E+00  0.00000000E+00
Integer atomic weights                     I   N=          15
          12          12          12          12          16           1
           1           1           1           1           1           1
           1           1           1
Real atomic weights                        R   N=          15
  1.20000000E+01  1.20000000E+01  1.20000000E+01  1.20000000E+01  1.59949146E+01
  1.00782504E+00  1.00782504E+00  1.00782504E+00  1.00782504E+00  1.00782504E+00
  1.00782504E+00  1.00782504E+00  1.00782504E+00  1.00782504E+00  1.00782504E+00
Atom fragment info                         I   N=          15
           0           0           0           0           0           0
           0           0           0           0           0           0
           0           0           0
Atom residue num                           I   N=          15
           0           0           0           0           0           0
           0           0           0           0           0           0
           0           0           0
Nuclear spins                              I   N=          15
           0           0           0           0           0           1
           1           1           1           1           1           1
           1           1           1
Nuclear ZEff                               R   N=          15
 -3.60000000E+00 -3.60000000E+00 -3.60000000E+00 -3.60000000E+00 -5.60000000E+00
 -1.00000000E+00 -1.00000000E+00 -1.00000000E+00 -1.00000000E+00 -1.00000000E+00
 -1.00000000E+00 -1.00000000E+00 -1.00000000E+00 -1.00000000E+00 -1.00000000E+00
Nuclear ZNuc                               R   N=          15
  6.00000000E+00  6.00000000E+00  6.00000000E+00  6.00000000E+00  8.00000000E+00
  1.00000000E+00  1.00000000E+00  1.00000000E+00  1.00000000E+00  1.00000000E+00
  1.00000000E+00  1.00000000E+00  1.00000000E+00  1.00000000E+00  1.00000000E+00
Nuclear QMom                               R   N=          15
  0.00000000E+00  0.00000000E+00  0.00000000E+00  0.00000000E+00  0.00000000E+00
  0.00000000E+00  0.00000000E+00  0.00000000E+00  0.00000000E+00  0.00000000E+00
  0.00000000E+00  0.00000000E+00  0.00000000E+00  0.00000000E+00  0.00000000E+00
Nuclear GFac                               R   N=          15
  0.00000000E+00  0.00000000E+00  0.00000000E+00  0.00000000E+00  0.00000000E+00
  2.79284600E+00  2.79284600E+00  2.79284600E+00  2.79284600E+00  2.79284600E+00
  2.79284600E+00  2.79284600E+00  2.79284600E+00  2.79284600E+00  2.79284600E+00
MicOpt                                     I   N=          15
          -1          -1          -1          -1          -1          -1
          -1          -1          -1          -1          -1          -1
          -1          -1          -1
Number of residues                         I                0
Number of secondary structures             I                0
Redundant internal dimensions              I   N=           4
          69          14          25          30
Redundant internal coordinate indices      I   N=         276
           1           2           0           0           1           6
           0           0           1           7           0           0
           1           8           0           0           2           3
           0           0           2           9           0           0
           2          10           0           0           3           4
           0           0           3          11           0           0
           3          12           0           0           4           5
           0           0           4          13           0           0
           4          14           0           0           5          15
           0           0           2           1           6           0
           2           1           7           0           2           1
           8           0           6           1           7           0
           6           1           8           0           7           1
           8           0           1           2           3           0
           1           2           9           0           1           2
          10           0           3           2           9           0
           3           2          10           0           9           2
          10           0           2           3           4           0
           2           3          11           0           2           3
          12           0           4           3          11           0
           4           3          12           0          11           3
          12           0           3           4           5           0
           3           4          13           0           3           4
          14           0           5           4          13           0
           5           4          14           0          13           4
          14           0           4           5          15           0
           6           1           2           3           6           1
           2           9           6           1           2          10
           7           1           2           3           7           1
           2           9           7           1           2          10
           8           1           2           3           8           1
           2           9           8           1           2          10
           1           2           3           4           1           2
           3          11           1           2           3          12
           9           2           3           4           9           2
           3          11           9           2           3          12
          10           2           3           4          10           2
           3          11          10           2           3          12
           2           3           4           5           2           3
           4          13           2           3           4          14
          11           3           4           5          11           3
           4          13          11           3           4          14
          12           3           4           5          12           3
           4          13          12           3           4          14
           3           4           5          15          13           4
           5          15          14           4           5          15
Redundant internal coordinates             R   N=          69
  2.89539558E+00  2.07099080E+00  2.07262044E+00  2.07262136E+00  2.89768003E+00
  2.07758667E+00  2.07759451E+00  2.87823621E+00  2.07526405E+00  2.07525607E+00
  2.69222678E+00  2.08503329E+00  2.08503236E+00  1.83104749E+00  1.94413424E+00
  1.93970579E+00  1.93974206E+00  1.88038834E+00  1.88038935E+00  1.87652853E+00
  1.97071706E+00  1.90858108E+00  1.90856876E+00  1.91034369E+00  1.91034202E+00
  1.85147743E+00  1.97466798E+00  1.92132685E+00  1.92133322E+00  1.89182783E+00
  1.89184331E+00  1.85887934E+00  1.88590919E+00  1.91548866E+00  1.91544688E+00
  1.93862126E+00  1.93863392E+00  1.86991381E+00  1.88279058E+00 -3.14141576E+00
 -1.00998719E+00  1.01035198E+00 -1.04442053E+00  1.08700804E+00  3.10734721E+00
  1.04474846E+00 -3.10700828E+00 -1.08666911E+00 -3.14149884E+00 -1.02194374E+00
  1.02210681E+00  1.01124787E+00  3.13080297E+00 -1.10833178E+00 -1.01107724E+00
  1.10847786E+00 -3.13065689E+00 -3.14158754E+00 -1.02525217E+00  1.02527198E+00
  1.00551185E+00  3.12184723E+00 -1.11081392E+00 -1.00548241E+00  1.11085296E+00
 -3.12180819E+00  3.14123416E+00  1.03931485E+00 -1.04007559E+00
ZRed-IntVec                                I   N=          69
           0           0           0           0           0           0
           0           0           0           0           0           0
           0           0           0           0           0           0
           0           0           0           0           0           0
           0           0           0           0           0           0
           0           0           0           0           0           0
           0           0           0           0           0           0
           0           0           0           0           0           0
           0           0           0           0           0           0
           0           0           0           0           0           0
           0           0           0           0           0           0
           0           0           0
ZRed-FPVec                                 R   N=          69
  0.00000000E+00  0.00000000E+00  0.00000000E+00  0.00000000E+00  0.00000000E+00
  0.00000000E+00  0.00000000E+00  0.00000000E+00  0.00000000E+00  0.00000000E+00
  0.00000000E+00  0.00000000E+00  0.00000000E+00  0.00000000E+00  0.00000000E+00
  0.00000000E+00  0.00000000E+00  0.00000000E+00  0.00000000E+00  0.00000000E+00
  0.00000000E+00  0.00000000E+00  0.00000000E+00  0.00000000E+00  0.00000000E+00
  0.00000000E+00  0.00000000E+00  0.00000000E+00  0.00000000E+00  0.00000000E+00
  0.00000000E+00  0.00000000E+00  0.00000000E+00  0.00000000E+00  0.00000000E+00
  0.00000000E+00  0.00000000E+00  0.00000000E+00  0.00000000E+00  0.00000000E+00
  0.00000000E+00  0.00000000E+00  0.00000000E+00  0.00000000E+00  0.00000000E+00
  0.00000000E+00  0.00000000E+00  0.00000000E+00  0.00000000E+00  0.00000000E+00
  0.00000000E+00  0.00000000E+00  0.00000000E+00  0.00000000E+00  0.00000000E+00
  0.00000000E+00  0.00000000E+00  0.00000000E+00  0.00000000E+00  0.00000000E+00
  0.00000000E+00  0.00000000E+00  0.00000000E+00  0.00000000E+00  0.00000000E+00
  0.00000000E+00  0.00000000E+00  0.00000000E+00  0.00000000E+00
ZRed-Constraint1                           R   N=          69
  2.89539558E+00  2.07099080E+00  2.07262044E+00  2.07262136E+00  2.89768003E+00
  2.07758667E+00  2.07759451E+00  2.87823621E+00  2.07526405E+00  2.07525607E+00
  2.69222678E+00  2.08503329E+00  2.08503236E+00  1.83104749E+00  1.94413424E+00
  1.93970579E+00  1.93974206E+00  1.88038834E+00  1.88038935E+00  1.87652853E+00
  1.97071706E+00  1.90858108E+00  1.90856876E+00  1.91034369E+00  1.91034202E+00
  1.85147743E+00  1.97466798E+00  1.92132685E+00  1.92133322E+00  1.89182783E+00
  1.89184331E+00  1.85887934E+00  1.88590919E+00  1.91548866E+00  1.91544688E+00
  1.93862126E+00  1.93863392E+00  1.86991381E+00  1.88279058E+00 -3.14141576E+00
 -1.00998719E+00  1.01035198E+00 -1.04442053E+00  1.08700804E+00  3.10734721E+00
  1.04474846E+00 -3.10700828E+00 -1.08666911E+00 -3.14149884E+00 -1.02194374E+00
  1.02210681E+00  1.01124787E+00  3.13080297E+00 -1.10833178E+00 -1.01107724E+00
  1.10847786E+00 -3.13065689E+00 -3.14158754E+00 -1.02525217E+00  1.02527198E+00
  1.00551185E+00  3.12184723E+00 -1.11081392E+00 -1.00548241E+00  1.11085296E+00
 -3.12180819E+00  3.14123416E+00  1.03931485E+00 -1.04007559E+00
ZRed-Constraint2                           R   N=          69
  2.91740384E+00  2.05988946E+00  2.05986643E+00  2.05978762E+00  2.93110459E+00
  2.05989528E+00  2.05971019E+00  2.92071774E+00  2.05979810E+00  2.05976004E+00
  2.68683975E+00  2.05963273E+00  2.05991525E+00  1.81410311E+00  1.91069397E+00
  1.91069429E+00  1.91072006E+00  1.91055067E+00  1.91058228E+00  1.91055813E+00
  1.96214300E+00  1.85105185E+00  1.85108978E+00  1.85403797E+00  1.85413400E+00
  2.09438232E+00  1.96796291E+00  1.85240579E+00  1.85247697E+00  1.85022089E+00
  1.85007726E+00  2.09447811E+00  1.92045860E+00  1.88656880E+00  1.88650400E+00
  1.83574272E+00  1.83552084E+00  2.09448561E+00  1.91065302E+00 -2.79148062E+00
 -7.72457088E-01  1.47254336E+00 -6.97112069E-01  1.32191147E+00 -2.71627339E+00
  1.39728161E+00 -2.86688016E+00 -6.21879708E-01  3.14154552E+00 -1.12336331E+00
  1.12339891E+00  1.12432356E+00 -3.14058527E+00 -8.93823053E-01 -1.12431499E+00
  8.93961491E-01  3.14072371E+00  3.14149595E+00 -1.14585807E+00  1.14596337E+00
  1.12191007E+00  3.11774136E+00 -8.73622507E-01 -1.12210457E+00  8.73726720E-01
 -3.11763715E+00  2.83028614E+00  8.02284933E-01 -1.42509342E+00
SymInf integers                            I   N=          26
           1           1           1           1           1           0
           0           0           0           0           0           0
           0           0           0           0           0           0
           0           0           0           0           0           0
           0           0
RotTr to input orientation                 R   N=          12
 -1.14195378E-01  8.53676136E-01  5.08130367E-01  3.61866696E-01 -4.40595583E-01
  8.21540034E-01  9.25209117E-01  2.77691532E-01 -2.58602984E-01  3.91004230E+00
  2.42355687E+00  5.23185007E-01
Number of contracted shells                I               40
Number of primitive shells                 I               95
Pure/Cartesian d shells                    I                1
Pure/Cartesian f shells                    I                0
Highest angular momentum                   I                2
Largest degree of contraction              I                6
Shell types                                I   N=          40
           0          -1          -1           2           0          -1
          -1           2           0          -1          -1           2
           0          -1          -1           2           0          -1
          -1           2           0           0           0           0
           0           0           0           0           0           0
           0           0           0           0           0           0
           0           0           0           0
Number of primitives per shell             I   N=          40
           6           3           1           1           6           3
           1           1           6           3           1           1
           6           3           1           1           6           3
           1           1           3           1           3           1
           3           1           3           1           3           1
           3           1           3           1           3           1
           3           1           3           1
Shell to atom map                          I   N=          40
           1           1           1           1           2           2
           2           2           3           3           3           3
           4           4           4           4           5           5
           5           5           6           6           7           7
           8           8           9           9          10          10
          11          11          12          12          13          13
          14          14          15          15
Primitive exponents                        R   N=          95
  3.04752488E+03  4.57369518E+02  1.03948685E+02  2.92101553E+01  9.28666296E+00
  3.16392696E+00  7.86827235E+00  1.88128854E+00  5.44249258E-01  1.68714478E-01
  8.00000000E-01  3.04752488E+03  4.57369518E+02  1.03948685E+02  2.92101553E+01
  9.28666296E+00  3.16392696E+00  7.86827235E+00  1.88128854E+00  5.44249258E-01
  1.68714478E-01  8.00000000E-01  3.04752488E+03  4.57369518E+02  1.03948685E+02
  2.92101553E+01  9.28666296E+00  3.16392696E+00  7.86827235E+00  1.88128854E+00
  5.44249258E-01  1.68714478E-01  8.00000000E-01  3.04752488E+03  4.57369518E+02
  1.03948685E+02  2.92101553E+01  9.28666296E+00  3.16392696E+00  7.86827235E+00
  1.88128854E+00  5.44249258E-01  1.68714478E-01  8.00000000E-01  5.48467166E+03
  8.25234946E+02  1.88046958E+02  5.29645000E+01  1.68975704E+01  5.79963534E+00
  1.55396162E+01  3.59993359E+00  1.01376175E+00  2.70005823E-01  8.00000000E-01
  1.87311370E+01  2.82539436E+00  6.40121692E-01  1.61277759E-01  1.87311370E+01
  2.82539436E+00  6.40121692E-01  1.61277759E-01  1.87311370E+01  2.82539436E+00
  6.40121692E-01  1.61277759E-01  1.87311370E+01  2.82539436E+00  6.40121692E-01
  1.61277759E-01  1.87311370E+01  2.82539436E+00  6.40121692E-01  1.61277759E-01
  1.87311370E+01  2.82539436E+00  6.40121692E-01  1.61277759E-01  1.87311370E+01
  2.82539436E+00  6.40121692E-01  1.61277759E-01  1.87311370E+01  2.82539436E+00
  6.40121692E-01  1.61277759E-01  1.87311370E+01  2.82539436E+00  6.40121692E-01
  1.61277759E-01  1.87311370E+01  2.82539436E+00  6.40121692E-01  1.61277759E-01
Contraction coefficients                   R   N=          95
  1.83473713E-03  1.40373228E-02  6.88426223E-02  2.32184443E-01  4.67941348E-01
  3.62311985E-01 -1.19332420E-01 -1.60854152E-01  1.14345644E+00  1.00000000E+00
  1.00000000E+00  1.83473713E-03  1.40373228E-02  6.88426223E-02  2.32184443E-01
  4.67941348E-01  3.62311985E-01 -1.19332420E-01 -1.60854152E-01  1.14345644E+00
  1.00000000E+00  1.00000000E+00  1.83473713E-03  1.40373228E-02  6.88426223E-02
  2.32184443E-01  4.67941348E-01  3.62311985E-01 -1.19332420E-01 -1.60854152E-01
  1.14345644E+00  1.00000000E+00  1.00000000E+00  1.83473713E-03  1.40373228E-02
  6.88426223E-02  2.32184443E-01  4.67941348E-01  3.62311985E-01 -1.19332420E-01
 -1.60854152E-01  1.14345644E+00  1.00000000E+00  1.00000000E+00  1.83107443E-03
  1.39501722E-02  6.84450781E-02  2.32714336E-01  4.70192898E-01  3.58520853E-01
 -1.10777550E-01 -1.48026263E-01  1.13076702E+00  1.00000000E+00  1.00000000E+00
  3.34946043E-02  2.34726953E-01  8.13757326E-01  1.00000000E+00  3.34946043E-02
  2.34726953E-01  8.13757326E-01  1.00000000E+00  3.34946043E-02  2.34726953E-01
  8.13757326E-01  1.00000000E+00  3.34946043E-02  2.34726953E-01  8.13757326E-01
  1.00000000E+00  3.34946043E-02  2.34726953E-01  8.13757326E-01  1.00000000E+00
  3.34946043E-02  2.34726953E-01  8.13757326E-01  1.00000000E+00  3.34946043E-02
  2.34726953E-01  8.13757326E-01  1.00000000E+00  3.34946043E-02  2.34726953E-01
  8.13757326E-01  1.00000000E+00  3.34946043E-02  2.34726953E-01  8.13757326E-01
  1.00000000E+00  3.34946043E-02  2.34726953E-01  8.13757326E-01  1.00000000E+00
P(S=P) Contraction coefficients            R   N=          95
  0.00000000E+00  0.00000000E+00  0.00000000E+00  0.00000000E+00  0.00000000E+00
  0.00000000E+00  6.89990666E-02  3.16423961E-01  7.44308291E-01  1.00000000E+00
  0.00000000E+00  0.00000000E+00  0.00000000E+00  0.00000000E+00  0.00000000E+00
  0.00000000E+00  0.00000000E+00  6.89990666E-02  3.16423961E-01  7.44308291E-01
  1.00000000E+00  0.00000000E+00  0.00000000E+00  0.00000000E+00  0.00000000E+00
  0.00000000E+00  0.00000000E+00  0.00000000E+00  6.89990666E-02  3.16423961E-01
  7.44308291E-01  1.00000000E+00  0.00000000E+00  0.00000000E+00  0.00000000E+00
  0.00000000E+00  0.00000000E+00  0.00000000E+00  0.00000000E+00  6.89990666E-02
  3.16423961E-01  7.44308291E-01  1.00000000E+00  0.00000000E+00  0.00000000E+00
  0.00000000E+00  0.00000000E+00  0.00000000E+00  0.00000000E+00  0.00000000E+00
  7.08742682E-02  3.39752839E-01  7.27158577E-01  1.00000000E+00  0.00000000E+00
  0.00000000E+00  0.00000000E+00  0.00000000E+00  0.00000000E+00  0.00000000E+00
  0.00000000E+00  0.00000000E+00  0.00000000E+00  0.00000000E+00  0.00000000E+00
  0.00000000E+00  0.00000000E+00  0.00000000E+00  0.00000000E+00  0.00000000E+00
  0.00000000E+00  0.00000000E+00  0.00000000E+00  0.00000000E+00  0.00000000E+00
  0.00000000E+00  0.00000000E+00  0.00000000E+00  0.00000000E+00  0.00000000E+00
  0.00000000E+00  0.00000000E+00  0.00000000E+00  0.00000000E+00  0.00000000E+00
  0.00000000E+00  0.00000000E+00  0.00000000E+00  0.00000000E+00  0.00000000E+00
  0.00000000E+00  0.00000000E+00  0.00000000E+00  0.00000000E+00  0.00000000E+00
Coordinates of each shell                  R   N=         120
 -4.76231537E+00 -5.60145630E-01  3.90470406E-05 -4.76231537E+00 -5.60145630E-01
  3.90470406E-05 -4.76231537E+00 -5.60145630E-01  3.90470406E-05 -4.76231537E+00
 -5.60145630E-01  3.90470406E-05 -2.32347771E+00  1.00042682E+00 -5.93373645E-05
 -2.32347771E+00  1.00042682E+00 -5.93373645E-05 -2.32347771E+00  1.00042682E+00
 -5.93373645E-05 -2.32347771E+00  1.00042682E+00 -5.93373645E-05  6.53862551E-02
 -6.39658093E-01 -6.68792507E-05  6.53862551E-02 -6.39658093E-01 -6.68792507E-05
  6.53862551E-02 -6.39658093E-01 -6.68792507E-05  6.53862551E-02 -6.39658093E-01
 -6.68792507E-05  2.49588052E+00  9.02075112E-01  8.37466356E-05  2.49588052E+00
  9.02075112E-01  8.37466356E-05  2.49588052E+00  9.02075112E-01  8.37466356E-05
  2.49588052E+00  9.02075112E-01  8.37466356E-05  4.57155771E+00 -8.12465421E-01
  4.98433460E-05  4.57155771E+00 -8.12465421E-01  4.98433460E-05  4.57155771E+00
 -8.12465421E-01  4.98433460E-05  4.57155771E+00 -8.12465421E-01  4.98433460E-05
 -6.43789264E+00  6.57000054E-01 -2.98636023E-04 -6.43789264E+00  6.57000054E-01
 -2.98636023E-04 -4.86840630E+00 -1.78110632E+00 -1.67141398E+00 -4.86840630E+00
 -1.78110632E+00 -1.67141398E+00 -4.86869330E+00 -1.78057772E+00  1.67186098E+00
 -4.86869330E+00 -1.78057772E+00  1.67186098E+00 -2.30534246E+00  2.24939799E+00
 -1.66021249E+00 -2.30534246E+00  2.24939799E+00 -1.66021249E+00 -2.30528093E+00
  2.24947117E+00  1.66004789E+00 -2.30528093E+00  2.24947117E+00  1.66004789E+00
  7.73918806E-02 -1.88125756E+00  1.66276429E+00  7.73918806E-02 -1.88125756E+00
  1.66276429E+00  7.74823811E-02 -1.88112754E+00 -1.66298451E+00  7.74823811E-02
 -1.88112754E+00 -1.66298451E+00  2.54545066E+00  2.13940147E+00 -1.67739356E+00
  2.54545066E+00  2.13940147E+00 -1.67739356E+00  2.54528804E+00  2.13917639E+00
  1.67773069E+00  2.54528804E+00  2.13917639E+00  1.67773069E+00  6.11469889E+00
  1.73156160E-01 -4.78886022E-04  6.11469889E+00  1.73156160E-01 -4.78886022E-04
Num ILSW                                   I              100
ILSW                                       I   N=         100
           0           1           0           0           2           0
           0           0           0           0         402          -1
           5           0           0           0           2           0
           0           0           0           0           1           0
           1           0           0           0           0           0
           0           0      100000           0          -1           0
           0           0           0           0           0           0
           0           0           0           1           0           0
           0 -2000000000           1           0           0           0
           0           0           4          52           0           0
           0           0           5           0           0           0
           0           0           0          15           0           1
           0           0           0           0           0           0
           0           0           0           0           0           0
           0           0           0           0           0           0
           0           0           0           0           0           0
           0           0           0           0
Num RLSW                                   I               52
RLSW                                       R   N=          52
  8.00000000E-01  7.20000000E-01  1.00000000E+00  8.10000000E-01  2.00000000E-01
  0.00000000E+00  0.00000000E+00  1.00000000E+00  0.00000000E+00  0.00000000E+00
  0.00000000E+00  0.00000000E+00  1.00000000E+00  0.00000000E+00  0.00000000E+00
  0.00000000E+00  0.00000000E+00  1.00000000E+00  0.00000000E+00  0.00000000E+00
  0.00000000E+00  0.00000000E+00  1.00000000E+00  0.00000000E+00  0.00000000E+00
  0.00000000E+00  0.00000000E+00  1.00000000E+00  0.00000000E+00  0.00000000E+00
  0.00000000E+00  0.00000000E+00  1.00000000E+00  0.00000000E+00  0.00000000E+00
  0.00000000E+00  0.00000000E+00  0.00000000E+00  1.00000000E+00  1.00000000E+00
  0.00000000E+00  1.00000000E+00  0.00000000E+00  0.00000000E+00  0.00000000E+00
  0.00000000E+00  0.00000000E+00  0.00000000E+00  0.00000000E+00  0.00000000E+00
  0.00000000E+00  0.00000000E+00
MxBond                                     I                4
NBond                                      I   N=          15
           4           4           4           4           2           1
           1           1           1           1           1           1
           1           1           1
IBond                                      I   N=          60
           2           6           7           8           1           3
           9          10           2           4          11          12
           3           5          13          14           4          15
           0           0           1           0           0           0
           1           0           0           0           1           0
           0           0           2           0           0           0
           2           0           0           0           3           0
           0           0           3           0           0           0
           4           0           0           0           4           0
           0           0           5           0           0           0
RBond                                      R   N=          60
  1.00000000E+00  1.00000000E+00  1.00000000E+00  1.00000000E+00  1.00000000E+00
  1.00000000E+00  1.00000000E+00  1.00000000E+00  1.00000000E+00  1.00000000E+00
  1.00000000E+00  1.00000000E+00  1.00000000E+00  1.00000000E+00  1.00000000E+00
  1.00000000E+00  1.00000000E+00  1.00000000E+00  0.00000000E+00  0.00000000E+00
  1.00000000E+00  0.00000000E+00  0.00000000E+00  0.00000000E+00  1.00000000E+00
  0.00000000E+00  0.00000000E+00  0.00000000E+00  1.00000000E+00  0.00000000E+00
  0.00000000E+00  0.00000000E+00  1.00000000E+00  0.00000000E+00  0.00000000E+00
  0.00000000E+00  1.00000000E+00  0.00000000E+00  0.00000000E+00  0.00000000E+00
  1.00000000E+00  0.00000000E+00  0.00000000E+00  0.00000000E+00  1.00000000E+00
  0.00000000E+00  0.00000000E+00  0.00000000E+00  1.00000000E+00  0.00000000E+00
  0.00000000E+00  0.00000000E+00  1.00000000E+00  0.00000000E+00  0.00000000E+00
  0.00000000E+00  1.00000000E+00  0.00000000E+00  0.00000000E+00  0.00000000E+00
Virial Ratio                               R      2.009590195694571E+00
SCF Energy                                 R     -2.336610737384627E+02
Total Energy                               R     -2.336610737384627E+02
RMS Force                                  R      9.228048412294958E-06
RMS Density                                R      1.043017608346347E-09
NImag                                      I                0
Job Status                                 I                1
Nuclear derivative order                   I                2
External E-field                           R   N=          35