 Entering Gaussian System, Link 0=/apps/cent7/gaussian/g16-A.03/g16-haswell/g16/g16
 Initial command:
 /apps/cent7/gaussian/g16-A.03/g16-haswell/g16/l1.exe "/scratch/brown/finej/gaussian/Gau-424566.inp" -scrdir="/scratch/brown/finej/gaussian/"
 Entering Link 1 = /apps/cent7/gaussian/g16-A.03/g16-haswell/g16/l1.exe PID=    424567.
  
 Copyright (c) 1988,1990,1992,1993,1995,1998,2003,2009,2016,
            Gaussian, Inc.  All Rights Reserved.
  
 This is part of the Gaussian(R) 16 program.  It is based on
 the Gaussian(R) 09 system (copyright 2009, Gaussian, Inc.),
 the Gaussian(R) 03 system (copyright 2003, Gaussian, Inc.),
 the Gaussian(R) 98 system (copyright 1998, Gaussian, Inc.),
 the Gaussian(R) 94 system (copyright 1995, Gaussian, Inc.),
 the Gaussian 92(TM) system (copyright 1992, Gaussian, Inc.),
 the Gaussian 90(TM) system (copyright 1990, Gaussian, Inc.),
 the Gaussian 88(TM) system (copyright 1988, Gaussian, Inc.),
 the Gaussian 86(TM) system (copyright 1986, Carnegie Mellon
 University), and the Gaussian 82(TM) system (copyright 1983,
 Carnegie Mellon University). Gaussian is a federally registered
 trademark of Gaussian, Inc.
  
 This software contains proprietary and confidential information,
 including trade secrets, belonging to Gaussian, Inc.
  
 This software is provided under written license and may be
 used, copied, transmitted, or stored only in accord with that
 written license.
  
 The following legend is applicable only to US Government
 contracts under FAR:
  
                    RESTRICTED RIGHTS LEGEND
  
 Use, reproduction and disclosure by the US Government is
 subject to restrictions as set forth in subparagraphs (a)
 and (c) of the Commercial Computer Software - Restricted
 Rights clause in FAR 52.227-19.
  
 Gaussian, Inc.
 340 Quinnipiac St., Bldg. 40, Wallingford CT 06492
  
  
 ---------------------------------------------------------------
 Warning -- This program may not be used in any manner that
 competes with the business of Gaussian, Inc. or will provide
 assistance to any competitor of Gaussian, Inc.  The licensee
 of this program is prohibited from giving any competitor of
 Gaussian, Inc. access to this program.  By using this program,
 the user acknowledges that Gaussian, Inc. is engaged in the
 business of creating and licensing software in the field of
 computational chemistry and represents and warrants to the
 licensee that it is not a competitor of Gaussian, Inc. and that
 it will not use this program in any manner prohibited above.
 ---------------------------------------------------------------
  

 Cite this work as:
 Gaussian 16, Revision A.03,
 M. J. Frisch, G. W. Trucks, H. B. Schlegel, G. E. Scuseria, 
 M. A. Robb, J. R. Cheeseman, G. Scalmani, V. Barone, 
 G. A. Petersson, H. Nakatsuji, X. Li, M. Caricato, A. V. Marenich, 
 J. Bloino, B. G. Janesko, R. Gomperts, B. Mennucci, H. P. Hratchian, 
 J. V. Ortiz, A. F. Izmaylov, J. L. Sonnenberg, D. Williams-Young, 
 F. Ding, F. Lipparini, F. Egidi, J. Goings, B. Peng, A. Petrone, 
 T. Henderson, D. Ranasinghe, V. G. Zakrzewski, J. Gao, N. Rega, 
 G. Zheng, W. Liang, M. Hada, M. Ehara, K. Toyota, R. Fukuda, 
 J. Hasegawa, M. Ishida, T. Nakajima, Y. Honda, O. Kitao, H. Nakai, 
 T. Vreven, K. Throssell, J. A. Montgomery, Jr., J. E. Peralta, 
 F. Ogliaro, M. J. Bearpark, J. J. Heyd, E. N. Brothers, K. N. Kudin, 
 V. N. Staroverov, T. A. Keith, R. Kobayashi, J. Normand, 
 K. Raghavachari, A. P. Rendell, J. C. Burant, S. S. Iyengar, 
 J. Tomasi, M. Cossi, J. M. Millam, M. Klene, C. Adamo, R. Cammi, 
 J. W. Ochterski, R. L. Martin, K. Morokuma, O. Farkas, 
 J. B. Foresman, and D. J. Fox, Gaussian, Inc., Wallingford CT, 2016.
 
 ******************************************
 Gaussian 16:  ES64L-G16RevA.03 25-Dec-2016
                14-Oct-2019 
 ******************************************
 %chk=20.chk
 %nprocshared=24
 Will use up to   24 processors via shared memory.
 %mem=80GB
 --------------------------------------------------------------
 #P opt freq b3lyp/6-31g(d) geom=connectivity temperature=0.001
 --------------------------------------------------------------
 1/18=20,19=15,26=3,38=1,57=2,112=-1000/1,3;
 2/9=110,12=2,17=6,18=5,40=1/2;
 3/5=1,6=6,7=1,11=2,25=1,30=1,71=1,74=-5/1,2,3;
 4//1;
 5/5=2,38=5/2;
 6/7=2,8=2,9=2,10=2,28=1/1;
 7//1,2,3,16;
 1/18=20,19=15,26=3/3(2);
 2/9=110/2;
 99//99;
 2/9=110/2;
 3/5=1,6=6,7=1,11=2,25=1,30=1,71=1,74=-5/1,2,3;
 4/5=5,16=3,69=1/1;
 5/5=2,38=5/2;
 7//1,2,3,16;
 1/18=20,19=15,26=3/3(-5);
 2/9=110/2;
 6/7=2,8=2,9=2,10=2,19=2,28=1/1;
 99/9=1/99;
 Leave Link    1 at Mon Oct 14 01:03:17 2019, MaxMem= 10737418240 cpu:               1.3 elap:               0.1
 (Enter /apps/cent7/gaussian/g16-A.03/g16-haswell/g16/l101.exe)
 -------------------
 Title Card Required
 -------------------
 Symbolic Z-matrix:
 Charge =  0 Multiplicity = 1
 C                     2.246    -0.7624   -1.2558 
 C                     2.4467   -0.0101    0.0773 
 C                     1.9396    1.4543    0.0124 
 C                     2.1368    2.2148    1.3434 
 O                     1.654     3.5464    1.2197 
 H                     2.2733   -1.8369   -1.0744 
 H                     1.2814   -0.4908   -1.6847 
 H                     3.0415   -0.4908   -1.9497 
 H                     1.8174   -0.5183    0.808 
 H                     3.5241    0.0471    0.232 
 H                     2.5691    1.9607   -0.7193 
 H                     0.8624    1.3953   -0.1432 
 H                     1.501     1.7495    2.0965 
 H                     3.2077    2.315     1.5205 
 H                     1.5184    3.9201    2.0935 
 
 ITRead=  0  0  0  0  0  0  0  0  0  0  0  0  0  0  0
 MicOpt= -1 -1 -1 -1 -1 -1 -1 -1 -1 -1 -1 -1 -1 -1 -1
 NAtoms=     15 NQM=       15 NQMF=       0 NMMI=      0 NMMIF=      0
                NMic=       0 NMicF=      0.
                    Isotopes and Nuclear Properties:
 (Nuclear quadrupole moments (NQMom) in fm**2, nuclear magnetic moments (NMagM)
  in nuclear magnetons)

  Atom         1           2           3           4           5           6           7           8           9          10
 IAtWgt=          12          12          12          12          16           1           1           1           1           1
 AtmWgt=  12.0000000  12.0000000  12.0000000  12.0000000  15.9949146   1.0078250   1.0078250   1.0078250   1.0078250   1.0078250
 NucSpn=           0           0           0           0           0           1           1           1           1           1
 AtZEff=  -0.0000000  -0.0000000  -0.0000000  -0.0000000  -0.0000000  -0.0000000  -0.0000000  -0.0000000  -0.0000000  -0.0000000
 NQMom=    0.0000000   0.0000000   0.0000000   0.0000000   0.0000000   0.0000000   0.0000000   0.0000000   0.0000000   0.0000000
 NMagM=    0.0000000   0.0000000   0.0000000   0.0000000   0.0000000   2.7928460   2.7928460   2.7928460   2.7928460   2.7928460
 AtZNuc=   6.0000000   6.0000000   6.0000000   6.0000000   8.0000000   1.0000000   1.0000000   1.0000000   1.0000000   1.0000000

  Atom        11          12          13          14          15
 IAtWgt=           1           1           1           1           1
 AtmWgt=   1.0078250   1.0078250   1.0078250   1.0078250   1.0078250
 NucSpn=           1           1           1           1           1
 AtZEff=  -0.0000000  -0.0000000  -0.0000000  -0.0000000  -0.0000000
 NQMom=    0.0000000   0.0000000   0.0000000   0.0000000   0.0000000
 NMagM=    2.7928460   2.7928460   2.7928460   2.7928460   2.7928460
 AtZNuc=   1.0000000   1.0000000   1.0000000   1.0000000   1.0000000
 Leave Link  101 at Mon Oct 14 01:03:17 2019, MaxMem= 10737418240 cpu:               8.5 elap:               0.4
 (Enter /apps/cent7/gaussian/g16-A.03/g16-haswell/g16/l103.exe)

 GradGradGradGradGradGradGradGradGradGradGradGradGradGradGradGradGradGrad
 Berny optimization.
 Initialization pass.
                           ----------------------------
                           !    Initial Parameters    !
                           ! (Angstroms and Degrees)  !
 --------------------------                            --------------------------
 ! Name  Definition              Value          Derivative Info.                !
 --------------------------------------------------------------------------------
 ! R1    R(1,2)                  1.5438         estimate D2E/DX2                !
 ! R2    R(1,6)                  1.09           estimate D2E/DX2                !
 ! R3    R(1,7)                  1.09           estimate D2E/DX2                !
 ! R4    R(1,8)                  1.09           estimate D2E/DX2                !
 ! R5    R(2,3)                  1.5511         estimate D2E/DX2                !
 ! R6    R(2,9)                  1.09           estimate D2E/DX2                !
 ! R7    R(2,10)                 1.09           estimate D2E/DX2                !
 ! R8    R(3,4)                  1.5456         estimate D2E/DX2                !
 ! R9    R(3,11)                 1.09           estimate D2E/DX2                !
 ! R10   R(3,12)                 1.09           estimate D2E/DX2                !
 ! R11   R(4,5)                  1.4218         estimate D2E/DX2                !
 ! R12   R(4,13)                 1.0899         estimate D2E/DX2                !
 ! R13   R(4,14)                 1.0901         estimate D2E/DX2                !
 ! R14   R(5,15)                 0.96           estimate D2E/DX2                !
 ! A1    A(2,1,6)              109.4747         estimate D2E/DX2                !
 ! A2    A(2,1,7)              109.4747         estimate D2E/DX2                !
 ! A3    A(2,1,8)              109.4762         estimate D2E/DX2                !
 ! A4    A(6,1,7)              109.4665         estimate D2E/DX2                !
 ! A5    A(6,1,8)              109.4683         estimate D2E/DX2                !
 ! A6    A(7,1,8)              109.4669         estimate D2E/DX2                !
 ! A7    A(1,2,3)              112.4225         estimate D2E/DX2                !
 ! A8    A(1,2,9)              106.0575         estimate D2E/DX2                !
 ! A9    A(1,2,10)             106.0596         estimate D2E/DX2                !
 ! A10   A(3,2,9)              106.2286         estimate D2E/DX2                !
 ! A11   A(3,2,10)             106.2341         estimate D2E/DX2                !
 ! A12   A(9,2,10)             119.9993         estimate D2E/DX2                !
 ! A13   A(2,3,4)              112.756          estimate D2E/DX2                !
 ! A14   A(2,3,11)             106.135          estimate D2E/DX2                !
 ! A15   A(2,3,12)             106.1391         estimate D2E/DX2                !
 ! A16   A(4,3,11)             106.0098         estimate D2E/DX2                !
 ! A17   A(4,3,12)             106.0016         estimate D2E/DX2                !
 ! A18   A(11,3,12)            120.0048         estimate D2E/DX2                !
 ! A19   A(3,4,5)              110.0342         estimate D2E/DX2                !
 ! A20   A(3,4,13)             108.0924         estimate D2E/DX2                !
 ! A21   A(3,4,14)             108.0887         estimate D2E/DX2                !
 ! A22   A(5,4,13)             105.1803         estimate D2E/DX2                !
 ! A23   A(5,4,14)             105.1676         estimate D2E/DX2                !
 ! A24   A(13,4,14)            120.0052         estimate D2E/DX2                !
 ! A25   A(4,5,15)             109.4724         estimate D2E/DX2                !
 ! D1    D(6,1,2,3)           -159.9401         estimate D2E/DX2                !
 ! D2    D(6,1,2,9)            -44.2585         estimate D2E/DX2                !
 ! D3    D(6,1,2,10)            84.3705         estimate D2E/DX2                !
 ! D4    D(7,1,2,3)            -39.9416         estimate D2E/DX2                !
 ! D5    D(7,1,2,9)             75.7399         estimate D2E/DX2                !
 ! D6    D(7,1,2,10)          -155.631          estimate D2E/DX2                !
 ! D7    D(8,1,2,3)             80.0583         estimate D2E/DX2                !
 ! D8    D(8,1,2,9)           -164.2601         estimate D2E/DX2                !
 ! D9    D(8,1,2,10)           -35.6311         estimate D2E/DX2                !
 ! D10   D(1,2,3,4)            179.9973         estimate D2E/DX2                !
 ! D11   D(1,2,3,11)           -64.364          estimate D2E/DX2                !
 ! D12   D(1,2,3,12)            64.366          estimate D2E/DX2                !
 ! D13   D(9,2,3,4)             64.419          estimate D2E/DX2                !
 ! D14   D(9,2,3,11)          -179.9423         estimate D2E/DX2                !
 ! D15   D(9,2,3,12)           -51.2123         estimate D2E/DX2                !
 ! D16   D(10,2,3,4)           -64.4185         estimate D2E/DX2                !
 ! D17   D(10,2,3,11)           51.2202         estimate D2E/DX2                !
 ! D18   D(10,2,3,12)          179.9502         estimate D2E/DX2                !
 ! D19   D(2,3,4,5)            179.9945         estimate D2E/DX2                !
 ! D20   D(2,3,4,13)           -65.6528         estimate D2E/DX2                !
 ! D21   D(2,3,4,14)            65.6589         estimate D2E/DX2                !
 ! D22   D(11,3,4,5)            64.2807         estimate D2E/DX2                !
 ! D23   D(11,3,4,13)          178.6334         estimate D2E/DX2                !
 ! D24   D(11,3,4,14)          -50.0549         estimate D2E/DX2                !
 ! D25   D(12,3,4,5)           -64.2919         estimate D2E/DX2                !
 ! D26   D(12,3,4,13)           50.0609         estimate D2E/DX2                !
 ! D27   D(12,3,4,14)         -178.6275         estimate D2E/DX2                !
 ! D28   D(3,4,5,15)           162.1635         estimate D2E/DX2                !
 ! D29   D(13,4,5,15)           45.9675         estimate D2E/DX2                !
 ! D30   D(14,4,5,15)          -81.6518         estimate D2E/DX2                !
 --------------------------------------------------------------------------------
 Trust Radius=3.00D-01 FncErr=1.00D-07 GrdErr=1.00D-06 EigMax=2.50D+02 EigMin=1.00D-04
 Number of steps in this run=     79 maximum allowed number of steps=    100.
 GradGradGradGradGradGradGradGradGradGradGradGradGradGradGradGradGradGrad

 Leave Link  103 at Mon Oct 14 01:03:17 2019, MaxMem= 10737418240 cpu:               0.2 elap:               0.0
 (Enter /apps/cent7/gaussian/g16-A.03/g16-haswell/g16/l202.exe)
                          Input orientation:                          
 ---------------------------------------------------------------------
 Center     Atomic      Atomic             Coordinates (Angstroms)
 Number     Number       Type             X           Y           Z
 ---------------------------------------------------------------------
      1          6           0        2.246000   -0.762400   -1.255800
      2          6           0        2.446700   -0.010100    0.077300
      3          6           0        1.939600    1.454300    0.012400
      4          6           0        2.136800    2.214800    1.343400
      5          8           0        1.654000    3.546400    1.219700
      6          1           0        2.273300   -1.836900   -1.074400
      7          1           0        1.281400   -0.490800   -1.684700
      8          1           0        3.041500   -0.490800   -1.949700
      9          1           0        1.817400   -0.518300    0.808000
     10          1           0        3.524100    0.047100    0.232000
     11          1           0        2.569100    1.960700   -0.719300
     12          1           0        0.862400    1.395300   -0.143200
     13          1           0        1.501000    1.749500    2.096500
     14          1           0        3.207700    2.315000    1.520500
     15          1           0        1.518400    3.920100    2.093500
 ---------------------------------------------------------------------
                    Distance matrix (angstroms):
                    1          2          3          4          5
     1  C    0.000000
     2  C    1.543824   0.000000
     3  C    2.572153   1.551074   0.000000
     4  C    3.953667   2.578610   1.545577   0.000000
     5  O    5.004430   3.818657   2.432288   1.421814   0.000000
     6  H    1.090047   2.166490   3.482023   4.720240   5.884416
     7  H    1.090034   2.166481   2.663980   4.149864   4.987319
     8  H    1.089993   2.166469   2.974464   4.356978   5.316882
     9  H    2.121922   1.090050   2.130508   2.803303   4.088763
    10  H    2.121881   1.089952   2.130511   2.803343   4.088756
    11  H    2.794190   2.129227   1.089998   2.122777   2.666753
    12  H    2.794261   2.129267   1.089978   2.122653   2.666713
    13  H    4.254713   2.840371   2.150113   1.089911   2.005252
    14  H    4.254774   2.840429   2.150174   1.090060   2.005196
    15  H    5.802846   4.513676   3.254006   1.962936   0.959982
                    6          7          8          9         10
     6  H    0.000000
     7  H    1.779977   0.000000
     8  H    1.779963   1.779937   0.000000
     9  H    2.343071   2.549825   3.017298   0.000000
    10  H    2.611635   2.998796   2.298272   1.887930   0.000000
    11  H    3.825619   2.932579   2.783325   3.007181   2.340697
    12  H    3.647587   2.471671   3.401366   2.340656   3.007169
    13  H    4.849053   4.400527   4.874815   2.627405   3.235345
    14  H    4.984464   4.675088   4.465694   3.235457   2.627492
    15  H    6.614266   5.812659   6.174410   4.630476   4.742167
                   11         12         13         14         15
    11  H    0.000000
    12  H    1.887960   0.000000
    13  H    3.018969   2.355743   0.000000
    14  H    2.355853   3.018970   1.887960   0.000000
    15  H    3.585396   3.436245   2.170672   2.399669   0.000000
 Stoichiometry    C4H10O
 Framework group  C1[X(C4H10O)]
 Deg. of freedom    39
 Full point group                 C1      NOp   1
 Largest Abelian subgroup         C1      NOp   1
 Largest concise Abelian subgroup C1      NOp   1
                         Standard orientation:                         
 ---------------------------------------------------------------------
 Center     Atomic      Atomic             Coordinates (Angstroms)
 Number     Number       Type             X           Y           Z
 ---------------------------------------------------------------------
      1          6           0       -2.548489   -0.289419   -0.010459
      2          6           0       -1.246004    0.539315    0.000688
      3          6           0        0.022834   -0.352793    0.005488
      4          6           0        1.331605    0.469280    0.016584
      5          8           0        2.454560   -0.402793    0.020670
      6          1           0       -3.371084    0.331210   -0.365928
      7          1           0       -2.427970   -1.146909   -0.672548
      8          1           0       -2.766224   -0.637799    0.999148
      9          1           0       -1.229387    1.087541   -0.941321
     10          1           0       -1.241296    1.080887    0.946559
     11          1           0        0.004149   -0.900963    0.947431
     12          1           0        0.016109   -0.894229   -0.940479
     13          1           0        1.396947    1.014323   -0.924992
     14          1           0        1.385123    1.007626    0.962919
     15          1           0        3.237481    0.082353   -0.249949
 ---------------------------------------------------------------------
 Rotational constants (GHZ):          19.3487210           1.9168317           1.8333628
 Leave Link  202 at Mon Oct 14 01:03:18 2019, MaxMem= 10737418240 cpu:               0.5 elap:               0.0
 (Enter /apps/cent7/gaussian/g16-A.03/g16-haswell/g16/l301.exe)
 Standard basis: 6-31G(d) (6D, 7F)
 Ernie: Thresh=  0.10000D-02 Tol=  0.10000D-05 Strict=F.
 There are    95 symmetry adapted cartesian basis functions of A   symmetry.
 There are    95 symmetry adapted basis functions of A   symmetry.
    95 basis functions,   180 primitive gaussians,    95 cartesian basis functions
    21 alpha electrons       21 beta electrons
       nuclear repulsion energy       184.0310460162 Hartrees.
 IExCor=  402 DFT=T Ex+Corr=B3LYP ExCW=0 ScaHFX=  0.200000
 ScaDFX=  0.800000  0.720000  1.000000  0.810000 ScalE2=  1.000000  1.000000
 IRadAn=      5 IRanWt=     -1 IRanGd=            0 ICorTp=0 IEmpDi=  4
 NAtoms=   15 NActive=   15 NUniq=   15 SFac= 1.00D+00 NAtFMM=   60 NAOKFM=F Big=F
 Integral buffers will be    131072 words long.
 Raffenetti 2 integral format.
 Two-electron integral symmetry is turned on.
 Leave Link  301 at Mon Oct 14 01:03:18 2019, MaxMem= 10737418240 cpu:               1.3 elap:               0.1
 (Enter /apps/cent7/gaussian/g16-A.03/g16-haswell/g16/l302.exe)
 NPDir=0 NMtPBC=     1 NCelOv=     1 NCel=       1 NClECP=     1 NCelD=      1
         NCelK=      1 NCelE2=     1 NClLst=     1 CellRange=     0.0.
 One-electron integrals computed using PRISM.
 One-electron integral symmetry used in STVInt
 NBasis=    95 RedAO= T EigKep=  3.60D-03  NBF=    95
 NBsUse=    95 1.00D-06 EigRej= -1.00D+00 NBFU=    95
 Precomputing XC quadrature grid using
 IXCGrd= 4 IRadAn=           5 IRanWt=          -1 IRanGd=           0 AccXCQ= 0.00D+00.
 Generated NRdTot=       0 NPtTot=           0 NUsed=           0 NTot=          32
 NSgBfM=    95    95    95    95    95 MxSgAt=    15 MxSgA2=    15.
 Leave Link  302 at Mon Oct 14 01:03:18 2019, MaxMem= 10737418240 cpu:               3.0 elap:               0.2
 (Enter /apps/cent7/gaussian/g16-A.03/g16-haswell/g16/l303.exe)
 DipDrv:  MaxL=1.
 Leave Link  303 at Mon Oct 14 01:03:18 2019, MaxMem= 10737418240 cpu:               0.6 elap:               0.1
 (Enter /apps/cent7/gaussian/g16-A.03/g16-haswell/g16/l401.exe)
 ExpMin= 1.61D-01 ExpMax= 5.48D+03 ExpMxC= 8.25D+02 IAcc=3 IRadAn=         5 AccDes= 0.00D+00
 Harris functional with IExCor=  402 and IRadAn=       5 diagonalized for initial guess.
 HarFok:  IExCor=  402 AccDes= 0.00D+00 IRadAn=         5 IDoV= 1 UseB2=F ITyADJ=14
 ICtDFT=  3500011 ScaDFX=  1.000000  1.000000  1.000000  1.000000
 FoFCou: FMM=F IPFlag=           0 FMFlag=      100000 FMFlg1=           0
         NFxFlg=           0 DoJE=T BraDBF=F KetDBF=T FulRan=T
         wScrn=  0.000000 ICntrl=       500 IOpCl=  0 I1Cent=   200000004 NGrid=           0
         NMat0=    1 NMatS0=      1 NMatT0=    0 NMatD0=    1 NMtDS0=    0 NMtDT0=    0
 Petite list used in FoFCou.
 Harris En= -233.706909458603    
 JPrj=0 DoOrth=F DoCkMO=F.
 Leave Link  401 at Mon Oct 14 01:03:18 2019, MaxMem= 10737418240 cpu:               5.2 elap:               0.3
 (Enter /apps/cent7/gaussian/g16-A.03/g16-haswell/g16/l502.exe)
 Integral symmetry usage will be decided dynamically.
 Closed shell SCF:
 Using DIIS extrapolation, IDIIS=  1040.
 NGot= 10737418240 LenX= 10737396568 LenY= 10737387102
 Requested convergence on RMS density matrix=1.00D-08 within 128 cycles.
 Requested convergence on MAX density matrix=1.00D-06.
 Requested convergence on             energy=1.00D-06.
 No special actions if energy rises.
 Fock matrices will be formed incrementally for  20 cycles.
 Integral accuracy reduced to 1.0D-05 until final iterations.

 Cycle   1  Pass 0  IDiag  1:
 FoFJK:  IHMeth= 1 ICntrl=       0 DoSepK=F KAlg= 0 I1Cent=           0 FoldK=F
 IRaf= 970000000 NMat=       1 IRICut=       1 DoRegI=T DoRafI=F ISym2E= 0 IDoP0=0 IntGTp=1.
 FoFCou: FMM=F IPFlag=           0 FMFlag=      100000 FMFlg1=           0
         NFxFlg=           0 DoJE=F BraDBF=F KetDBF=F FulRan=T
         wScrn=  0.000000 ICntrl=         0 IOpCl=  0 I1Cent=           0 NGrid=           0
         NMat0=    1 NMatS0=      1 NMatT0=    0 NMatD0=    1 NMtDS0=    0 NMtDT0=    0
 Symmetry not used in FoFCou.
 E= -233.435309064114    
 DIIS: error= 4.95D-02 at cycle   1 NSaved=   1.
 NSaved= 1 IEnMin= 1 EnMin= -233.435309064114     IErMin= 1 ErrMin= 4.95D-02
 ErrMax= 4.95D-02  0.00D+00 EMaxC= 1.00D-01 BMatC= 2.04D-01 BMatP= 2.04D-01
 IDIUse=3 WtCom= 5.05D-01 WtEn= 4.95D-01
 Coeff-Com:  0.100D+01
 Coeff-En:   0.100D+01
 Coeff:      0.100D+01
 Gap=     0.305 Goal=   None    Shift=    0.000
 GapD=    0.305 DampG=1.000 DampE=0.500 DampFc=0.5000 IDamp=-1.
 Damping current iteration by 5.00D-01
 RMSDP=1.08D-02 MaxDP=1.40D-01              OVMax= 1.73D-01

 Cycle   2  Pass 0  IDiag  1:
 RMSU=  5.33D-03    CP:  9.75D-01
 E= -233.526181210947     Delta-E=       -0.090872146833 Rises=F Damp=T
 DIIS: error= 6.96D-03 at cycle   2 NSaved=   2.
 NSaved= 2 IEnMin= 2 EnMin= -233.526181210947     IErMin= 2 ErrMin= 6.96D-03
 ErrMax= 6.96D-03  0.00D+00 EMaxC= 1.00D-01 BMatC= 9.11D-03 BMatP= 2.04D-01
 IDIUse=3 WtCom= 9.30D-01 WtEn= 6.96D-02
 Coeff-Com:  0.948D-01 0.905D+00
 Coeff-En:   0.139D+00 0.861D+00
 Coeff:      0.978D-01 0.902D+00
 Gap=     0.339 Goal=   None    Shift=    0.000
 RMSDP=1.49D-03 MaxDP=2.29D-02 DE=-9.09D-02 OVMax= 9.13D-02

 Cycle   3  Pass 0  IDiag  1:
 RMSU=  1.37D-03    CP:  9.74D-01  8.92D-01
 E= -233.641382667260     Delta-E=       -0.115201456313 Rises=F Damp=F
 DIIS: error= 3.66D-03 at cycle   3 NSaved=   3.
 NSaved= 3 IEnMin= 3 EnMin= -233.641382667260     IErMin= 3 ErrMin= 3.66D-03
 ErrMax= 3.66D-03  0.00D+00 EMaxC= 1.00D-01 BMatC= 1.88D-03 BMatP= 9.11D-03
 IDIUse=3 WtCom= 9.63D-01 WtEn= 3.66D-02
 Coeff-Com:  0.110D-01 0.269D+00 0.720D+00
 Coeff-En:   0.000D+00 0.000D+00 0.100D+01
 Coeff:      0.106D-01 0.259D+00 0.731D+00
 Gap=     0.328 Goal=   None    Shift=    0.000
 RMSDP=6.05D-04 MaxDP=1.32D-02 DE=-1.15D-01 OVMax= 1.25D-02

 Cycle   4  Pass 0  IDiag  1:
 RMSU=  4.97D-04    CP:  9.76D-01  8.93D-01  7.51D-01
 E= -233.642077345580     Delta-E=       -0.000694678320 Rises=F Damp=F
 DIIS: error= 2.78D-03 at cycle   4 NSaved=   4.
 NSaved= 4 IEnMin= 4 EnMin= -233.642077345580     IErMin= 4 ErrMin= 2.78D-03
 ErrMax= 2.78D-03  0.00D+00 EMaxC= 1.00D-01 BMatC= 9.85D-04 BMatP= 1.88D-03
 IDIUse=3 WtCom= 9.72D-01 WtEn= 2.78D-02
 Coeff-Com: -0.179D-02 0.419D-01 0.424D+00 0.536D+00
 Coeff-En:   0.000D+00 0.000D+00 0.357D+00 0.643D+00
 Coeff:     -0.174D-02 0.408D-01 0.422D+00 0.539D+00
 Gap=     0.333 Goal=   None    Shift=    0.000
 RMSDP=2.87D-04 MaxDP=5.79D-03 DE=-6.95D-04 OVMax= 5.35D-03

 Cycle   5  Pass 0  IDiag  1:
 RMSU=  9.78D-05    CP:  9.75D-01  8.97D-01  8.40D-01  5.23D-01
 E= -233.642847847580     Delta-E=       -0.000770502000 Rises=F Damp=F
 DIIS: error= 2.48D-04 at cycle   5 NSaved=   5.
 NSaved= 5 IEnMin= 5 EnMin= -233.642847847580     IErMin= 5 ErrMin= 2.48D-04
 ErrMax= 2.48D-04  0.00D+00 EMaxC= 1.00D-01 BMatC= 9.00D-06 BMatP= 9.85D-04
 IDIUse=3 WtCom= 9.98D-01 WtEn= 2.48D-03
 Coeff-Com: -0.519D-03 0.212D-02 0.104D+00 0.172D+00 0.722D+00
 Coeff-En:   0.000D+00 0.000D+00 0.000D+00 0.000D+00 0.100D+01
 Coeff:     -0.518D-03 0.211D-02 0.104D+00 0.171D+00 0.723D+00
 Gap=     0.332 Goal=   None    Shift=    0.000
 RMSDP=3.97D-05 MaxDP=5.39D-04 DE=-7.71D-04 OVMax= 7.12D-04

 Cycle   6  Pass 0  IDiag  1:
 RMSU=  1.81D-05    CP:  9.75D-01  8.96D-01  8.44D-01  5.54D-01  6.87D-01
 E= -233.642855058131     Delta-E=       -0.000007210551 Rises=F Damp=F
 DIIS: error= 7.69D-05 at cycle   6 NSaved=   6.
 NSaved= 6 IEnMin= 6 EnMin= -233.642855058131     IErMin= 6 ErrMin= 7.69D-05
 ErrMax= 7.69D-05  0.00D+00 EMaxC= 1.00D-01 BMatC= 9.74D-07 BMatP= 9.00D-06
 IDIUse=1 WtCom= 1.00D+00 WtEn= 0.00D+00
 Coeff-Com: -0.166D-03-0.351D-03 0.404D-01 0.712D-01 0.366D+00 0.523D+00
 Coeff:     -0.166D-03-0.351D-03 0.404D-01 0.712D-01 0.366D+00 0.523D+00
 Gap=     0.332 Goal=   None    Shift=    0.000
 RMSDP=9.90D-06 MaxDP=1.48D-04 DE=-7.21D-06 OVMax= 2.07D-04

 Initial convergence to 1.0D-05 achieved.  Increase integral accuracy.
 Cycle   7  Pass 1  IDiag  1:
 E= -233.642854304390     Delta-E=        0.000000753741 Rises=F Damp=F
 DIIS: error= 9.72D-06 at cycle   1 NSaved=   1.
 NSaved= 1 IEnMin= 1 EnMin= -233.642854304390     IErMin= 1 ErrMin= 9.72D-06
 ErrMax= 9.72D-06  0.00D+00 EMaxC= 1.00D-01 BMatC= 2.15D-08 BMatP= 2.15D-08
 IDIUse=1 WtCom= 1.00D+00 WtEn= 0.00D+00
 Coeff-Com:  0.100D+01
 Coeff:      0.100D+01
 Gap=     0.332 Goal=   None    Shift=    0.000
 RMSDP=9.90D-06 MaxDP=1.48D-04 DE= 7.54D-07 OVMax= 5.43D-05

 Cycle   8  Pass 1  IDiag  1:
 RMSU=  3.32D-06    CP:  1.00D+00
 E= -233.642854303812     Delta-E=        0.000000000577 Rises=F Damp=F
 DIIS: error= 1.13D-05 at cycle   2 NSaved=   2.
 NSaved= 2 IEnMin= 1 EnMin= -233.642854304390     IErMin= 1 ErrMin= 9.72D-06
 ErrMax= 1.13D-05  0.00D+00 EMaxC= 1.00D-01 BMatC= 2.19D-08 BMatP= 2.15D-08
 IDIUse=1 WtCom= 1.00D+00 WtEn= 0.00D+00
 Coeff-Com:  0.503D+00 0.497D+00
 Coeff:      0.503D+00 0.497D+00
 Gap=     0.332 Goal=   None    Shift=    0.000
 RMSDP=1.55D-06 MaxDP=2.37D-05 DE= 5.77D-10 OVMax= 3.17D-05

 Cycle   9  Pass 1  IDiag  1:
 RMSU=  1.09D-06    CP:  1.00D+00  6.68D-01
 E= -233.642854324498     Delta-E=       -0.000000020685 Rises=F Damp=F
 DIIS: error= 1.66D-06 at cycle   3 NSaved=   3.
 NSaved= 3 IEnMin= 3 EnMin= -233.642854324498     IErMin= 3 ErrMin= 1.66D-06
 ErrMax= 1.66D-06  0.00D+00 EMaxC= 1.00D-01 BMatC= 4.37D-10 BMatP= 2.15D-08
 IDIUse=1 WtCom= 1.00D+00 WtEn= 0.00D+00
 Coeff-Com:  0.110D+00 0.172D+00 0.718D+00
 Coeff:      0.110D+00 0.172D+00 0.718D+00
 Gap=     0.332 Goal=   None    Shift=    0.000
 RMSDP=2.58D-07 MaxDP=3.84D-06 DE=-2.07D-08 OVMax= 4.69D-06

 Cycle  10  Pass 1  IDiag  1:
 RMSU=  2.08D-07    CP:  1.00D+00  6.87D-01  8.72D-01
 E= -233.642854324905     Delta-E=       -0.000000000407 Rises=F Damp=F
 DIIS: error= 4.32D-07 at cycle   4 NSaved=   4.
 NSaved= 4 IEnMin= 4 EnMin= -233.642854324905     IErMin= 4 ErrMin= 4.32D-07
 ErrMax= 4.32D-07  0.00D+00 EMaxC= 1.00D-01 BMatC= 2.08D-11 BMatP= 4.37D-10
 IDIUse=1 WtCom= 1.00D+00 WtEn= 0.00D+00
 Coeff-Com:  0.442D-02 0.246D-01 0.228D+00 0.743D+00
 Coeff:      0.442D-02 0.246D-01 0.228D+00 0.743D+00
 Gap=     0.332 Goal=   None    Shift=    0.000
 RMSDP=6.00D-08 MaxDP=1.05D-06 DE=-4.07D-10 OVMax= 9.87D-07

 Cycle  11  Pass 1  IDiag  1:
 RMSU=  3.35D-08    CP:  1.00D+00  6.90D-01  8.98D-01  8.08D-01
 E= -233.642854324919     Delta-E=       -0.000000000014 Rises=F Damp=F
 DIIS: error= 2.06D-07 at cycle   5 NSaved=   5.
 NSaved= 5 IEnMin= 5 EnMin= -233.642854324919     IErMin= 5 ErrMin= 2.06D-07
 ErrMax= 2.06D-07  0.00D+00 EMaxC= 1.00D-01 BMatC= 4.84D-12 BMatP= 2.08D-11
 IDIUse=1 WtCom= 1.00D+00 WtEn= 0.00D+00
 Coeff-Com: -0.217D-02 0.700D-02 0.103D+00 0.434D+00 0.459D+00
 Coeff:     -0.217D-02 0.700D-02 0.103D+00 0.434D+00 0.459D+00
 Gap=     0.332 Goal=   None    Shift=    0.000
 RMSDP=1.89D-08 MaxDP=4.42D-07 DE=-1.43D-11 OVMax= 3.73D-07

 Cycle  12  Pass 1  IDiag  1:
 RMSU=  8.51D-09    CP:  1.00D+00  6.91D-01  8.94D-01  8.02D-01  5.18D-01
 E= -233.642854324923     Delta-E=       -0.000000000004 Rises=F Damp=F
 DIIS: error= 2.06D-08 at cycle   6 NSaved=   6.
 NSaved= 6 IEnMin= 6 EnMin= -233.642854324923     IErMin= 6 ErrMin= 2.06D-08
 ErrMax= 2.06D-08  0.00D+00 EMaxC= 1.00D-01 BMatC= 3.14D-14 BMatP= 4.84D-12
 IDIUse=1 WtCom= 1.00D+00 WtEn= 0.00D+00
 Coeff-Com: -0.719D-03 0.116D-02 0.205D-01 0.938D-01 0.134D+00 0.751D+00
 Coeff:     -0.719D-03 0.116D-02 0.205D-01 0.938D-01 0.134D+00 0.751D+00
 Gap=     0.332 Goal=   None    Shift=    0.000
 RMSDP=2.99D-09 MaxDP=4.00D-08 DE=-3.92D-12 OVMax= 5.45D-08

 SCF Done:  E(RB3LYP) =  -233.642854325     A.U. after   12 cycles
            NFock= 12  Conv=0.30D-08     -V/T= 2.0091
 KE= 2.315418781299D+02 PE=-9.116076209799D+02 EE= 2.623918425089D+02
 Leave Link  502 at Mon Oct 14 01:03:20 2019, MaxMem= 10737418240 cpu:              33.9 elap:               1.5
 (Enter /apps/cent7/gaussian/g16-A.03/g16-haswell/g16/l601.exe)
 Copying SCF densities to generalized density rwf, IOpCl= 0 IROHF=0.

 **********************************************************************

            Population analysis using the SCF density.

 **********************************************************************

 Orbital symmetries:
       Occupied  (A) (A) (A) (A) (A) (A) (A) (A) (A) (A) (A) (A)
                 (A) (A) (A) (A) (A) (A) (A) (A) (A)
       Virtual   (A) (A) (A) (A) (A) (A) (A) (A) (A) (A) (A) (A)
                 (A) (A) (A) (A) (A) (A) (A) (A) (A) (A) (A) (A)
                 (A) (A) (A) (A) (A) (A) (A) (A) (A) (A) (A) (A)
                 (A) (A) (A) (A) (A) (A) (A) (A) (A) (A) (A) (A)
                 (A) (A) (A) (A) (A) (A) (A) (A) (A) (A) (A) (A)
                 (A) (A) (A) (A) (A) (A) (A) (A) (A) (A) (A) (A)
                 (A) (A)
 The electronic state is 1-A.
 Alpha  occ. eigenvalues --  -19.12678 -10.22178 -10.17942 -10.17404 -10.16997
 Alpha  occ. eigenvalues --   -1.00536  -0.78804  -0.71304  -0.62066  -0.56576
 Alpha  occ. eigenvalues --   -0.50039  -0.48756  -0.44432  -0.42103  -0.38647
 Alpha  occ. eigenvalues --   -0.37677  -0.34066  -0.33966  -0.31828  -0.29908
 Alpha  occ. eigenvalues --   -0.25549
 Alpha virt. eigenvalues --    0.07677   0.08709   0.12882   0.13516   0.15114
 Alpha virt. eigenvalues --    0.17316   0.17861   0.18615   0.20141   0.21303
 Alpha virt. eigenvalues --    0.21685   0.24672   0.25455   0.27321   0.50602
 Alpha virt. eigenvalues --    0.51377   0.54947   0.56702   0.60350   0.61583
 Alpha virt. eigenvalues --    0.64512   0.67404   0.69171   0.73430   0.77124
 Alpha virt. eigenvalues --    0.81250   0.84307   0.85678   0.86539   0.89670
 Alpha virt. eigenvalues --    0.90968   0.92220   0.93608   0.95490   0.97084
 Alpha virt. eigenvalues --    0.98446   0.99001   1.02514   1.15106   1.22860
 Alpha virt. eigenvalues --    1.30066   1.37285   1.41029   1.42573   1.53075
 Alpha virt. eigenvalues --    1.58528   1.72667   1.77278   1.87432   1.88301
 Alpha virt. eigenvalues --    1.93142   1.98004   1.99929   2.02251   2.06146
 Alpha virt. eigenvalues --    2.07249   2.13543   2.20661   2.21590   2.29048
 Alpha virt. eigenvalues --    2.31068   2.34134   2.39241   2.44798   2.51116
 Alpha virt. eigenvalues --    2.57876   2.63450   2.77972   2.88975   3.77899
 Alpha virt. eigenvalues --    4.13897   4.26571   4.38535   4.51327
          Condensed to atoms (all electrons):
               1          2          3          4          5          6
     1  C    5.074766   0.367927  -0.037940   0.003723  -0.000037   0.374955
     2  C    0.367927   4.996212   0.355587  -0.032590   0.002327  -0.030433
     3  C   -0.037940   0.355587   5.060765   0.375591  -0.046500   0.003907
     4  C    0.003723  -0.032590   0.375591   4.808713   0.239311  -0.000133
     5  O   -0.000037   0.002327  -0.046500   0.239311   8.293575   0.000000
     6  H    0.374955  -0.030433   0.003907  -0.000133   0.000000   0.574003
     7  H    0.377698  -0.040596  -0.006916   0.000068  -0.000002  -0.029974
     8  H    0.379162  -0.033194  -0.002180  -0.000077   0.000000  -0.029809
     9  H   -0.046501   0.378275  -0.044357  -0.004958  -0.000033  -0.006606
    10  H   -0.044997   0.377559  -0.045404  -0.004392  -0.000022   0.000097
    11  H   -0.002591  -0.044263   0.370975  -0.041869   0.002531  -0.000029
    12  H   -0.006203  -0.039133   0.362027  -0.039530   0.004362   0.000084
    13  H   -0.000057  -0.001616  -0.041821   0.366250  -0.042776   0.000005
    14  H   -0.000146   0.000012  -0.051951   0.367716  -0.051638   0.000006
    15  H    0.000003  -0.000263   0.005953  -0.021541   0.234322  -0.000000
               7          8          9         10         11         12
     1  C    0.377698   0.379162  -0.046501  -0.044997  -0.002591  -0.006203
     2  C   -0.040596  -0.033194   0.378275   0.377559  -0.044263  -0.039133
     3  C   -0.006916  -0.002180  -0.044357  -0.045404   0.370975   0.362027
     4  C    0.000068  -0.000077  -0.004958  -0.004392  -0.041869  -0.039530
     5  O   -0.000002   0.000000  -0.000033  -0.000022   0.002531   0.004362
     6  H   -0.029974  -0.029809  -0.006606   0.000097  -0.000029   0.000084
     7  H    0.571830  -0.028810  -0.000135   0.005891   0.000060   0.006448
     8  H   -0.028810   0.570774   0.005415  -0.007736   0.003225  -0.000234
     9  H   -0.000135   0.005415   0.603428  -0.022858   0.006593  -0.005030
    10  H    0.005891  -0.007736  -0.022858   0.600565  -0.005161   0.006547
    11  H    0.000060   0.003225   0.006593  -0.005161   0.591084  -0.022936
    12  H    0.006448  -0.000234  -0.005030   0.006547  -0.022936   0.594651
    13  H    0.000010   0.000005   0.005553  -0.000459   0.007104  -0.008022
    14  H    0.000012   0.000005  -0.000455   0.005580  -0.008117   0.007313
    15  H    0.000000  -0.000000   0.000003   0.000005  -0.000175  -0.000011
              13         14         15
     1  C   -0.000057  -0.000146   0.000003
     2  C   -0.001616   0.000012  -0.000263
     3  C   -0.041821  -0.051951   0.005953
     4  C    0.366250   0.367716  -0.021541
     5  O   -0.042776  -0.051638   0.234322
     6  H    0.000005   0.000006  -0.000000
     7  H    0.000010   0.000012   0.000000
     8  H    0.000005   0.000005  -0.000000
     9  H    0.005553  -0.000455   0.000003
    10  H   -0.000459   0.005580   0.000005
    11  H    0.007104  -0.008117  -0.000175
    12  H   -0.008022   0.007313  -0.000011
    13  H    0.648344  -0.038833  -0.008248
    14  H   -0.038833   0.650652  -0.000207
    15  H   -0.008248  -0.000207   0.401253
 Mulliken charges:
               1
     1  C   -0.439761
     2  C   -0.255811
     3  C   -0.257736
     4  C   -0.016281
     5  O   -0.635419
     6  H    0.143926
     7  H    0.144414
     8  H    0.143453
     9  H    0.131668
    10  H    0.134785
    11  H    0.143570
    12  H    0.139669
    13  H    0.114564
    14  H    0.120052
    15  H    0.388907
 Sum of Mulliken charges =  -0.00000
 Mulliken charges with hydrogens summed into heavy atoms:
               1
     1  C   -0.007967
     2  C    0.010642
     3  C    0.025502
     4  C    0.218334
     5  O   -0.246512
 Electronic spatial extent (au):  <R**2>=            678.9449
 Charge=             -0.0000 electrons
 Dipole moment (field-independent basis, Debye):
    X=              0.0040    Y=              1.4969    Z=             -0.4537  Tot=              1.5642
 Quadrupole moment (field-independent basis, Debye-Ang):
   XX=            -30.6067   YY=            -34.8152   ZZ=            -31.7223
   XY=              3.8445   XZ=             -1.7049   YZ=             -0.1028
 Traceless Quadrupole moment (field-independent basis, Debye-Ang):
   XX=              1.7747   YY=             -2.4338   ZZ=              0.6591
   XY=              3.8445   XZ=             -1.7049   YZ=             -0.1028
 Octapole moment (field-independent basis, Debye-Ang**2):
  XXX=             33.8481  YYY=             -1.7228  ZZZ=              0.2558  XYY=              2.3200
  XXY=             11.2096  XXZ=             -5.8295  XZZ=              3.2272  YZZ=             -0.0492
  YYZ=             -0.3082  XYZ=              0.0342
 Hexadecapole moment (field-independent basis, Debye-Ang**3):
 XXXX=           -622.5128 YYYY=           -101.5989 ZZZZ=            -60.3877 XXXY=             17.1376
 XXXZ=            -18.2554 YYYX=             -1.7678 YYYZ=              0.2698 ZZZX=             -2.2493
 ZZZY=             -0.3038 XXYY=           -140.5064 XXZZ=           -127.2094 YYZZ=            -25.0540
 XXYZ=             -1.5808 YYXZ=              0.4009 ZZXY=              0.2274
 N-N= 1.840310460162D+02 E-N=-9.116076234361D+02  KE= 2.315418781299D+02
 No NMR shielding tensors so no spin-rotation constants.
 Leave Link  601 at Mon Oct 14 01:03:20 2019, MaxMem= 10737418240 cpu:               2.1 elap:               0.1
 (Enter /apps/cent7/gaussian/g16-A.03/g16-haswell/g16/l701.exe)
 ... and contract with generalized density number  0.
 Compute integral first derivatives.
 Leave Link  701 at Mon Oct 14 01:03:20 2019, MaxMem= 10737418240 cpu:               2.3 elap:               0.1
 (Enter /apps/cent7/gaussian/g16-A.03/g16-haswell/g16/l702.exe)
 L702 exits ... SP integral derivatives will be done elsewhere.
 Leave Link  702 at Mon Oct 14 01:03:20 2019, MaxMem= 10737418240 cpu:               0.9 elap:               0.1
 (Enter /apps/cent7/gaussian/g16-A.03/g16-haswell/g16/l703.exe)
 Integral derivatives from FoFJK, PRISM(SPDF).
 Compute integral first derivatives, UseDBF=F ICtDFT=           0.
 Calling FoFJK, ICntrl=      2127 FMM=F ISym2X=0 I1Cent= 0 IOpClX= 0 NMat=1 NMatS=1 NMatT=0.
 FoFJK:  IHMeth= 1 ICntrl=    2127 DoSepK=F KAlg= 0 I1Cent=           0 FoldK=F
 IRaf=         0 NMat=       1 IRICut=       1 DoRegI=T DoRafI=F ISym2E= 0 IDoP0=0 IntGTp=1.
 FoFCou: FMM=F IPFlag=           0 FMFlag=      100000 FMFlg1=         800
         NFxFlg=           0 DoJE=F BraDBF=F KetDBF=F FulRan=T
         wScrn=  0.000000 ICntrl=      2127 IOpCl=  0 I1Cent=           0 NGrid=           0
         NMat0=    1 NMatS0=      1 NMatT0=    0 NMatD0=    1 NMtDS0=    0 NMtDT0=    0
 Symmetry not used in FoFCou.
 Leave Link  703 at Mon Oct 14 01:03:20 2019, MaxMem= 10737418240 cpu:               8.7 elap:               0.4
 (Enter /apps/cent7/gaussian/g16-A.03/g16-haswell/g16/l716.exe)
 Dipole        = 1.56466536D-03 5.88940444D-01-1.78487176D-01
 ***** Axes restored to original set *****
 -------------------------------------------------------------------
 Center     Atomic                   Forces (Hartrees/Bohr)
 Number     Number              X              Y              Z
 -------------------------------------------------------------------
      1        6           0.001028314    0.008999326    0.009049231
      2        6          -0.011877973    0.014951835   -0.018653572
      3        6           0.011533788   -0.009051594    0.022729566
      4        6          -0.009264875    0.007701682   -0.016125483
      5        8          -0.007653192    0.009811512   -0.021220994
      6        1           0.000803468   -0.003656838   -0.003452937
      7        1          -0.003181162   -0.002737663   -0.004825871
      8        1          -0.000212789   -0.001143830   -0.006145123
      9        1           0.013211290   -0.005042199    0.013380213
     10        1           0.001452729   -0.010725494    0.018577391
     11        1          -0.013829162    0.007218049   -0.012102989
     12        1          -0.001418071    0.010898255   -0.015877906
     13        1           0.013542091   -0.012600606    0.011645328
     14        1           0.004956913   -0.014795838    0.015464146
     15        1           0.000908630    0.000173403    0.007559000
 -------------------------------------------------------------------
 Cartesian Forces:  Max     0.022729566 RMS     0.010900373
 Leave Link  716 at Mon Oct 14 01:03:21 2019, MaxMem= 10737418240 cpu:               1.3 elap:               0.1
 (Enter /apps/cent7/gaussian/g16-A.03/g16-haswell/g16/l103.exe)

 GradGradGradGradGradGradGradGradGradGradGradGradGradGradGradGradGradGrad
 Berny optimization.
 FormGI is forming the generalized inverse of G from B-inverse, IUseBI=4.
 Internal  Forces:  Max     0.019575298 RMS     0.006641344
 Search for a local minimum.
 Step number   1 out of a maximum of   79
 All quantities printed in internal units (Hartrees-Bohrs-Radians)
 RMS Force = .66413D-02 SwitMx=.10000D-02 MixMth= 1
 Mixed Optimization -- RFO/linear search
 Second derivative matrix not updated -- first step.
 ITU=  0
     Eigenvalues ---    0.00230   0.00230   0.00230   0.01403   0.03927
     Eigenvalues ---    0.03961   0.05134   0.05144   0.05519   0.05714
     Eigenvalues ---    0.05715   0.05727   0.07769   0.07821   0.11421
     Eigenvalues ---    0.11792   0.11833   0.13620   0.16000   0.16000
     Eigenvalues ---    0.16000   0.16000   0.22508   0.22516   0.22556
     Eigenvalues ---    0.27560   0.28031   0.28183   0.34806   0.34807
     Eigenvalues ---    0.34807   0.34809   0.34813   0.34813   0.34815
     Eigenvalues ---    0.34818   0.34823   0.42188   0.55477
 RFO step:  Lambda=-2.25465797D-02 EMin= 2.30000000D-03
 Linear search not attempted -- first point.
 Maximum step size (   0.300) exceeded in Quadratic search.
    -- Step size scaled by   0.945
 Iteration  1 RMS(Cart)=  0.05412781 RMS(Int)=  0.00164556
 Iteration  2 RMS(Cart)=  0.00166073 RMS(Int)=  0.00042504
 Iteration  3 RMS(Cart)=  0.00000053 RMS(Int)=  0.00042504
 ITry= 1 IFail=0 DXMaxC= 1.71D-01 DCOld= 1.00D+10 DXMaxT= 3.00D-01 DXLimC= 3.00D+00 Rises=F
 Variable       Old X    -DE/DX   Delta X   Delta X   Delta X     New X
                                 (Linear)    (Quad)   (Total)
    R1        2.91740   0.00413   0.00000   0.01283   0.01283   2.93023
    R2        2.05989   0.00305   0.00000   0.00778   0.00778   2.06767
    R3        2.05987   0.00403   0.00000   0.01028   0.01028   2.07015
    R4        2.05979   0.00347   0.00000   0.00885   0.00885   2.06864
    R5        2.93110   0.00012   0.00000   0.00039   0.00039   2.93149
    R6        2.05990   0.00369   0.00000   0.00942   0.00942   2.06931
    R7        2.05971   0.00351   0.00000   0.00895   0.00895   2.06866
    R8        2.92072  -0.00677   0.00000  -0.02111  -0.02111   2.89960
    R9        2.05980   0.00349   0.00000   0.00890   0.00890   2.06870
   R10        2.05976   0.00308   0.00000   0.00785   0.00785   2.06761
   R11        2.68684   0.01283   0.00000   0.02728   0.02728   2.71412
   R12        2.05963   0.00553   0.00000   0.01408   0.01408   2.07372
   R13        2.05992   0.00602   0.00000   0.01536   0.01536   2.07527
   R14        1.81410   0.00682   0.00000   0.01116   0.01116   1.82527
    A1        1.91069   0.00347   0.00000   0.01757   0.01733   1.92802
    A2        1.91069   0.00519   0.00000   0.02709   0.02675   1.93744
    A3        1.91072   0.00547   0.00000   0.02855   0.02820   1.93892
    A4        1.91055  -0.00441   0.00000  -0.02324  -0.02346   1.88709
    A5        1.91058  -0.00455   0.00000  -0.02400  -0.02424   1.88634
    A6        1.91056  -0.00518   0.00000  -0.02597  -0.02639   1.88417
    A7        1.96214  -0.01131   0.00000  -0.01930  -0.01954   1.94261
    A8        1.85105   0.00580   0.00000   0.03987   0.03979   1.89084
    A9        1.85109   0.00581   0.00000   0.03885   0.03882   1.88991
   A10        1.85404   0.00562   0.00000   0.03772   0.03763   1.89167
   A11        1.85413   0.00536   0.00000   0.03495   0.03491   1.88904
   A12        2.09438  -0.01276   0.00000  -0.13432  -0.13383   1.96055
   A13        1.96796  -0.01322   0.00000  -0.02839  -0.02828   1.93968
   A14        1.85241   0.00710   0.00000   0.04814   0.04826   1.90066
   A15        1.85248   0.00691   0.00000   0.04698   0.04709   1.89957
   A16        1.85022   0.00482   0.00000   0.02733   0.02748   1.87770
   A17        1.85008   0.00504   0.00000   0.02892   0.02905   1.87913
   A18        2.09448  -0.01245   0.00000  -0.12707  -0.12689   1.96759
   A19        1.92046  -0.01958   0.00000  -0.05166  -0.05074   1.86972
   A20        1.88657   0.00419   0.00000   0.00650   0.00679   1.89336
   A21        1.88650   0.00484   0.00000   0.00925   0.00953   1.89604
   A22        1.83574   0.01206   0.00000   0.08831   0.08825   1.92399
   A23        1.83552   0.01125   0.00000   0.08166   0.08161   1.91713
   A24        2.09449  -0.01460   0.00000  -0.13129  -0.13351   1.96097
   A25        1.91065  -0.00592   0.00000  -0.03065  -0.03065   1.88000
    D1       -2.79148  -0.00091   0.00000  -0.03200  -0.03201  -2.82349
    D2       -0.77246   0.00343   0.00000   0.02702   0.02713  -0.74533
    D3        1.47254  -0.00495   0.00000  -0.08710  -0.08720   1.38535
    D4       -0.69711  -0.00100   0.00000  -0.03312  -0.03317  -0.73029
    D5        1.32191   0.00334   0.00000   0.02591   0.02596   1.34787
    D6       -2.71627  -0.00504   0.00000  -0.08821  -0.08836  -2.80464
    D7        1.39728  -0.00081   0.00000  -0.03085  -0.03081   1.36647
    D8       -2.86688   0.00353   0.00000   0.02817   0.02832  -2.83856
    D9       -0.62188  -0.00485   0.00000  -0.08595  -0.08601  -0.70789
   D10        3.14155   0.00019   0.00000   0.00496   0.00497  -3.13667
   D11       -1.12336   0.00338   0.00000   0.05212   0.05213  -1.07124
   D12        1.12340  -0.00314   0.00000  -0.04339  -0.04339   1.08001
   D13        1.12432  -0.00424   0.00000  -0.05537  -0.05547   1.06885
   D14       -3.14059  -0.00105   0.00000  -0.00822  -0.00832   3.13428
   D15       -0.89382  -0.00757   0.00000  -0.10373  -0.10383  -0.99765
   D16       -1.12431   0.00448   0.00000   0.06243   0.06252  -1.06179
   D17        0.89396   0.00767   0.00000   0.10958   0.10967   1.00363
   D18        3.14072   0.00114   0.00000   0.01407   0.01416  -3.12830
   D19        3.14150  -0.00022   0.00000  -0.00393  -0.00393   3.13757
   D20       -1.14586   0.00614   0.00000   0.07733   0.07697  -1.06889
   D21        1.14596  -0.00597   0.00000  -0.07881  -0.07844   1.06752
   D22        1.12191  -0.00479   0.00000  -0.06356  -0.06358   1.05833
   D23        3.11774   0.00156   0.00000   0.01770   0.01732   3.13507
   D24       -0.87362  -0.01054   0.00000  -0.13844  -0.13809  -1.01172
   D25       -1.12210   0.00425   0.00000   0.05527   0.05528  -1.06683
   D26        0.87373   0.01061   0.00000   0.13653   0.13618   1.00991
   D27       -3.11764  -0.00150   0.00000  -0.01962  -0.01924  -3.13687
   D28        2.83029   0.00041   0.00000   0.01359   0.01357   2.84386
   D29        0.80228  -0.00157   0.00000  -0.01679  -0.01527   0.78701
   D30       -1.42509   0.00272   0.00000   0.04359   0.04209  -1.38301
         Item               Value     Threshold  Converged?
 Maximum Force            0.019575     0.000450     NO 
 RMS     Force            0.006641     0.000300     NO 
 Maximum Displacement     0.170861     0.001800     NO 
 RMS     Displacement     0.053955     0.001200     NO 
 Predicted change in Energy=-1.359955D-02
 Lowest energy point so far.  Saving SCF results.
 GradGradGradGradGradGradGradGradGradGradGradGradGradGradGradGradGradGrad

 Leave Link  103 at Mon Oct 14 01:03:21 2019, MaxMem= 10737418240 cpu:               1.4 elap:               0.1
 (Enter /apps/cent7/gaussian/g16-A.03/g16-haswell/g16/l202.exe)
                          Input orientation:                          
 ---------------------------------------------------------------------
 Center     Atomic      Atomic             Coordinates (Angstroms)
 Number     Number       Type             X           Y           Z
 ---------------------------------------------------------------------
      1          6           0        2.243555   -0.740964   -1.247749
      2          6           0        2.442154    0.004744    0.097196
      3          6           0        1.933184    1.467616    0.011024
      4          6           0        2.137899    2.203924    1.341566
      5          8           0        1.645735    3.541588    1.164805
      6          1           0        2.295397   -1.823363   -1.096375
      7          1           0        1.268431   -0.504726   -1.687508
      8          1           0        3.016444   -0.461673   -1.970906
      9          1           0        1.865722   -0.516609    0.868566
     10          1           0        3.513181    0.027421    0.322416
     11          1           0        2.509366    1.999096   -0.753130
     12          1           0        0.859750    1.456311   -0.200477
     13          1           0        1.560289    1.686448    2.117963
     14          1           0        3.212377    2.228810    1.567151
     15          1           0        1.515915    3.925278    2.041658
 ---------------------------------------------------------------------
                    Distance matrix (angstroms):
                    1          2          3          4          5
     1  C    0.000000
     2  C    1.550613   0.000000
     3  C    2.560989   1.551280   0.000000
     4  C    3.922764   2.545077   1.534405   0.000000
     5  O    4.951571   3.779330   2.390648   1.436251   0.000000
     6  H    1.094162   2.188179   3.491142   4.710350   5.858131
     7  H    1.095474   2.195986   2.686455   4.155484   4.964948
     8  H    1.094676   2.196452   2.970464   4.341627   5.266653
     9  H    2.161454   1.095033   2.162656   2.774727   4.074938
    10  H    2.160505   1.094686   2.160443   2.768976   4.067720
    11  H    2.797003   2.169103   1.094708   2.137216   2.608374
    12  H    2.799949   2.167869   1.094130   2.137869   2.613455
    13  H    4.205615   2.772961   2.150844   1.097364   2.087429
    14  H    4.204978   2.774974   2.153435   1.098186   2.083180
    15  H    5.755299   4.473190   3.215228   1.959605   0.965889
                    6          7          8          9         10
     6  H    0.000000
     7  H    1.772823   0.000000
     8  H    1.771698   1.771361   0.000000
     9  H    2.398587   2.624960   3.064276   0.000000
    10  H    2.630849   3.059718   2.396933   1.818893   0.000000
    11  H    3.843799   2.946541   2.792041   3.061527   2.460069
    12  H    3.690525   2.494784   3.385914   2.459115   3.058731
    13  H    4.815717   4.400913   4.842899   2.551028   3.128921
    14  H    4.935112   4.673752   4.449151   3.136691   2.546755
    15  H    6.595583   5.795935   6.131688   4.607480   4.705119
                   11         12         13         14         15
    11  H    0.000000
    12  H    1.822436   0.000000
    13  H    3.040012   2.432875   0.000000
    14  H    2.435302   3.042387   1.823992   0.000000
    15  H    3.536659   3.399047   2.240569   2.445637   0.000000
 Stoichiometry    C4H10O
 Framework group  C1[X(C4H10O)]
 Deg. of freedom    39
 Full point group                 C1      NOp   1
 RotChk:  IX=0 Diff= 1.26D-02
 Largest Abelian subgroup         C1      NOp   1
 Largest concise Abelian subgroup C1      NOp   1
                         Standard orientation:                         
 ---------------------------------------------------------------------
 Center     Atomic      Atomic             Coordinates (Angstroms)
 Number     Number       Type             X           Y           Z
 ---------------------------------------------------------------------
      1          6           0       -2.524422   -0.300928   -0.007631
      2          6           0       -1.226396    0.547290   -0.000297
      3          6           0        0.035996   -0.354283    0.001431
      4          6           0        1.317958    0.488785    0.015744
      5          8           0        2.425491   -0.425626    0.021906
      6          1           0       -3.376165    0.305847   -0.329419
      7          1           0       -2.433940   -1.151383   -0.692177
      8          1           0       -2.744426   -0.693035    0.990450
      9          1           0       -1.211001    1.161356   -0.906819
     10          1           0       -1.216564    1.152168    0.912043
     11          1           0        0.032941   -0.966952    0.908632
     12          1           0        0.043129   -0.953912   -0.913728
     13          1           0        1.339357    1.104779   -0.892167
     14          1           0        1.329460    1.094407    0.931769
     15          1           0        3.214459    0.066549   -0.239311
 ---------------------------------------------------------------------
 Rotational constants (GHZ):          18.4112620           1.9595906           1.8578807
 Leave Link  202 at Mon Oct 14 01:03:21 2019, MaxMem= 10737418240 cpu:               0.2 elap:               0.0
 (Enter /apps/cent7/gaussian/g16-A.03/g16-haswell/g16/l301.exe)
 Standard basis: 6-31G(d) (6D, 7F)
 Ernie: Thresh=  0.10000D-02 Tol=  0.10000D-05 Strict=F.
 There are    95 symmetry adapted cartesian basis functions of A   symmetry.
 There are    95 symmetry adapted basis functions of A   symmetry.
    95 basis functions,   180 primitive gaussians,    95 cartesian basis functions
    21 alpha electrons       21 beta electrons
       nuclear repulsion energy       183.9911137111 Hartrees.
 IExCor=  402 DFT=T Ex+Corr=B3LYP ExCW=0 ScaHFX=  0.200000
 ScaDFX=  0.800000  0.720000  1.000000  0.810000 ScalE2=  1.000000  1.000000
 IRadAn=      5 IRanWt=     -1 IRanGd=            0 ICorTp=0 IEmpDi=  4
 NAtoms=   15 NActive=   15 NUniq=   15 SFac= 1.00D+00 NAtFMM=   60 NAOKFM=F Big=F
 Integral buffers will be    131072 words long.
 Raffenetti 2 integral format.
 Two-electron integral symmetry is turned on.
 Leave Link  301 at Mon Oct 14 01:03:21 2019, MaxMem= 10737418240 cpu:               1.7 elap:               0.1
 (Enter /apps/cent7/gaussian/g16-A.03/g16-haswell/g16/l302.exe)
 NPDir=0 NMtPBC=     1 NCelOv=     1 NCel=       1 NClECP=     1 NCelD=      1
         NCelK=      1 NCelE2=     1 NClLst=     1 CellRange=     0.0.
 One-electron integrals computed using PRISM.
 One-electron integral symmetry used in STVInt
 NBasis=    95 RedAO= T EigKep=  3.70D-03  NBF=    95
 NBsUse=    95 1.00D-06 EigRej= -1.00D+00 NBFU=    95
 Precomputing XC quadrature grid using
 IXCGrd= 4 IRadAn=           5 IRanWt=          -1 IRanGd=           0 AccXCQ= 0.00D+00.
 Generated NRdTot=       0 NPtTot=           0 NUsed=           0 NTot=          32
 NSgBfM=    95    95    95    95    95 MxSgAt=    15 MxSgA2=    15.
 Leave Link  302 at Mon Oct 14 01:03:21 2019, MaxMem= 10737418240 cpu:               2.7 elap:               0.1
 (Enter /apps/cent7/gaussian/g16-A.03/g16-haswell/g16/l303.exe)
 DipDrv:  MaxL=1.
 Leave Link  303 at Mon Oct 14 01:03:21 2019, MaxMem= 10737418240 cpu:               1.3 elap:               0.1
 (Enter /apps/cent7/gaussian/g16-A.03/g16-haswell/g16/l401.exe)
 Initial guess from the checkpoint file:  "20.chk"
 B after Tr=     0.000000    0.000000    0.000000
         Rot=    0.999997   -0.002317   -0.000214   -0.000516 Ang=  -0.27 deg.
 Guess basis will be translated and rotated to current coordinates.
 JPrj=2 DoOrth=T DoCkMO=T.
 Generating alternative initial guess.
 ExpMin= 1.61D-01 ExpMax= 5.48D+03 ExpMxC= 8.25D+02 IAcc=2 IRadAn=         4 AccDes= 0.00D+00
 Harris functional with IExCor=  402 and IRadAn=       4 diagonalized for initial guess.
 HarFok:  IExCor=  402 AccDes= 0.00D+00 IRadAn=         4 IDoV= 1 UseB2=F ITyADJ=14
 ICtDFT=  3500011 ScaDFX=  1.000000  1.000000  1.000000  1.000000
 FoFCou: FMM=F IPFlag=           0 FMFlag=      100000 FMFlg1=           0
         NFxFlg=           0 DoJE=T BraDBF=F KetDBF=T FulRan=T
         wScrn=  0.000000 ICntrl=       500 IOpCl=  0 I1Cent=   200000004 NGrid=           0
         NMat0=    1 NMatS0=      1 NMatT0=    0 NMatD0=    1 NMtDS0=    0 NMtDT0=    0
 Petite list used in FoFCou.
 Harris En= -233.715461538785    
 Leave Link  401 at Mon Oct 14 01:03:21 2019, MaxMem= 10737418240 cpu:               5.0 elap:               0.2
 (Enter /apps/cent7/gaussian/g16-A.03/g16-haswell/g16/l502.exe)
 Integral symmetry usage will be decided dynamically.
 Closed shell SCF:
 Using DIIS extrapolation, IDIIS=  1040.
 NGot= 10737418240 LenX= 10737396568 LenY= 10737387102
 Requested convergence on RMS density matrix=1.00D-08 within 128 cycles.
 Requested convergence on MAX density matrix=1.00D-06.
 Requested convergence on             energy=1.00D-06.
 No special actions if energy rises.
 Fock matrices will be formed incrementally for  20 cycles.
 Integral accuracy reduced to 1.0D-05 until final iterations.

 Cycle   1  Pass 0  IDiag  1:
 FoFJK:  IHMeth= 1 ICntrl=       0 DoSepK=F KAlg= 0 I1Cent=           0 FoldK=F
 IRaf= 970000000 NMat=       1 IRICut=       1 DoRegI=T DoRafI=F ISym2E= 0 IDoP0=0 IntGTp=1.
 FoFCou: FMM=F IPFlag=           0 FMFlag=      100000 FMFlg1=           0
         NFxFlg=           0 DoJE=F BraDBF=F KetDBF=F FulRan=T
         wScrn=  0.000000 ICntrl=         0 IOpCl=  0 I1Cent=           0 NGrid=           0
         NMat0=    1 NMatS0=      1 NMatT0=    0 NMatD0=    1 NMtDS0=    0 NMtDT0=    0
 Symmetry not used in FoFCou.
 E= -233.654777153850    
 DIIS: error= 3.14D-03 at cycle   1 NSaved=   1.
 NSaved= 1 IEnMin= 1 EnMin= -233.654777153850     IErMin= 1 ErrMin= 3.14D-03
 ErrMax= 3.14D-03  0.00D+00 EMaxC= 1.00D-01 BMatC= 1.23D-03 BMatP= 1.23D-03
 IDIUse=3 WtCom= 9.69D-01 WtEn= 3.14D-02
 Coeff-Com:  0.100D+01
 Coeff-En:   0.100D+01
 Coeff:      0.100D+01
 Gap=     1.861 Goal=   None    Shift=    0.000
 GapD=    1.861 DampG=2.000 DampE=1.000 DampFc=2.0000 IDamp=-1.
 RMSDP=6.40D-04 MaxDP=7.17D-03              OVMax= 1.08D-02

 Cycle   2  Pass 0  IDiag  1:
 RMSU=  6.40D-04    CP:  1.00D+00
 E= -233.656626698886     Delta-E=       -0.001849545036 Rises=F Damp=F
 DIIS: error= 4.50D-04 at cycle   2 NSaved=   2.
 NSaved= 2 IEnMin= 2 EnMin= -233.656626698886     IErMin= 2 ErrMin= 4.50D-04
 ErrMax= 4.50D-04  0.00D+00 EMaxC= 1.00D-01 BMatC= 4.06D-05 BMatP= 1.23D-03
 IDIUse=3 WtCom= 9.95D-01 WtEn= 4.50D-03
 Coeff-Com:  0.368D-01 0.963D+00
 Coeff-En:   0.000D+00 0.100D+01
 Coeff:      0.366D-01 0.963D+00
 Gap=     0.339 Goal=   None    Shift=    0.000
 RMSDP=1.18D-04 MaxDP=1.93D-03 DE=-1.85D-03 OVMax= 2.12D-03

 Cycle   3  Pass 0  IDiag  1:
 RMSU=  1.17D-04    CP:  1.00D+00  1.02D+00
 E= -233.656646247946     Delta-E=       -0.000019549060 Rises=F Damp=F
 DIIS: error= 5.98D-04 at cycle   3 NSaved=   3.
 NSaved= 3 IEnMin= 3 EnMin= -233.656646247946     IErMin= 2 ErrMin= 4.50D-04
 ErrMax= 5.98D-04  0.00D+00 EMaxC= 1.00D-01 BMatC= 2.75D-05 BMatP= 4.06D-05
 IDIUse=3 WtCom= 9.94D-01 WtEn= 5.98D-03
 Coeff-Com: -0.145D-01 0.446D+00 0.568D+00
 Coeff-En:   0.000D+00 0.316D+00 0.684D+00
 Coeff:     -0.144D-01 0.446D+00 0.569D+00
 Gap=     0.339 Goal=   None    Shift=    0.000
 RMSDP=5.63D-05 MaxDP=1.09D-03 DE=-1.95D-05 OVMax= 1.14D-03

 Cycle   4  Pass 0  IDiag  1:
 RMSU=  3.36D-05    CP:  1.00D+00  1.04D+00  6.29D-01
 E= -233.656670989410     Delta-E=       -0.000024741464 Rises=F Damp=F
 DIIS: error= 1.09D-04 at cycle   4 NSaved=   4.
 NSaved= 4 IEnMin= 4 EnMin= -233.656670989410     IErMin= 4 ErrMin= 1.09D-04
 ErrMax= 1.09D-04  0.00D+00 EMaxC= 1.00D-01 BMatC= 1.61D-06 BMatP= 2.75D-05
 IDIUse=3 WtCom= 9.99D-01 WtEn= 1.09D-03
 Coeff-Com: -0.845D-02 0.113D+00 0.246D+00 0.650D+00
 Coeff-En:   0.000D+00 0.000D+00 0.000D+00 0.100D+01
 Coeff:     -0.844D-02 0.113D+00 0.246D+00 0.650D+00
 Gap=     0.339 Goal=   None    Shift=    0.000
 RMSDP=1.50D-05 MaxDP=2.84D-04 DE=-2.47D-05 OVMax= 3.34D-04

 Cycle   5  Pass 0  IDiag  1:
 RMSU=  8.74D-06    CP:  1.00D+00  1.04D+00  6.53D-01  6.70D-01
 E= -233.656672319615     Delta-E=       -0.000001330205 Rises=F Damp=F
 DIIS: error= 4.39D-05 at cycle   5 NSaved=   5.
 NSaved= 5 IEnMin= 5 EnMin= -233.656672319615     IErMin= 5 ErrMin= 4.39D-05
 ErrMax= 4.39D-05  0.00D+00 EMaxC= 1.00D-01 BMatC= 1.78D-07 BMatP= 1.61D-06
 IDIUse=1 WtCom= 1.00D+00 WtEn= 0.00D+00
 Coeff-Com: -0.371D-02 0.344D-01 0.959D-01 0.339D+00 0.534D+00
 Coeff:     -0.371D-02 0.344D-01 0.959D-01 0.339D+00 0.534D+00
 Gap=     0.339 Goal=   None    Shift=    0.000
 RMSDP=4.38D-06 MaxDP=1.01D-04 DE=-1.33D-06 OVMax= 9.10D-05

 Initial convergence to 1.0D-05 achieved.  Increase integral accuracy.
 Cycle   6  Pass 1  IDiag  1:
 E= -233.656663787468     Delta-E=        0.000008532146 Rises=F Damp=F
 DIIS: error= 8.45D-06 at cycle   1 NSaved=   1.
 NSaved= 1 IEnMin= 1 EnMin= -233.656663787468     IErMin= 1 ErrMin= 8.45D-06
 ErrMax= 8.45D-06  0.00D+00 EMaxC= 1.00D-01 BMatC= 1.14D-08 BMatP= 1.14D-08
 IDIUse=1 WtCom= 1.00D+00 WtEn= 0.00D+00
 Coeff-Com:  0.100D+01
 Coeff:      0.100D+01
 Gap=     0.339 Goal=   None    Shift=    0.000
 RMSDP=4.38D-06 MaxDP=1.01D-04 DE= 8.53D-06 OVMax= 3.50D-05

 Cycle   7  Pass 1  IDiag  1:
 RMSU=  2.55D-06    CP:  1.00D+00
 E= -233.656663785052     Delta-E=        0.000000002417 Rises=F Damp=F
 DIIS: error= 1.21D-05 at cycle   2 NSaved=   2.
 NSaved= 2 IEnMin= 1 EnMin= -233.656663787468     IErMin= 1 ErrMin= 8.45D-06
 ErrMax= 1.21D-05  0.00D+00 EMaxC= 1.00D-01 BMatC= 1.58D-08 BMatP= 1.14D-08
 IDIUse=1 WtCom= 1.00D+00 WtEn= 0.00D+00
 Coeff-Com:  0.544D+00 0.456D+00
 Coeff:      0.544D+00 0.456D+00
 Gap=     0.339 Goal=   None    Shift=    0.000
 RMSDP=1.17D-06 MaxDP=2.60D-05 DE= 2.42D-09 OVMax= 2.30D-05

 Cycle   8  Pass 1  IDiag  1:
 RMSU=  8.62D-07    CP:  1.00D+00  6.92D-01
 E= -233.656663797147     Delta-E=       -0.000000012095 Rises=F Damp=F
 DIIS: error= 1.62D-06 at cycle   3 NSaved=   3.
 NSaved= 3 IEnMin= 3 EnMin= -233.656663797147     IErMin= 3 ErrMin= 1.62D-06
 ErrMax= 1.62D-06  0.00D+00 EMaxC= 1.00D-01 BMatC= 3.38D-10 BMatP= 1.14D-08
 IDIUse=1 WtCom= 1.00D+00 WtEn= 0.00D+00
 Coeff-Com:  0.114D+00 0.164D+00 0.722D+00
 Coeff:      0.114D+00 0.164D+00 0.722D+00
 Gap=     0.339 Goal=   None    Shift=    0.000
 RMSDP=2.35D-07 MaxDP=4.69D-06 DE=-1.21D-08 OVMax= 4.96D-06

 Cycle   9  Pass 1  IDiag  1:
 RMSU=  2.00D-07    CP:  1.00D+00  7.08D-01  8.67D-01
 E= -233.656663797353     Delta-E=       -0.000000000206 Rises=F Damp=F
 DIIS: error= 8.73D-07 at cycle   4 NSaved=   4.
 NSaved= 4 IEnMin= 4 EnMin= -233.656663797353     IErMin= 4 ErrMin= 8.73D-07
 ErrMax= 8.73D-07  0.00D+00 EMaxC= 1.00D-01 BMatC= 6.65D-11 BMatP= 3.38D-10
 IDIUse=1 WtCom= 1.00D+00 WtEn= 0.00D+00
 Coeff-Com:  0.782D-02 0.398D-01 0.369D+00 0.583D+00
 Coeff:      0.782D-02 0.398D-01 0.369D+00 0.583D+00
 Gap=     0.339 Goal=   None    Shift=    0.000
 RMSDP=8.12D-08 MaxDP=1.52D-06 DE=-2.06D-10 OVMax= 1.59D-06

 Cycle  10  Pass 1  IDiag  1:
 RMSU=  4.28D-08    CP:  1.00D+00  7.14D-01  8.91D-01  6.83D-01
 E= -233.656663797412     Delta-E=       -0.000000000059 Rises=F Damp=F
 DIIS: error= 1.21D-07 at cycle   5 NSaved=   5.
 NSaved= 5 IEnMin= 5 EnMin= -233.656663797412     IErMin= 5 ErrMin= 1.21D-07
 ErrMax= 1.21D-07  0.00D+00 EMaxC= 1.00D-01 BMatC= 2.06D-12 BMatP= 6.65D-11
 IDIUse=1 WtCom= 1.00D+00 WtEn= 0.00D+00
 Coeff-Com: -0.309D-02 0.761D-02 0.117D+00 0.241D+00 0.637D+00
 Coeff:     -0.309D-02 0.761D-02 0.117D+00 0.241D+00 0.637D+00
 Gap=     0.339 Goal=   None    Shift=    0.000
 RMSDP=1.64D-08 MaxDP=2.36D-07 DE=-5.92D-11 OVMax= 3.21D-07

 Cycle  11  Pass 1  IDiag  1:
 RMSU=  8.49D-09    CP:  1.00D+00  7.15D-01  8.95D-01  6.87D-01  6.85D-01
 E= -233.656663797415     Delta-E=       -0.000000000004 Rises=F Damp=F
 DIIS: error= 1.35D-08 at cycle   6 NSaved=   6.
 NSaved= 6 IEnMin= 6 EnMin= -233.656663797415     IErMin= 6 ErrMin= 1.35D-08
 ErrMax= 1.35D-08  0.00D+00 EMaxC= 1.00D-01 BMatC= 2.16D-14 BMatP= 2.06D-12
 IDIUse=1 WtCom= 1.00D+00 WtEn= 0.00D+00
 Coeff-Com: -0.924D-03 0.109D-02 0.217D-01 0.458D-01 0.154D+00 0.778D+00
 Coeff:     -0.924D-03 0.109D-02 0.217D-01 0.458D-01 0.154D+00 0.778D+00
 Gap=     0.339 Goal=   None    Shift=    0.000
 RMSDP=2.45D-09 MaxDP=3.69D-08 DE=-3.69D-12 OVMax= 5.01D-08

 SCF Done:  E(RB3LYP) =  -233.656663797     A.U. after   11 cycles
            NFock= 11  Conv=0.25D-08     -V/T= 2.0096
 KE= 2.314259036160D+02 PE=-9.114476618941D+02 EE= 2.623739807696D+02
 Leave Link  502 at Mon Oct 14 01:03:23 2019, MaxMem= 10737418240 cpu:              31.6 elap:               1.3
 (Enter /apps/cent7/gaussian/g16-A.03/g16-haswell/g16/l701.exe)
 ... and contract with generalized density number  0.
 Compute integral first derivatives.
 Leave Link  701 at Mon Oct 14 01:03:23 2019, MaxMem= 10737418240 cpu:               2.2 elap:               0.1
 (Enter /apps/cent7/gaussian/g16-A.03/g16-haswell/g16/l702.exe)
 L702 exits ... SP integral derivatives will be done elsewhere.
 Leave Link  702 at Mon Oct 14 01:03:23 2019, MaxMem= 10737418240 cpu:               1.2 elap:               0.1
 (Enter /apps/cent7/gaussian/g16-A.03/g16-haswell/g16/l703.exe)
 Integral derivatives from FoFJK, PRISM(SPDF).
 Compute integral first derivatives, UseDBF=F ICtDFT=           0.
 Calling FoFJK, ICntrl=      2127 FMM=F ISym2X=0 I1Cent= 0 IOpClX= 0 NMat=1 NMatS=1 NMatT=0.
 FoFJK:  IHMeth= 1 ICntrl=    2127 DoSepK=F KAlg= 0 I1Cent=           0 FoldK=F
 IRaf=         0 NMat=       1 IRICut=       1 DoRegI=T DoRafI=F ISym2E= 0 IDoP0=0 IntGTp=1.
 FoFCou: FMM=F IPFlag=           0 FMFlag=      100000 FMFlg1=         800
         NFxFlg=           0 DoJE=F BraDBF=F KetDBF=F FulRan=T
         wScrn=  0.000000 ICntrl=      2127 IOpCl=  0 I1Cent=           0 NGrid=           0
         NMat0=    1 NMatS0=      1 NMatT0=    0 NMatD0=    1 NMtDS0=    0 NMtDT0=    0
 Symmetry not used in FoFCou.
 Leave Link  703 at Mon Oct 14 01:03:23 2019, MaxMem= 10737418240 cpu:               8.4 elap:               0.4
 (Enter /apps/cent7/gaussian/g16-A.03/g16-haswell/g16/l716.exe)
 Dipole        = 2.90205919D-02 5.93510107D-01-1.70799005D-01
 ***** Axes restored to original set *****
 -------------------------------------------------------------------
 Center     Atomic                   Forces (Hartrees/Bohr)
 Number     Number              X              Y              Z
 -------------------------------------------------------------------
      1        6           0.001745349    0.002191637    0.007454518
      2        6          -0.009383962    0.009054309   -0.019469292
      3        6           0.010086361   -0.010434452    0.016182782
      4        6          -0.007695207    0.007752501   -0.016292862
      5        8           0.000400381   -0.004328260   -0.000518068
      6        1           0.000814726   -0.001316819   -0.001693681
      7        1          -0.000717678   -0.000995857   -0.000020385
      8        1          -0.000357597    0.000608749   -0.001213198
      9        1           0.005753614   -0.001299516    0.004727838
     10        1          -0.000466618   -0.005115678    0.007796728
     11        1          -0.006608685    0.002025832   -0.004635236
     12        1           0.000612110    0.004342037   -0.006709226
     13        1           0.004970233   -0.001276296    0.004815175
     14        1           0.000036386   -0.003038063    0.007118704
     15        1           0.000810586    0.001829875    0.002456203
 -------------------------------------------------------------------
 Cartesian Forces:  Max     0.019469292 RMS     0.006489272
 Leave Link  716 at Mon Oct 14 01:03:23 2019, MaxMem= 10737418240 cpu:               0.5 elap:               0.0
 (Enter /apps/cent7/gaussian/g16-A.03/g16-haswell/g16/l103.exe)

 GradGradGradGradGradGradGradGradGradGradGradGradGradGradGradGradGradGrad
 Berny optimization.
 Using GEDIIS/GDIIS optimizer.
 FormGI is forming the generalized inverse of G from B-inverse, IUseBI=4.
 Internal  Forces:  Max     0.005512133 RMS     0.002184218
 Search for a local minimum.
 Step number   2 out of a maximum of   79
 All quantities printed in internal units (Hartrees-Bohrs-Radians)
 RMS Force = .21842D-02 SwitMx=.10000D-02 MixMth= 1
 Mixed Optimization -- RFO/linear search
 Update second derivatives using D2CorX and points    1    2
 DE= -1.38D-02 DEPred=-1.36D-02 R= 1.02D+00
 TightC=F SS=  1.41D+00  RLast= 4.60D-01 DXNew= 5.0454D-01 1.3798D+00
 Trust test= 1.02D+00 RLast= 4.60D-01 DXMaxT set to 5.05D-01
 ITU=  1  0
 Use linear search instead of GDIIS.
     Eigenvalues ---    0.00230   0.00230   0.00231   0.01398   0.03778
     Eigenvalues ---    0.03812   0.04181   0.04947   0.05431   0.05489
     Eigenvalues ---    0.05544   0.05932   0.07803   0.07839   0.11015
     Eigenvalues ---    0.11814   0.11847   0.13489   0.15896   0.16000
     Eigenvalues ---    0.16000   0.16204   0.22100   0.22138   0.23903
     Eigenvalues ---    0.27672   0.27960   0.29118   0.34649   0.34806
     Eigenvalues ---    0.34807   0.34811   0.34813   0.34815   0.34815
     Eigenvalues ---    0.34821   0.34829   0.43211   0.55344
 RFO step:  Lambda=-4.03567999D-03 EMin= 2.29986943D-03
 Quartic linear search produced a step of  0.42842.
 Iteration  1 RMS(Cart)=  0.05493419 RMS(Int)=  0.00236856
 Iteration  2 RMS(Cart)=  0.00251006 RMS(Int)=  0.00042504
 Iteration  3 RMS(Cart)=  0.00000436 RMS(Int)=  0.00042503
 Iteration  4 RMS(Cart)=  0.00000000 RMS(Int)=  0.00042503
 ITry= 1 IFail=0 DXMaxC= 2.10D-01 DCOld= 1.00D+10 DXMaxT= 5.05D-01 DXLimC= 3.00D+00 Rises=F
 Variable       Old X    -DE/DX   Delta X   Delta X   Delta X     New X
                                 (Linear)    (Quad)   (Total)
    R1        2.93023  -0.00435   0.00550  -0.02614  -0.02065   2.90959
    R2        2.06767   0.00111   0.00333   0.00157   0.00490   2.07257
    R3        2.07015   0.00043   0.00440  -0.00204   0.00237   2.07251
    R4        2.06864   0.00070   0.00379  -0.00043   0.00337   2.07200
    R5        2.93149  -0.00394   0.00017  -0.01993  -0.01977   2.91173
    R6        2.06931   0.00092   0.00403   0.00023   0.00426   2.07357
    R7        2.06866   0.00104   0.00383   0.00088   0.00472   2.07337
    R8        2.89960  -0.00185  -0.00905  -0.00128  -0.01033   2.88928
    R9        2.06870   0.00074   0.00381  -0.00030   0.00351   2.07221
   R10        2.06761   0.00065   0.00336  -0.00027   0.00309   2.07070
   R11        2.71412  -0.00298   0.01169  -0.01970  -0.00801   2.70611
   R12        2.07372   0.00139   0.00603   0.00040   0.00644   2.08016
   R13        2.07527   0.00143   0.00658   0.00009   0.00666   2.08194
   R14        1.82527   0.00285   0.00478   0.00317   0.00795   1.83322
    A1        1.92802   0.00232   0.00742   0.01511   0.02236   1.95038
    A2        1.93744   0.00010   0.01146  -0.01069   0.00061   1.93805
    A3        1.93892   0.00032   0.01208  -0.00899   0.00291   1.94183
    A4        1.88709  -0.00115  -0.01005   0.00102  -0.00918   1.87791
    A5        1.88634  -0.00121  -0.01039   0.00138  -0.00919   1.87715
    A6        1.88417  -0.00051  -0.01131   0.00242  -0.00905   1.87512
    A7        1.94261   0.00061  -0.00837   0.03201   0.02240   1.96500
    A8        1.89084   0.00107   0.01705   0.00604   0.02225   1.91309
    A9        1.88991   0.00086   0.01663   0.00190   0.01788   1.90779
   A10        1.89167   0.00097   0.01612   0.00580   0.02106   1.91273
   A11        1.88904   0.00097   0.01495   0.00482   0.01913   1.90817
   A12        1.96055  -0.00452  -0.05733  -0.05021  -0.10684   1.85372
   A13        1.93968   0.00122  -0.01212   0.03921   0.02595   1.96563
   A14        1.90066   0.00089   0.02067   0.00021   0.02025   1.92092
   A15        1.89957   0.00101   0.02018   0.00256   0.02207   1.92164
   A16        1.87770   0.00062   0.01177   0.00564   0.01667   1.89437
   A17        1.87913   0.00057   0.01245   0.00494   0.01658   1.89571
   A18        1.96759  -0.00431  -0.05436  -0.05139  -0.10519   1.86239
   A19        1.86972   0.00149  -0.02174   0.04408   0.02176   1.89148
   A20        1.89336   0.00260   0.00291   0.02587   0.02848   1.92184
   A21        1.89604   0.00232   0.00408   0.02116   0.02501   1.92105
   A22        1.92399  -0.00027   0.03781  -0.02492   0.01195   1.93594
   A23        1.91713  -0.00021   0.03496  -0.02268   0.01148   1.92861
   A24        1.96097  -0.00551  -0.05720  -0.03802  -0.09579   1.86518
   A25        1.88000   0.00049  -0.01313   0.01624   0.00310   1.88311
    D1       -2.82349  -0.00070  -0.01371  -0.10167  -0.11541  -2.93890
    D2       -0.74533   0.00153   0.01162  -0.07166  -0.05975  -0.80508
    D3        1.38535  -0.00279  -0.03736  -0.12772  -0.16530   1.22004
    D4       -0.73029  -0.00055  -0.01421  -0.09742  -0.11168  -0.84197
    D5        1.34787   0.00167   0.01112  -0.06741  -0.05602   1.29186
    D6       -2.80464  -0.00264  -0.03786  -0.12347  -0.16157  -2.96621
    D7        1.36647  -0.00091  -0.01320  -0.10751  -0.12076   1.24571
    D8       -2.83856   0.00131   0.01213  -0.07750  -0.06509  -2.90365
    D9       -0.70789  -0.00301  -0.03685  -0.13356  -0.17065  -0.87853
   D10       -3.13667   0.00017   0.00213   0.01360   0.01577  -3.12090
   D11       -1.07124   0.00222   0.02233   0.04408   0.06668  -1.00456
   D12        1.08001  -0.00189  -0.01859  -0.01747  -0.03629   1.04372
   D13        1.06885  -0.00212  -0.02376  -0.01658  -0.04059   1.02826
   D14        3.13428  -0.00007  -0.00356   0.01390   0.01032  -3.13859
   D15       -0.99765  -0.00417  -0.04448  -0.04765  -0.09265  -1.09031
   D16       -1.06179   0.00219   0.02679   0.03788   0.06492  -0.99687
   D17        1.00363   0.00424   0.04699   0.06836   0.11583   1.11946
   D18       -3.12830   0.00014   0.00607   0.00682   0.01286  -3.11544
   D19        3.13757  -0.00012  -0.00168  -0.01136  -0.01308   3.12449
   D20       -1.06889   0.00177   0.03298  -0.00258   0.03058  -1.03831
   D21        1.06752  -0.00194  -0.03361  -0.02019  -0.05394   1.01358
   D22        1.05833  -0.00230  -0.02724  -0.03778  -0.06524   0.99309
   D23        3.13507  -0.00040   0.00742  -0.02900  -0.02158   3.11348
   D24       -1.01172  -0.00412  -0.05916  -0.04661  -0.10610  -1.11781
   D25       -1.06683   0.00216   0.02368   0.01755   0.04139  -1.02544
   D26        1.00991   0.00406   0.05834   0.02633   0.08504   1.09495
   D27       -3.13687   0.00034  -0.00824   0.00872   0.00053  -3.13635
   D28        2.84386   0.00090   0.00581   0.05239   0.05821   2.90206
   D29        0.78701  -0.00293  -0.00654   0.00943   0.00337   0.79038
   D30       -1.38301   0.00440   0.01803   0.09055   0.10810  -1.27490
         Item               Value     Threshold  Converged?
 Maximum Force            0.005512     0.000450     NO 
 RMS     Force            0.002184     0.000300     NO 
 Maximum Displacement     0.209737     0.001800     NO 
 RMS     Displacement     0.054879     0.001200     NO 
 Predicted change in Energy=-3.651440D-03
 Lowest energy point so far.  Saving SCF results.
 GradGradGradGradGradGradGradGradGradGradGradGradGradGradGradGradGradGrad

 Leave Link  103 at Mon Oct 14 01:03:23 2019, MaxMem= 10737418240 cpu:               0.6 elap:               0.1
 (Enter /apps/cent7/gaussian/g16-A.03/g16-haswell/g16/l202.exe)
                          Input orientation:                          
 ---------------------------------------------------------------------
 Center     Atomic      Atomic             Coordinates (Angstroms)
 Number     Number       Type             X           Y           Z
 ---------------------------------------------------------------------
      1          6           0        2.250834   -0.744015   -1.250585
      2          6           0        2.418027    0.001477    0.086174
      3          6           0        1.930033    1.461232    0.014752
      4          6           0        2.122340    2.210811    1.333389
      5          8           0        1.662822    3.555861    1.159193
      6          1           0        2.406385   -1.823625   -1.136036
      7          1           0        1.244666   -0.595719   -1.661006
      8          1           0        2.967143   -0.384257   -1.998713
      9          1           0        1.872259   -0.530717    0.875445
     10          1           0        3.474856   -0.014173    0.380580
     11          1           0        2.468649    1.999714   -0.774165
     12          1           0        0.867787    1.490564   -0.252596
     13          1           0        1.567295    1.707113    2.139559
     14          1           0        3.185403    2.200634    1.622462
     15          1           0        1.580903    3.958998    2.037749
 ---------------------------------------------------------------------
                    Distance matrix (angstroms):
                    1          2          3          4          5
     1  C    0.000000
     2  C    1.539687   0.000000
     3  C    2.562637   1.540819   0.000000
     4  C    3.927395   2.554239   1.528939   0.000000
     5  O    4.964044   3.788846   2.401795   1.432013   0.000000
     6  H    1.096757   2.196573   3.513049   4.738715   5.895748
     7  H    1.096728   2.187706   2.740245   4.196823   5.036268
     8  H    1.096457   2.190222   2.921553   4.307085   5.215186
     9  H    2.169982   1.097289   2.170712   2.790740   4.101768
    10  H    2.166010   1.097181   2.167285   2.772670   4.078584
    11  H    2.793290   2.176166   1.096568   2.146224   2.609373
    12  H    2.811075   2.176095   1.095766   2.146628   2.625012
    13  H    4.238907   2.801666   2.169525   1.100771   2.094782
    14  H    4.218860   2.790223   2.169655   1.101713   2.090338
    15  H    5.777567   4.491257   3.233147   1.960977   0.970098
                    6          7          8          9         10
     6  H    0.000000
     7  H    1.770012   0.000000
     8  H    1.769305   1.767962   0.000000
[...]
 ! D30   D(14,4,5,15)          -59.5919         -DE/DX =    0.0                 !
 --------------------------------------------------------------------------------
 GradGradGradGradGradGradGradGradGradGradGradGradGradGradGradGradGradGrad

 Leave Link  103 at Mon Oct 14 01:03:50 2019, MaxMem= 10737418240 cpu:               1.1 elap:               0.1
 (Enter /apps/cent7/gaussian/g16-A.03/g16-haswell/g16/l9999.exe)

 ----------------------------------------------------------------------

 Electric dipole moment (input orientation):
 (Debye = 10**-18 statcoulomb cm , SI units = C m)
                  (au)            (Debye)         (10**-30 SI)
   Tot        0.599043D+00      0.152261D+01      0.507889D+01
   x          0.208753D+00      0.530597D+00      0.176988D+01
   y         -0.211995D+00     -0.538836D+00     -0.179737D+01
   z          0.519935D+00      0.132154D+01      0.440819D+01

 Dipole polarizability, Alpha (input orientation).
 (esu units = cm**3 , SI units = C**2 m**2 J**-1)
 Alpha(0;0):
               (au)            (10**-24 esu)      (10**-40 SI)
   iso        0.475153D+02      0.704105D+01      0.783422D+01
   aniso      0.132786D+02      0.196769D+01      0.218935D+01
   xx         0.424007D+02      0.628314D+01      0.699094D+01
   yx        -0.154633D+01     -0.229143D+00     -0.254956D+00
   yy         0.523374D+02      0.775561D+01      0.862927D+01
   zx        -0.518894D-01     -0.768922D-02     -0.855541D-02
   zy         0.562419D+01      0.833418D+00      0.927303D+00
   zz         0.478079D+02      0.708439D+01      0.788245D+01

 ----------------------------------------------------------------------

 Dipole orientation:
     6          4.70405526         -1.85498204         -0.07047511
     6          4.18500249          0.35706704          1.72416654
     6          3.60390392          2.82936881          0.32896120
     6          3.08655890          5.03520906          2.10402926
     8          2.57496962          7.21129328          0.60368966
     1          5.11284412         -3.59560077          0.97458040
     1          3.07297199         -2.22217646         -1.29542046
     1          6.32776475         -1.45810084         -1.29595956
     1          2.59338183         -0.12538102          2.96929862
     1          5.82567991          0.63381411          2.96834804
     1          5.19144440          3.34091647         -0.90584853
     1          1.95377336          2.58059416         -0.90467897
     1          1.47065464          4.58037466          3.34069532
     1          4.73693724          5.34735266          3.33941491
     1          2.24605040          8.61100490          1.73742439

 Electric dipole moment (dipole orientation):
 (Debye = 10**-18 statcoulomb cm , SI units = C m)
                  (au)            (Debye)         (10**-30 SI)
   Tot        0.599043D+00      0.152261D+01      0.507889D+01
   x          0.000000D+00      0.000000D+00      0.000000D+00
   y          0.000000D+00      0.000000D+00      0.000000D+00
   z          0.599043D+00      0.152261D+01      0.507889D+01

 Dipole polarizability, Alpha (dipole orientation).
 (esu units = cm**3 , SI units = C**2 m**2 J**-1)
 Alpha(0;0):
               (au)            (10**-24 esu)      (10**-40 SI)
   iso        0.475153D+02      0.704105D+01      0.783422D+01
   aniso      0.132786D+02      0.196769D+01      0.218935D+01
   xx         0.426848D+02      0.632523D+01      0.703777D+01
   yx        -0.312346D+01     -0.462849D+00     -0.514989D+00
   yy         0.552477D+02      0.818687D+01      0.910912D+01
   zx        -0.411459D+00     -0.609720D-01     -0.678405D-01
   zy         0.175397D+01      0.259911D+00      0.289190D+00
   zz         0.446135D+02      0.661104D+01      0.735577D+01

 ----------------------------------------------------------------------
 1\1\GINC-BROWN-A429\Freq\RB3LYP\6-31G(d)\C4H10O1\FINEJ\14-Oct-2019\0\\
 #P Geom=AllCheck Guess=TCheck SCRF=Check GenChk RB3LYP/6-31G(d) Freq\\
 Title Card Required\\0,1\C,2.2496459799,-0.7382601997,-1.2472094132\C,
 2.4010563762,-0.000391972,0.0870292546\C,1.9426321107,1.4611575072,0.0
 163633831\C,2.0910610531,2.1996856571,1.3401343289\O,1.6372920041,3.53
 71099639,1.1528901014\H,2.5838082858,-1.779026417,-1.1685686307\H,1.20
 39105863,-0.7471322555,-1.5778040742\H,2.8408951644,-0.2560974814,-2.0
 351679392\H,1.8263176809,-0.5273572343,0.8620703685\H,3.4519260681,-0.
 0394407782,0.4077517042\H,2.51827218,2.0004135808,-0.7477348241\H,0.89
 0006391,1.5117119136,-0.2925358646\H,1.5037109783,1.6870902539,2.12093
 62926\H,3.1463451319,2.1800981711,1.6616566778\H,1.7325200091,4.004339
 2905,1.9963886347\\Version=ES64L-G16RevA.03\State=1-A\HF=-233.6610737\
 RMSD=1.043e-09\RMSF=9.228e-06\ZeroPoint=0.1376819\Thermal=0.1376819\Di
 pole=0.208753,-0.2119946,0.5199351\DipoleDeriv=0.1255031,0.0192594,0.0
 094437,0.0026805,0.0660002,-0.0577045,-0.0083735,0.0016457,0.1004803,0
 .1741088,-0.0053011,-0.0231418,0.0107627,0.1515831,0.0091078,-0.005881
 2,-0.0483756,0.1059986,0.1422798,0.0072591,-0.0224836,0.0253308,0.0287
 065,-0.0404458,-0.0030774,-0.1050748,0.0268952,0.489422,-0.1016562,-0.
 0217088,-0.1170068,0.8430671,-0.0123544,-0.0381433,0.0424214,0.3739912
 ,-0.5438123,0.1404228,0.0719617,0.1313369,-0.9727744,-0.0145079,0.0621
 4,0.0180771,-0.2796604,0.0429227,0.0702746,-0.0020585,0.0635934,-0.182
 4398,-0.0376196,-0.0092326,-0.0136959,0.0168003,-0.1450488,-0.0160045,
 -0.0816838,0.0170447,0.0545436,-0.0047679,-0.0451193,-0.026037,0.00205
 41,-0.00756,-0.053231,0.084114,-0.0664412,0.0059568,0.0798046,0.068852
 6,0.0300684,-0.0868512,-0.0144094,-0.0482179,0.0915146,-0.0330539,-0.0
 463691,0.0472209,0.0768799,0.0691897,-0.114854,-0.1615769,0.0235489,-0
 .0813351,-0.0021981,-0.0022967,-0.0256228,-0.0780657,-0.0097088,-0.011
 7526,-0.0072633,-0.0508133,0.0746408,-0.0353172,-0.0256938,0.0587917,0
 .0654036,0.061577,-0.0822646,-0.1381418,0.0209937,-0.068841,0.0049162,
 0.0197106,-0.0065051,-0.0602337,-0.00719,0.0031934,-0.0615912,-0.04603
 82,0.1069805,-0.0426528,-0.1203328,0.0713243,0.0783083,0.0794687,-0.13
 20377,-0.2259313,0.0338642,-0.0839841,0.0229234,-0.0618754,-0.018097,-
 0.0634282,0.0007979,-0.0261858,0.3310985,0.0056394,-0.0534186,0.018081
 6,0.2422142,-0.0486243,-0.0400293,-0.0931636,0.1041933\Polar=42.400726
 4,-1.5463325,52.3374171,-0.0518894,5.6241861,47.807858\Quadrupole=-0.8
 654304,-1.1667787,2.0322091,0.9378427,-0.088985,2.7070251\PG=C01 [X(C4
 H10O1)]\NImag=0\\0.57289745,-0.00714366,0.55850339,-0.00822852,-0.0411
 8824,0.49939209,-0.08229378,-0.00579766,-0.01063076,0.58256102,-0.0061
 5063,-0.10435407,-0.04701717,0.02412361,0.48065076,-0.01100744,-0.0457
 6033,-0.16959888,-0.00913756,-0.03366431,0.52352342,0.00129490,-0.0027
 9078,0.00190648,-0.09237210,0.03103827,-0.00288992,0.59200552,0.005040
 31,-0.02068142,-0.00409144,0.03054019,-0.17600268,0.00859261,0.0217291
 4,0.49730989,0.01031538,-0.03211136,0.00235377,-0.00342295,0.01036925,
 -0.08335958,-0.00884976,-0.03358238,0.53325883,-0.00166889,0.00195417,
 -0.00045836,0.00025269,0.00444057,0.01026662,-0.08548836,-0.00681908,-
 0.01244647,0.57965106,0.00136181,-0.00432915,0.00124948,-0.00199817,-0
 .01935578,-0.02655104,-0.01085316,-0.09347834,-0.04893048,0.02561368,0
 .48494253,-0.00109281,0.00336566,-0.00125066,0.00335377,-0.00351779,0.
 00693479,-0.01677846,-0.03449808,-0.18110575,-0.00543817,-0.01991029,0
 .54809154,0.00043612,-0.00006267,-0.00023919,0.00002161,-0.00052993,-0
 .00031120,0.00331883,0.00040964,0.00129108,-0.08485742,0.04269535,-0.0
 2212703,0.08703241,0.00081564,-0.00114923,0.00116457,-0.00137962,-0.00
 023775,-0.00513810,0.01036060,-0.03272263,-0.00138511,0.05508700,-0.20
 900756,0.04339281,-0.06864964,0.42584022,0.00070419,-0.00197921,0.0008
 7909,-0.00122437,-0.00209816,-0.00668434,0.01197849,-0.03698853,0.0062
 1452,-0.00879575,-0.00101853,-0.09846719,0.07299631,0.16251498,0.48226
 275,-0.07501289,0.07688894,-0.00665648,0.00020129,-0.00469370,0.000602
 06,0.00019384,-0.00032189,-0.00051062,0.00061815,-0.00007645,-0.000112
 24,-0.00001272,-0.00001965,-0.00006004,0.07577549,0.07666208,-0.285654
 46,0.02148090,0.00435226,-0.01358104,0.00247083,-0.00113556,-0.0000136
 6,-0.00433430,0.00055907,-0.00027348,0.00103347,0.00003689,-0.00055225
 ,-0.00045941,-0.08454197,0.30988194,-0.00690082,0.02229566,-0.05085075
 ,0.01031487,-0.02990683,0.00343075,-0.00138453,-0.00142547,-0.00624353
 ,0.00057048,-0.00124050,0.00133494,0.00000070,-0.00066147,-0.00071006,
 0.00810333,-0.02159222,0.05397686,-0.28870124,-0.00068389,-0.07157438,
 -0.00226986,-0.00008165,-0.00108476,0.00035081,0.00031347,0.00036892,0
 .00038567,0.00001290,0.00019901,0.00005692,-0.00019494,-0.00010970,-0.
 00872222,-0.00008338,-0.00187568,0.31260910,-0.00026024,-0.05030251,0.
 00071235,-0.01618089,-0.00081191,-0.00447970,-0.00158021,0.00110038,0.
 00027454,-0.00001312,0.00003853,-0.00018769,0.00010735,-0.00002877,0.0
 0006462,0.03128871,0.00171175,0.00903700,0.00063179,0.04948488,-0.0710
 7658,0.00056247,-0.07070327,-0.03025296,-0.00035168,-0.00958774,-0.000
 61357,0.00156697,0.00096449,-0.00000393,0.00023152,-0.00006986,0.00018
 715,-0.00014463,0.00002726,-0.00255887,0.00029685,-0.00165181,0.080101
 94,0.00232106,0.07664886,-0.12796909,-0.06331726,0.10053535,0.00235565
 ,0.00237715,-0.00344308,-0.00014422,-0.00016255,0.00017316,0.00011263,
 0.00019651,-0.00018554,-0.00001127,0.00008289,0.00005939,0.00628208,0.
 00453082,-0.00894685,-0.01653418,-0.01508222,0.02331607,0.13392565,-0.
 06354055,-0.10253534,0.08348808,0.01016392,0.00741265,-0.01215829,0.00
 071833,0.00169195,-0.00046770,-0.00001099,0.00011874,-0.00032652,-0.00
 003628,0.00001759,0.00014970,-0.01856514,-0.01320862,0.02210160,0.0007
 4174,-0.00035994,-0.00120548,0.07081062,0.10766437,0.10025128,0.082923
 76,-0.17920359,0.01680043,0.01346603,-0.02243591,0.00006748,0.00186239
 ,0.00086655,-0.00023287,0.00008846,0.00012303,-0.00004077,-0.00029641,
 0.00004898,0.00062183,0.00121937,-0.00173595,-0.00503376,-0.00528851,0
 .00799324,-0.11058987,-0.08946284,0.19715163,0.00217649,0.00210830,-0.
 00332085,-0.12429345,-0.06387010,0.09256796,0.00595348,0.00553852,-0.0
 0804539,0.00004726,-0.00015835,0.00012490,0.00002464,0.00002016,-0.000
 24544,-0.00008194,0.00027859,0.00041925,0.00075710,0.00059389,0.000155
 10,0.00126287,-0.00002233,-0.00119326,0.12983318,0.00978338,0.00800283
 ,-0.01305227,-0.06368332,-0.10602643,0.08414360,-0.01846413,-0.0179081
 9,0.02284079,-0.00112304,0.00029940,0.00239937,0.00039651,0.00058774,-
 0.00055818,0.00031749,0.00079767,0.00069675,-0.00003521,0.00038917,0.0
 0088744,-0.00042324,-0.00102658,-0.00376460,0.06944581,0.11910640,0.01
 653728,0.01344338,-0.02254270,0.09216763,0.08365400,-0.17059155,0.0007
 2036,0.00167972,-0.00151471,-0.00031168,-0.00060304,0.00026850,-0.0001
 1033,-0.00013846,0.00008163,0.00018368,-0.00020407,0.00120609,-0.00049
 153,0.00064114,0.00109813,-0.00116282,-0.00356356,-0.00473929,-0.10259
 213,-0.09020727,0.18817343,-0.00219208,-0.00023989,-0.00072875,-0.2809
 2719,0.00604379,-0.06605192,-0.01032033,0.00128651,-0.00228554,-0.0006
 8244,-0.00065294,-0.00089246,0.00063137,-0.00011111,0.00024757,0.00033
 600,-0.00059963,-0.00017844,0.00172562,-0.00027239,-0.00031155,0.00068
 195,0.00011541,-0.00044265,-0.01745170,0.00018583,-0.00442279,0.305433
 08,-0.01671377,-0.00025973,-0.00523514,0.00605813,-0.04999961,0.003902
 45,0.03346284,-0.00213220,0.00869147,0.00155745,0.00102088,0.00128338,
 -0.00061852,0.00018928,-0.00007571,-0.00023604,0.00032978,0.00070743,-
 0.00001649,-0.00102144,-0.00357424,0.00068535,0.00046904,0.00050061,-0
 .01551266,0.00029202,-0.00502809,-0.00894604,0.05622829,-0.03003715,-0
 .00024428,-0.00991183,-0.06543484,0.00367086,-0.06997731,-0.00227226,0
 .00060428,-0.00101658,0.00088095,-0.00016850,0.00027651,-0.00002837,-0
 .00002622,-0.00012657,0.00048948,0.00016802,0.00125427,-0.00049885,-0.
 00325640,-0.00520751,0.00014034,0.00095831,0.00109510,0.02287425,-0.00
 122218,0.00732458,0.07454565,-0.00040014,0.07544530,0.00015493,-0.0003
 5902,-0.00021207,0.00571511,0.00599238,-0.00785648,-0.12634387,-0.0670
 1525,0.09359704,0.00191098,0.00171675,-0.00350135,-0.00009863,0.000466
 72,0.00037127,0.00001192,-0.00006259,-0.00030977,-0.00004093,-0.000005
 63,0.00014011,0.00012985,-0.00033958,-0.00009753,0.00068373,0.00266948
 ,-0.00039471,0.00092902,-0.00067173,-0.00035928,0.13152441,-0.00083095
 ,0.00148298,0.00142187,-0.01791313,-0.01764269,0.02240457,-0.06699763,
 -0.10851872,0.08641073,0.00923895,0.00717290,-0.01279119,-0.00028403,0
 .00147311,0.00075042,0.00036445,0.00046469,-0.00012579,0.00001443,-0.0
 0006782,-0.00011648,0.00041678,-0.00006643,-0.00119585,0.00255818,-0.0
 0594903,0.00008412,0.00023712,0.00145809,-0.00021050,0.07247971,0.1203
 3308,-0.00046194,-0.00065909,0.00080242,0.00018301,0.00094562,-0.00128
 987,0.09261512,0.08437875,-0.17019929,0.01807150,0.01591539,-0.0253124
 0,-0.00089592,0.00025918,0.00310025,-0.00015537,0.00003686,0.00011668,
 -0.00004828,-0.00002004,0.00003753,0.00013768,0.00028944,0.00047834,-0
 .00033247,-0.00030086,0.00065896,-0.00014127,0.00013236,-0.00005171,-0
 .10273574,-0.09319135,0.18776336,0.00026014,-0.00077202,-0.00024194,-0
 .00954418,0.00081849,-0.00240750,-0.28617202,0.00733561,-0.06533696,-0
 .00466106,0.00054823,-0.00103572,0.00104702,-0.00058720,0.00048243,0.0
 0044628,0.00003849,0.00014086,0.00039533,0.00060520,0.00073532,-0.0000
 2429,0.00002219,-0.00001564,0.00087514,0.00031034,-0.00014318,0.001140
 41,0.00194270,-0.00031346,-0.01695232,0.00054612,-0.00463022,0.3103420
 3,0.00059669,0.00177744,0.00102350,0.03295076,-0.00255463,0.00854041,0
 .00815208,-0.04925096,0.00429152,-0.01660814,-0.00034410,-0.00537647,0
 .00011572,0.00117376,0.00076779,-0.00038719,0.00023022,0.00025581,-0.0
 0072694,-0.00014965,-0.00060433,-0.00006827,-0.00008577,-0.00013852,-0
 .00060969,0.00150389,0.00008651,0.00223262,-0.00630590,0.00023751,-0.0
 1573968,0.00067183,-0.00491804,-0.01085352,0.05420268,0.00097160,-0.00
 010447,0.00040189,-0.00161511,0.00057231,-0.00111854,-0.06345943,0.003
 34028,-0.06964619,-0.03295104,0.00037707,-0.01122300,0.00169837,0.0014
 2910,0.00225490,-0.00001218,0.00008803,-0.00008319,-0.00011859,-0.0000
 2939,0.00029627,0.00009704,0.00001702,0.00003909,-0.00037323,-0.000216
 33,-0.00004295,-0.00018465,-0.00001475,0.00055908,0.02249642,-0.001329
 26,0.00687069,0.07380373,-0.00190716,0.07508264,0.00008538,0.00028268,
 -0.00017558,-0.00007919,-0.00024942,0.00026395,0.00226573,0.00088603,-
 0.00338344,-0.13423550,-0.05764170,0.09463844,0.01240811,0.00918908,-0
 .01162222,-0.00002782,0.00004045,0.00008649,-0.00000628,-0.00001365,-0
 .00000630,-0.00002833,-0.00006624,-0.00009827,0.00022306,0.00053576,0.
 00004870,0.00006215,-0.00013433,0.00004218,0.00144824,0.00010078,-0.00
 094655,0.00109293,0.00074383,0.00011544,0.13521947,0.00009385,0.000200
 85,-0.00019443,0.00016928,0.00134897,-0.00006451,0.00921105,0.00806677
 ,-0.01153873,-0.05712845,-0.09188836,0.06793050,-0.00925115,-0.0344683
 9,0.02592092,-0.00002030,-0.00000423,0.00008055,-0.00000841,0.00000639
 ,0.00002177,-0.00006565,-0.00013653,0.00005405,-0.00020780,-0.00001228
 ,0.00011461,0.00007598,-0.00007416,-0.00002793,-0.00029325,-0.00158685
 ,-0.00360691,-0.00008864,0.00028924,0.00085416,0.06104978,0.11402227,-
 0.00026621,-0.00041998,0.00019995,0.00012905,0.00185796,0.00012422,0.0
 1849428,0.01213638,-0.02230587,0.09228785,0.06900112,-0.16976346,-0.00
 132101,0.00789395,0.00155111,-0.00003690,-0.00015325,-0.00001160,-0.00
 000428,0.00004618,-0.00003676,-0.00010246,0.00013838,0.00035804,-0.000
 18771,-0.00128883,0.00058319,-0.00002435,-0.00017026,0.00002200,-0.001
 02813,-0.00319905,-0.00482152,-0.00043394,0.00058292,0.00146350,-0.101
 72442,-0.08224636,0.18453703,0.00058154,-0.00026005,0.00009207,-0.0002
 6004,0.00028649,-0.00001407,-0.00343623,-0.00074976,-0.00067819,-0.270
 55838,-0.01068091,-0.06061391,-0.00638127,0.01444979,-0.00383512,-0.00
 000948,-0.00010659,-0.00010233,0.00000443,0.00018346,0.00021375,-0.000
 03109,0.00001715,-0.00001380,0.00003840,0.00009232,-0.00004234,0.00069
 973,-0.00073954,-0.00004953,0.00096058,0.00017144,-0.00035185,0.001486
 84,0.00007068,-0.00058006,-0.01870583,-0.00334464,-0.00484574,0.295375
 82,-0.00000146,-0.00003526,-0.00004602,-0.00101618,0.00117023,0.000168
 11,-0.01614935,0.00047780,-0.00411534,-0.01197110,-0.05195592,-0.00273
 158,0.04052517,-0.01625693,0.01276379,0.00004017,-0.00003184,0.0000085
 2,0.00014196,-0.00000230,0.00009245,0.00000129,0.00002073,0.00001473,-
 0.00003131,-0.00003620,-0.00002541,0.00054238,-0.00021292,-0.00008460,
 0.00094326,0.00043913,0.00041433,0.00020499,-0.00144978,-0.00363281,-0
 .01349148,0.00298246,-0.00414889,0.00015754,0.06304142,0.00025724,-0.0
 0006954,-0.00006003,-0.00082774,0.00140607,0.00048305,-0.03015168,-0.0
 0248693,-0.00901843,-0.05910127,-0.00100982,-0.07336976,-0.00593316,0.
 00346527,0.00213456,0.00011345,-0.00006548,-0.00000224,0.00017401,0.00
 015424,0.00019108,-0.00002712,0.00002855,-0.00002640,0.00011717,-0.000
 19301,0.00000795,0.00076463,-0.00060652,0.00030737,0.00013232,0.000901
 90,0.00144629,-0.00077729,-0.00311203,-0.00499731,0.02307313,0.0013936
 1,0.00733526,0.07112521,0.00009869,0.07536268,-0.00004899,0.00019282,-
 0.00006702,0.00093243,0.00045469,0.00050334,-0.00110598,0.00198911,-0.
 00078627,-0.00082640,0.00991643,0.01346158,-0.01361569,-0.01952971,-0.
 06094701,0.00000203,0.00003107,0.00006246,-0.00001027,-0.00000205,-0.0
 0002567,-0.00000821,-0.00000825,0.00001739,-0.00004827,-0.00000797,0.0
 0001387,-0.00006559,-0.00011733,0.00002089,-0.00003303,-0.00010224,-0.
 00030771,0.00026775,0.00013105,0.00011170,0.00027785,-0.00019164,-0.00
 093603,0.00023497,0.00010411,0.00106110,0.01404740,0.00028750,-0.00066
 632,0.00028394,-0.00038917,-0.00001601,-0.00240629,0.00329852,-0.00793
 799,0.00358711,-0.00477697,-0.02296030,-0.04006560,-0.00485442,-0.1348
 5819,-0.15975450,-0.00003743,-0.00009647,-0.00023103,-0.00002538,0.000
 01324,0.00001629,0.00001778,0.00002413,0.00001733,-0.00013122,-0.00002
 042,0.00006643,0.00010238,0.00001858,0.00000176,0.00021843,0.00033572,
 0.00032437,-0.00007098,0.00029172,0.00055620,-0.00123157,0.00125383,-0
 .00003029,0.00045261,0.00184937,0.00009501,0.00713991,0.16276911,0.000
 03450,-0.00005444,0.00009251,-0.00040247,0.00061383,0.00014752,0.00061
 741,-0.00108856,0.00075178,-0.00233786,0.01256916,0.00353277,-0.045166
 62,-0.21232947,-0.39256689,-0.00001112,0.00001440,-0.00003046,-0.00000
 405,0.00001059,0.00000008,-0.00000132,0.00001331,-0.00001288,0.0000318
 5,-0.00016444,0.00002874,0.00010651,-0.00011285,0.00000728,-0.00024211
 ,0.00018588,0.00040029,0.00017353,0.00027056,0.00014311,-0.00031154,0.
 00130871,0.00076490,-0.00030409,0.00122404,0.00020595,0.04781738,0.197
 53928,0.38653530\\0.00000236,-0.00000401,-0.00000637,-0.00000381,0.000
 00477,0.00000934,0.00000084,-0.00001543,-0.00000710,-0.00001568,0.0000
 4223,-0.00001148,0.00001253,-0.00002018,0.00001904,-0.00000047,-0.0000
 0139,-0.00000058,0.00000038,0.00000196,0.00000279,0.00000070,-0.000000
 28,0.00000051,0.00000214,0.00000022,-0.00000253,-0.00000047,-0.0000009
 3,-0.00000182,-0.00000003,0.00000258,0.00000381,0.00000263,0.00000298,
 0.00000394,0.00000262,-0.00000424,0.00000139,0.00000050,-0.00000744,-0
 .00000199,-0.00000424,-0.00000084,-0.00000894\\\@


 THE SECRET OF SUCCESS IN LIFE IS TO EAT WHAT YOU LIKE, AND LET THE FOOD
 FIGHT IT OUT INSIDE YOU. -- FROM A FORTUNE COOKIE
 Job cpu time:       0 days  0 hours  3 minutes 20.7 seconds.
 Elapsed time:       0 days  0 hours  0 minutes  8.8 seconds.
 File lengths (MBytes):  RWF=     20 Int=      0 D2E=      0 Chk=      2 Scr=      1
 Normal termination of Gaussian 16 at Mon Oct 14 01:03:50 2019.
real 33.05
user 679.56
sys 11.23
Machine:
brown-a429
brown-a429
brown-a429
brown-a429
brown-a429
brown-a429
brown-a429
brown-a429
brown-a429
brown-a429
brown-a429
brown-a429
brown-a429
brown-a429
brown-a429
brown-a429
brown-a429
brown-a429
brown-a429
brown-a429
brown-a429
brown-a429
brown-a429
brown-a429
