 Entering Gaussian System, Link 0=/apps/cent7/gaussian/g16-A.03/g16-haswell/g16/g16
 Initial command:
 /apps/cent7/gaussian/g16-A.03/g16-haswell/g16/l1.exe "/scratch/brown/finej/gaussian/Gau-428882.inp" -scrdir="/scratch/brown/finej/gaussian/"
 Entering Link 1 = /apps/cent7/gaussian/g16-A.03/g16-haswell/g16/l1.exe PID=    428883.
  
 Copyright (c) 1988,1990,1992,1993,1995,1998,2003,2009,2016,
            Gaussian, Inc.  All Rights Reserved.
  
 This is part of the Gaussian(R) 16 program.  It is based on
 the Gaussian(R) 09 system (copyright 2009, Gaussian, Inc.),
 the Gaussian(R) 03 system (copyright 2003, Gaussian, Inc.),
 the Gaussian(R) 98 system (copyright 1998, Gaussian, Inc.),
 the Gaussian(R) 94 system (copyright 1995, Gaussian, Inc.),
 the Gaussian 92(TM) system (copyright 1992, Gaussian, Inc.),
 the Gaussian 90(TM) system (copyright 1990, Gaussian, Inc.),
 the Gaussian 88(TM) system (copyright 1988, Gaussian, Inc.),
 the Gaussian 86(TM) system (copyright 1986, Carnegie Mellon
 University), and the Gaussian 82(TM) system (copyright 1983,
 Carnegie Mellon University). Gaussian is a federally registered
 trademark of Gaussian, Inc.
  
 This software contains proprietary and confidential information,
 including trade secrets, belonging to Gaussian, Inc.
  
 This software is provided under written license and may be
 used, copied, transmitted, or stored only in accord with that
 written license.
  
 The following legend is applicable only to US Government
 contracts under FAR:
  
                    RESTRICTED RIGHTS LEGEND
  
 Use, reproduction and disclosure by the US Government is
 subject to restrictions as set forth in subparagraphs (a)
 and (c) of the Commercial Computer Software - Restricted
 Rights clause in FAR 52.227-19.
  
 Gaussian, Inc.
 340 Quinnipiac St., Bldg. 40, Wallingford CT 06492
  
  
 ---------------------------------------------------------------
 Warning -- This program may not be used in any manner that
 competes with the business of Gaussian, Inc. or will provide
 assistance to any competitor of Gaussian, Inc.  The licensee
 of this program is prohibited from giving any competitor of
 Gaussian, Inc. access to this program.  By using this program,
 the user acknowledges that Gaussian, Inc. is engaged in the
 business of creating and licensing software in the field of
 computational chemistry and represents and warrants to the
 licensee that it is not a competitor of Gaussian, Inc. and that
 it will not use this program in any manner prohibited above.
 ---------------------------------------------------------------
  

 Cite this work as:
 Gaussian 16, Revision A.03,
 M. J. Frisch, G. W. Trucks, H. B. Schlegel, G. E. Scuseria, 
 M. A. Robb, J. R. Cheeseman, G. Scalmani, V. Barone, 
 G. A. Petersson, H. Nakatsuji, X. Li, M. Caricato, A. V. Marenich, 
 J. Bloino, B. G. Janesko, R. Gomperts, B. Mennucci, H. P. Hratchian, 
 J. V. Ortiz, A. F. Izmaylov, J. L. Sonnenberg, D. Williams-Young, 
 F. Ding, F. Lipparini, F. Egidi, J. Goings, B. Peng, A. Petrone, 
 T. Henderson, D. Ranasinghe, V. G. Zakrzewski, J. Gao, N. Rega, 
 G. Zheng, W. Liang, M. Hada, M. Ehara, K. Toyota, R. Fukuda, 
 J. Hasegawa, M. Ishida, T. Nakajima, Y. Honda, O. Kitao, H. Nakai, 
 T. Vreven, K. Throssell, J. A. Montgomery, Jr., J. E. Peralta, 
 F. Ogliaro, M. J. Bearpark, J. J. Heyd, E. N. Brothers, K. N. Kudin, 
 V. N. Staroverov, T. A. Keith, R. Kobayashi, J. Normand, 
 K. Raghavachari, A. P. Rendell, J. C. Burant, S. S. Iyengar, 
 J. Tomasi, M. Cossi, J. M. Millam, M. Klene, C. Adamo, R. Cammi, 
 J. W. Ochterski, R. L. Martin, K. Morokuma, O. Farkas, 
 J. B. Foresman, and D. J. Fox, Gaussian, Inc., Wallingford CT, 2016.
 
 ******************************************
 Gaussian 16:  ES64L-G16RevA.03 25-Dec-2016
                14-Oct-2019 
 ******************************************
 %chk=20_p.chk
 %nprocshared=24
 Will use up to   24 processors via shared memory.
 %mem=80GB
 --------------------------------------------------------------
 #P opt freq b3lyp/6-31g(d) geom=connectivity temperature=0.001
 --------------------------------------------------------------
 1/18=20,19=15,26=3,38=1,57=2,112=-1000/1,3;
 2/9=110,12=2,17=6,18=5,40=1/2;
 3/5=1,6=6,7=1,11=2,25=1,30=1,71=1,74=-5/1,2,3;
 4//1;
 5/5=2,38=5/2;
 6/7=2,8=2,9=2,10=2,28=1/1;
 7//1,2,3,16;
 1/18=20,19=15,26=3/3(2);
 2/9=110/2;
 99//99;
 2/9=110/2;
 3/5=1,6=6,7=1,11=2,25=1,30=1,71=1,74=-5/1,2,3;
 4/5=5,16=3,69=1/1;
 5/5=2,38=5/2;
 7//1,2,3,16;
 1/18=20,19=15,26=3/3(-5);
 2/9=110/2;
 6/7=2,8=2,9=2,10=2,19=2,28=1/1;
 99/9=1/99;
 Leave Link    1 at Mon Oct 14 01:07:58 2019, MaxMem= 10737418240 cpu:               1.4 elap:               0.1
 (Enter /apps/cent7/gaussian/g16-A.03/g16-haswell/g16/l101.exe)
 -------------------
 Title Card Required
 -------------------
 Symbolic Z-matrix:
 Charge =  1 Multiplicity = 1
 C                     2.246    -0.7624   -1.2558 
 C                     2.4467   -0.0101    0.0773 
 C                     1.9396    1.4543    0.0124 
 C                     2.1368    2.2148    1.3434 
 O                     1.654     3.5464    1.2197 
 H                     2.2733   -1.8369   -1.0744 
 H                     1.2814   -0.4908   -1.6847 
 H                     3.0415   -0.4908   -1.9497 
 H                     1.8174   -0.5183    0.808 
 H                     3.5241    0.0471    0.232 
 H                     2.5691    1.9607   -0.7193 
 H                     0.8624    1.3953   -0.1432 
 H                     1.501     1.7495    2.0965 
 H                     3.2077    2.315     1.5205 
 H                     1.77265   4.00849   2.05276 
 H                     2.14218   4.00094   0.52928 
 
 ITRead=  0  0  0  0  0  0  0  0  0  0  0  0  0  0  0  0
 MicOpt= -1 -1 -1 -1 -1 -1 -1 -1 -1 -1 -1 -1 -1 -1 -1 -1
 NAtoms=     16 NQM=       16 NQMF=       0 NMMI=      0 NMMIF=      0
                NMic=       0 NMicF=      0.
                    Isotopes and Nuclear Properties:
 (Nuclear quadrupole moments (NQMom) in fm**2, nuclear magnetic moments (NMagM)
  in nuclear magnetons)

  Atom         1           2           3           4           5           6           7           8           9          10
 IAtWgt=          12          12          12          12          16           1           1           1           1           1
 AtmWgt=  12.0000000  12.0000000  12.0000000  12.0000000  15.9949146   1.0078250   1.0078250   1.0078250   1.0078250   1.0078250
 NucSpn=           0           0           0           0           0           1           1           1           1           1
 AtZEff=  -0.0000000  -0.0000000  -0.0000000  -0.0000000  -0.0000000  -0.0000000  -0.0000000  -0.0000000  -0.0000000  -0.0000000
 NQMom=    0.0000000   0.0000000   0.0000000   0.0000000   0.0000000   0.0000000   0.0000000   0.0000000   0.0000000   0.0000000
 NMagM=    0.0000000   0.0000000   0.0000000   0.0000000   0.0000000   2.7928460   2.7928460   2.7928460   2.7928460   2.7928460
 AtZNuc=   6.0000000   6.0000000   6.0000000   6.0000000   8.0000000   1.0000000   1.0000000   1.0000000   1.0000000   1.0000000

  Atom        11          12          13          14          15          16
 IAtWgt=           1           1           1           1           1           1
 AtmWgt=   1.0078250   1.0078250   1.0078250   1.0078250   1.0078250   1.0078250
 NucSpn=           1           1           1           1           1           1
 AtZEff=  -0.0000000  -0.0000000  -0.0000000  -0.0000000  -0.0000000  -0.0000000
 NQMom=    0.0000000   0.0000000   0.0000000   0.0000000   0.0000000   0.0000000
 NMagM=    2.7928460   2.7928460   2.7928460   2.7928460   2.7928460   2.7928460
 AtZNuc=   1.0000000   1.0000000   1.0000000   1.0000000   1.0000000   1.0000000
 Leave Link  101 at Mon Oct 14 01:07:58 2019, MaxMem= 10737418240 cpu:               8.1 elap:               0.4
 (Enter /apps/cent7/gaussian/g16-A.03/g16-haswell/g16/l103.exe)

 GradGradGradGradGradGradGradGradGradGradGradGradGradGradGradGradGradGrad
 Berny optimization.
 Initialization pass.
                           ----------------------------
                           !    Initial Parameters    !
                           ! (Angstroms and Degrees)  !
 --------------------------                            --------------------------
 ! Name  Definition              Value          Derivative Info.                !
 --------------------------------------------------------------------------------
 ! R1    R(1,2)                  1.5438         estimate D2E/DX2                !
 ! R2    R(1,6)                  1.09           estimate D2E/DX2                !
 ! R3    R(1,7)                  1.09           estimate D2E/DX2                !
 ! R4    R(1,8)                  1.09           estimate D2E/DX2                !
 ! R5    R(2,3)                  1.5511         estimate D2E/DX2                !
 ! R6    R(2,9)                  1.09           estimate D2E/DX2                !
 ! R7    R(2,10)                 1.09           estimate D2E/DX2                !
 ! R8    R(3,4)                  1.5456         estimate D2E/DX2                !
 ! R9    R(3,11)                 1.09           estimate D2E/DX2                !
 ! R10   R(3,12)                 1.09           estimate D2E/DX2                !
 ! R11   R(4,5)                  1.4218         estimate D2E/DX2                !
 ! R12   R(4,13)                 1.0899         estimate D2E/DX2                !
 ! R13   R(4,14)                 1.0901         estimate D2E/DX2                !
 ! R14   R(5,15)                 0.96           estimate D2E/DX2                !
 ! R15   R(5,16)                 0.96           estimate D2E/DX2                !
 ! A1    A(2,1,6)              109.4747         estimate D2E/DX2                !
 ! A2    A(2,1,7)              109.4747         estimate D2E/DX2                !
 ! A3    A(2,1,8)              109.4762         estimate D2E/DX2                !
 ! A4    A(6,1,7)              109.4665         estimate D2E/DX2                !
 ! A5    A(6,1,8)              109.4683         estimate D2E/DX2                !
 ! A6    A(7,1,8)              109.4669         estimate D2E/DX2                !
 ! A7    A(1,2,3)              112.4225         estimate D2E/DX2                !
 ! A8    A(1,2,9)              106.0575         estimate D2E/DX2                !
 ! A9    A(1,2,10)             106.0596         estimate D2E/DX2                !
 ! A10   A(3,2,9)              106.2286         estimate D2E/DX2                !
 ! A11   A(3,2,10)             106.2341         estimate D2E/DX2                !
 ! A12   A(9,2,10)             119.9993         estimate D2E/DX2                !
 ! A13   A(2,3,4)              112.756          estimate D2E/DX2                !
 ! A14   A(2,3,11)             106.135          estimate D2E/DX2                !
 ! A15   A(2,3,12)             106.1391         estimate D2E/DX2                !
 ! A16   A(4,3,11)             106.0098         estimate D2E/DX2                !
 ! A17   A(4,3,12)             106.0016         estimate D2E/DX2                !
 ! A18   A(11,3,12)            120.0048         estimate D2E/DX2                !
 ! A19   A(3,4,5)              110.0342         estimate D2E/DX2                !
 ! A20   A(3,4,13)             108.0924         estimate D2E/DX2                !
 ! A21   A(3,4,14)             108.0887         estimate D2E/DX2                !
 ! A22   A(5,4,13)             105.1803         estimate D2E/DX2                !
 ! A23   A(5,4,14)             105.1676         estimate D2E/DX2                !
 ! A24   A(13,4,14)            120.0052         estimate D2E/DX2                !
 ! A25   A(4,5,15)             109.4712         estimate D2E/DX2                !
 ! A26   A(4,5,16)             109.4712         estimate D2E/DX2                !
 ! A27   A(15,5,16)            109.4712         estimate D2E/DX2                !
 ! D1    D(6,1,2,3)           -159.9401         estimate D2E/DX2                !
 ! D2    D(6,1,2,9)            -44.2585         estimate D2E/DX2                !
 ! D3    D(6,1,2,10)            84.3705         estimate D2E/DX2                !
 ! D4    D(7,1,2,3)            -39.9416         estimate D2E/DX2                !
 ! D5    D(7,1,2,9)             75.7399         estimate D2E/DX2                !
 ! D6    D(7,1,2,10)          -155.631          estimate D2E/DX2                !
 ! D7    D(8,1,2,3)             80.0583         estimate D2E/DX2                !
 ! D8    D(8,1,2,9)           -164.2601         estimate D2E/DX2                !
 ! D9    D(8,1,2,10)           -35.6311         estimate D2E/DX2                !
 ! D10   D(1,2,3,4)            179.9973         estimate D2E/DX2                !
 ! D11   D(1,2,3,11)           -64.364          estimate D2E/DX2                !
 ! D12   D(1,2,3,12)            64.366          estimate D2E/DX2                !
 ! D13   D(9,2,3,4)             64.419          estimate D2E/DX2                !
 ! D14   D(9,2,3,11)          -179.9423         estimate D2E/DX2                !
 ! D15   D(9,2,3,12)           -51.2123         estimate D2E/DX2                !
 ! D16   D(10,2,3,4)           -64.4185         estimate D2E/DX2                !
 ! D17   D(10,2,3,11)           51.2202         estimate D2E/DX2                !
 ! D18   D(10,2,3,12)          179.9502         estimate D2E/DX2                !
 ! D19   D(2,3,4,5)            179.9945         estimate D2E/DX2                !
 ! D20   D(2,3,4,13)           -65.6528         estimate D2E/DX2                !
 ! D21   D(2,3,4,14)            65.6589         estimate D2E/DX2                !
 ! D22   D(11,3,4,5)            64.2807         estimate D2E/DX2                !
 ! D23   D(11,3,4,13)          178.6334         estimate D2E/DX2                !
 ! D24   D(11,3,4,14)          -50.0549         estimate D2E/DX2                !
 ! D25   D(12,3,4,5)           -64.2919         estimate D2E/DX2                !
 ! D26   D(12,3,4,13)           50.0609         estimate D2E/DX2                !
 ! D27   D(12,3,4,14)         -178.6275         estimate D2E/DX2                !
 ! D28   D(3,4,5,15)           179.4632         estimate D2E/DX2                !
 ! D29   D(3,4,5,16)           -60.5368         estimate D2E/DX2                !
 ! D30   D(13,4,5,15)           63.2673         estimate D2E/DX2                !
 ! D31   D(13,4,5,16)         -176.7327         estimate D2E/DX2                !
 ! D32   D(14,4,5,15)          -64.3521         estimate D2E/DX2                !
 ! D33   D(14,4,5,16)           55.6479         estimate D2E/DX2                !
 --------------------------------------------------------------------------------
 Trust Radius=3.00D-01 FncErr=1.00D-07 GrdErr=1.00D-06 EigMax=2.50D+02 EigMin=1.00D-04
 Number of steps in this run=     85 maximum allowed number of steps=    100.
 GradGradGradGradGradGradGradGradGradGradGradGradGradGradGradGradGradGrad

 Leave Link  103 at Mon Oct 14 01:07:59 2019, MaxMem= 10737418240 cpu:               0.4 elap:               0.0
 (Enter /apps/cent7/gaussian/g16-A.03/g16-haswell/g16/l202.exe)
                          Input orientation:                          
 ---------------------------------------------------------------------
 Center     Atomic      Atomic             Coordinates (Angstroms)
 Number     Number       Type             X           Y           Z
 ---------------------------------------------------------------------
      1          6           0        2.246000   -0.762400   -1.255800
      2          6           0        2.446700   -0.010100    0.077300
      3          6           0        1.939600    1.454300    0.012400
      4          6           0        2.136800    2.214800    1.343400
      5          8           0        1.654000    3.546400    1.219700
      6          1           0        2.273300   -1.836900   -1.074400
      7          1           0        1.281400   -0.490800   -1.684700
      8          1           0        3.041500   -0.490800   -1.949700
      9          1           0        1.817400   -0.518300    0.808000
     10          1           0        3.524100    0.047100    0.232000
     11          1           0        2.569100    1.960700   -0.719300
     12          1           0        0.862400    1.395300   -0.143200
     13          1           0        1.501000    1.749500    2.096500
     14          1           0        3.207700    2.315000    1.520500
     15          1           0        1.772652    4.008488    2.052765
     16          1           0        2.142177    4.000942    0.529284
 ---------------------------------------------------------------------
                    Distance matrix (angstroms):
                    1          2          3          4          5
     1  C    0.000000
     2  C    1.543824   0.000000
     3  C    2.572153   1.551074   0.000000
     4  C    3.953667   2.578610   1.545577   0.000000
     5  O    5.004430   3.818657   2.432288   1.421814   0.000000
     6  H    1.090047   2.166490   3.482023   4.720240   5.884416
     7  H    1.090034   2.166481   2.663980   4.149864   4.987319
     8  H    1.089993   2.166469   2.974464   4.356978   5.316882
     9  H    2.121922   1.090050   2.130508   2.803303   4.088763
    10  H    2.121881   1.089952   2.130511   2.803343   4.088756
    11  H    2.794190   2.129227   1.089998   2.122777   2.666753
    12  H    2.794261   2.129267   1.089978   2.122653   2.666713
    13  H    4.254713   2.840371   2.150113   1.089911   2.005252
    14  H    4.254774   2.840429   2.150174   1.090060   2.005196
    15  H    5.825120   4.528338   3.273352   1.962936   0.960000
    16  H    5.087900   4.047898   2.606452   1.962936   0.960000
                    6          7          8          9         10
     6  H    0.000000
     7  H    1.779977   0.000000
     8  H    1.779963   1.779937   0.000000
     9  H    2.343071   2.549825   3.017298   0.000000
    10  H    2.611635   2.998796   2.298272   1.887930   0.000000
    11  H    3.825619   2.932579   2.783325   3.007181   2.340697
    12  H    3.647587   2.471671   3.401366   2.340656   3.007169
    13  H    4.849053   4.400527   4.874815   2.627405   3.235345
    14  H    4.984464   4.675088   4.465694   3.235457   2.627492
    15  H    6.648185   5.869715   6.154128   4.695024   4.698441
    16  H    6.055526   5.081182   5.208636   4.539462   4.198923
                   11         12         13         14         15
    11  H    0.000000
    12  H    1.887960   0.000000
    13  H    3.018969   2.355743   0.000000
    14  H    2.355853   3.018970   1.887960   0.000000
    15  H    3.537246   3.532643   2.275683   2.282667   0.000000
    16  H    2.429776   2.979838   2.817138   2.227161   1.567673
                   16
    16  H    0.000000
 Stoichiometry    C4H11O(1+)
 Framework group  C1[X(C4H11O)]
 Deg. of freedom    42
 Full point group                 C1      NOp   1
 Largest Abelian subgroup         C1      NOp   1
 Largest concise Abelian subgroup C1      NOp   1
                         Standard orientation:                         
 ---------------------------------------------------------------------
 Center     Atomic      Atomic             Coordinates (Angstroms)
 Number     Number       Type             X           Y           Z
 ---------------------------------------------------------------------
      1          6           0       -2.601351   -0.307814   -0.016966
      2          6           0       -1.311759    0.537981    0.053565
      3          6           0       -0.029513   -0.328403   -0.051565
      4          6           0        1.266465    0.510877    0.018148
      5          8           0        2.402550   -0.338002   -0.083206
      6          1           0       -3.439910    0.330617   -0.295218
      7          1           0       -2.480152   -1.093764   -0.762465
      8          1           0       -2.794697   -0.757576    0.956901
      9          1           0       -1.321268    1.176490   -0.829852
     10          1           0       -1.297583    0.983801    1.048069
     11          1           0       -0.022072   -0.966885    0.831827
     12          1           0       -0.045708   -0.774112   -1.046117
     13          1           0        1.305724    1.147010   -0.865989
     14          1           0        1.329495    0.954276    1.011957
     15          1           0        3.202210    0.191968   -0.047474
     16          1           0        2.400501   -0.963657    0.644909
 ---------------------------------------------------------------------
 Rotational constants (GHZ):          18.4101458           1.8719157           1.7900305
 Leave Link  202 at Mon Oct 14 01:07:59 2019, MaxMem= 10737418240 cpu:               0.4 elap:               0.0
 (Enter /apps/cent7/gaussian/g16-A.03/g16-haswell/g16/l301.exe)
 Standard basis: 6-31G(d) (6D, 7F)
 Ernie: Thresh=  0.10000D-02 Tol=  0.10000D-05 Strict=F.
 There are    97 symmetry adapted cartesian basis functions of A   symmetry.
 There are    97 symmetry adapted basis functions of A   symmetry.
    97 basis functions,   184 primitive gaussians,    97 cartesian basis functions
    21 alpha electrons       21 beta electrons
       nuclear repulsion energy       194.3651334122 Hartrees.
 IExCor=  402 DFT=T Ex+Corr=B3LYP ExCW=0 ScaHFX=  0.200000
 ScaDFX=  0.800000  0.720000  1.000000  0.810000 ScalE2=  1.000000  1.000000
 IRadAn=      5 IRanWt=     -1 IRanGd=            0 ICorTp=0 IEmpDi=  4
 NAtoms=   16 NActive=   16 NUniq=   16 SFac= 1.00D+00 NAtFMM=   60 NAOKFM=F Big=F
 Integral buffers will be    131072 words long.
 Raffenetti 2 integral format.
 Two-electron integral symmetry is turned on.
 Leave Link  301 at Mon Oct 14 01:07:59 2019, MaxMem= 10737418240 cpu:               1.3 elap:               0.1
 (Enter /apps/cent7/gaussian/g16-A.03/g16-haswell/g16/l302.exe)
 NPDir=0 NMtPBC=     1 NCelOv=     1 NCel=       1 NClECP=     1 NCelD=      1
         NCelK=      1 NCelE2=     1 NClLst=     1 CellRange=     0.0.
 One-electron integrals computed using PRISM.
 One-electron integral symmetry used in STVInt
 NBasis=    97 RedAO= T EigKep=  3.56D-03  NBF=    97
 NBsUse=    97 1.00D-06 EigRej= -1.00D+00 NBFU=    97
 Precomputing XC quadrature grid using
 IXCGrd= 4 IRadAn=           5 IRanWt=          -1 IRanGd=           0 AccXCQ= 0.00D+00.
 Generated NRdTot=       0 NPtTot=           0 NUsed=           0 NTot=          32
 NSgBfM=    97    97    97    97    97 MxSgAt=    16 MxSgA2=    16.
 Leave Link  302 at Mon Oct 14 01:07:59 2019, MaxMem= 10737418240 cpu:               3.1 elap:               0.2
 (Enter /apps/cent7/gaussian/g16-A.03/g16-haswell/g16/l303.exe)
 DipDrv:  MaxL=1.
 Leave Link  303 at Mon Oct 14 01:07:59 2019, MaxMem= 10737418240 cpu:               0.6 elap:               0.1
 (Enter /apps/cent7/gaussian/g16-A.03/g16-haswell/g16/l401.exe)
 ExpMin= 1.61D-01 ExpMax= 5.48D+03 ExpMxC= 8.25D+02 IAcc=3 IRadAn=         5 AccDes= 0.00D+00
 Harris functional with IExCor=  402 and IRadAn=       5 diagonalized for initial guess.
 HarFok:  IExCor=  402 AccDes= 0.00D+00 IRadAn=         5 IDoV= 1 UseB2=F ITyADJ=14
 ICtDFT=  3500011 ScaDFX=  1.000000  1.000000  1.000000  1.000000
 FoFCou: FMM=F IPFlag=           0 FMFlag=      100000 FMFlg1=           0
         NFxFlg=           0 DoJE=T BraDBF=F KetDBF=T FulRan=T
         wScrn=  0.000000 ICntrl=       500 IOpCl=  0 I1Cent=   200000004 NGrid=           0
         NMat0=    1 NMatS0=      1 NMatT0=    0 NMatD0=    1 NMtDS0=    0 NMtDT0=    0
 Petite list used in FoFCou.
 Harris En= -234.058229564083    
 JPrj=0 DoOrth=F DoCkMO=F.
 Leave Link  401 at Mon Oct 14 01:07:59 2019, MaxMem= 10737418240 cpu:               5.3 elap:               0.3
 (Enter /apps/cent7/gaussian/g16-A.03/g16-haswell/g16/l502.exe)
 Integral symmetry usage will be decided dynamically.
 Closed shell SCF:
 Using DIIS extrapolation, IDIIS=  1040.
 NGot= 10737418240 LenX= 10737395705 LenY= 10737385855
 Requested convergence on RMS density matrix=1.00D-08 within 128 cycles.
 Requested convergence on MAX density matrix=1.00D-06.
 Requested convergence on             energy=1.00D-06.
 No special actions if energy rises.
 Fock matrices will be formed incrementally for  20 cycles.
 Integral accuracy reduced to 1.0D-05 until final iterations.

 Cycle   1  Pass 0  IDiag  1:
 FoFJK:  IHMeth= 1 ICntrl=       0 DoSepK=F KAlg= 0 I1Cent=           0 FoldK=F
 IRaf= 970000000 NMat=       1 IRICut=       1 DoRegI=T DoRafI=F ISym2E= 0 IDoP0=0 IntGTp=1.
 FoFCou: FMM=F IPFlag=           0 FMFlag=      100000 FMFlg1=           0
         NFxFlg=           0 DoJE=F BraDBF=F KetDBF=F FulRan=T
         wScrn=  0.000000 ICntrl=         0 IOpCl=  0 I1Cent=           0 NGrid=           0
         NMat0=    1 NMatS0=      1 NMatT0=    0 NMatD0=    1 NMtDS0=    0 NMtDT0=    0
 Symmetry not used in FoFCou.
 E= -233.784451348469    
 DIIS: error= 4.12D-02 at cycle   1 NSaved=   1.
 NSaved= 1 IEnMin= 1 EnMin= -233.784451348469     IErMin= 1 ErrMin= 4.12D-02
 ErrMax= 4.12D-02  0.00D+00 EMaxC= 1.00D-01 BMatC= 1.52D-01 BMatP= 1.52D-01
 IDIUse=3 WtCom= 5.88D-01 WtEn= 4.12D-01
 Coeff-Com:  0.100D+01
 Coeff-En:   0.100D+01
 Coeff:      0.100D+01
 Gap=     0.344 Goal=   None    Shift=    0.000
 GapD=    0.344 DampG=1.000 DampE=0.500 DampFc=0.5000 IDamp=-1.
 Damping current iteration by 5.00D-01
 RMSDP=9.38D-03 MaxDP=1.38D-01              OVMax= 2.03D-01

 Cycle   2  Pass 0  IDiag  1:
 RMSU=  4.62D-03    CP:  9.76D-01
 E= -233.858268143219     Delta-E=       -0.073816794750 Rises=F Damp=T
 DIIS: error= 9.09D-03 at cycle   2 NSaved=   2.
 NSaved= 2 IEnMin= 2 EnMin= -233.858268143219     IErMin= 2 ErrMin= 9.09D-03
 ErrMax= 9.09D-03  0.00D+00 EMaxC= 1.00D-01 BMatC= 7.60D-03 BMatP= 1.52D-01
 IDIUse=3 WtCom= 9.09D-01 WtEn= 9.09D-02
 Coeff-Com:  0.573D-01 0.943D+00
 Coeff-En:   0.105D+00 0.895D+00
 Coeff:      0.617D-01 0.938D+00
 Gap=     0.275 Goal=   None    Shift=    0.000
 RMSDP=1.76D-03 MaxDP=2.22D-02 DE=-7.38D-02 OVMax= 1.15D-01

 Cycle   3  Pass 0  IDiag  1:
 RMSU=  1.71D-03    CP:  9.76D-01  9.07D-01
 E= -233.950090750829     Delta-E=       -0.091822607609 Rises=F Damp=F
 DIIS: error= 2.93D-03 at cycle   3 NSaved=   3.
 NSaved= 3 IEnMin= 3 EnMin= -233.950090750829     IErMin= 3 ErrMin= 2.93D-03
 ErrMax= 2.93D-03  0.00D+00 EMaxC= 1.00D-01 BMatC= 1.46D-03 BMatP= 7.60D-03
 IDIUse=3 WtCom= 9.71D-01 WtEn= 2.93D-02
 Coeff-Com: -0.194D-01 0.255D+00 0.764D+00
 Coeff-En:   0.000D+00 0.000D+00 0.100D+01
 Coeff:     -0.188D-01 0.248D+00 0.771D+00
 Gap=     0.260 Goal=   None    Shift=    0.000
 RMSDP=5.03D-04 MaxDP=7.92D-03 DE=-9.18D-02 OVMax= 1.22D-02

 Cycle   4  Pass 0  IDiag  1:
 RMSU=  4.28D-04    CP:  9.76D-01  9.46D-01  8.85D-01
 E= -233.951090632474     Delta-E=       -0.000999881645 Rises=F Damp=F
 DIIS: error= 1.52D-03 at cycle   4 NSaved=   4.
 NSaved= 4 IEnMin= 4 EnMin= -233.951090632474     IErMin= 4 ErrMin= 1.52D-03
 ErrMax= 1.52D-03  0.00D+00 EMaxC= 1.00D-01 BMatC= 4.53D-04 BMatP= 1.46D-03
 IDIUse=3 WtCom= 9.85D-01 WtEn= 1.52D-02
 Coeff-Com: -0.150D-01 0.595D-01 0.391D+00 0.564D+00
 Coeff-En:   0.000D+00 0.000D+00 0.189D+00 0.811D+00
 Coeff:     -0.148D-01 0.586D-01 0.388D+00 0.568D+00
 Gap=     0.264 Goal=   None    Shift=    0.000
 RMSDP=2.00D-04 MaxDP=4.11D-03 DE=-1.00D-03 OVMax= 4.30D-03

 Cycle   5  Pass 0  IDiag  1:
 RMSU=  1.07D-04    CP:  9.75D-01  9.35D-01  9.09D-01  6.35D-01
 E= -233.951491236470     Delta-E=       -0.000400603996 Rises=F Damp=F
 DIIS: error= 2.82D-04 at cycle   5 NSaved=   5.
 NSaved= 5 IEnMin= 5 EnMin= -233.951491236470     IErMin= 5 ErrMin= 2.82D-04
 ErrMax= 2.82D-04  0.00D+00 EMaxC= 1.00D-01 BMatC= 1.23D-05 BMatP= 4.53D-04
 IDIUse=3 WtCom= 9.97D-01 WtEn= 2.82D-03
 Coeff-Com: -0.430D-02 0.716D-02 0.924D-01 0.213D+00 0.691D+00
 Coeff-En:   0.000D+00 0.000D+00 0.000D+00 0.000D+00 0.100D+01
 Coeff:     -0.429D-02 0.714D-02 0.921D-01 0.213D+00 0.692D+00
 Gap=     0.263 Goal=   None    Shift=    0.000
 RMSDP=3.51D-05 MaxDP=6.72D-04 DE=-4.01D-04 OVMax= 6.70D-04

 Cycle   6  Pass 0  IDiag  1:
 RMSU=  2.19D-05    CP:  9.75D-01  9.38D-01  9.15D-01  6.59D-01  8.10D-01
 E= -233.951500772541     Delta-E=       -0.000009536071 Rises=F Damp=F
 DIIS: error= 1.01D-04 at cycle   6 NSaved=   6.
 NSaved= 6 IEnMin= 6 EnMin= -233.951500772541     IErMin= 6 ErrMin= 1.01D-04
 ErrMax= 1.01D-04  0.00D+00 EMaxC= 1.00D-01 BMatC= 1.27D-06 BMatP= 1.23D-05
 IDIUse=3 WtCom= 9.99D-01 WtEn= 1.01D-03
 Coeff-Com: -0.176D-02 0.124D-02 0.319D-01 0.881D-01 0.351D+00 0.530D+00
 Coeff-En:   0.000D+00 0.000D+00 0.000D+00 0.000D+00 0.000D+00 0.100D+01
 Coeff:     -0.176D-02 0.124D-02 0.318D-01 0.880D-01 0.350D+00 0.530D+00
 Gap=     0.263 Goal=   None    Shift=    0.000
 RMSDP=8.77D-06 MaxDP=2.23D-04 DE=-9.54D-06 OVMax= 2.07D-04

 Initial convergence to 1.0D-05 achieved.  Increase integral accuracy.
 Cycle   7  Pass 1  IDiag  1:
 E= -233.951496477548     Delta-E=        0.000004294993 Rises=F Damp=F
 DIIS: error= 1.86D-05 at cycle   1 NSaved=   1.
 NSaved= 1 IEnMin= 1 EnMin= -233.951496477548     IErMin= 1 ErrMin= 1.86D-05
 ErrMax= 1.86D-05  0.00D+00 EMaxC= 1.00D-01 BMatC= 4.69D-08 BMatP= 4.69D-08
 IDIUse=1 WtCom= 1.00D+00 WtEn= 0.00D+00
 Coeff-Com:  0.100D+01
 Coeff:      0.100D+01
 Gap=     0.263 Goal=   None    Shift=    0.000
 RMSDP=8.77D-06 MaxDP=2.23D-04 DE= 4.29D-06 OVMax= 8.40D-05

 Cycle   8  Pass 1  IDiag  1:
 RMSU=  3.95D-06    CP:  1.00D+00
 E= -233.951496466291     Delta-E=        0.000000011257 Rises=F Damp=F
 DIIS: error= 2.71D-05 at cycle   2 NSaved=   2.
 NSaved= 2 IEnMin= 1 EnMin= -233.951496477548     IErMin= 1 ErrMin= 1.86D-05
 ErrMax= 2.71D-05  0.00D+00 EMaxC= 1.00D-01 BMatC= 6.98D-08 BMatP= 4.69D-08
 IDIUse=1 WtCom= 1.00D+00 WtEn= 0.00D+00
 Coeff-Com:  0.552D+00 0.448D+00
 Coeff:      0.552D+00 0.448D+00
 Gap=     0.263 Goal=   None    Shift=    0.000
 RMSDP=1.75D-06 MaxDP=5.14D-05 DE= 1.13D-08 OVMax= 4.37D-05

 Cycle   9  Pass 1  IDiag  1:
 RMSU=  1.12D-06    CP:  1.00D+00  6.61D-01
 E= -233.951496516952     Delta-E=       -0.000000050661 Rises=F Damp=F
 DIIS: error= 2.45D-06 at cycle   3 NSaved=   3.
 NSaved= 3 IEnMin= 3 EnMin= -233.951496516952     IErMin= 3 ErrMin= 2.45D-06
 ErrMax= 2.45D-06  0.00D+00 EMaxC= 1.00D-01 BMatC= 6.86D-10 BMatP= 4.69D-08
 IDIUse=1 WtCom= 1.00D+00 WtEn= 0.00D+00
 Coeff-Com:  0.129D+00 0.142D+00 0.729D+00
 Coeff:      0.129D+00 0.142D+00 0.729D+00
 Gap=     0.263 Goal=   None    Shift=    0.000
 RMSDP=3.03D-07 MaxDP=5.55D-06 DE=-5.07D-08 OVMax= 5.31D-06

 Cycle  10  Pass 1  IDiag  1:
 RMSU=  2.96D-07    CP:  1.00D+00  6.67D-01  9.57D-01
 E= -233.951496517423     Delta-E=       -0.000000000471 Rises=F Damp=F
 DIIS: error= 7.43D-07 at cycle   4 NSaved=   4.
 NSaved= 4 IEnMin= 4 EnMin= -233.951496517423     IErMin= 4 ErrMin= 7.43D-07
 ErrMax= 7.43D-07  0.00D+00 EMaxC= 1.00D-01 BMatC= 9.35D-11 BMatP= 6.86D-10
 IDIUse=1 WtCom= 1.00D+00 WtEn= 0.00D+00
 Coeff-Com:  0.454D-02 0.177D-01 0.298D+00 0.680D+00
 Coeff:      0.454D-02 0.177D-01 0.298D+00 0.680D+00
 Gap=     0.263 Goal=   None    Shift=    0.000
 RMSDP=9.98D-08 MaxDP=2.44D-06 DE=-4.71D-10 OVMax= 2.14D-06

 Cycle  11  Pass 1  IDiag  1:
 RMSU=  6.93D-08    CP:  1.00D+00  6.71D-01  9.65D-01  7.72D-01
 E= -233.951496517501     Delta-E=       -0.000000000078 Rises=F Damp=F
 DIIS: error= 2.01D-07 at cycle   5 NSaved=   5.
 NSaved= 5 IEnMin= 5 EnMin= -233.951496517501     IErMin= 5 ErrMin= 2.01D-07
 ErrMax= 2.01D-07  0.00D+00 EMaxC= 1.00D-01 BMatC= 7.46D-12 BMatP= 9.35D-11
 IDIUse=1 WtCom= 1.00D+00 WtEn= 0.00D+00
 Coeff-Com: -0.637D-02-0.153D-02 0.848D-01 0.305D+00 0.619D+00
 Coeff:     -0.637D-02-0.153D-02 0.848D-01 0.305D+00 0.619D+00
 Gap=     0.263 Goal=   None    Shift=    0.000
 RMSDP=2.83D-08 MaxDP=4.74D-07 DE=-7.79D-11 OVMax= 6.37D-07

 Cycle  12  Pass 1  IDiag  1:
 RMSU=  1.83D-08    CP:  1.00D+00  6.72D-01  9.73D-01  7.74D-01  7.17D-01
 E= -233.951496517509     Delta-E=       -0.000000000008 Rises=F Damp=F
 DIIS: error= 2.48D-08 at cycle   6 NSaved=   6.
 NSaved= 6 IEnMin= 6 EnMin= -233.951496517509     IErMin= 6 ErrMin= 2.48D-08
 ErrMax= 2.48D-08  0.00D+00 EMaxC= 1.00D-01 BMatC= 1.10D-13 BMatP= 7.46D-12
 IDIUse=1 WtCom= 1.00D+00 WtEn= 0.00D+00
 Coeff-Com: -0.171D-02-0.854D-03 0.119D-01 0.571D-01 0.163D+00 0.770D+00
 Coeff:     -0.171D-02-0.854D-03 0.119D-01 0.571D-01 0.163D+00 0.770D+00
 Gap=     0.263 Goal=   None    Shift=    0.000
 RMSDP=5.23D-09 MaxDP=1.13D-07 DE=-7.62D-12 OVMax= 1.31D-07

 SCF Done:  E(RB3LYP) =  -233.951496518     A.U. after   12 cycles
            NFock= 12  Conv=0.52D-08     -V/T= 2.0086
 KE= 2.319588835458D+02 PE=-9.234576148771D+02 EE= 2.631821014015D+02
 Leave Link  502 at Mon Oct 14 01:08:01 2019, MaxMem= 10737418240 cpu:              37.0 elap:               1.6
 (Enter /apps/cent7/gaussian/g16-A.03/g16-haswell/g16/l601.exe)
 Copying SCF densities to generalized density rwf, IOpCl= 0 IROHF=0.

 **********************************************************************

            Population analysis using the SCF density.

 **********************************************************************

 Orbital symmetries:
       Occupied  (A) (A) (A) (A) (A) (A) (A) (A) (A) (A) (A) (A)
                 (A) (A) (A) (A) (A) (A) (A) (A) (A)
       Virtual   (A) (A) (A) (A) (A) (A) (A) (A) (A) (A) (A) (A)
                 (A) (A) (A) (A) (A) (A) (A) (A) (A) (A) (A) (A)
                 (A) (A) (A) (A) (A) (A) (A) (A) (A) (A) (A) (A)
                 (A) (A) (A) (A) (A) (A) (A) (A) (A) (A) (A) (A)
                 (A) (A) (A) (A) (A) (A) (A) (A) (A) (A) (A) (A)
                 (A) (A) (A) (A) (A) (A) (A) (A) (A) (A) (A) (A)
                 (A) (A) (A) (A)
 The electronic state is 1-A.
 Alpha  occ. eigenvalues --  -19.52925 -10.46533 -10.36758 -10.33353 -10.29695
 Alpha  occ. eigenvalues --   -1.41761  -1.00096  -0.92214  -0.90626  -0.82769
 Alpha  occ. eigenvalues --   -0.77286  -0.72722  -0.71650  -0.65413  -0.60051
 Alpha  occ. eigenvalues --   -0.57859  -0.54437  -0.53536  -0.48959  -0.48084
 Alpha  occ. eigenvalues --   -0.46727
 Alpha virt. eigenvalues --   -0.20399  -0.12921  -0.08941  -0.06435  -0.03926
 Alpha virt. eigenvalues --   -0.02904   0.00214   0.01512   0.02506   0.03469
 Alpha virt. eigenvalues --    0.04607   0.06213   0.08637   0.09216   0.10775
 Alpha virt. eigenvalues --    0.30794   0.31984   0.35431   0.39562   0.41475
 Alpha virt. eigenvalues --    0.44692   0.46802   0.48712   0.50120   0.52566
 Alpha virt. eigenvalues --    0.56043   0.57062   0.62793   0.63415   0.66200
 Alpha virt. eigenvalues --    0.67334   0.70940   0.73299   0.74592   0.76963
 Alpha virt. eigenvalues --    0.78744   0.78980   0.81061   0.82771   0.86242
 Alpha virt. eigenvalues --    0.92803   0.97244   1.09826   1.16367   1.20760
 Alpha virt. eigenvalues --    1.23300   1.32898   1.35019   1.54193   1.63217
 Alpha virt. eigenvalues --    1.66065   1.70174   1.78380   1.79883   1.82510
 Alpha virt. eigenvalues --    1.84022   1.87036   1.90146   1.92183   1.99145
 Alpha virt. eigenvalues --    2.04229   2.08902   2.10995   2.17108   2.20751
 Alpha virt. eigenvalues --    2.25576   2.29447   2.40107   2.44659   2.57694
 Alpha virt. eigenvalues --    2.61511   3.51094   3.96107   4.08472   4.19973
 Alpha virt. eigenvalues --    4.34101
          Condensed to atoms (all electrons):
               1          2          3          4          5          6
     1  C    5.053483   0.363787  -0.035522   0.003833  -0.000036   0.383059
     2  C    0.363787   4.980508   0.351969  -0.034048   0.001718  -0.028326
     3  C   -0.035522   0.351969   5.113012   0.329985  -0.030456   0.003905
     4  C    0.003833  -0.034048   0.329985   5.137545   0.112725  -0.000128
     5  O   -0.000036   0.001718  -0.030456   0.112725   7.999505   0.000000
     6  H    0.383059  -0.028326   0.003905  -0.000128   0.000000   0.507457
     7  H    0.381186  -0.041227  -0.008483   0.000159  -0.000001  -0.025217
     8  H    0.383483  -0.033004  -0.003600  -0.000081   0.000001  -0.024731
     9  H   -0.040298   0.388654  -0.047206  -0.006517   0.000003  -0.006142
    10  H   -0.038917   0.385032  -0.048331  -0.005777  -0.000018  -0.000176
    11  H   -0.001722  -0.035017   0.373263  -0.050874  -0.002361  -0.000059
    12  H   -0.003598  -0.032182   0.376042  -0.045154   0.000406   0.000086
    13  H   -0.000058  -0.000366  -0.028721   0.376458  -0.029113  -0.000001
    14  H   -0.000104   0.001546  -0.041866   0.382777  -0.038973   0.000002
    15  H    0.000002  -0.000118   0.003552  -0.013124   0.255832  -0.000000
    16  H   -0.000000  -0.000231   0.001055  -0.015068   0.249928  -0.000000
               7          8          9         10         11         12
     1  C    0.381186   0.383483  -0.040298  -0.038917  -0.001722  -0.003598
     2  C   -0.041227  -0.033004   0.388654   0.385032  -0.035017  -0.032182
     3  C   -0.008483  -0.003600  -0.047206  -0.048331   0.373263   0.376042
     4  C    0.000159  -0.000081  -0.006517  -0.005777  -0.050874  -0.045154
     5  O   -0.000001   0.000001   0.000003  -0.000018  -0.002361   0.000406
     6  H   -0.025217  -0.024731  -0.006142  -0.000176  -0.000059   0.000086
     7  H    0.547161  -0.027170  -0.000393   0.005279  -0.000025   0.005477
     8  H   -0.027170   0.534506   0.004775  -0.007384   0.003272  -0.000313
     9  H   -0.000393   0.004775   0.551205  -0.019616   0.005742  -0.004472
    10  H    0.005279  -0.007384  -0.019616   0.557534  -0.004425   0.005444
    11  H   -0.000025   0.003272   0.005742  -0.004425   0.556713  -0.019364
    12  H    0.005477  -0.000313  -0.004472   0.005444  -0.019364   0.518700
    13  H    0.000009   0.000006   0.004280  -0.000236   0.004880  -0.005029
    14  H    0.000011  -0.000000  -0.000292   0.004318  -0.005345   0.005158
    15  H    0.000000  -0.000000   0.000006   0.000007  -0.000060  -0.000031
    16  H    0.000002   0.000000   0.000033   0.000025   0.006959   0.000032
              13         14         15         16
     1  C   -0.000058  -0.000104   0.000002  -0.000000
     2  C   -0.000366   0.001546  -0.000118  -0.000231
     3  C   -0.028721  -0.041866   0.003552   0.001055
     4  C    0.376458   0.382777  -0.013124  -0.015068
     5  O   -0.029113  -0.038973   0.255832   0.249928
     6  H   -0.000001   0.000002  -0.000000  -0.000000
     7  H    0.000009   0.000011   0.000000   0.000002
     8  H    0.000006  -0.000000  -0.000000   0.000000
     9  H    0.004280  -0.000292   0.000006   0.000033
    10  H   -0.000236   0.004318   0.000007   0.000025
    11  H    0.004880  -0.005345  -0.000060   0.006959
    12  H   -0.005029   0.005158  -0.000031   0.000032
    13  H    0.447594  -0.019701  -0.002374   0.004535
    14  H   -0.019701   0.493906  -0.001693  -0.001930
    15  H   -0.002374  -0.001693   0.254325  -0.010556
    16  H    0.004535  -0.001930  -0.010556   0.260166
 Mulliken charges:
               1
     1  C   -0.448578
     2  C   -0.268695
     3  C   -0.308598
     4  C   -0.172711
     5  O   -0.519162
     6  H    0.190272
     7  H    0.163231
     8  H    0.170239
     9  H    0.170237
    10  H    0.167240
    11  H    0.168424
    12  H    0.198797
    13  H    0.247837
    14  H    0.222185
    15  H    0.514232
    16  H    0.505050
 Sum of Mulliken charges =   1.00000
 Mulliken charges with hydrogens summed into heavy atoms:
               1
     1  C    0.075163
     2  C    0.068783
     3  C    0.058623
     4  C    0.297311
     5  O    0.500120
 Electronic spatial extent (au):  <R**2>=            677.4413
 Charge=              1.0000 electrons
 Dipole moment (field-independent basis, Debye):
    X=              8.3833    Y=             -0.0680    Z=              1.2439  Tot=              8.4754
 Quadrupole moment (field-independent basis, Debye-Ang):
   XX=             -1.4810   YY=            -29.5704   ZZ=            -28.6173
   XY=             -0.9320   XZ=              3.4167   YZ=             -2.0961
 Traceless Quadrupole moment (field-independent basis, Debye-Ang):
   XX=             18.4086   YY=             -9.6808   ZZ=             -8.7277
   XY=             -0.9320   XZ=              3.4167   YZ=             -2.0961
 Octapole moment (field-independent basis, Debye-Ang**2):
  XXX=             90.2097  YYY=             -3.2010  ZZZ=              1.4056  XYY=             11.0606
  XXY=             -0.6517  XXZ=              7.8441  XZZ=              8.0569  YZZ=             -0.5514
  YYZ=              0.9219  XYZ=             -4.0857
 Hexadecapole moment (field-independent basis, Debye-Ang**3):
 XXXX=           -400.6199 YYYY=            -93.1249 ZZZZ=            -55.0913 XXXY=            -11.9953
 XXXZ=             21.5764 YYYX=             -8.7035 YYYZ=             -3.6170 ZZZX=              1.5870
 ZZZY=             -1.7071 XXYY=           -116.3253 XXZZ=           -114.8733 YYZZ=            -20.9540
 XXYZ=            -12.7690 YYXZ=              4.5630 ZZXY=             -1.6923
 N-N= 1.943651334122D+02 E-N=-9.234576189928D+02  KE= 2.319588835458D+02
 No NMR shielding tensors so no spin-rotation constants.
 Leave Link  601 at Mon Oct 14 01:08:01 2019, MaxMem= 10737418240 cpu:               2.1 elap:               0.1
 (Enter /apps/cent7/gaussian/g16-A.03/g16-haswell/g16/l701.exe)
 ... and contract with generalized density number  0.
 Compute integral first derivatives.
 Leave Link  701 at Mon Oct 14 01:08:01 2019, MaxMem= 10737418240 cpu:               2.4 elap:               0.1
 (Enter /apps/cent7/gaussian/g16-A.03/g16-haswell/g16/l702.exe)
 L702 exits ... SP integral derivatives will be done elsewhere.
 Leave Link  702 at Mon Oct 14 01:08:01 2019, MaxMem= 10737418240 cpu:               0.4 elap:               0.0
 (Enter /apps/cent7/gaussian/g16-A.03/g16-haswell/g16/l703.exe)
 Integral derivatives from FoFJK, PRISM(SPDF).
 Compute integral first derivatives, UseDBF=F ICtDFT=           0.
 Calling FoFJK, ICntrl=      2127 FMM=F ISym2X=0 I1Cent= 0 IOpClX= 0 NMat=1 NMatS=1 NMatT=0.
 FoFJK:  IHMeth= 1 ICntrl=    2127 DoSepK=F KAlg= 0 I1Cent=           0 FoldK=F
 IRaf=         0 NMat=       1 IRICut=       1 DoRegI=T DoRafI=F ISym2E= 0 IDoP0=0 IntGTp=1.
 FoFCou: FMM=F IPFlag=           0 FMFlag=      100000 FMFlg1=         800
         NFxFlg=           0 DoJE=F BraDBF=F KetDBF=F FulRan=T
         wScrn=  0.000000 ICntrl=      2127 IOpCl=  0 I1Cent=           0 NGrid=           0
         NMat0=    1 NMatS0=      1 NMatT0=    0 NMatD0=    1 NMtDS0=    0 NMtDT0=    0
 Symmetry not used in FoFCou.
 Leave Link  703 at Mon Oct 14 01:08:02 2019, MaxMem= 10737418240 cpu:               9.3 elap:               0.4
 (Enter /apps/cent7/gaussian/g16-A.03/g16-haswell/g16/l716.exe)
 Dipole        = 3.29825693D+00-2.67376214D-02 4.89395419D-01
 ***** Axes restored to original set *****
 -------------------------------------------------------------------
 Center     Atomic                   Forces (Hartrees/Bohr)
 Number     Number              X              Y              Z
 -------------------------------------------------------------------
      1        6          -0.000107614    0.011580985    0.005709631
      2        6          -0.007326540    0.009758887   -0.013295328
      3        6           0.004033578   -0.002222472    0.019204329
      4        6           0.017660551   -0.068804055   -0.018833760
      5        8          -0.028680613    0.026554190   -0.006333267
      6        1           0.000746775   -0.001642221   -0.001904780
      7        1          -0.002993100   -0.003617414   -0.004832288
      8        1          -0.000463443   -0.001557902   -0.005376761
      9        1           0.013083555   -0.004106000    0.012649972
     10        1           0.000920110   -0.010676151    0.018177333
     11        1          -0.011343058    0.005593794   -0.013972436
     12        1          -0.001076163    0.009806242   -0.015910966
     13        1           0.009983445    0.002513774    0.009027764
     14        1           0.000052028   -0.008248617    0.015966031
     15        1          -0.001132612    0.018011505    0.018249819
     16        1           0.006643101    0.017055457   -0.018525292
 -------------------------------------------------------------------
 Cartesian Forces:  Max     0.068804055 RMS     0.015330418
 Leave Link  716 at Mon Oct 14 01:08:02 2019, MaxMem= 10737418240 cpu:               0.6 elap:               0.0
 (Enter /apps/cent7/gaussian/g16-A.03/g16-haswell/g16/l103.exe)

 GradGradGradGradGradGradGradGradGradGradGradGradGradGradGradGradGradGrad
 Berny optimization.
 FormGI is forming the generalized inverse of G from B-inverse, IUseBI=4.
 GSVD:  received Info=                   1 from GESDD.
 Internal  Forces:  Max     0.066154019 RMS     0.010589635
 Search for a local minimum.
 Step number   1 out of a maximum of   85
 All quantities printed in internal units (Hartrees-Bohrs-Radians)
 RMS Force = .10590D-01 SwitMx=.10000D-02 MixMth= 1
 Mixed Optimization -- RFO/linear search
 Second derivative matrix not updated -- first step.
 ITU=  0
     Eigenvalues ---    0.00230   0.00230   0.00230   0.01403   0.03927
     Eigenvalues ---    0.03961   0.04740   0.05039   0.05134   0.05144
     Eigenvalues ---    0.05602   0.05714   0.05715   0.07769   0.07821
     Eigenvalues ---    0.09152   0.11792   0.11833   0.12387   0.16000
     Eigenvalues ---    0.16000   0.16000   0.16000   0.16000   0.22486
     Eigenvalues ---    0.22508   0.22516   0.27560   0.28031   0.28183
     Eigenvalues ---    0.34806   0.34807   0.34807   0.34809   0.34813
     Eigenvalues ---    0.34813   0.34815   0.34818   0.34823   0.42188
     Eigenvalues ---    0.55473   0.55473
 RFO step:  Lambda=-3.05343112D-02 EMin= 2.30000000D-03
 Linear search not attempted -- first point.
 Maximum step size (   0.300) exceeded in Quadratic search.
    -- Step size scaled by   0.927
 Iteration  1 RMS(Cart)=  0.05471310 RMS(Int)=  0.00170876
 Iteration  2 RMS(Cart)=  0.00164328 RMS(Int)=  0.00072213
 Iteration  3 RMS(Cart)=  0.00000164 RMS(Int)=  0.00072213
 Iteration  4 RMS(Cart)=  0.00000000 RMS(Int)=  0.00072213
 ITry= 1 IFail=0 DXMaxC= 1.68D-01 DCOld= 1.00D+10 DXMaxT= 3.00D-01 DXLimC= 3.00D+00 Rises=F
 Variable       Old X    -DE/DX   Delta X   Delta X   Delta X     New X
                                 (Linear)    (Quad)   (Total)
    R1        2.91740   0.00358   0.00000   0.01061   0.01061   2.92802
    R2        2.05989   0.00132   0.00000   0.00323   0.00323   2.06312
    R3        2.05987   0.00365   0.00000   0.00894   0.00894   2.06880
    R4        2.05979   0.00270   0.00000   0.00660   0.00660   2.06639
    R5        2.93110   0.00197   0.00000   0.00597   0.00597   2.93708
    R6        2.05990   0.00284   0.00000   0.00696   0.00696   2.06685
    R7        2.05971   0.00293   0.00000   0.00717   0.00717   2.06688
    R8        2.92072  -0.00616   0.00000  -0.01839  -0.01839   2.90233
    R9        2.05980   0.00543   0.00000   0.01329   0.01329   2.07309
   R10        2.05976   0.00280   0.00000   0.00687   0.00687   2.06663
   R11        2.68684   0.06615   0.00000   0.13558   0.13558   2.82242
   R12        2.05963  -0.00066   0.00000  -0.00161  -0.00161   2.05802
   R13        2.05992   0.00189   0.00000   0.00462   0.00462   2.06454
   R14        1.81414   0.02437   0.00000   0.03860   0.03860   1.85274
   R15        1.81414   0.02478   0.00000   0.03925   0.03925   1.85339
    A1        1.91069   0.00041   0.00000  -0.00028  -0.00028   1.91041
    A2        1.91069   0.00660   0.00000   0.03328   0.03292   1.94361
    A3        1.91072   0.00564   0.00000   0.02855   0.02819   1.93891
    A4        1.91055  -0.00399   0.00000  -0.02162  -0.02163   1.88892
    A5        1.91058  -0.00353   0.00000  -0.01951  -0.01950   1.89108
    A6        1.91056  -0.00513   0.00000  -0.02043  -0.02111   1.88945
    A7        1.96214  -0.01538   0.00000  -0.03667  -0.03632   1.92582
    A8        1.85105   0.00701   0.00000   0.03991   0.04020   1.89125
    A9        1.85109   0.00670   0.00000   0.03852   0.03882   1.88991
   A10        1.85404   0.00608   0.00000   0.03287   0.03321   1.88725
   A11        1.85413   0.00657   0.00000   0.03655   0.03687   1.89101
   A12        2.09438  -0.01302   0.00000  -0.11577  -0.11563   1.97876
   A13        1.96796  -0.01846   0.00000  -0.05005  -0.04935   1.91861
   A14        1.85241   0.00654   0.00000   0.03293   0.03349   1.88590
   A15        1.85248   0.00776   0.00000   0.04209   0.04261   1.89509
   A16        1.85022   0.00754   0.00000   0.03910   0.03959   1.88981
   A17        1.85008   0.00677   0.00000   0.03585   0.03642   1.88650
   A18        2.09448  -0.01263   0.00000  -0.10681  -0.10688   1.98760
   A19        1.92046  -0.01328   0.00000  -0.03539  -0.03512   1.88533
   A20        1.88657   0.00887   0.00000   0.04273   0.04262   1.92919
   A21        1.88650   0.00654   0.00000   0.04208   0.04215   1.92865
   A22        1.83574   0.00041   0.00000  -0.01104  -0.01047   1.82527
   A23        1.83552   0.00747   0.00000   0.04908   0.04931   1.88484
   A24        2.09449  -0.01176   0.00000  -0.09074  -0.09070   2.00379
   A25        1.91063   0.01136   0.00000   0.06606   0.06363   1.97426
   A26        1.91063   0.01045   0.00000   0.06163   0.05919   1.96983
   A27        1.91063  -0.00631   0.00000  -0.00915  -0.01327   1.89736
    D1       -2.79148  -0.00065   0.00000  -0.02083  -0.02083  -2.81231
    D2       -0.77246   0.00286   0.00000   0.02339   0.02334  -0.74911
    D3        1.47254  -0.00456   0.00000  -0.06864  -0.06861   1.40393
    D4       -0.69711  -0.00125   0.00000  -0.02710  -0.02727  -0.72438
    D5        1.32191   0.00227   0.00000   0.01712   0.01690   1.33881
    D6       -2.71627  -0.00516   0.00000  -0.07492  -0.07506  -2.79133
    D7        1.39728  -0.00003   0.00000  -0.01425  -0.01406   1.38322
    D8       -2.86688   0.00348   0.00000   0.02998   0.03011  -2.83677
    D9       -0.62188  -0.00394   0.00000  -0.06206  -0.06184  -0.68372
   D10        3.14155   0.00007   0.00000   0.00332   0.00329  -3.13835
   D11       -1.12336   0.00345   0.00000   0.04413   0.04404  -1.07932
   D12        1.12340  -0.00312   0.00000  -0.03913  -0.03899   1.08440
   D13        1.12432  -0.00398   0.00000  -0.04512  -0.04514   1.07919
   D14       -3.14059  -0.00059   0.00000  -0.00431  -0.00438   3.13822
   D15       -0.89382  -0.00717   0.00000  -0.08756  -0.08742  -0.98124
   D16       -1.12431   0.00403   0.00000   0.05229   0.05224  -1.07208
   D17        0.89396   0.00741   0.00000   0.09311   0.09299   0.98695
   D18        3.14072   0.00084   0.00000   0.00985   0.00996  -3.13251
   D19        3.14150   0.00214   0.00000   0.02357   0.02369  -3.11800
   D20       -1.14586   0.00053   0.00000   0.01537   0.01514  -1.13072
   D21        1.14596  -0.00336   0.00000  -0.03917  -0.03914   1.10683
   D22        1.12191  -0.00067   0.00000  -0.01360  -0.01333   1.10858
   D23        3.11774  -0.00228   0.00000  -0.02180  -0.02188   3.09586
   D24       -0.87362  -0.00617   0.00000  -0.07634  -0.07615  -0.94978
   D25       -1.12210   0.00595   0.00000   0.06980   0.06984  -1.05226
   D26        0.87373   0.00434   0.00000   0.06160   0.06129   0.93502
   D27       -3.11764   0.00046   0.00000   0.00705   0.00701  -3.11062
   D28        3.13222  -0.00266   0.00000  -0.03316  -0.03401   3.09822
   D29       -1.05657   0.00297   0.00000   0.03382   0.03501  -1.02155
   D30        1.10422  -0.00684   0.00000  -0.06008  -0.06130   1.04292
   D31       -3.08457  -0.00121   0.00000   0.00690   0.00771  -3.07685
   D32       -1.12316   0.00262   0.00000   0.02544   0.02446  -1.09870
   D33        0.97124   0.00825   0.00000   0.09242   0.09347   1.06471
         Item               Value     Threshold  Converged?
 Maximum Force            0.066154     0.000450     NO 
 RMS     Force            0.010590     0.000300     NO 
 Maximum Displacement     0.167561     0.001800     NO 
 RMS     Displacement     0.054533     0.001200     NO 
 Predicted change in Energy=-1.771095D-02
 Lowest energy point so far.  Saving SCF results.
 GradGradGradGradGradGradGradGradGradGradGradGradGradGradGradGradGradGrad

 Leave Link  103 at Mon Oct 14 01:08:02 2019, MaxMem= 10737418240 cpu:               0.8 elap:               0.1
 (Enter /apps/cent7/gaussian/g16-A.03/g16-haswell/g16/l202.exe)
                          Input orientation:                          
 ---------------------------------------------------------------------
 Center     Atomic      Atomic             Coordinates (Angstroms)
 Number     Number       Type             X           Y           Z
 ---------------------------------------------------------------------
      1          6           0        2.236778   -0.744811   -1.256395
      2          6           0        2.450145   -0.016239    0.094316
      3          6           0        1.951400    1.452807    0.000464
      4          6           0        2.171496    2.167090    1.342172
      5          8           0        1.648857    3.560438    1.215066
      6          1           0        2.267197   -1.824312   -1.096119
      7          1           0        1.267386   -0.491293   -1.697434
      8          1           0        3.018938   -0.481075   -1.973599
      9          1           0        1.859053   -0.528162    0.859033
     10          1           0        3.522066   -0.002694    0.311304
     11          1           0        2.547378    1.965980   -0.764350
     12          1           0        0.877734    1.443699   -0.207245
     13          1           0        1.559151    1.714561    2.120822
     14          1           0        3.237520    2.226331    1.573802
     15          1           0        1.717343    4.074628    2.047025
     16          1           0        2.083388    4.066283    0.495888
 ---------------------------------------------------------------------
                    Distance matrix (angstroms):
                    1          2          3          4          5
     1  C    0.000000
     2  C    1.549440   0.000000
     3  C    2.547677   1.554235   0.000000
     4  C    3.903329   2.530161   1.535846   0.000000
     5  O    4.998894   3.832852   2.451306   1.493562   0.000000
     6  H    1.091758   2.172495   3.470119   4.678216   5.892321
     7  H    1.094763   2.198855   2.670254   4.138069   5.004468
     8  H    1.093487   2.194509   2.962509   4.327271   5.327150
     9  H    2.159779   1.093731   2.160997   2.755981   4.109452
    10  H    2.158792   1.093747   2.163815   2.755847   4.125725
    11  H    2.772539   2.162395   1.097031   2.149224   2.695871
    12  H    2.781599   2.166756   1.093612   2.144250   2.664241
    13  H    4.232409   2.810029   2.172163   1.089057   2.058082
    14  H    4.223646   2.799635   2.174358   1.092506   2.105323
    15  H    5.865952   4.591869   3.334238   2.083693   0.980428
    16  H    5.122563   4.118586   2.663292   2.081080   0.980772
                    6          7          8          9         10
     6  H    0.000000
     7  H    1.771479   0.000000
     8  H    1.771827   1.773218   0.000000
     9  H    2.381009   2.624300   3.061267   0.000000
    10  H    2.621798   3.058977   2.388047   1.828042   0.000000
    11  H    3.815087   2.923562   2.769970   3.054490   2.445962
    12  H    3.660683   2.473194   3.377797   2.447074   3.058339
    13  H    4.834631   4.419275   4.869915   2.590726   3.174327
    14  H    4.947495   4.686991   4.467871   3.162008   2.577483
    15  H    6.706653   5.922084   6.214016   4.755743   4.784800
    16  H    6.104701   5.123282   5.258525   4.614231   4.319773
                   11         12         13         14         15
    11  H    0.000000
    12  H    1.835989   0.000000
    13  H    3.060068   2.440817   0.000000
    14  H    2.451740   3.058305   1.837951   0.000000
    15  H    3.610981   3.564894   2.366514   2.439484   0.000000
    16  H    2.492941   2.970849   2.906171   2.424736   1.593765
                   16
    16  H    0.000000
 Stoichiometry    C4H11O(1+)
 Framework group  C1[X(C4H11O)]
 Deg. of freedom    42
 Full point group                 C1      NOp   1
 RotChk:  IX=0 Diff= 3.19D-02
 Largest Abelian subgroup         C1      NOp   1
 Largest concise Abelian subgroup C1      NOp   1
                         Standard orientation:                         
 ---------------------------------------------------------------------
 Center     Atomic      Atomic             Coordinates (Angstroms)
 Number     Number       Type             X           Y           Z
 ---------------------------------------------------------------------
      1          6           0       -2.582307   -0.328003   -0.015432
      2          6           0       -1.307941    0.551789    0.036718
      3          6           0       -0.034711   -0.336784   -0.033787
      4          6           0        1.222172    0.544020    0.023245
      5          8           0        2.416124   -0.347278   -0.080645
      6          1           0       -3.437778    0.287516   -0.300460
      7          1           0       -2.480679   -1.133971   -0.749321
      8          1           0       -2.790773   -0.776843    0.959657
      9          1           0       -1.310048    1.213228   -0.834339
     10          1           0       -1.300564    1.088944    0.989448
     11          1           0       -0.032082   -0.997199    0.842181
     12          1           0       -0.033489   -0.868731   -0.989307
     13          1           0        1.280421    1.183943   -0.856044
     14          1           0        1.276835    1.071423    0.978455
     15          1           0        3.264077    0.144772   -0.090785
     16          1           0        2.451803   -1.020996    0.631214
 ---------------------------------------------------------------------
 Rotational constants (GHZ):          17.3908343           1.8825972           1.7851305
 Leave Link  202 at Mon Oct 14 01:08:02 2019, MaxMem= 10737418240 cpu:               0.3 elap:               0.0
 (Enter /apps/cent7/gaussian/g16-A.03/g16-haswell/g16/l301.exe)
 Standard basis: 6-31G(d) (6D, 7F)
 Ernie: Thresh=  0.10000D-02 Tol=  0.10000D-05 Strict=F.
 There are    97 symmetry adapted cartesian basis functions of A   symmetry.
 There are    97 symmetry adapted basis functions of A   symmetry.
    97 basis functions,   184 primitive gaussians,    97 cartesian basis functions
    21 alpha electrons       21 beta electrons
       nuclear repulsion energy       192.7262422309 Hartrees.
 IExCor=  402 DFT=T Ex+Corr=B3LYP ExCW=0 ScaHFX=  0.200000
 ScaDFX=  0.800000  0.720000  1.000000  0.810000 ScalE2=  1.000000  1.000000
 IRadAn=      5 IRanWt=     -1 IRanGd=            0 ICorTp=0 IEmpDi=  4
 NAtoms=   16 NActive=   16 NUniq=   16 SFac= 1.00D+00 NAtFMM=   60 NAOKFM=F Big=F
 Integral buffers will be    131072 words long.
 Raffenetti 2 integral format.
 Two-electron integral symmetry is turned on.
 Leave Link  301 at Mon Oct 14 01:08:02 2019, MaxMem= 10737418240 cpu:               1.2 elap:               0.1
 (Enter /apps/cent7/gaussian/g16-A.03/g16-haswell/g16/l302.exe)
 NPDir=0 NMtPBC=     1 NCelOv=     1 NCel=       1 NClECP=     1 NCelD=      1
         NCelK=      1 NCelE2=     1 NClLst=     1 CellRange=     0.0.
 One-electron integrals computed using PRISM.
 One-electron integral symmetry used in STVInt
 NBasis=    97 RedAO= T EigKep=  3.75D-03  NBF=    97
 NBsUse=    97 1.00D-06 EigRej= -1.00D+00 NBFU=    97
 Precomputing XC quadrature grid using
 IXCGrd= 4 IRadAn=           5 IRanWt=          -1 IRanGd=           0 AccXCQ= 0.00D+00.
 Generated NRdTot=       0 NPtTot=           0 NUsed=           0 NTot=          32
 NSgBfM=    97    97    97    97    97 MxSgAt=    16 MxSgA2=    16.
 Leave Link  302 at Mon Oct 14 01:08:02 2019, MaxMem= 10737418240 cpu:               2.8 elap:               0.1
 (Enter /apps/cent7/gaussian/g16-A.03/g16-haswell/g16/l303.exe)
 DipDrv:  MaxL=1.
 Leave Link  303 at Mon Oct 14 01:08:02 2019, MaxMem= 10737418240 cpu:               0.5 elap:               0.0
 (Enter /apps/cent7/gaussian/g16-A.03/g16-haswell/g16/l401.exe)
 Initial guess from the checkpoint file:  "20_p.chk"
 B after Tr=    -0.000000   -0.000000    0.000000
         Rot=    0.999940    0.010802    0.000282   -0.001795 Ang=   1.26 deg.
 Guess basis will be translated and rotated to current coordinates.
 JPrj=2 DoOrth=T DoCkMO=T.
 Generating alternative initial guess.
 ExpMin= 1.61D-01 ExpMax= 5.48D+03 ExpMxC= 8.25D+02 IAcc=2 IRadAn=         4 AccDes= 0.00D+00
 Harris functional with IExCor=  402 and IRadAn=       4 diagonalized for initial guess.
 HarFok:  IExCor=  402 AccDes= 0.00D+00 IRadAn=         4 IDoV= 1 UseB2=F ITyADJ=14
 ICtDFT=  3500011 ScaDFX=  1.000000  1.000000  1.000000  1.000000
 FoFCou: FMM=F IPFlag=           0 FMFlag=      100000 FMFlg1=           0
         NFxFlg=           0 DoJE=T BraDBF=F KetDBF=T FulRan=T
         wScrn=  0.000000 ICntrl=       500 IOpCl=  0 I1Cent=   200000004 NGrid=           0
         NMat0=    1 NMatS0=      1 NMatT0=    0 NMatD0=    1 NMtDS0=    0 NMtDT0=    0
 Petite list used in FoFCou.
 Harris En= -234.070407637586    
 Leave Link  401 at Mon Oct 14 01:08:02 2019, MaxMem= 10737418240 cpu:               5.1 elap:               0.2
 (Enter /apps/cent7/gaussian/g16-A.03/g16-haswell/g16/l502.exe)
 Integral symmetry usage will be decided dynamically.
 Closed shell SCF:
 Using DIIS extrapolation, IDIIS=  1040.
 NGot= 10737418240 LenX= 10737395705 LenY= 10737385855
 Requested convergence on RMS density matrix=1.00D-08 within 128 cycles.
 Requested convergence on MAX density matrix=1.00D-06.
 Requested convergence on             energy=1.00D-06.
 No special actions if energy rises.
 Fock matrices will be formed incrementally for  20 cycles.
 Integral accuracy reduced to 1.0D-05 until final iterations.

 Cycle   1  Pass 0  IDiag  1:
 FoFJK:  IHMeth= 1 ICntrl=       0 DoSepK=F KAlg= 0 I1Cent=           0 FoldK=F
 IRaf= 970000000 NMat=       1 IRICut=       1 DoRegI=T DoRafI=F ISym2E= 0 IDoP0=0 IntGTp=1.
 FoFCou: FMM=F IPFlag=           0 FMFlag=      100000 FMFlg1=           0
         NFxFlg=           0 DoJE=F BraDBF=F KetDBF=F FulRan=T
         wScrn=  0.000000 ICntrl=         0 IOpCl=  0 I1Cent=           0 NGrid=           0
         NMat0=    1 NMatS0=      1 NMatT0=    0 NMatD0=    1 NMtDS0=    0 NMtDT0=    0
 Symmetry not used in FoFCou.
 E= -233.965727254429    
 DIIS: error= 4.16D-03 at cycle   1 NSaved=   1.
 NSaved= 1 IEnMin= 1 EnMin= -233.965727254429     IErMin= 1 ErrMin= 4.16D-03
 ErrMax= 4.16D-03  0.00D+00 EMaxC= 1.00D-01 BMatC= 3.14D-03 BMatP= 3.14D-03
 IDIUse=3 WtCom= 9.58D-01 WtEn= 4.16D-02
 Coeff-Com:  0.100D+01
 Coeff-En:   0.100D+01
 Coeff:      0.100D+01
 Gap=     1.768 Goal=   None    Shift=    0.000
 GapD=    1.768 DampG=2.000 DampE=1.000 DampFc=2.0000 IDamp=-1.
 RMSDP=8.48D-04 MaxDP=1.07D-02              OVMax= 1.63D-02

 Cycle   2  Pass 0  IDiag  1:
 RMSU=  8.46D-04    CP:  9.98D-01
 E= -233.969465533391     Delta-E=       -0.003738278962 Rises=F Damp=F
 DIIS: error= 2.39D-03 at cycle   2 NSaved=   2.
 NSaved= 2 IEnMin= 2 EnMin= -233.969465533391     IErMin= 2 ErrMin= 2.39D-03
 ErrMax= 2.39D-03  0.00D+00 EMaxC= 1.00D-01 BMatC= 5.35D-04 BMatP= 3.14D-03
 IDIUse=3 WtCom= 9.76D-01 WtEn= 2.39D-02
 Coeff-Com:  0.215D+00 0.785D+00
 Coeff-En:   0.000D+00 0.100D+01
 Coeff:      0.210D+00 0.790D+00
 Gap=     0.267 Goal=   None    Shift=    0.000
 RMSDP=2.93D-04 MaxDP=8.32D-03 DE=-3.74D-03 OVMax= 7.68D-03

 Cycle   3  Pass 0  IDiag  1:
 RMSU=  2.89D-04    CP:  1.00D+00  9.71D-01
 E= -233.969623756109     Delta-E=       -0.000158222718 Rises=F Damp=F
 DIIS: error= 2.17D-03 at cycle   3 NSaved=   3.
 NSaved= 3 IEnMin= 3 EnMin= -233.969623756109     IErMin= 3 ErrMin= 2.17D-03
 ErrMax= 2.17D-03  0.00D+00 EMaxC= 1.00D-01 BMatC= 3.71D-04 BMatP= 5.35D-04
 IDIUse=3 WtCom= 9.78D-01 WtEn= 2.17D-02
 Coeff-Com: -0.618D-02 0.452D+00 0.554D+00
 Coeff-En:   0.000D+00 0.390D+00 0.610D+00
 Coeff:     -0.605D-02 0.451D+00 0.555D+00
 Gap=     0.270 Goal=   None    Shift=    0.000
 RMSDP=1.34D-04 MaxDP=4.17D-03 DE=-1.58D-04 OVMax= 4.21D-03

 Cycle   4  Pass 0  IDiag  1:
 RMSU=  7.20D-05    CP:  9.99D-01  1.01D+00  6.35D-01
 E= -233.969886754337     Delta-E=       -0.000262998229 Rises=F Damp=F
 DIIS: error= 2.88D-04 at cycle   4 NSaved=   4.
 NSaved= 4 IEnMin= 4 EnMin= -233.969886754337     IErMin= 4 ErrMin= 2.88D-04
 ErrMax= 2.88D-04  0.00D+00 EMaxC= 1.00D-01 BMatC= 8.29D-06 BMatP= 3.71D-04
 IDIUse=3 WtCom= 9.97D-01 WtEn= 2.88D-03
 Coeff-Com: -0.126D-01 0.152D+00 0.236D+00 0.625D+00
 Coeff-En:   0.000D+00 0.000D+00 0.000D+00 0.100D+01
 Coeff:     -0.125D-01 0.151D+00 0.236D+00 0.626D+00
 Gap=     0.269 Goal=   None    Shift=    0.000
 RMSDP=2.77D-05 MaxDP=5.12D-04 DE=-2.63D-04 OVMax= 6.60D-04

 Cycle   5  Pass 0  IDiag  1:
 RMSU=  1.95D-05    CP:  9.99D-01  1.02D+00  6.35D-01  7.49D-01
 E= -233.969892927562     Delta-E=       -0.000006173225 Rises=F Damp=F
 DIIS: error= 8.18D-05 at cycle   5 NSaved=   5.
 NSaved= 5 IEnMin= 5 EnMin= -233.969892927562     IErMin= 5 ErrMin= 8.18D-05
 ErrMax= 8.18D-05  0.00D+00 EMaxC= 1.00D-01 BMatC= 6.58D-07 BMatP= 8.29D-06
 IDIUse=1 WtCom= 1.00D+00 WtEn= 0.00D+00
 Coeff-Com: -0.550D-02 0.401D-01 0.734D-01 0.288D+00 0.604D+00
 Coeff:     -0.550D-02 0.401D-01 0.734D-01 0.288D+00 0.604D+00
 Gap=     0.269 Goal=   None    Shift=    0.000
 RMSDP=7.82D-06 MaxDP=2.08D-04 DE=-6.17D-06 OVMax= 1.74D-04

 Initial convergence to 1.0D-05 achieved.  Increase integral accuracy.
 Cycle   6  Pass 1  IDiag  1:
 E= -233.969886651707     Delta-E=        0.000006275855 Rises=F Damp=F
 DIIS: error= 7.22D-06 at cycle   1 NSaved=   1.
 NSaved= 1 IEnMin= 1 EnMin= -233.969886651707     IErMin= 1 ErrMin= 7.22D-06
 ErrMax= 7.22D-06  0.00D+00 EMaxC= 1.00D-01 BMatC= 1.40D-08 BMatP= 1.40D-08
 IDIUse=1 WtCom= 1.00D+00 WtEn= 0.00D+00
 Coeff-Com:  0.100D+01
 Coeff:      0.100D+01
 Gap=     0.269 Goal=   None    Shift=    0.000
 RMSDP=7.82D-06 MaxDP=2.08D-04 DE= 6.28D-06 OVMax= 5.32D-05

 Cycle   7  Pass 1  IDiag  1:
 RMSU=  3.22D-06    CP:  1.00D+00
 E= -233.969886656057     Delta-E=       -0.000000004350 Rises=F Damp=F
 DIIS: error= 7.25D-06 at cycle   2 NSaved=   2.
 NSaved= 2 IEnMin= 2 EnMin= -233.969886656057     IErMin= 1 ErrMin= 7.22D-06
 ErrMax= 7.25D-06  0.00D+00 EMaxC= 1.00D-01 BMatC= 1.14D-08 BMatP= 1.40D-08
 IDIUse=1 WtCom= 1.00D+00 WtEn= 0.00D+00
 Coeff-Com:  0.471D+00 0.529D+00
 Coeff:      0.471D+00 0.529D+00
 Gap=     0.269 Goal=   None    Shift=    0.000
 RMSDP=1.08D-06 MaxDP=2.24D-05 DE=-4.35D-09 OVMax= 2.40D-05

 Cycle   8  Pass 1  IDiag  1:
 RMSU=  8.99D-07    CP:  1.00D+00  8.17D-01
 E= -233.969886666181     Delta-E=       -0.000000010124 Rises=F Damp=F
 DIIS: error= 2.11D-06 at cycle   3 NSaved=   3.
 NSaved= 3 IEnMin= 3 EnMin= -233.969886666181     IErMin= 3 ErrMin= 2.11D-06
 ErrMax= 2.11D-06  0.00D+00 EMaxC= 1.00D-01 BMatC= 5.90D-10 BMatP= 1.14D-08
 IDIUse=1 WtCom= 1.00D+00 WtEn= 0.00D+00
 Coeff-Com:  0.855D-01 0.207D+00 0.707D+00
 Coeff:      0.855D-01 0.207D+00 0.707D+00
 Gap=     0.269 Goal=   None    Shift=    0.000
 RMSDP=2.27D-07 MaxDP=5.90D-06 DE=-1.01D-08 OVMax= 5.04D-06

 Cycle   9  Pass 1  IDiag  1:
 RMSU=  2.04D-07    CP:  1.00D+00  8.40D-01  9.28D-01
 E= -233.969886666591     Delta-E=       -0.000000000409 Rises=F Damp=F
 DIIS: error= 1.03D-06 at cycle   4 NSaved=   4.
 NSaved= 4 IEnMin= 4 EnMin= -233.969886666591     IErMin= 4 ErrMin= 1.03D-06
 ErrMax= 1.03D-06  0.00D+00 EMaxC= 1.00D-01 BMatC= 9.41D-11 BMatP= 5.90D-10
 IDIUse=1 WtCom= 1.00D+00 WtEn= 0.00D+00
 Coeff-Com:  0.144D-03 0.572D-01 0.356D+00 0.586D+00
 Coeff:      0.144D-03 0.572D-01 0.356D+00 0.586D+00
 Gap=     0.269 Goal=   None    Shift=    0.000
 RMSDP=8.11D-08 MaxDP=2.16D-06 DE=-4.09D-10 OVMax= 2.22D-06

 Cycle  10  Pass 1  IDiag  1:
 RMSU=  5.20D-08    CP:  1.00D+00  8.47D-01  9.19D-01  7.22D-01
 E= -233.969886666661     Delta-E=       -0.000000000070 Rises=F Damp=F
 DIIS: error= 1.89D-07 at cycle   5 NSaved=   5.
 NSaved= 5 IEnMin= 5 EnMin= -233.969886666661     IErMin= 5 ErrMin= 1.89D-07
 ErrMax= 1.89D-07  0.00D+00 EMaxC= 1.00D-01 BMatC= 4.79D-12 BMatP= 9.41D-11
 IDIUse=1 WtCom= 1.00D+00 WtEn= 0.00D+00
 Coeff-Com: -0.560D-02 0.127D-01 0.118D+00 0.267D+00 0.608D+00
 Coeff:     -0.560D-02 0.127D-01 0.118D+00 0.267D+00 0.608D+00
 Gap=     0.269 Goal=   None    Shift=    0.000
 RMSDP=2.17D-08 MaxDP=3.59D-07 DE=-6.99D-11 OVMax= 4.54D-07

 Cycle  11  Pass 1  IDiag  1:
 RMSU=  1.48D-08    CP:  1.00D+00  8.49D-01  9.26D-01  7.13D-01  7.62D-01
 E= -233.969886666665     Delta-E=       -0.000000000004 Rises=F Damp=F
 DIIS: error= 2.32D-08 at cycle   6 NSaved=   6.
 NSaved= 6 IEnMin= 6 EnMin= -233.969886666665     IErMin= 6 ErrMin= 2.32D-08
 ErrMax= 2.32D-08  0.00D+00 EMaxC= 1.00D-01 BMatC= 8.39D-14 BMatP= 4.79D-12
 IDIUse=1 WtCom= 1.00D+00 WtEn= 0.00D+00
 Coeff-Com: -0.138D-02 0.134D-03 0.907D-02 0.303D-01 0.136D+00 0.826D+00
 Coeff:     -0.138D-02 0.134D-03 0.907D-02 0.303D-01 0.136D+00 0.826D+00
 Gap=     0.269 Goal=   None    Shift=    0.000
 RMSDP=4.37D-09 MaxDP=7.44D-08 DE=-3.69D-12 OVMax= 1.00D-07

 SCF Done:  E(RB3LYP) =  -233.969886667     A.U. after   11 cycles
            NFock= 11  Conv=0.44D-08     -V/T= 2.0097
 KE= 2.317117472422D+02 PE=-9.202256089983D+02 EE= 2.618177328585D+02
 Leave Link  502 at Mon Oct 14 01:08:04 2019, MaxMem= 10737418240 cpu:              33.2 elap:               1.4
 (Enter /apps/cent7/gaussian/g16-A.03/g16-haswell/g16/l701.exe)
 ... and contract with generalized density number  0.
 Compute integral first derivatives.
 Leave Link  701 at Mon Oct 14 01:08:04 2019, MaxMem= 10737418240 cpu:               2.3 elap:               0.1
 (Enter /apps/cent7/gaussian/g16-A.03/g16-haswell/g16/l702.exe)
 L702 exits ... SP integral derivatives will be done elsewhere.
 Leave Link  702 at Mon Oct 14 01:08:04 2019, MaxMem= 10737418240 cpu:               0.9 elap:               0.1
 (Enter /apps/cent7/gaussian/g16-A.03/g16-haswell/g16/l703.exe)
 Integral derivatives from FoFJK, PRISM(SPDF).
 Compute integral first derivatives, UseDBF=F ICtDFT=           0.
 Calling FoFJK, ICntrl=      2127 FMM=F ISym2X=0 I1Cent= 0 IOpClX= 0 NMat=1 NMatS=1 NMatT=0.
 FoFJK:  IHMeth= 1 ICntrl=    2127 DoSepK=F KAlg= 0 I1Cent=           0 FoldK=F
 IRaf=         0 NMat=       1 IRICut=       1 DoRegI=T DoRafI=F ISym2E= 0 IDoP0=0 IntGTp=1.
 FoFCou: FMM=F IPFlag=           0 FMFlag=      100000 FMFlg1=         800
         NFxFlg=           0 DoJE=F BraDBF=F KetDBF=F FulRan=T
         wScrn=  0.000000 ICntrl=      2127 IOpCl=  0 I1Cent=           0 NGrid=           0
         NMat0=    1 NMatS0=      1 NMatT0=    0 NMatD0=    1 NMtDS0=    0 NMtDT0=    0
 Symmetry not used in FoFCou.
 Leave Link  703 at Mon Oct 14 01:08:04 2019, MaxMem= 10737418240 cpu:               8.8 elap:               0.4
 (Enter /apps/cent7/gaussian/g16-A.03/g16-haswell/g16/l716.exe)
 Dipole        = 3.28343993D+00-2.68879181D-02 4.68758960D-01
 ***** Axes restored to original set *****
 -------------------------------------------------------------------
 Center     Atomic                   Forces (Hartrees/Bohr)
 Number     Number              X              Y              Z
 -------------------------------------------------------------------
      1        6           0.001208031    0.003369771    0.005568362
      2        6          -0.007356876    0.006699986   -0.015868900
      3        6           0.005753940   -0.000805070    0.016436923
      4        6           0.006835908   -0.032192045   -0.018988563
      5        8          -0.005481354    0.016555175    0.002863301
      6        1           0.000807426   -0.001184315   -0.001505685
      7        1          -0.000775362   -0.001424627    0.000112965
      8        1          -0.000229511    0.000282132   -0.001018313
      9        1           0.006370944   -0.001270067    0.005015354
     10        1          -0.000889838   -0.005354044    0.008372968
     11        1          -0.006494243    0.001269328   -0.004949615
     12        1           0.001120432    0.004120922   -0.007103627
     13        1           0.002778506    0.004174462    0.004670613
     14        1          -0.002326631    0.002045361    0.007238330
     15        1          -0.001169020    0.002884014    0.002286861
     16        1          -0.000152352    0.000829016   -0.003130975
 -------------------------------------------------------------------
 Cartesian Forces:  Max     0.032192045 RMS     0.007774079
 Leave Link  716 at Mon Oct 14 01:08:04 2019, MaxMem= 10737418240 cpu:               0.8 elap:               0.1
 (Enter /apps/cent7/gaussian/g16-A.03/g16-haswell/g16/l103.exe)

 GradGradGradGradGradGradGradGradGradGradGradGradGradGradGradGradGradGrad
 Berny optimization.
 Using GEDIIS/GDIIS optimizer.
 FormGI is forming the generalized inverse of G from B-inverse, IUseBI=4.
 GSVD:  received Info=                   1 from GESDD.
 Internal  Forces:  Max     0.021116910 RMS     0.003432630
 Search for a local minimum.
 Step number   2 out of a maximum of   85
 All quantities printed in internal units (Hartrees-Bohrs-Radians)
 RMS Force = .34326D-02 SwitMx=.10000D-02 MixMth= 1
 Mixed Optimization -- RFO/linear search
 Update second derivatives using D2CorX and points    1    2
 DE= -1.84D-02 DEPred=-1.77D-02 R= 1.04D+00
 TightC=F SS=  1.41D+00  RLast= 4.05D-01 DXNew= 5.0454D-01 1.2140D+00
 Trust test= 1.04D+00 RLast= 4.05D-01 DXMaxT set to 5.05D-01
 ITU=  1  0
 Use linear search instead of GDIIS.
     Eigenvalues ---    0.00230   0.00230   0.00230   0.01404   0.03913
     Eigenvalues ---    0.03975   0.04060   0.04654   0.05013   0.05065
     Eigenvalues ---    0.05396   0.05598   0.05671   0.07571   0.07651
     Eigenvalues ---    0.08560   0.11634   0.11699   0.12337   0.15896
     Eigenvalues ---    0.16000   0.16000   0.16000   0.16514   0.21747
     Eigenvalues ---    0.22151   0.22987   0.27588   0.27827   0.28446
     Eigenvalues ---    0.34752   0.34807   0.34807   0.34810   0.34813
     Eigenvalues ---    0.34815   0.34817   0.34823   0.34916   0.37970
     Eigenvalues ---    0.55465   0.56112
 RFO step:  Lambda=-5.56957545D-03 EMin= 2.29957580D-03
 Quartic linear search produced a step of  0.57126.
 Iteration  1 RMS(Cart)=  0.05479156 RMS(Int)=  0.00256895
 Iteration  2 RMS(Cart)=  0.00255552 RMS(Int)=  0.00086096
 Iteration  3 RMS(Cart)=  0.00000408 RMS(Int)=  0.00086096
 Iteration  4 RMS(Cart)=  0.00000000 RMS(Int)=  0.00086096
 ITry= 1 IFail=0 DXMaxC= 1.98D-01 DCOld= 1.00D+10 DXMaxT= 5.05D-01 DXLimC= 3.00D+00 Rises=F
 Variable       Old X    -DE/DX   Delta X   Delta X   Delta X     New X
                                 (Linear)    (Quad)   (Total)
    R1        2.92802  -0.00338   0.00606  -0.02386  -0.01780   2.91022
    R2        2.06312   0.00097   0.00185   0.00256   0.00441   2.06753
    R3        2.06880   0.00031   0.00510  -0.00334   0.00177   2.07057
    R4        2.06639   0.00057   0.00377  -0.00097   0.00280   2.06919
    R5        2.93708  -0.00129   0.00341  -0.01030  -0.00689   2.93019
    R6        2.06685   0.00066   0.00397  -0.00078   0.00320   2.07005
    R7        2.06688   0.00072   0.00410  -0.00061   0.00349   2.07037
    R8        2.90233  -0.00700  -0.01051  -0.02826  -0.03876   2.86356
    R9        2.07309   0.00052   0.00759  -0.00473   0.00286   2.07595
   R10        2.06663   0.00021   0.00392  -0.00267   0.00125   2.06788
   R11        2.82242   0.02112   0.07745   0.00555   0.08300   2.90543
   R12        2.05802   0.00004  -0.00092   0.00104   0.00011   2.05813
   R13        2.06454  -0.00062   0.00264  -0.00517  -0.00253   2.06201
   R14        1.85274   0.00337   0.02205  -0.01080   0.01125   1.86399
   R15        1.85339   0.00266   0.02242  -0.01312   0.00930   1.86269
    A1        1.91041   0.00187  -0.00016   0.01780   0.01759   1.92800
    A2        1.94361   0.00041   0.01880  -0.01394   0.00463   1.94824
    A3        1.93891   0.00045   0.01610  -0.01082   0.00504   1.94395
    A4        1.88892  -0.00123  -0.01235   0.00010  -0.01230   1.87662
    A5        1.89108  -0.00121  -0.01114  -0.00054  -0.01172   1.87936
    A6        1.88945  -0.00041  -0.01206   0.00781  -0.00463   1.88482
    A7        1.92582  -0.00125  -0.02075   0.03683   0.01495   1.94077
    A8        1.89125   0.00182   0.02296   0.01027   0.03253   1.92378
    A9        1.88991   0.00154   0.02218   0.00441   0.02611   1.91602
   A10        1.88725   0.00152   0.01897   0.00927   0.02745   1.91469
   A11        1.89101   0.00152   0.02106   0.00427   0.02481   1.91582
   A12        1.97876  -0.00519  -0.06605  -0.06286  -0.12809   1.85066
   A13        1.91861  -0.00423  -0.02819   0.01942  -0.00885   1.90976
   A14        1.88590   0.00190   0.01913   0.00404   0.02324   1.90913
   A15        1.89509   0.00229   0.02434   0.00565   0.02996   1.92505
   A16        1.88981   0.00264   0.02262   0.01293   0.03568   1.92549
   A17        1.88650   0.00242   0.02081   0.01353   0.03439   1.92089
   A18        1.98760  -0.00521  -0.06106  -0.05369  -0.11430   1.87330
   A19        1.88533   0.00019  -0.02006   0.02602   0.00646   1.89180
   A20        1.92919   0.00419   0.02435   0.03967   0.06335   1.99254
   A21        1.92865   0.00450   0.02408   0.05038   0.07371   2.00237
   A22        1.82527  -0.00301  -0.00598  -0.04719  -0.05337   1.77189
   A23        1.88484  -0.00228   0.02817  -0.06086  -0.03371   1.85113
   A24        2.00379  -0.00403  -0.05181  -0.01437  -0.07066   1.93312
   A25        1.97426   0.00294   0.03635   0.00073   0.03523   2.00949
   A26        1.96983  -0.00012   0.03381  -0.02555   0.00638   1.97620
   A27        1.89736  -0.00041  -0.00758   0.01840   0.00787   1.90523
    D1       -2.81231  -0.00073  -0.01190  -0.11374  -0.12569  -2.93800
    D2       -0.74911   0.00149   0.01334  -0.07516  -0.06152  -0.81064
    D3        1.40393  -0.00278  -0.03919  -0.14280  -0.18224   1.22169
    D4       -0.72438  -0.00078  -0.01558  -0.11080  -0.12652  -0.85091
    D5        1.33881   0.00143   0.00965  -0.07222  -0.06235   1.27646
    D6       -2.79133  -0.00283  -0.04288  -0.13986  -0.18307  -2.97440
    D7        1.38322  -0.00071  -0.00803  -0.11778  -0.12577   1.25745
    D8       -2.83677   0.00150   0.01720  -0.07919  -0.06160  -2.89837
    D9       -0.68372  -0.00276  -0.03533  -0.14683  -0.18232  -0.86604
   D10       -3.13835   0.00019   0.00188   0.02064   0.02256  -3.11580
   D11       -1.07932   0.00210   0.02516   0.04946   0.07469  -1.00463
   D12        1.08440  -0.00166  -0.02228  -0.01020  -0.03250   1.05190
   D13        1.07919  -0.00220  -0.02579  -0.01841  -0.04444   1.03475
   D14        3.13822  -0.00029  -0.00250   0.01041   0.00770  -3.13727
   D15       -0.98124  -0.00406  -0.04994  -0.04925  -0.09949  -1.08074
   D16       -1.07208   0.00226   0.02984   0.04981   0.07989  -0.99219
   D17        0.98695   0.00416   0.05312   0.07863   0.13202   1.11898
   D18       -3.13251   0.00040   0.00569   0.01897   0.02483  -3.10768
   D19       -3.11800   0.00033   0.01353   0.00262   0.01645  -3.10155
   D20       -1.13072  -0.00096   0.00865  -0.01837  -0.01035  -1.14107
   D21        1.10683   0.00043  -0.02236   0.03213   0.01004   1.11687
   D22        1.10858  -0.00111  -0.00761  -0.02078  -0.02815   1.08043
   D23        3.09586  -0.00241  -0.01250  -0.04177  -0.05496   3.04091
   D24       -0.94978  -0.00102  -0.04350   0.00873  -0.03456  -0.98434
   D25       -1.05226   0.00212   0.03990   0.02840   0.06872  -0.98355
   D26        0.93502   0.00083   0.03501   0.00741   0.04192   0.97693
   D27       -3.11062   0.00222   0.00401   0.05791   0.06231  -3.04831
   D28        3.09822  -0.00080  -0.01943   0.01181  -0.00812   3.09010
   D29       -1.02155   0.00089   0.02000   0.01679   0.03768  -0.98388
   D30        1.04292  -0.00419  -0.03502  -0.02210  -0.05652   0.98640
   D31       -3.07685  -0.00249   0.00441  -0.01713  -0.01073  -3.08758
   D32       -1.09870   0.00338   0.01397   0.05234   0.06412  -1.03458
   D33        1.06471   0.00508   0.05340   0.05731   0.10991   1.17463
[...]
     6          3.64354509          1.12378033          2.64005415
     6          3.84981644         -0.58174460          4.90291347
     8          2.82520859          0.90733721          7.26730113
     1          5.00725268          0.30543368         -3.77153850
     1          2.43553444          1.98983247         -2.45894369
     1          5.57826854          3.03662150         -1.93135591
     1          3.36480561         -2.00272475         -0.00890954
     1          6.48646035         -0.96137978          0.51856789
     1          4.82967829          2.80862597          2.89711738
     1          1.68079283          1.73689771          2.39710012
     1          2.57412518         -2.19811747          4.87372130
     1          5.77212126         -1.12923782          5.41121994
     1          2.98647569         -0.00949295          8.87295720
     1          3.60199427          2.58342475          7.44199788

 Electric dipole moment (dipole orientation):
 (Debye = 10**-18 statcoulomb cm , SI units = C m)
                  (au)            (Debye)         (10**-30 SI)
   Tot        0.316474D+01      0.804397D+01      0.268318D+02
   x          0.000000D+00      0.000000D+00      0.000000D+00
   y          0.000000D+00      0.000000D+00      0.000000D+00
   z          0.316474D+01      0.804397D+01      0.268318D+02

 Dipole polarizability, Alpha (dipole orientation).
 (esu units = cm**3 , SI units = C**2 m**2 J**-1)
 Alpha(0;0):
               (au)            (10**-24 esu)      (10**-40 SI)
   iso        0.475478D+02      0.704586D+01      0.783957D+01
   aniso      0.180237D+02      0.267084D+01      0.297171D+01
   xx         0.402079D+02      0.595819D+01      0.662938D+01
   yx         0.212139D+00      0.314357D-01      0.349770D-01
   yy         0.433544D+02      0.642447D+01      0.714818D+01
   zx        -0.230143D+01     -0.341036D+00     -0.379454D+00
   zy        -0.839862D+00     -0.124455D+00     -0.138475D+00
   zz         0.590811D+02      0.875491D+01      0.974115D+01

 ----------------------------------------------------------------------
 1\1\GINC-BROWN-A429\Freq\RB3LYP\6-31G(d)\C4H11O1(1+)\FINEJ\14-Oct-2019
 \0\\#P Geom=AllCheck Guess=TCheck SCRF=Check GenChk RB3LYP/6-31G(d) Fr
 eq\\Title Card Required\\1,1\C,2.2335501224,-0.7430832921,-1.260143326
 8\C,2.407879419,-0.0310586645,0.0859067876\C,1.9764575301,1.4548271081
 ,0.000240497\C,2.1733734184,2.1127321824,1.3376805883\O,1.6705526651,3
 .6008791729,1.2238973792\H,2.5399976223,-1.7893383535,-1.1735024022\H,
 1.1887868012,-0.7258109187,-1.5883907831\H,2.8458605036,-0.278370188,-
 2.0405795398\H,1.8099801248,-0.5370259899,0.8539467593\H,3.4560045297,
 -0.0905917375,0.4048613178\H,2.5823308939,1.9587757635,-0.7654955614\H
 ,0.9231472573,1.5185001594,-0.2948181025\H,1.5251210547,1.7341519092,2
 .1276294834\H,3.2112894323,2.1906385419,1.6659010623\H,1.8133564942,4.
 1374571274,2.034026943\H,2.0581412709,4.0705467493,0.4535875279\\Versi
 on=ES64L-G16RevA.03\State=1-A\HF=-233.9759001\RMSD=7.663e-10\RMSF=1.71
 0e-06\ZeroPoint=0.1501246\Thermal=0.1501246\Dipole=0.1587784,2.8231254
 ,1.4213827\DipoleDeriv=0.0967309,0.059611,0.0215408,0.021009,-0.021081
 6,-0.0462594,-0.0130816,0.0907846,0.1485451,0.1659503,-0.1042855,-0.05
 81258,-0.0239592,0.3400256,0.0770856,0.0017872,-0.1476168,0.0086328,0.
 0844285,0.1059156,-0.0206265,0.0795558,-0.2879853,-0.1148851,-0.014518
 1,-0.1251803,0.0117168,0.3525822,-0.2220093,-0.0139426,-0.2230129,1.28
 87666,0.2316733,0.0046881,0.2073479,0.3702095,-0.3673002,0.228065,0.04
 52395,0.1899626,-1.088079,-0.1901928,0.0014872,-0.1036098,-0.3968079,0
 .0774094,0.039673,-0.0125825,0.0414748,-0.0817452,-0.0192239,-0.011261
 8,-0.0286791,0.0252734,-0.1019356,-0.001397,-0.0609235,0.0376011,0.072
 4316,-0.0016234,-0.0222427,-0.0309763,0.0176928,0.0111543,-0.0583037,0
 .0659986,-0.0735526,0.0168768,0.0721746,0.0495792,0.0121116,-0.0466963
 ,0.0064868,-0.0204088,0.0836937,-0.0052735,-0.0146741,0.0092725,0.0700
 482,0.0511845,-0.0711101,-0.0986772,0.0140384,-0.0690453,-0.0258139,0.
 0009003,-0.0334349,-0.0726163,-0.0040256,0.0147226,0.0207265,-0.084891
 ,0.0358621,-0.0521922,-0.011123,0.0637587,0.0345505,0.0387527,-0.02172
 62,-0.0425678,0.0268181,-0.0276745,0.019586,0.0742065,0.0090748,-0.021
 5334,-0.0172894,0.0269127,0.049289,0.0279452,0.0509583,0.0301671,0.021
 8675,-0.0247358,0.0219287,0.0031347,0.0440451,0.0036688,0.0006695,-0.0
 366746,-0.0293928,-0.0240602,-0.0305253,-0.0188189,-0.0045949,0.064178
 3,0.3920014,-0.0204132,-0.027521,-0.0024297,0.3158852,0.0467784,-0.031
 6403,0.1416644,0.4214558,0.3500529,0.0089728,0.0238233,0.0162706,0.397
 7883,-0.0489375,0.0216441,-0.0830082,0.3829557\Polar=40.0173708,-1.145
 1832,55.3114516,-0.6534305,6.9302298,47.3145705\Quadrupole=-8.3133694,
 10.3625727,-2.0492033,0.2518307,-0.3117846,7.3386582\PG=C01 [X(C4H11O1
 )]\NImag=0\\0.58255072,-0.00766043,0.56339252,-0.00976211,-0.04670153,
 0.49999258,-0.08237914,-0.00748627,-0.01158233,0.59188316,-0.00811738,
 -0.09629249,-0.04468977,0.03278829,0.44268281,-0.01227643,-0.04208787,
 -0.16804584,-0.01284048,-0.04058741,0.51834613,0.00129527,-0.00203926,
 0.00131666,-0.08560605,0.02402992,-0.00253673,0.60533000,0.00603694,-0
 .02506131,-0.00301740,0.02040200,-0.14335163,0.00909668,0.03155851,0.4
 3379631,0.00921948,-0.03178496,0.00199700,-0.00527855,0.01908226,-0.07
 492329,-0.00522113,-0.04144683,0.53842466,-0.00162371,0.00138563,0.000
 59290,-0.00114382,0.00316595,0.00597291,-0.09225915,-0.01402505,-0.017
 57155,0.62532333,-0.00014733,-0.00332359,-0.00255996,0.00211038,-0.026
 86856,-0.01545759,-0.01771958,-0.06808092,-0.04715153,0.10291454,0.275
 74220,-0.00127724,0.00390427,-0.00244291,0.00625885,-0.01427622,0.0064
 0872,-0.02561485,-0.01891609,-0.19877766,-0.02410178,-0.02720941,0.587
 45282,0.00013746,0.00055632,-0.00110438,0.00117274,-0.00213676,0.00189
 110,0.00072642,0.00436369,0.00276735,-0.06028522,-0.00498961,-0.002496
 87,0.16620685,0.00202534,-0.00304141,0.00420090,-0.00499580,0.00532968
 ,-0.01316757,0.01000029,-0.03952283,0.00187437,0.02472117,-0.03787784,
 0.01974055,0.09628271,0.45471948,0.00091168,-0.00261968,0.00154607,-0.
 00250908,0.00107060,-0.00724370,0.01373978,-0.03505943,0.00657955,0.00
 122452,0.00845622,-0.09011535,-0.09036786,0.02250675,0.72654445,-0.071
 10921,0.07413800,-0.00673717,0.00005838,-0.00477696,0.00054150,0.00006
 325,-0.00095620,-0.00089700,0.00053469,0.00023576,0.00022232,0.0001052
 8,-0.00035792,-0.00017904,0.07166600,0.07365145,-0.29807568,0.02343124
 ,0.00353388,-0.01327858,0.00110848,-0.00083403,0.00014102,-0.00293131,
 0.00029178,-0.00006500,0.00045431,0.00005577,-0.00048765,-0.00032792,-
 0.08018822,0.32070753,-0.00718630,0.02515182,-0.05063271,0.00872710,-0
 .02928537,0.00163913,-0.00081754,-0.00344019,-0.00615143,0.00017292,0.
 00027051,0.00181919,0.00036556,-0.00184015,-0.00093096,0.00827319,-0.0
 2348232,0.05485134,-0.29456264,0.00531167,-0.07320382,-0.00157572,0.00
 027436,-0.00068579,0.00044986,-0.00009788,0.00032734,0.00040296,0.0002
 3019,0.00024711,0.00005651,-0.00026026,-0.00010052,-0.00777363,-0.0001
 5269,-0.00166092,0.31679043,0.00567771,-0.05007516,0.00253320,-0.01583
 567,-0.00154018,-0.00516563,-0.00144167,0.00114836,0.00019235,-0.00012
 711,0.00029132,-0.00010868,0.00011449,-0.00003862,0.00011443,0.0312357
 5,0.00152710,0.00922306,-0.00599396,0.04963963,-0.07186103,0.00212502,
 -0.07166053,-0.02976847,0.00013208,-0.01040982,-0.00054176,0.00125250,
 0.00096081,-0.00011684,0.00067616,0.00007469,0.00019472,-0.00023981,0.
 00002690,-0.00249360,0.00032883,-0.00138353,0.08114195,0.00087062,0.07
 753682,-0.13569322,-0.06510159,0.10559916,0.00284698,0.00282442,-0.004
 29786,-0.00008261,0.00008618,0.00016427,0.00019229,0.00012714,-0.00024
 165,-0.00004693,0.00010585,0.00004410,0.00590615,0.00387035,-0.0081167
 1,-0.01621289,-0.01427295,0.02302054,0.14132813,-0.06500898,-0.0996450
 2,0.08162641,0.01062237,0.00594645,-0.01302368,0.00065228,0.00182918,-
 0.00047694,0.00003021,0.00031983,-0.00031889,-0.00007428,0.00005429,0.
 00021846,-0.01933341,-0.01204515,0.02229014,0.00132431,-0.00006048,-0.
 00179796,0.07200874,0.10445861,0.10470841,0.08058633,-0.18019156,0.016
 54497,0.01233818,-0.02241175,0.00026411,0.00141650,0.00077887,-0.00033
 773,0.00061769,0.00029084,-0.00001109,-0.00037857,0.00007799,0.0008220
 1,0.00114539,-0.00156525,-0.00533368,-0.00521780,0.00844181,-0.1152137
 5,-0.08624451,0.19751247,0.00286827,0.00241312,-0.00347811,-0.13375442
 ,-0.06644508,0.09939832,0.00554910,0.00577570,-0.00803992,0.00027528,0
 .00009656,0.00021171,0.00009200,-0.00025682,-0.00025415,-0.00001008,0.
 00019959,0.00045725,0.00069992,0.00056132,0.00006139,0.00111181,-0.000
 18479,-0.00122630,0.13855757,0.00975630,0.00809478,-0.01239300,-0.0651
 9452,-0.10356160,0.08378356,-0.01730294,-0.01899317,0.02041553,-0.0012
 8111,-0.00093611,0.00278763,0.00045524,0.00061786,-0.00068774,0.000289
 00,0.00068483,0.00044760,-0.00012372,0.00025469,0.00073955,-0.00061491
 ,-0.00096850,-0.00351264,0.07114609,0.11789949,0.01705544,0.01275760,-
 0.02225169,0.09920468,0.08370433,-0.17300734,-0.00035794,0.00078006,-0
 .00074030,-0.00019202,-0.00136724,0.00024105,-0.00020363,0.00037660,0.
 00027237,0.00020862,-0.00001752,0.00125341,-0.00043051,0.00073225,0.00
 112453,-0.00146974,-0.00359064,-0.00446074,-0.10881653,-0.08811364,0.1
 8933394,-0.00234465,-0.00051040,-0.00112690,-0.28891279,0.01123120,-0.
 06788813,-0.00716881,0.00201623,-0.00090934,-0.00074861,-0.00052676,-0
 .00112952,0.00035570,0.00018028,0.00035409,0.00026334,-0.00040891,-0.0
 0003661,0.00165101,-0.00034478,-0.00037455,0.00065992,0.00017770,-0.00
 023064,-0.01691349,0.00080394,-0.00482253,0.31111454,-0.01624644,0.000
 64620,-0.00503262,0.01028009,-0.05075450,0.00623275,0.03266020,-0.0052
 1671,0.00801237,0.00256188,0.00003934,0.00121105,-0.00068284,0.0006779
 0,-0.00007318,-0.00028447,0.00034725,0.00049795,0.00006458,-0.00087006
 ,-0.00341049,0.00071065,0.00038398,0.00042667,-0.01509734,0.00130990,-
 0.00534834,-0.01480309,0.05856415,-0.03010761,0.00041097,-0.00972061,-
 0.06748584,0.00561019,-0.06995263,-0.00126351,0.00063291,-0.00144250,0
 .00102151,-0.00097125,0.00030760,-0.00009885,0.00036176,-0.00003660,0.
 00041981,0.00022268,0.00132048,-0.00011980,-0.00317598,-0.00511040,0.0
 0013737,0.00099859,0.00107245,0.02243539,-0.00229775,0.00739977,0.0757
 6638,-0.00170424,0.07541058,0.00009598,-0.00027790,-0.00027606,0.00504
 763,0.00534702,-0.00607159,-0.13526787,-0.06817907,0.09722022,0.002956
 62,0.00409731,-0.00407253,0.00015284,0.00015874,-0.00023525,-0.0000001
 3,-0.00001941,-0.00027719,-0.00007734,-0.00004403,0.00015222,0.0000956
 5,-0.00023319,-0.00001279,0.00056907,0.00203186,-0.00014478,0.00083696
 ,-0.00041693,-0.00042995,0.13885845,-0.00088742,0.00204003,0.00145429,
 -0.01822031,-0.01899899,0.02319544,-0.06697711,-0.09575952,0.08049192,
 0.01113523,0.00406147,-0.01561001,0.00006036,0.00286325,-0.00013837,0.
 00037267,0.00037523,0.00004775,0.00005287,-0.00005758,-0.00013152,0.00
 044327,-0.00006105,-0.00120416,0.00284248,-0.00594474,-0.00032751,0.00
 016631,0.00159218,-0.00019489,0.07094074,0.11044108,-0.00062108,-0.001
 11225,0.00109432,0.00042527,0.00256769,-0.00081080,0.09661204,0.077570
 87,-0.17298751,0.01827292,0.01479837,-0.02502264,-0.00043333,0.0002851
 5,0.00229049,-0.00019095,-0.00002296,-0.00006861,-0.00003688,0.0000017
 9,0.00000067,0.00031204,0.00026983,0.00029051,-0.00035599,-0.00036210,
 0.00059455,0.00000331,0.00001889,-0.00008545,-0.10844044,-0.08441436,0
 .19036828,0.00055566,-0.00098877,0.00000193,-0.00854401,0.00207869,-0.
 00220794,-0.29769944,0.00935896,-0.06541023,-0.00273979,0.00000621,-0.
 00113404,0.00037524,-0.00046084,0.00022888,0.00033807,-0.00001776,-0.0
 0002169,0.00024692,0.00042821,0.00055422,-0.00005746,0.00004569,-0.000
 03378,0.00084532,-0.00003412,-0.00006134,0.00119012,0.00155617,-0.0002
 7078,-0.01526856,0.00092510,-0.00454921,0.31875634,0.00051452,0.002109
 74,0.00109927,0.03288358,-0.00422823,0.00846043,0.01155830,-0.04558016
 ,0.00629026,-0.01703559,-0.00306108,-0.00752676,-0.00048334,0.00172243
 ,0.00109824,-0.00031317,0.00017095,0.00031231,-0.00076464,-0.00023796,
 -0.00069422,-0.00013278,-0.00009068,-0.00012537,-0.00051929,0.00150331
 ,0.00012448,0.00128348,-0.00635366,0.00007525,-0.01420403,0.00033687,-
 0.00481742,-0.01317269,0.05421335,0.00127136,-0.00022566,0.00045200,-0
 .00147012,0.00163682,-0.00014570,-0.06219537,0.00307335,-0.07201307,-0
 .03334205,0.00153960,-0.01123686,0.00084228,0.00021549,0.00203523,-0.0
 0002493,0.00004521,-0.00019569,-0.00027369,-0.00008829,0.00026045,0.00
 007938,0.00000230,0.00001912,-0.00047803,-0.00017482,-0.00004931,-0.00
 001484,-0.00020354,0.00050592,0.02223605,-0.00168273,0.00760109,0.0732
 9024,-0.00148038,0.07619166,-0.00003824,0.00018204,-0.00016079,0.00031
 385,-0.00012947,0.00015656,0.00480878,0.00285650,-0.00360977,-0.165021
 43,-0.06702258,0.12858050,0.00649551,0.01135304,-0.01244841,-0.0000351
 8,0.00000498,0.00009180,-0.00000566,-0.00002431,-0.00004520,-0.0000449
 6,-0.00002552,-0.00001198,0.00018969,0.00016658,0.00003410,-0.00006166
 ,-0.00008066,0.00009705,0.00131410,-0.00055664,-0.00161648,0.00090846,
 0.00083582,-0.00003657,0.16456126,0.00012233,-0.00008453,-0.00009274,-
 0.00013503,0.00227973,-0.00018875,0.01078871,0.00881900,-0.01184217,-0
 .05635168,-0.07583296,0.06220696,-0.01199478,-0.02628738,0.02598147,0.
 00002114,-0.00003578,-0.00000809,-0.00000395,0.00005265,0.00001886,-0.
 00008743,-0.00010871,0.00013697,-0.00036171,-0.00047570,0.00029237,-0.
 00003020,-0.00011755,0.00004797,-0.00135115,-0.00142383,-0.00324210,-0
 .00041989,0.00004212,0.00055778,0.06104760,0.09515437,-0.00027058,-0.0
 0023166,-0.00001266,-0.00001721,0.00127825,0.00069230,0.01744695,0.009
 94742,-0.01903175,0.12391377,0.07203991,-0.20113163,0.00023698,-0.0001
 6538,0.00046437,-0.00004263,-0.00003830,0.00006311,0.00000711,0.000015
 10,-0.00003519,-0.00006986,0.00010450,0.00025601,-0.00005835,-0.000938
 11,0.00041690,-0.00007528,-0.00010401,0.00003836,-0.00133101,-0.003087
 70,-0.00361203,-0.00021806,0.00057641,0.00132940,-0.13262147,-0.074062
 50,0.21022730,0.00030571,-0.00010510,0.00007565,0.00036687,-0.00025515
 ,0.00000752,0.00006343,-0.00099069,-0.00062860,-0.31125678,-0.02449055
 ,-0.07509492,-0.00169867,0.00340120,-0.00067400,-0.00001221,-0.0000174
 1,-0.00004349,-0.00005156,0.00009904,0.00009864,-0.00000692,-0.0000010
 8,0.00000706,-0.00007608,0.00004909,-0.00003774,0.00019257,-0.00031665
 ,-0.00001183,0.00080275,0.00006350,-0.00009343,0.00139379,0.00021930,0
 .00012085,-0.01313498,-0.00190804,-0.00651811,0.32427905,-0.00001903,-
 0.00014724,-0.00007439,-0.00073724,0.00201184,0.00029686,-0.01596261,0
 .00182653,-0.00360011,-0.03532111,-0.04993789,-0.00754044,0.03426025,-
 0.02090682,0.01012580,-0.00001641,-0.00005080,0.00000633,0.00015586,-0
 .00000844,0.00009349,-0.00001352,0.00005251,0.00003601,0.00004344,-0.0
 0003446,-0.00002661,0.00070400,-0.00031936,-0.00001202,0.00111144,0.00
 025483,-0.00008522,0.00091255,-0.00063109,-0.00340055,-0.01096533,0.00
 403005,-0.00490524,0.02324695,0.06134066,0.00022058,-0.00008372,-0.000
 17232,-0.00044264,0.00111759,0.00055958,-0.02877583,-0.00189345,-0.005
 66243,-0.07539076,-0.00682037,-0.08083472,-0.00101346,0.00082235,0.000
 27310,0.00010363,-0.00001022,0.00003097,0.00014644,0.00014172,0.000175
 76,-0.00002780,0.00000390,-0.00003872,0.00017092,-0.00005995,0.0000205
 9,0.00060756,-0.00063418,0.00026847,0.00020388,0.00103732,0.00137815,0
 .00003956,-0.00313383,-0.00451775,0.02169911,0.00071608,0.00966661,0.0
 8306542,0.00870905,0.07882036,-0.00009027,0.00022330,-0.00014248,0.000
 71785,0.00018858,0.00073217,-0.00151345,0.00229902,-0.00080604,0.00078
 506,0.00361363,0.00967872,-0.02538032,-0.05367280,-0.07376506,0.000017
 69,0.00001940,0.00008436,-0.00000359,-0.00000145,-0.00002108,-0.000007
 35,-0.00001090,0.00001487,0.00000058,0.00001374,0.00000571,-0.00005808
 ,-0.00010714,-0.00000979,0.00005788,-0.00012904,-0.00020727,0.00025189
 ,0.00000832,-0.00012578,0.00039465,-0.00126500,-0.00005382,-0.00084800
 ,0.00086087,0.00069367,0.02422708,0.00037983,-0.00083960,0.00051974,-0
 .00077035,0.00106459,-0.00241836,0.00272713,-0.00763281,0.00295370,-0.
 00770011,-0.00586516,-0.02040971,-0.03537511,-0.18209920,-0.18324225,-
 0.00008610,-0.00000912,-0.00032641,-0.00003617,0.00001346,0.00001841,0
 .00003114,0.00002514,0.00000042,-0.00011690,-0.00001026,0.00006309,0.0
 0013474,-0.00002072,0.00000047,0.00028459,0.00046334,0.00020593,-0.000
 09280,0.00033049,0.00045575,-0.00102587,-0.00047403,0.00017345,0.00076
 266,0.00157019,-0.00029027,0.03691195,0.17641209,-0.00012883,0.0002165
 2,-0.00031394,0.00003461,0.00062095,0.00139320,-0.00062786,0.00136153,
 -0.00123939,0.00288882,-0.00827918,0.00933564,-0.03848489,-0.15989965,
 -0.33949759,0.00000145,0.00013372,0.00012007,0.00001089,-0.00002028,0.
 00002383,0.00001198,-0.00002472,0.00000609,0.00005103,-0.00009572,-0.0
 0005473,0.00000940,-0.00010173,-0.00003212,-0.00009945,-0.00005129,0.0
 0000261,0.00000597,-0.00011858,-0.00013168,0.00014144,0.00099393,0.000
 17998,-0.00027456,0.00170186,0.00042296,0.04716906,0.18368200,0.350552
 28,0.00003200,-0.00004035,-0.00001215,-0.00049152,-0.00006765,0.000104
 86,0.00131127,-0.00050485,-0.00132651,0.00460827,0.00146470,-0.0100358
 1,-0.08846541,-0.08822416,0.16403032,-0.00001243,0.00001124,-0.0000117
 2,-0.00003460,-0.00003059,-0.00000115,0.00001142,0.00001086,0.00005029
 ,-0.00000453,-0.00016052,0.00002822,-0.00005608,0.00020199,-0.00007958
 ,-0.00017405,-0.00023199,0.00091949,-0.00055255,-0.00067781,0.00012122
 ,-0.00064418,0.00192907,-0.00032843,-0.00031894,0.00173988,-0.00130028
 ,0.00144837,0.00397135,-0.01070908,0.08334294,-0.00007741,0.00030277,-
 0.00030365,0.00075461,-0.00044034,-0.00007733,-0.00169816,0.00163865,-
 0.00007889,-0.01436464,-0.00860504,0.02161144,-0.08041213,-0.15572314,
 0.15257660,0.00002054,0.00009384,0.00013507,0.00001944,-0.00003875,0.0
 0001848,0.00001545,-0.00009040,-0.00002111,-0.00009637,0.00055968,-0.0
 0003928,-0.00007373,0.00009168,-0.00000464,0.00075400,-0.00018259,-0.0
 0166210,-0.00012471,-0.00024641,-0.00027031,0.00338383,-0.00553744,-0.
 00060214,0.00024291,0.00094950,0.00037799,0.01104753,0.01707160,-0.020
 11938,0.08060884,0.15015640,0.00010426,-0.00030518,0.00036281,0.000199
 25,-0.00032017,-0.00208819,-0.00142702,-0.00135842,0.00422844,-0.00300
 753,0.01141808,0.00363122,0.12791636,0.12530722,-0.30228631,-0.0000272
 2,-0.00003930,-0.00016952,-0.00003525,-0.00004785,-0.00002680,0.000068
 54,-0.00003679,-0.00007813,-0.00007862,0.00046160,-0.00009299,-0.00013
 241,0.00021268,0.00005668,0.00157866,0.00061581,-0.00103363,-0.0002137
 2,-0.00014008,-0.00010481,-0.00024990,-0.00151604,0.00048892,0.0000015
 4,-0.00132484,-0.00039061,0.01675278,0.01861405,-0.02076720,-0.1414497
 1,-0.15154075,0.31827011\\0.00000053,0.00000202,0.00000210,-0.00000347
 ,-0.00000169,-0.00000317,0.00000352,0.00000120,0.00000111,0.00000141,0
 .00000304,-0.00000272,-0.00000503,-0.00000426,0.00000009,0.00000032,0.
 00000019,0.00000063,-0.00000022,-0.00000016,0.00000032,-0.00000019,0.0
 0000054,-0.00000009,-0.00000028,-0.00000025,0.00000117,-0.00000006,0.0
 0000170,-0.00000063,-0.00000121,0.00000045,-0.00000062,-0.00000020,-0.
 00000283,-0.00000067,0.00000035,0.00000057,0.00000077,0.00000027,-0.00
 000018,0.00000075,0.00000261,-0.00000078,0.00000098,0.00000165,0.00000
 043,0.\\\@


 ONLY THE DAY DAWNS TO WHICH YOU ARE AWAKE.

                                 -- THOREAU
 Job cpu time:       0 days  0 hours  3 minutes 33.8 seconds.
 Elapsed time:       0 days  0 hours  0 minutes  9.4 seconds.
 File lengths (MBytes):  RWF=     22 Int=      0 D2E=      0 Chk=      2 Scr=      1
 Normal termination of Gaussian 16 at Mon Oct 14 01:08:40 2019.
real 41.65
user 860.49
sys 13.60
Machine:
brown-a429
brown-a429
brown-a429
brown-a429
brown-a429
brown-a429
brown-a429
brown-a429
brown-a429
brown-a429
brown-a429
brown-a429
brown-a429
brown-a429
brown-a429
brown-a429
brown-a429
brown-a429
brown-a429
brown-a429
brown-a429
brown-a429
brown-a429
brown-a429
