Title Card Required                                                     
Freq      RB3LYP                                                      6-31G(d)            
Number of atoms                            I               16
Info1-9                                    I   N=           9
          42          42        1002           0           0         100
           6          18        -502
Full Title                                 C   N=           2
Title Card Required     
Route                                      C   N=           6
#P opt freq b3lyp/6-31g(d) geom=connectivity temperature=0.0
01          
Charge                                     I                1
Multiplicity                               I                1
Number of electrons                        I               42
Number of alpha electrons                  I               21
Number of beta electrons                   I               21
Number of basis functions                  I               97
Number of independent functions            I               97
Number of point charges in /Mol/           I                0
Number of translation vectors              I                0
Atomic numbers                             I   N=          16
           6           6           6           6           8           1
           1           1           1           1           1           1
           1           1           1           1
Nuclear charges                            R   N=          16
  6.00000000E+00  6.00000000E+00  6.00000000E+00  6.00000000E+00  8.00000000E+00
  1.00000000E+00  1.00000000E+00  1.00000000E+00  1.00000000E+00  1.00000000E+00
  1.00000000E+00  1.00000000E+00  1.00000000E+00  1.00000000E+00  1.00000000E+00
  1.00000000E+00
Current cartesian coordinates              R   N=          48
 -4.87732912E+00 -6.31763782E-01 -2.25470433E-02 -2.49336257E+00  1.01175677E+00
  4.64679171E-02 -6.48977524E-02 -6.22147571E-01 -4.40026752E-02  2.21844205E+00
  1.06612164E+00  4.54506488E-02  4.63757925E+00 -6.55186971E-01 -1.60429906E-01
 -6.56328756E+00  5.62158195E-01  3.51158182E-02 -4.96229069E+00 -1.76493345E+00
 -1.75242235E+00 -4.95633706E+00 -1.91689084E+00  1.59836372E+00 -2.49597035E+00
  2.32010453E+00 -1.56149302E+00 -2.48674279E+00  2.16763569E+00  1.76777540E+00
 -6.49130797E-02 -1.92057817E+00  1.57642204E+00 -4.15674850E-02 -1.74641283E+00
 -1.78262839E+00  2.45370125E+00  2.27335908E+00 -1.60625529E+00  2.46021566E+00
  2.11518305E+00  1.80454012E+00  6.24202068E+00  2.64589327E-01 -3.92009114E-03
  4.61742180E+00 -2.05652115E+00  1.05572821E+00
Number of symbols in /Mol/                 I                0
Force Field                                I                0
Atom Types                                 C   N=          16
                                                            
                                                            
                                                            
            
Int Atom Types                             I   N=          16
           0           0           0           0           0           0
           0           0           0           0           0           0
           0           0           0           0
MM charges                                 R   N=          16
  0.00000000E+00  0.00000000E+00  0.00000000E+00  0.00000000E+00  0.00000000E+00
  0.00000000E+00  0.00000000E+00  0.00000000E+00  0.00000000E+00  0.00000000E+00
  0.00000000E+00  0.00000000E+00  0.00000000E+00  0.00000000E+00  0.00000000E+00
  0.00000000E+00
Integer atomic weights                     I   N=          16
          12          12          12          12          16           1
           1           1           1           1           1           1
           1           1           1           1
Real atomic weights                        R   N=          16
  1.20000000E+01  1.20000000E+01  1.20000000E+01  1.20000000E+01  1.59949146E+01
  1.00782504E+00  1.00782504E+00  1.00782504E+00  1.00782504E+00  1.00782504E+00
  1.00782504E+00  1.00782504E+00  1.00782504E+00  1.00782504E+00  1.00782504E+00
  1.00782504E+00
Atom fragment info                         I   N=          16
           0           0           0           0           0           0
           0           0           0           0           0           0
           0           0           0           0
Atom residue num                           I   N=          16
           0           0           0           0           0           0
           0           0           0           0           0           0
           0           0           0           0
Nuclear spins                              I   N=          16
           0           0           0           0           0           1
           1           1           1           1           1           1
           1           1           1           1
Nuclear ZEff                               R   N=          16
 -3.60000000E+00 -3.60000000E+00 -3.60000000E+00 -3.60000000E+00 -5.60000000E+00
 -1.00000000E+00 -1.00000000E+00 -1.00000000E+00 -1.00000000E+00 -1.00000000E+00
 -1.00000000E+00 -1.00000000E+00 -1.00000000E+00 -1.00000000E+00 -1.00000000E+00
 -1.00000000E+00
Nuclear ZNuc                               R   N=          16
  6.00000000E+00  6.00000000E+00  6.00000000E+00  6.00000000E+00  8.00000000E+00
  1.00000000E+00  1.00000000E+00  1.00000000E+00  1.00000000E+00  1.00000000E+00
  1.00000000E+00  1.00000000E+00  1.00000000E+00  1.00000000E+00  1.00000000E+00
  1.00000000E+00
Nuclear QMom                               R   N=          16
  0.00000000E+00  0.00000000E+00  0.00000000E+00  0.00000000E+00  0.00000000E+00
  0.00000000E+00  0.00000000E+00  0.00000000E+00  0.00000000E+00  0.00000000E+00
  0.00000000E+00  0.00000000E+00  0.00000000E+00  0.00000000E+00  0.00000000E+00
  0.00000000E+00
Nuclear GFac                               R   N=          16
  0.00000000E+00  0.00000000E+00  0.00000000E+00  0.00000000E+00  0.00000000E+00
  2.79284600E+00  2.79284600E+00  2.79284600E+00  2.79284600E+00  2.79284600E+00
  2.79284600E+00  2.79284600E+00  2.79284600E+00  2.79284600E+00  2.79284600E+00
  2.79284600E+00
MicOpt                                     I   N=          16
          -1          -1          -1          -1          -1          -1
          -1          -1          -1          -1          -1          -1
          -1          -1          -1          -1
Number of residues                         I                0
Number of secondary structures             I                0
Redundant internal dimensions              I   N=           4
          75          15          27          33
Redundant internal coordinate indices      I   N=         300
           1           2           0           0           1           6
           0           0           1           7           0           0
           1           8           0           0           2           3
           0           0           2           9           0           0
           2          10           0           0           3           4
           0           0           3          11           0           0
           3          12           0           0           4           5
           0           0           4          13           0           0
           4          14           0           0           5          15
           0           0           5          16           0           0
           2           1           6           0           2           1
           7           0           2           1           8           0
           6           1           7           0           6           1
           8           0           7           1           8           0
           1           2           3           0           1           2
           9           0           1           2          10           0
           3           2           9           0           3           2
          10           0           9           2          10           0
           2           3           4           0           2           3
          11           0           2           3          12           0
           4           3          11           0           4           3
          12           0          11           3          12           0
           3           4           5           0           3           4
          13           0           3           4          14           0
           5           4          13           0           5           4
          14           0          13           4          14           0
           4           5          15           0           4           5
          16           0          15           5          16           0
           6           1           2           3           6           1
           2           9           6           1           2          10
           7           1           2           3           7           1
           2           9           7           1           2          10
           8           1           2           3           8           1
           2           9           8           1           2          10
           1           2           3           4           1           2
           3          11           1           2           3          12
           9           2           3           4           9           2
           3          11           9           2           3          12
          10           2           3           4          10           2
           3          11          10           2           3          12
           2           3           4           5           2           3
           4          13           2           3           4          14
          11           3           4           5          11           3
           4          13          11           3           4          14
          12           3           4           5          12           3
           4          13          12           3           4          14
           3           4           5          15           3           4
           5          16          13           4           5          15
          13           4           5          16          14           4
           5          15          14           4           5          16
Redundant internal coordinates             R   N=          75
  2.89641491E+00  2.06669556E+00  2.06972475E+00  2.07005930E+00  2.92835614E+00
  2.07299760E+00  2.07340284E+00  2.84110814E+00  2.07646293E+00  2.07058833E+00
  2.97615774E+00  2.05934495E+00  2.06237244E+00  1.85599463E+00  1.85558195E+00
  1.92087896E+00  1.94375287E+00  1.94445940E+00  1.88191065E+00  1.88142828E+00
  1.88913663E+00  1.94467566E+00  1.91623616E+00  1.91637498E+00  1.90628297E+00
  1.91139500E+00  1.86722514E+00  1.91129475E+00  1.90157694E+00  1.91584270E+00
  1.92517977E+00  1.91774524E+00  1.89203471E+00  1.88325785E+00  1.99864086E+00
  2.00792092E+00  1.76268178E+00  1.83165466E+00  1.95252176E+00  1.99348706E+00
  1.96341909E+00  1.90538132E+00 -3.13745501E+00 -1.02325479E+00  1.02499056E+00
 -1.05134889E+00  1.06285133E+00  3.11109668E+00  1.05977442E+00 -3.10921067E+00
 -1.06096532E+00 -3.13495182E+00 -1.02790702E+00  1.04146384E+00  1.02823419E+00
  3.13527899E+00 -1.07853546E+00 -1.01131960E+00  1.09572520E+00 -3.11808925E+00
 -3.10255607E+00 -1.15535269E+00  1.14294168E+00  1.08798314E+00  3.03518653E+00
 -9.49704413E-01 -9.96942661E-01  9.50260723E-01 -3.03463022E+00 -3.07299264E+00
 -8.88373891E-01  1.10777138E+00 -2.99079517E+00 -9.23792053E-01  1.26082670E+00
ZRed-IntVec                                I   N=          75
           0           0           0           0           0           0
           0           0           0           0           0           0
           0           0           0           0           0           0
           0           0           0           0           0           0
           0           0           0           0           0           0
           0           0           0           0           0           0
           0           0           0           0           0           0
           0           0           0           0           0           0
           0           0           0           0           0           0
           0           0           0           0           0           0
           0           0           0           0           0           0
           0           0           0           0           0           0
           0           0           0
ZRed-FPVec                                 R   N=          75
  0.00000000E+00  0.00000000E+00  0.00000000E+00  0.00000000E+00  0.00000000E+00
  0.00000000E+00  0.00000000E+00  0.00000000E+00  0.00000000E+00  0.00000000E+00
  0.00000000E+00  0.00000000E+00  0.00000000E+00  0.00000000E+00  0.00000000E+00
  0.00000000E+00  0.00000000E+00  0.00000000E+00  0.00000000E+00  0.00000000E+00
  0.00000000E+00  0.00000000E+00  0.00000000E+00  0.00000000E+00  0.00000000E+00
  0.00000000E+00  0.00000000E+00  0.00000000E+00  0.00000000E+00  0.00000000E+00
  0.00000000E+00  0.00000000E+00  0.00000000E+00  0.00000000E+00  0.00000000E+00
  0.00000000E+00  0.00000000E+00  0.00000000E+00  0.00000000E+00  0.00000000E+00
  0.00000000E+00  0.00000000E+00  0.00000000E+00  0.00000000E+00  0.00000000E+00
  0.00000000E+00  0.00000000E+00  0.00000000E+00  0.00000000E+00  0.00000000E+00
  0.00000000E+00  0.00000000E+00  0.00000000E+00  0.00000000E+00  0.00000000E+00
  0.00000000E+00  0.00000000E+00  0.00000000E+00  0.00000000E+00  0.00000000E+00
  0.00000000E+00  0.00000000E+00  0.00000000E+00  0.00000000E+00  0.00000000E+00
  0.00000000E+00  0.00000000E+00  0.00000000E+00  0.00000000E+00  0.00000000E+00
  0.00000000E+00  0.00000000E+00  0.00000000E+00  0.00000000E+00  0.00000000E+00
ZRed-Constraint1                           R   N=          75
  2.89641491E+00  2.06669556E+00  2.06972475E+00  2.07005930E+00  2.92835614E+00
  2.07299760E+00  2.07340284E+00  2.84110814E+00  2.07646293E+00  2.07058833E+00
  2.97615774E+00  2.05934495E+00  2.06237244E+00  1.85599463E+00  1.85558195E+00
  1.92087896E+00  1.94375287E+00  1.94445940E+00  1.88191065E+00  1.88142828E+00
  1.88913663E+00  1.94467566E+00  1.91623616E+00  1.91637498E+00  1.90628297E+00
  1.91139500E+00  1.86722514E+00  1.91129475E+00  1.90157694E+00  1.91584270E+00
  1.92517977E+00  1.91774524E+00  1.89203471E+00  1.88325785E+00  1.99864086E+00
  2.00792092E+00  1.76268178E+00  1.83165466E+00  1.95252176E+00  1.99348706E+00
  1.96341909E+00  1.90538132E+00 -3.13745501E+00 -1.02325479E+00  1.02499056E+00
 -1.05134889E+00  1.06285133E+00  3.11109668E+00  1.05977442E+00 -3.10921067E+00
 -1.06096532E+00 -3.13495182E+00 -1.02790702E+00  1.04146384E+00  1.02823419E+00
  3.13527899E+00 -1.07853546E+00 -1.01131960E+00  1.09572520E+00 -3.11808925E+00
 -3.10255607E+00 -1.15535269E+00  1.14294168E+00  1.08798314E+00  3.03518653E+00
 -9.49704413E-01 -9.96942661E-01  9.50260723E-01 -3.03463022E+00 -3.07299264E+00
 -8.88373891E-01  1.10777138E+00 -2.99079517E+00 -9.23792053E-01  1.26082670E+00
ZRed-Constraint2                           R   N=          75
  2.91740384E+00  2.05988946E+00  2.05986643E+00  2.05978762E+00  2.93110459E+00
  2.05989528E+00  2.05971019E+00  2.92071774E+00  2.05979810E+00  2.05976004E+00
  2.68683975E+00  2.05963273E+00  2.05991525E+00  1.81413709E+00  1.81413708E+00
  1.91069397E+00  1.91069429E+00  1.91072006E+00  1.91055067E+00  1.91058228E+00
  1.91055813E+00  1.96214300E+00  1.85105185E+00  1.85108978E+00  1.85403797E+00
  1.85413400E+00  2.09438232E+00  1.96796291E+00  1.85240579E+00  1.85247697E+00
  1.85022089E+00  1.85007726E+00  2.09447811E+00  1.92045860E+00  1.88656880E+00
  1.88650400E+00  1.83574272E+00  1.83552084E+00  2.09448561E+00  1.91063324E+00
  1.91063323E+00  1.91063324E+00 -2.79148062E+00 -7.72457088E-01  1.47254336E+00
 -6.97112069E-01  1.32191147E+00 -2.71627339E+00  1.39728161E+00 -2.86688016E+00
 -6.21879708E-01  3.14154552E+00 -1.12336331E+00  1.12339891E+00  1.12432356E+00
 -3.14058527E+00 -8.93823053E-01 -1.12431499E+00  8.93961491E-01  3.14072371E+00
  3.14149595E+00 -1.14585807E+00  1.14596337E+00  1.12191007E+00  3.11774136E+00
 -8.73622507E-01 -1.12210457E+00  8.73726720E-01 -3.11763715E+00  3.13222335E+00
 -1.05656686E+00  1.10422214E+00 -3.08456807E+00 -1.12315622E+00  9.71238884E-01
SymInf integers                            I   N=          26
           1           1           1           1           1           0
           0           0           0           0           0           0
           0           0           0           0           0           0
           0           0           0           0           0           0
           0           0
RotTr to input orientation                 R   N=          12
 -9.73288494E-02  8.64985205E-01  4.92267904E-01  3.01797371E-01 -4.45676568E-01
  8.42787484E-01  9.48390975E-01  2.30592695E-01 -2.17673073E-01  3.95814125E+00
  2.53823049E+00  5.47161542E-01
Number of contracted shells                I               42
Number of primitive shells                 I               99
Pure/Cartesian d shells                    I                1
Pure/Cartesian f shells                    I                0
Highest angular momentum                   I                2
Largest degree of contraction              I                6
Shell types                                I   N=          42
           0          -1          -1           2           0          -1
          -1           2           0          -1          -1           2
           0          -1          -1           2           0          -1
          -1           2           0           0           0           0
           0           0           0           0           0           0
           0           0           0           0           0           0
           0           0           0           0           0           0
Number of primitives per shell             I   N=          42
           6           3           1           1           6           3
           1           1           6           3           1           1
           6           3           1           1           6           3
           1           1           3           1           3           1
           3           1           3           1           3           1
           3           1           3           1           3           1
           3           1           3           1           3           1
Shell to atom map                          I   N=          42
           1           1           1           1           2           2
           2           2           3           3           3           3
           4           4           4           4           5           5
           5           5           6           6           7           7
           8           8           9           9          10          10
          11          11          12          12          13          13
          14          14          15          15          16          16
Primitive exponents                        R   N=          99
  3.04752488E+03  4.57369518E+02  1.03948685E+02  2.92101553E+01  9.28666296E+00
  3.16392696E+00  7.86827235E+00  1.88128854E+00  5.44249258E-01  1.68714478E-01
  8.00000000E-01  3.04752488E+03  4.57369518E+02  1.03948685E+02  2.92101553E+01
  9.28666296E+00  3.16392696E+00  7.86827235E+00  1.88128854E+00  5.44249258E-01
  1.68714478E-01  8.00000000E-01  3.04752488E+03  4.57369518E+02  1.03948685E+02
  2.92101553E+01  9.28666296E+00  3.16392696E+00  7.86827235E+00  1.88128854E+00
  5.44249258E-01  1.68714478E-01  8.00000000E-01  3.04752488E+03  4.57369518E+02
  1.03948685E+02  2.92101553E+01  9.28666296E+00  3.16392696E+00  7.86827235E+00
  1.88128854E+00  5.44249258E-01  1.68714478E-01  8.00000000E-01  5.48467166E+03
  8.25234946E+02  1.88046958E+02  5.29645000E+01  1.68975704E+01  5.79963534E+00
  1.55396162E+01  3.59993359E+00  1.01376175E+00  2.70005823E-01  8.00000000E-01
  1.87311370E+01  2.82539436E+00  6.40121692E-01  1.61277759E-01  1.87311370E+01
  2.82539436E+00  6.40121692E-01  1.61277759E-01  1.87311370E+01  2.82539436E+00
  6.40121692E-01  1.61277759E-01  1.87311370E+01  2.82539436E+00  6.40121692E-01
  1.61277759E-01  1.87311370E+01  2.82539436E+00  6.40121692E-01  1.61277759E-01
  1.87311370E+01  2.82539436E+00  6.40121692E-01  1.61277759E-01  1.87311370E+01
  2.82539436E+00  6.40121692E-01  1.61277759E-01  1.87311370E+01  2.82539436E+00
  6.40121692E-01  1.61277759E-01  1.87311370E+01  2.82539436E+00  6.40121692E-01
  1.61277759E-01  1.87311370E+01  2.82539436E+00  6.40121692E-01  1.61277759E-01
  1.87311370E+01  2.82539436E+00  6.40121692E-01  1.61277759E-01
Contraction coefficients                   R   N=          99
  1.83473713E-03  1.40373228E-02  6.88426223E-02  2.32184443E-01  4.67941348E-01
  3.62311985E-01 -1.19332420E-01 -1.60854152E-01  1.14345644E+00  1.00000000E+00
  1.00000000E+00  1.83473713E-03  1.40373228E-02  6.88426223E-02  2.32184443E-01
  4.67941348E-01  3.62311985E-01 -1.19332420E-01 -1.60854152E-01  1.14345644E+00
  1.00000000E+00  1.00000000E+00  1.83473713E-03  1.40373228E-02  6.88426223E-02
  2.32184443E-01  4.67941348E-01  3.62311985E-01 -1.19332420E-01 -1.60854152E-01
  1.14345644E+00  1.00000000E+00  1.00000000E+00  1.83473713E-03  1.40373228E-02
  6.88426223E-02  2.32184443E-01  4.67941348E-01  3.62311985E-01 -1.19332420E-01
 -1.60854152E-01  1.14345644E+00  1.00000000E+00  1.00000000E+00  1.83107443E-03
  1.39501722E-02  6.84450781E-02  2.32714336E-01  4.70192898E-01  3.58520853E-01
 -1.10777550E-01 -1.48026263E-01  1.13076702E+00  1.00000000E+00  1.00000000E+00
  3.34946043E-02  2.34726953E-01  8.13757326E-01  1.00000000E+00  3.34946043E-02
  2.34726953E-01  8.13757326E-01  1.00000000E+00  3.34946043E-02  2.34726953E-01
  8.13757326E-01  1.00000000E+00  3.34946043E-02  2.34726953E-01  8.13757326E-01
  1.00000000E+00  3.34946043E-02  2.34726953E-01  8.13757326E-01  1.00000000E+00
  3.34946043E-02  2.34726953E-01  8.13757326E-01  1.00000000E+00  3.34946043E-02
  2.34726953E-01  8.13757326E-01  1.00000000E+00  3.34946043E-02  2.34726953E-01
  8.13757326E-01  1.00000000E+00  3.34946043E-02  2.34726953E-01  8.13757326E-01
  1.00000000E+00  3.34946043E-02  2.34726953E-01  8.13757326E-01  1.00000000E+00
  3.34946043E-02  2.34726953E-01  8.13757326E-01  1.00000000E+00
P(S=P) Contraction coefficients            R   N=          99
  0.00000000E+00  0.00000000E+00  0.00000000E+00  0.00000000E+00  0.00000000E+00
  0.00000000E+00  6.89990666E-02  3.16423961E-01  7.44308291E-01  1.00000000E+00
  0.00000000E+00  0.00000000E+00  0.00000000E+00  0.00000000E+00  0.00000000E+00
  0.00000000E+00  0.00000000E+00  6.89990666E-02  3.16423961E-01  7.44308291E-01
  1.00000000E+00  0.00000000E+00  0.00000000E+00  0.00000000E+00  0.00000000E+00
  0.00000000E+00  0.00000000E+00  0.00000000E+00  6.89990666E-02  3.16423961E-01
  7.44308291E-01  1.00000000E+00  0.00000000E+00  0.00000000E+00  0.00000000E+00
  0.00000000E+00  0.00000000E+00  0.00000000E+00  0.00000000E+00  6.89990666E-02
  3.16423961E-01  7.44308291E-01  1.00000000E+00  0.00000000E+00  0.00000000E+00
  0.00000000E+00  0.00000000E+00  0.00000000E+00  0.00000000E+00  0.00000000E+00
  7.08742682E-02  3.39752839E-01  7.27158577E-01  1.00000000E+00  0.00000000E+00
  0.00000000E+00  0.00000000E+00  0.00000000E+00  0.00000000E+00  0.00000000E+00
  0.00000000E+00  0.00000000E+00  0.00000000E+00  0.00000000E+00  0.00000000E+00
  0.00000000E+00  0.00000000E+00  0.00000000E+00  0.00000000E+00  0.00000000E+00
  0.00000000E+00  0.00000000E+00  0.00000000E+00  0.00000000E+00  0.00000000E+00
  0.00000000E+00  0.00000000E+00  0.00000000E+00  0.00000000E+00  0.00000000E+00
  0.00000000E+00  0.00000000E+00  0.00000000E+00  0.00000000E+00  0.00000000E+00
  0.00000000E+00  0.00000000E+00  0.00000000E+00  0.00000000E+00  0.00000000E+00
  0.00000000E+00  0.00000000E+00  0.00000000E+00  0.00000000E+00  0.00000000E+00
  0.00000000E+00  0.00000000E+00  0.00000000E+00  0.00000000E+00
Coordinates of each shell                  R   N=         126
 -4.87732912E+00 -6.31763782E-01 -2.25470433E-02 -4.87732912E+00 -6.31763782E-01
 -2.25470433E-02 -4.87732912E+00 -6.31763782E-01 -2.25470433E-02 -4.87732912E+00
 -6.31763782E-01 -2.25470433E-02 -2.49336257E+00  1.01175677E+00  4.64679171E-02
 -2.49336257E+00  1.01175677E+00  4.64679171E-02 -2.49336257E+00  1.01175677E+00
  4.64679171E-02 -2.49336257E+00  1.01175677E+00  4.64679171E-02 -6.48977524E-02
 -6.22147571E-01 -4.40026752E-02 -6.48977524E-02 -6.22147571E-01 -4.40026752E-02
 -6.48977524E-02 -6.22147571E-01 -4.40026752E-02 -6.48977524E-02 -6.22147571E-01
 -4.40026752E-02  2.21844205E+00  1.06612164E+00  4.54506488E-02  2.21844205E+00
  1.06612164E+00  4.54506488E-02  2.21844205E+00  1.06612164E+00  4.54506488E-02
  2.21844205E+00  1.06612164E+00  4.54506488E-02  4.63757925E+00 -6.55186971E-01
 -1.60429906E-01  4.63757925E+00 -6.55186971E-01 -1.60429906E-01  4.63757925E+00
 -6.55186971E-01 -1.60429906E-01  4.63757925E+00 -6.55186971E-01 -1.60429906E-01
 -6.56328756E+00  5.62158195E-01  3.51158182E-02 -6.56328756E+00  5.62158195E-01
  3.51158182E-02 -4.96229069E+00 -1.76493345E+00 -1.75242235E+00 -4.96229069E+00
 -1.76493345E+00 -1.75242235E+00 -4.95633706E+00 -1.91689084E+00  1.59836372E+00
 -4.95633706E+00 -1.91689084E+00  1.59836372E+00 -2.49597035E+00  2.32010453E+00
 -1.56149302E+00 -2.49597035E+00  2.32010453E+00 -1.56149302E+00 -2.48674279E+00
  2.16763569E+00  1.76777540E+00 -2.48674279E+00  2.16763569E+00  1.76777540E+00
 -6.49130797E-02 -1.92057817E+00  1.57642204E+00 -6.49130797E-02 -1.92057817E+00
  1.57642204E+00 -4.15674850E-02 -1.74641283E+00 -1.78262839E+00 -4.15674850E-02
 -1.74641283E+00 -1.78262839E+00  2.45370125E+00  2.27335908E+00 -1.60625529E+00
  2.45370125E+00  2.27335908E+00 -1.60625529E+00  2.46021566E+00  2.11518305E+00
  1.80454012E+00  2.46021566E+00  2.11518305E+00  1.80454012E+00  6.24202068E+00
  2.64589327E-01 -3.92009114E-03  6.24202068E+00  2.64589327E-01 -3.92009114E-03
  4.61742180E+00 -2.05652115E+00  1.05572821E+00  4.61742180E+00 -2.05652115E+00
  1.05572821E+00
Num ILSW                                   I              100
ILSW                                       I   N=         100
           0           1           0           0           2           0
           0           0           0           0         402          -1
           5           0           0           0           2           0
           0           0           0           0           1           0
           1           0           0           0           0           0
           0           0      100000           0          -1           0
           0           0           0           0           0           0
           0           0           0           1           0           0
           0 -2000000000           1           0           0           0
           0           0           4          52           0           0
           0           0           5           0           0           0
           0           0           0          16           0           1
           0           0           0           0           0           0
           0           0           0           0           0           0
           0           0           0           0           0           0
           0           0           0           0           0           0
           0           0           0           0
Num RLSW                                   I               52
RLSW                                       R   N=          52
  8.00000000E-01  7.20000000E-01  1.00000000E+00  8.10000000E-01  2.00000000E-01
  0.00000000E+00  0.00000000E+00  1.00000000E+00  0.00000000E+00  0.00000000E+00
  0.00000000E+00  0.00000000E+00  1.00000000E+00  0.00000000E+00  0.00000000E+00
  0.00000000E+00  0.00000000E+00  1.00000000E+00  0.00000000E+00  0.00000000E+00
  0.00000000E+00  0.00000000E+00  1.00000000E+00  0.00000000E+00  0.00000000E+00
  0.00000000E+00  0.00000000E+00  1.00000000E+00  0.00000000E+00  0.00000000E+00
  0.00000000E+00  0.00000000E+00  1.00000000E+00  0.00000000E+00  0.00000000E+00
  0.00000000E+00  0.00000000E+00  0.00000000E+00  1.00000000E+00  1.00000000E+00
  0.00000000E+00  1.00000000E+00  0.00000000E+00  0.00000000E+00  0.00000000E+00
  0.00000000E+00  0.00000000E+00  0.00000000E+00  0.00000000E+00  0.00000000E+00
  0.00000000E+00  0.00000000E+00
MxBond                                     I                4
NBond                                      I   N=          16
           4           4           4           4           3           1
           1           1           1           1           1           1
           1           1           1           1
IBond                                      I   N=          64
           2           6           7           8           1           3
           9          10           2           4          11          12
           3           5          13          14           4          15
          16           0           1           0           0           0
           1           0           0           0           1           0
           0           0           2           0           0           0
           2           0           0           0           3           0
           0           0           3           0           0           0
           4           0           0           0           4           0
           0           0           5           0           0           0
           5           0           0           0
RBond                                      R   N=          64
  1.00000000E+00  1.00000000E+00  1.00000000E+00  1.00000000E+00  1.00000000E+00