Title Card Required                                                     
Freq      RB3LYP                                                      6-31G(d)            
Number of atoms                            I               13
Info1-9                                    I   N=           9
          36          36        1002           0           0         100
           6          18        -502
Full Title                                 C   N=           2
Title Card Required     
Route                                      C   N=           6
#p opt freq b3lyp/6-31g(d) geom=connectivity temperature=0.0
01          
Charge                                     I                0
Multiplicity                               I                1
Number of electrons                        I               50
Number of alpha electrons                  I               25
Number of beta electrons                   I               25
Number of basis functions                  I              117
Number of independent functions            I              117
Number of point charges in /Mol/           I                0
Number of translation vectors              I                0
Atomic numbers                             I   N=          13
           8           6           6           6           6           6
           6           1           1           1           1           1
           1
Nuclear charges                            R   N=          13
  8.00000000E+00  6.00000000E+00  6.00000000E+00  6.00000000E+00  6.00000000E+00
  6.00000000E+00  6.00000000E+00  1.00000000E+00  1.00000000E+00  1.00000000E+00
  1.00000000E+00  1.00000000E+00  1.00000000E+00
Current cartesian coordinates              R   N=          39
 -4.36003027E+00 -2.11366238E-01 -7.77220594E-04 -1.77832748E+00 -4.63700891E-02
  7.89986662E-04 -4.17557337E-01 -2.31355856E+00  3.17408131E-04  2.21417884E+00
 -2.24932572E+00 -2.78389721E-04  3.51048513E+00  5.24563113E-02  3.32036534E-05
  2.13853637E+00  2.30433808E+00 -1.58730620E-04 -4.98564693E-01  2.26695849E+00
  1.53504709E-04 -5.06167860E+00  1.48180440E+00  1.53048297E-03 -1.44715443E+00
 -4.08779651E+00  6.15755987E-04  3.26016244E+00 -4.01722567E+00 -4.42299568E-04
  5.56226571E+00  8.87171404E-02 -1.74885599E-04  3.11718040E+00  4.11021521E+00
 -4.37168875E-04 -1.56303829E+00  4.02822423E+00 -1.60170520E-05
Number of symbols in /Mol/                 I                0
Force Field                                I                0
Atom Types                                 C   N=          13
                                                            
                                                            
                                    
Int Atom Types                             I   N=          13
           0           0           0           0           0           0
           0           0           0           0           0           0
           0
MM charges                                 R   N=          13
  0.00000000E+00  0.00000000E+00  0.00000000E+00  0.00000000E+00  0.00000000E+00
  0.00000000E+00  0.00000000E+00  0.00000000E+00  0.00000000E+00  0.00000000E+00
  0.00000000E+00  0.00000000E+00  0.00000000E+00
Integer atomic weights                     I   N=          13
          16          12          12          12          12          12
          12           1           1           1           1           1
           1
Real atomic weights                        R   N=          13
  1.59949146E+01  1.20000000E+01  1.20000000E+01  1.20000000E+01  1.20000000E+01
  1.20000000E+01  1.20000000E+01  1.00782504E+00  1.00782504E+00  1.00782504E+00
  1.00782504E+00  1.00782504E+00  1.00782504E+00
Atom fragment info                         I   N=          13
           0           0           0           0           0           0
           0           0           0           0           0           0
           0
Atom residue num                           I   N=          13
           0           0           0           0           0           0
           0           0           0           0           0           0
           0
Nuclear spins                              I   N=          13
           0           0           0           0           0           0
           0           1           1           1           1           1
           1
Nuclear ZEff                               R   N=          13
 -5.60000000E+00 -3.60000000E+00 -3.60000000E+00 -3.60000000E+00 -3.60000000E+00
 -3.60000000E+00 -3.60000000E+00 -1.00000000E+00 -1.00000000E+00 -1.00000000E+00
 -1.00000000E+00 -1.00000000E+00 -1.00000000E+00
Nuclear ZNuc                               R   N=          13
  8.00000000E+00  6.00000000E+00  6.00000000E+00  6.00000000E+00  6.00000000E+00
  6.00000000E+00  6.00000000E+00  1.00000000E+00  1.00000000E+00  1.00000000E+00
  1.00000000E+00  1.00000000E+00  1.00000000E+00
Nuclear QMom                               R   N=          13
  0.00000000E+00  0.00000000E+00  0.00000000E+00  0.00000000E+00  0.00000000E+00
  0.00000000E+00  0.00000000E+00  0.00000000E+00  0.00000000E+00  0.00000000E+00
  0.00000000E+00  0.00000000E+00  0.00000000E+00
Nuclear GFac                               R   N=          13
  0.00000000E+00  0.00000000E+00  0.00000000E+00  0.00000000E+00  0.00000000E+00
  0.00000000E+00  0.00000000E+00  2.79284600E+00  2.79284600E+00  2.79284600E+00
  2.79284600E+00  2.79284600E+00  2.79284600E+00
MicOpt                                     I   N=          13
          -1          -1          -1          -1          -1          -1
          -1          -1          -1          -1          -1          -1
          -1
Number of residues                         I                0
Number of secondary structures             I                0
Redundant internal dimensions              I   N=           4
          58          13          19          26
Redundant internal coordinate indices      I   N=         232
           1           2           0           0           1           8
           0           0           2           3           0           0
           2           7           0           0           3           4
           0           0           3           9           0           0
           4           5           0           0           4          10
           0           0           5           6           0           0
           5          11           0           0           6           7
           0           0           6          12           0           0
           7          13           0           0           2           1
           8           0           1           2           3           0
           1           2           7           0           3           2
           7           0           2           3           4           0
           2           3           9           0           4           3
           9           0           3           4           5           0
           3           4          10           0           5           4
          10           0           4           5           6           0
           4           5          11           0           6           5
          11           0           5           6           7           0
           5           6          12           0           7           6
          12           0           2           7           6           0
           2           7          13           0           6           7
          13           0           8           1           2           3
           8           1           2           7           1           2
           3           4           1           2           3           9
           7           2           3           4           7           2
           3           9           1           2           7           6
           1           2           7          13           3           2
           7           6           3           2           7          13
           2           3           4           5           2           3
           4          10           9           3           4           5
           9           3           4          10           3           4
           5           6           3           4           5          11
          10           4           5           6          10           4
           5          11           4           5           6           7
           4           5           6          12          11           5
           6           7          11           5           6          12
           5           6           7           2           5           6
           7          13          12           6           7           2
          12           6           7          13
Redundant internal coordinates             R   N=          58
  2.58697033E+00  1.83279636E+00  2.64420861E+00  2.64372508E+00  2.63251999E+00
  2.05133873E+00  2.64170601E+00  2.05415481E+00  2.63689494E+00  2.05210098E+00
  2.63736599E+00  2.05400497E+00  2.05795070E+00  1.89982958E+00  2.04754081E+00
  2.13992547E+00  2.09571841E+00  2.08696189E+00  2.07521377E+00  2.12100964E+00
  2.10810059E+00  2.08065367E+00  2.09443100E+00  2.08150058E+00  2.10136946E+00
  2.10031521E+00  2.10381268E+00  2.09778282E+00  2.08158981E+00  2.09027633E+00
  2.09265243E+00  2.10025654E+00  3.14056935E+00 -2.21070414E-03  3.14065971E+00
 -1.03893881E-03  2.22906683E-04 -3.14147574E+00 -3.14072076E+00  9.16606748E-04
 -3.47250224E-04  3.14129012E+00  1.95073691E-04  3.14148046E+00 -3.14128872E+00
 -3.33469877E-06 -4.83236337E-04  3.14144570E+00  3.14141910E+00  1.62731646E-04
  3.56385966E-04 -3.14130218E+00 -3.14157235E+00 -4.56106921E-05  5.52776023E-05
 -3.14158229E+00 -3.14147207E+00  7.56740738E-05
ZRed-IntVec                                I   N=          58
           0           0           0           0           0           0
           0           0           0           0           0           0
           0           0           0           0           0           0
           0           0           0           0           0           0
           0           0           0           0           0           0
           0           0           0           0           0           0
           0           0           0           0           0           0
           0           0           0           0           0           0
           0           0           0           0           0           0
           0           0           0           0
ZRed-FPVec                                 R   N=          58
  0.00000000E+00  0.00000000E+00  0.00000000E+00  0.00000000E+00  0.00000000E+00
  0.00000000E+00  0.00000000E+00  0.00000000E+00  0.00000000E+00  0.00000000E+00
  0.00000000E+00  0.00000000E+00  0.00000000E+00  0.00000000E+00  0.00000000E+00
  0.00000000E+00  0.00000000E+00  0.00000000E+00  0.00000000E+00  0.00000000E+00
  0.00000000E+00  0.00000000E+00  0.00000000E+00  0.00000000E+00  0.00000000E+00
  0.00000000E+00  0.00000000E+00  0.00000000E+00  0.00000000E+00  0.00000000E+00
  0.00000000E+00  0.00000000E+00  0.00000000E+00  0.00000000E+00  0.00000000E+00
  0.00000000E+00  0.00000000E+00  0.00000000E+00  0.00000000E+00  0.00000000E+00
  0.00000000E+00  0.00000000E+00  0.00000000E+00  0.00000000E+00  0.00000000E+00
  0.00000000E+00  0.00000000E+00  0.00000000E+00  0.00000000E+00  0.00000000E+00
  0.00000000E+00  0.00000000E+00  0.00000000E+00  0.00000000E+00  0.00000000E+00
  0.00000000E+00  0.00000000E+00  0.00000000E+00
ZRed-Constraint1                           R   N=          58
  2.58697033E+00  1.83279636E+00  2.64420861E+00  2.64372508E+00  2.63251999E+00
  2.05133873E+00  2.64170601E+00  2.05415481E+00  2.63689494E+00  2.05210098E+00
  2.63736599E+00  2.05400497E+00  2.05795070E+00  1.89982958E+00  2.04754081E+00
  2.13992547E+00  2.09571841E+00  2.08696189E+00  2.07521377E+00  2.12100964E+00
  2.10810059E+00  2.08065367E+00  2.09443100E+00  2.08150058E+00  2.10136946E+00
  2.10031521E+00  2.10381268E+00  2.09778282E+00  2.08158981E+00  2.09027633E+00
  2.09265243E+00  2.10025654E+00  3.14056935E+00 -2.21070414E-03  3.14065971E+00
 -1.03893881E-03  2.22906683E-04 -3.14147574E+00 -3.14072076E+00  9.16606747E-04
 -3.47250225E-04  3.14129012E+00  1.95073691E-04  3.14148046E+00 -3.14128872E+00
 -3.33469877E-06 -4.83236336E-04  3.14144570E+00  3.14141910E+00  1.62731645E-04
  3.56385966E-04 -3.14130218E+00 -3.14157235E+00 -4.56106897E-05  5.52776023E-05
 -3.14158229E+00 -3.14147207E+00  7.56740723E-05
ZRed-Constraint2                           R   N=          58
  2.56221533E+00  1.81418800E+00  2.66231850E+00  2.66225591E+00  2.66295153E+00
  2.05980752E+00  2.65979052E+00  2.05987466E+00  2.66003880E+00  2.05969292E+00
  2.66288918E+00  2.05980337E+00  2.05982342E+00  1.91053508E+00  2.09704595E+00
  2.09706723E+00  2.08897944E+00  2.09742754E+00  2.09268515E+00  2.09307262E+00
  2.09457708E+00  2.09526167E+00  2.09334656E+00  2.09339184E+00  2.09492393E+00
  2.09486954E+00  2.09454718E+00  2.09324631E+00  2.09539181E+00  2.09744422E+00
  2.09275183E+00  2.09298926E+00  3.12691711E+00  0.00000000E+00 -3.12427860E+00
  1.73914258E-02  2.70665826E-03 -3.13880862E+00  3.12427834E+00 -1.73916595E-02
 -2.70673641E-03  3.13880857E+00 -1.64649373E-03  3.13996298E+00  3.13986877E+00
 -1.70706034E-03  5.73206047E-04 -3.14107525E+00 -3.14103625E+00  5.00603885E-04
 -5.73247945E-04  3.14103645E+00  3.14107520E+00 -5.00402460E-04  1.64661102E-03
 -3.13986869E+00 -3.13996311E+00  1.70689830E-03
SymInf integers                            I   N=          26
           1           1           1           1           1           0
           0           0           0           0           0           0
           0           0           0           0           0           0
           0           0           0           0           0           0
           0           0
RotTr to input orientation                 R   N=          12
  4.79566404E-01  8.77502519E-01  2.32246509E-03  8.77505337E-01 -4.79566602E-01
 -5.07387496E-04  6.68542887E-04  2.28130151E-03 -9.99997174E-01  9.13797903E-01
  1.51923916E+00 -2.91827920E-03
Number of contracted shells                I               40
Number of primitive shells                 I              101
Pure/Cartesian d shells                    I                1
Pure/Cartesian f shells                    I                0
Highest angular momentum                   I                2
Largest degree of contraction              I                6
Shell types                                I   N=          40
           0          -1          -1           2           0          -1
          -1           2           0          -1          -1           2
           0          -1          -1           2           0          -1
          -1           2           0          -1          -1           2
           0          -1          -1           2           0           0
           0           0           0           0           0           0
           0           0           0           0
Number of primitives per shell             I   N=          40
           6           3           1           1           6           3
           1           1           6           3           1           1
           6           3           1           1           6           3
           1           1           6           3           1           1
           6           3           1           1           3           1
           3           1           3           1           3           1
           3           1           3           1
Shell to atom map                          I   N=          40
           1           1           1           1           2           2
           2           2           3           3           3           3
           4           4           4           4           5           5
           5           5           6           6           6           6
           7           7           7           7           8           8
           9           9          10          10          11          11
          12          12          13          13
Primitive exponents                        R   N=         101
  5.48467166E+03  8.25234946E+02  1.88046958E+02  5.29645000E+01  1.68975704E+01
  5.79963534E+00  1.55396162E+01  3.59993359E+00  1.01376175E+00  2.70005823E-01
  8.00000000E-01  3.04752488E+03  4.57369518E+02  1.03948685E+02  2.92101553E+01
  9.28666296E+00  3.16392696E+00  7.86827235E+00  1.88128854E+00  5.44249258E-01
  1.68714478E-01  8.00000000E-01  3.04752488E+03  4.57369518E+02  1.03948685E+02
  2.92101553E+01  9.28666296E+00  3.16392696E+00  7.86827235E+00  1.88128854E+00
  5.44249258E-01  1.68714478E-01  8.00000000E-01  3.04752488E+03  4.57369518E+02
  1.03948685E+02  2.92101553E+01  9.28666296E+00  3.16392696E+00  7.86827235E+00
  1.88128854E+00  5.44249258E-01  1.68714478E-01  8.00000000E-01  3.04752488E+03
  4.57369518E+02  1.03948685E+02  2.92101553E+01  9.28666296E+00  3.16392696E+00
  7.86827235E+00  1.88128854E+00  5.44249258E-01  1.68714478E-01  8.00000000E-01
  3.04752488E+03  4.57369518E+02  1.03948685E+02  2.92101553E+01  9.28666296E+00
  3.16392696E+00  7.86827235E+00  1.88128854E+00  5.44249258E-01  1.68714478E-01
  8.00000000E-01  3.04752488E+03  4.57369518E+02  1.03948685E+02  2.92101553E+01
  9.28666296E+00  3.16392696E+00  7.86827235E+00  1.88128854E+00  5.44249258E-01
  1.68714478E-01  8.00000000E-01  1.87311370E+01  2.82539436E+00  6.40121692E-01
  1.61277759E-01  1.87311370E+01  2.82539436E+00  6.40121692E-01  1.61277759E-01
  1.87311370E+01  2.82539436E+00  6.40121692E-01  1.61277759E-01  1.87311370E+01
  2.82539436E+00  6.40121692E-01  1.61277759E-01  1.87311370E+01  2.82539436E+00
  6.40121692E-01  1.61277759E-01  1.87311370E+01  2.82539436E+00  6.40121692E-01
  1.61277759E-01
Contraction coefficients                   R   N=         101
  1.83107443E-03  1.39501722E-02  6.84450781E-02  2.32714336E-01  4.70192898E-01
  3.58520853E-01 -1.10777550E-01 -1.48026263E-01  1.13076702E+00  1.00000000E+00
  1.00000000E+00  1.83473713E-03  1.40373228E-02  6.88426223E-02  2.32184443E-01
  4.67941348E-01  3.62311985E-01 -1.19332420E-01 -1.60854152E-01  1.14345644E+00
  1.00000000E+00  1.00000000E+00  1.83473713E-03  1.40373228E-02  6.88426223E-02
  2.32184443E-01  4.67941348E-01  3.62311985E-01 -1.19332420E-01 -1.60854152E-01
  1.14345644E+00  1.00000000E+00  1.00000000E+00  1.83473713E-03  1.40373228E-02
  6.88426223E-02  2.32184443E-01  4.67941348E-01  3.62311985E-01 -1.19332420E-01
 -1.60854152E-01  1.14345644E+00  1.00000000E+00  1.00000000E+00  1.83473713E-03
  1.40373228E-02  6.88426223E-02  2.32184443E-01  4.67941348E-01  3.62311985E-01
 -1.19332420E-01 -1.60854152E-01  1.14345644E+00  1.00000000E+00  1.00000000E+00
  1.83473713E-03  1.40373228E-02  6.88426223E-02  2.32184443E-01  4.67941348E-01
  3.62311985E-01 -1.19332420E-01 -1.60854152E-01  1.14345644E+00  1.00000000E+00
  1.00000000E+00  1.83473713E-03  1.40373228E-02  6.88426223E-02  2.32184443E-01
  4.67941348E-01  3.62311985E-01 -1.19332420E-01 -1.60854152E-01  1.14345644E+00
  1.00000000E+00  1.00000000E+00  3.34946043E-02  2.34726953E-01  8.13757326E-01
  1.00000000E+00  3.34946043E-02  2.34726953E-01  8.13757326E-01  1.00000000E+00
  3.34946043E-02  2.34726953E-01  8.13757326E-01  1.00000000E+00  3.34946043E-02
  2.34726953E-01  8.13757326E-01  1.00000000E+00  3.34946043E-02  2.34726953E-01
  8.13757326E-01  1.00000000E+00  3.34946043E-02  2.34726953E-01  8.13757326E-01
  1.00000000E+00
P(S=P) Contraction coefficients            R   N=         101
  0.00000000E+00  0.00000000E+00  0.00000000E+00  0.00000000E+00  0.00000000E+00
  0.00000000E+00  7.08742682E-02  3.39752839E-01  7.27158577E-01  1.00000000E+00
  0.00000000E+00  0.00000000E+00  0.00000000E+00  0.00000000E+00  0.00000000E+00
  0.00000000E+00  0.00000000E+00  6.89990666E-02  3.16423961E-01  7.44308291E-01
  1.00000000E+00  0.00000000E+00  0.00000000E+00  0.00000000E+00  0.00000000E+00
  0.00000000E+00  0.00000000E+00  0.00000000E+00  6.89990666E-02  3.16423961E-01
  7.44308291E-01  1.00000000E+00  0.00000000E+00  0.00000000E+00  0.00000000E+00
  0.00000000E+00  0.00000000E+00  0.00000000E+00  0.00000000E+00  6.89990666E-02
  3.16423961E-01  7.44308291E-01  1.00000000E+00  0.00000000E+00  0.00000000E+00
  0.00000000E+00  0.00000000E+00  0.00000000E+00  0.00000000E+00  0.00000000E+00
  6.89990666E-02  3.16423961E-01  7.44308291E-01  1.00000000E+00  0.00000000E+00
  0.00000000E+00  0.00000000E+00  0.00000000E+00  0.00000000E+00  0.00000000E+00
  0.00000000E+00  6.89990666E-02  3.16423961E-01  7.44308291E-01  1.00000000E+00
  0.00000000E+00  0.00000000E+00  0.00000000E+00  0.00000000E+00  0.00000000E+00
  0.00000000E+00  0.00000000E+00  6.89990666E-02  3.16423961E-01  7.44308291E-01
  1.00000000E+00  0.00000000E+00  0.00000000E+00  0.00000000E+00  0.00000000E+00
  0.00000000E+00  0.00000000E+00  0.00000000E+00  0.00000000E+00  0.00000000E+00
  0.00000000E+00  0.00000000E+00  0.00000000E+00  0.00000000E+00  0.00000000E+00
  0.00000000E+00  0.00000000E+00  0.00000000E+00  0.00000000E+00  0.00000000E+00
  0.00000000E+00  0.00000000E+00  0.00000000E+00  0.00000000E+00  0.00000000E+00
  0.00000000E+00
Coordinates of each shell                  R   N=         120
 -4.36003027E+00 -2.11366238E-01 -7.77220594E-04 -4.36003027E+00 -2.11366238E-01
 -7.77220594E-04 -4.36003027E+00 -2.11366238E-01 -7.77220594E-04 -4.36003027E+00
 -2.11366238E-01 -7.77220594E-04 -1.77832748E+00 -4.63700891E-02  7.89986662E-04
 -1.77832748E+00 -4.63700891E-02  7.89986662E-04 -1.77832748E+00 -4.63700891E-02
  7.89986662E-04 -1.77832748E+00 -4.63700891E-02  7.89986662E-04 -4.17557337E-01
 -2.31355856E+00  3.17408131E-04 -4.17557337E-01 -2.31355856E+00  3.17408131E-04
 -4.17557337E-01 -2.31355856E+00  3.17408131E-04 -4.17557337E-01 -2.31355856E+00
  3.17408131E-04  2.21417884E+00 -2.24932572E+00 -2.78389721E-04  2.21417884E+00
 -2.24932572E+00 -2.78389721E-04  2.21417884E+00 -2.24932572E+00 -2.78389721E-04
  2.21417884E+00 -2.24932572E+00 -2.78389721E-04  3.51048513E+00  5.24563113E-02
  3.32036534E-05  3.51048513E+00  5.24563113E-02  3.32036534E-05  3.51048513E+00
  5.24563113E-02  3.32036534E-05  3.51048513E+00  5.24563113E-02  3.32036534E-05
  2.13853637E+00  2.30433808E+00 -1.58730620E-04  2.13853637E+00  2.30433808E+00
 -1.58730620E-04  2.13853637E+00  2.30433808E+00 -1.58730620E-04  2.13853637E+00
  2.30433808E+00 -1.58730620E-04 -4.98564693E-01  2.26695849E+00  1.53504709E-04
 -4.98564693E-01  2.26695849E+00  1.53504709E-04 -4.98564693E-01  2.26695849E+00
  1.53504709E-04 -4.98564693E-01  2.26695849E+00  1.53504709E-04 -5.06167860E+00
  1.48180440E+00  1.53048297E-03 -5.06167860E+00  1.48180440E+00  1.53048297E-03
 -1.44715443E+00 -4.08779651E+00  6.15755987E-04 -1.44715443E+00 -4.08779651E+00
  6.15755987E-04  3.26016244E+00 -4.01722567E+00 -4.42299568E-04  3.26016244E+00
 -4.01722567E+00 -4.42299568E-04  5.56226571E+00  8.87171404E-02 -1.74885599E-04
  5.56226571E+00  8.87171404E-02 -1.74885599E-04  3.11718040E+00  4.11021521E+00
 -4.37168875E-04  3.11718040E+00  4.11021521E+00 -4.37168875E-04 -1.56303829E+00
  4.02822423E+00 -1.60170520E-05 -1.56303829E+00  4.02822423E+00 -1.60170520E-05
Num ILSW                                   I              100
ILSW                                       I   N=         100
           0           1           0           0           2           0
           0           0           0           0         402          -1
           5           0           0           0           2           0
           0           0           0           0           1           0
           1           0           0           0           0           0
           0           0      100000           0          -1           0
           0           0           0           0           0           0
           0           0           0           1           0           0
           0 -2000000000           1           0           0           0
           0           0           4          52           0           0
           0           0           5           0           0           0
           0           0           0          13           0           1
           0           0           0           0           0           0
           0           0           0           0           0           0
           0           0           0           0           0           0
           0           0           0           0           0           0
           0           0           0           0
Num RLSW                                   I               52
RLSW                                       R   N=          52
  8.00000000E-01  7.20000000E-01  1.00000000E+00  8.10000000E-01  2.00000000E-01
  0.00000000E+00  0.00000000E+00  1.00000000E+00  0.00000000E+00  0.00000000E+00
  0.00000000E+00  0.00000000E+00  1.00000000E+00  0.00000000E+00  0.00000000E+00
  0.00000000E+00  0.00000000E+00  1.00000000E+00  0.00000000E+00  0.00000000E+00
  0.00000000E+00  0.00000000E+00  1.00000000E+00  0.00000000E+00  0.00000000E+00
  0.00000000E+00  0.00000000E+00  1.00000000E+00  0.00000000E+00  0.00000000E+00
  0.00000000E+00  0.00000000E+00  1.00000000E+00  0.00000000E+00  0.00000000E+00
  0.00000000E+00  0.00000000E+00  0.00000000E+00  1.00000000E+00  1.00000000E+00
  0.00000000E+00  1.00000000E+00  0.00000000E+00  0.00000000E+00  0.00000000E+00
  0.00000000E+00  0.00000000E+00  0.00000000E+00  0.00000000E+00  0.00000000E+00
  0.00000000E+00  0.00000000E+00
MxBond                                     I                3
NBond                                      I   N=          13
           2           3           3           3           3           3
           3           1           1           1           1           1
           1
IBond                                      I   N=          39
           2           8           0           1           3           7
           2           4           9           3           5          10
           4           6          11           5           7          12
           2           6          13           1           0           0
           3           0           0           4           0           0
           5           0           0           6           0           0
           7           0           0
RBond                                      R   N=          39
  1.00000000E+00  1.00000000E+00  0.00000000E+00  1.00000000E+00  2.00000000E+00
  1.00000000E+00  2.00000000E+00  1.00000000E+00  1.00000000E+00  1.00000000E+00
  2.00000000E+00  1.00000000E+00  2.00000000E+00  1.00000000E+00  1.00000000E+00
  1.00000000E+00  2.00000000E+00  1.00000000E+00  1.00000000E+00  2.00000000E+00
  1.00000000E+00  1.00000000E+00  0.00000000E+00  0.00000000E+00  1.00000000E+00
  0.00000000E+00  0.00000000E+00  1.00000000E+00  0.00000000E+00  0.00000000E+00
  1.00000000E+00  0.00000000E+00  0.00000000E+00  1.00000000E+00  0.00000000E+00
  0.00000000E+00  1.00000000E+00  0.00000000E+00  0.00000000E+00
Virial Ratio                               R      2.009539337779208E+00
SCF Energy                                 R     -3.074648600297998E+02
Total Energy                               R     -3.074648600297998E+02
RMS Force                                  R      1.265196542089062E-04
RMS Density                                R      1.096166672889348E-09
NImag                                      I                0
Job Status                                 I                1
Nuclear derivative order                   I                2
External E-field                           R   N=          35
  0.00000000E+00  0.00000000E+00  0.00000000E+00  0.00000000E+00  0.00000000E+00
  0.00000000E+00  0.00000000E+00  0.00000000E+00  0.00000000E+00  0.00000000E+00
  0.00000000E+00  0.00000000E+00  0.00000000E+00  0.00000000E+00  0.00000000E+00
  0.00000000E+00  0.00000000E+00  0.00000000E+00  0.00000000E+00  0.00000000E+00
  0.00000000E+00  0.00000000E+00  0.00000000E+00  0.00000000E+00  0.00000000E+00
  0.00000000E+00  0.00000000E+00  0.00000000E+00  0.00000000E+00  0.00000000E+00
  0.00000000E+00  0.00000000E+00  0.00000000E+00  0.00000000E+00  0.00000000E+00
IOpCl                                      I                0
IROHF                                      I                0
Alpha Orbital Energies                     R   N=         117
 -1.91773832E+01 -1.02476467E+01 -1.01908819E+01 -1.01888826E+01 -1.01883374E+01
 -1.01822105E+01 -1.01810902E+01 -1.05719175E+00 -8.44652859E-01 -7.44741138E-01
 -7.33362558E-01 -6.20696612E-01 -5.98190435E-01 -5.40494838E-01 -4.95350276E-01
 -4.61446679E-01 -4.34760739E-01 -4.20518663E-01 -4.02863082E-01 -3.85720356E-01
 -3.58192135E-01 -3.37038207E-01 -3.30640883E-01 -2.48919531E-01 -2.18922515E-01
  1.31149275E-03  1.70384239E-02  6.85638779E-02  9.36358981E-02  1.44763197E-01
  1.56755342E-01  1.69902670E-01  1.88894677E-01  1.89539460E-01  2.43755900E-01
  3.00008891E-01  3.05550866E-01  3.43287117E-01  3.54197941E-01  4.83101388E-01
  5.15456689E-01  5.24513248E-01  5.49060661E-01  5.69347516E-01  5.96062844E-01
  5.99558656E-01  6.04855854E-01  6.14196011E-01  6.18289223E-01  6.20809353E-01
  6.43083578E-01  6.64722517E-01  6.75332949E-01  7.54358012E-01  7.57955460E-01
  8.36948240E-01  8.37597455E-01  8.52572009E-01  8.66371633E-01  8.95155120E-01
  9.28114491E-01  9.34746070E-01  9.56216061E-01  9.57457681E-01  9.90000873E-01
  1.04031166E+00  1.10015374E+00  1.11559689E+00  1.17385768E+00  1.20389995E+00
  1.25047900E+00  1.27009295E+00  1.35934098E+00  1.37554415E+00  1.44517291E+00
  1.44603383E+00  1.46902542E+00  1.49371467E+00  1.51441960E+00  1.67786097E+00
  1.73426700E+00  1.77045941E+00  1.79203751E+00  1.85138099E+00  1.89854357E+00
  1.92916585E+00  1.96837543E+00  1.97283112E+00  1.97839318E+00  2.07145288E+00