 Entering Gaussian System, Link 0=/apps/cent7/gaussian/g16-A.03/g16-haswell/g16/g16
 Initial command:
 /apps/cent7/gaussian/g16-A.03/g16-haswell/g16/l1.exe "/scratch/brown/finej/gaussian/Gau-321457.inp" -scrdir="/scratch/brown/finej/gaussian/"
 Entering Link 1 = /apps/cent7/gaussian/g16-A.03/g16-haswell/g16/l1.exe PID=    321458.
  
 Copyright (c) 1988,1990,1992,1993,1995,1998,2003,2009,2016,
            Gaussian, Inc.  All Rights Reserved.
  
 This is part of the Gaussian(R) 16 program.  It is based on
 the Gaussian(R) 09 system (copyright 2009, Gaussian, Inc.),
 the Gaussian(R) 03 system (copyright 2003, Gaussian, Inc.),
 the Gaussian(R) 98 system (copyright 1998, Gaussian, Inc.),
 the Gaussian(R) 94 system (copyright 1995, Gaussian, Inc.),
 the Gaussian 92(TM) system (copyright 1992, Gaussian, Inc.),
 the Gaussian 90(TM) system (copyright 1990, Gaussian, Inc.),
 the Gaussian 88(TM) system (copyright 1988, Gaussian, Inc.),
 the Gaussian 86(TM) system (copyright 1986, Carnegie Mellon
 University), and the Gaussian 82(TM) system (copyright 1983,
 Carnegie Mellon University). Gaussian is a federally registered
 trademark of Gaussian, Inc.
  
 This software contains proprietary and confidential information,
 including trade secrets, belonging to Gaussian, Inc.
  
 This software is provided under written license and may be
 used, copied, transmitted, or stored only in accord with that
 written license.
  
 The following legend is applicable only to US Government
 contracts under FAR:
  
                    RESTRICTED RIGHTS LEGEND
  
 Use, reproduction and disclosure by the US Government is
 subject to restrictions as set forth in subparagraphs (a)
 and (c) of the Commercial Computer Software - Restricted
 Rights clause in FAR 52.227-19.
  
 Gaussian, Inc.
 340 Quinnipiac St., Bldg. 40, Wallingford CT 06492
  
  
 ---------------------------------------------------------------
 Warning -- This program may not be used in any manner that
 competes with the business of Gaussian, Inc. or will provide
 assistance to any competitor of Gaussian, Inc.  The licensee
 of this program is prohibited from giving any competitor of
 Gaussian, Inc. access to this program.  By using this program,
 the user acknowledges that Gaussian, Inc. is engaged in the
 business of creating and licensing software in the field of
 computational chemistry and represents and warrants to the
 licensee that it is not a competitor of Gaussian, Inc. and that
 it will not use this program in any manner prohibited above.
 ---------------------------------------------------------------
  

 Cite this work as:
 Gaussian 16, Revision A.03,
 M. J. Frisch, G. W. Trucks, H. B. Schlegel, G. E. Scuseria, 
 M. A. Robb, J. R. Cheeseman, G. Scalmani, V. Barone, 
 G. A. Petersson, H. Nakatsuji, X. Li, M. Caricato, A. V. Marenich, 
 J. Bloino, B. G. Janesko, R. Gomperts, B. Mennucci, H. P. Hratchian, 
 J. V. Ortiz, A. F. Izmaylov, J. L. Sonnenberg, D. Williams-Young, 
 F. Ding, F. Lipparini, F. Egidi, J. Goings, B. Peng, A. Petrone, 
 T. Henderson, D. Ranasinghe, V. G. Zakrzewski, J. Gao, N. Rega, 
 G. Zheng, W. Liang, M. Hada, M. Ehara, K. Toyota, R. Fukuda, 
 J. Hasegawa, M. Ishida, T. Nakajima, Y. Honda, O. Kitao, H. Nakai, 
 T. Vreven, K. Throssell, J. A. Montgomery, Jr., J. E. Peralta, 
 F. Ogliaro, M. J. Bearpark, J. J. Heyd, E. N. Brothers, K. N. Kudin, 
 V. N. Staroverov, T. A. Keith, R. Kobayashi, J. Normand, 
 K. Raghavachari, A. P. Rendell, J. C. Burant, S. S. Iyengar, 
 J. Tomasi, M. Cossi, J. M. Millam, M. Klene, C. Adamo, R. Cammi, 
 J. W. Ochterski, R. L. Martin, K. Morokuma, O. Farkas, 
 J. B. Foresman, and D. J. Fox, Gaussian, Inc., Wallingford CT, 2016.
 
 ******************************************
 Gaussian 16:  ES64L-G16RevA.03 25-Dec-2016
                14-Oct-2019 
 ******************************************
 %chk=21.chk
 %nprocshared=24
 Will use up to   24 processors via shared memory.
 %mem=80GB
 --------------------------------------------------------------
 #p opt freq b3lyp/6-31g(d) geom=connectivity temperature=0.001
 --------------------------------------------------------------
 1/18=20,19=15,26=3,38=1,57=2,112=-1000/1,3;
 2/9=110,12=2,17=6,18=5,40=1/2;
 3/5=1,6=6,7=1,11=2,25=1,30=1,71=1,74=-5/1,2,3;
 4//1;
 5/5=2,38=5/2;
 6/7=2,8=2,9=2,10=2,28=1/1;
 7//1,2,3,16;
 1/18=20,19=15,26=3/3(2);
 2/9=110/2;
 99//99;
 2/9=110/2;
 3/5=1,6=6,7=1,11=2,25=1,30=1,71=1,74=-5/1,2,3;
 4/5=5,16=3,69=1/1;
 5/5=2,38=5/2;
 7//1,2,3,16;
 1/18=20,19=15,26=3/3(-5);
 2/9=110/2;
 6/7=2,8=2,9=2,10=2,19=2,28=1/1;
 99/9=1/99;
 Leave Link    1 at Mon Oct 14 11:08:30 2019, MaxMem= 10737418240 cpu:               1.8 elap:               0.1
 (Enter /apps/cent7/gaussian/g16-A.03/g16-haswell/g16/l101.exe)
 -------------------
 Title Card Required
 -------------------
 Symbolic Z-matrix:
 Charge =  0 Multiplicity = 1
 O                    -0.6901   -1.1952   -0.0142 
 C                    -0.0122   -0.0211    0.0035 
 C                    -0.7133    1.2009    0.0038 
 C                    -0.0091    2.4215    0.0011 
 C                     1.3984    2.4222    0.0001 
 C                     2.1016    1.2028    0.0011 
 C                     1.3966   -0.0173    0.0038 
 H                    -0.06615  -1.92474  -0.02502 
 H                    -1.8033    1.202     0.0062 
 H                    -0.5536    3.3658   -0.0002 
 H                     1.9434    3.3661   -0.0015 
 H                     3.1916    1.2035   -0.0002 
 H                     1.9426   -0.9607    0.0062 
 
 ITRead=  0  0  0  0  0  0  0  0  0  0  0  0  0
 MicOpt= -1 -1 -1 -1 -1 -1 -1 -1 -1 -1 -1 -1 -1
 NAtoms=     13 NQM=       13 NQMF=       0 NMMI=      0 NMMIF=      0
                NMic=       0 NMicF=      0.
                    Isotopes and Nuclear Properties:
 (Nuclear quadrupole moments (NQMom) in fm**2, nuclear magnetic moments (NMagM)
  in nuclear magnetons)

  Atom         1           2           3           4           5           6           7           8           9          10
 IAtWgt=          16          12          12          12          12          12          12           1           1           1
 AtmWgt=  15.9949146  12.0000000  12.0000000  12.0000000  12.0000000  12.0000000  12.0000000   1.0078250   1.0078250   1.0078250
 NucSpn=           0           0           0           0           0           0           0           1           1           1
 AtZEff=  -0.0000000  -0.0000000  -0.0000000  -0.0000000  -0.0000000  -0.0000000  -0.0000000  -0.0000000  -0.0000000  -0.0000000
 NQMom=    0.0000000   0.0000000   0.0000000   0.0000000   0.0000000   0.0000000   0.0000000   0.0000000   0.0000000   0.0000000
 NMagM=    0.0000000   0.0000000   0.0000000   0.0000000   0.0000000   0.0000000   0.0000000   2.7928460   2.7928460   2.7928460
 AtZNuc=   8.0000000   6.0000000   6.0000000   6.0000000   6.0000000   6.0000000   6.0000000   1.0000000   1.0000000   1.0000000

  Atom        11          12          13
 IAtWgt=           1           1           1
 AtmWgt=   1.0078250   1.0078250   1.0078250
 NucSpn=           1           1           1
 AtZEff=  -0.0000000  -0.0000000  -0.0000000
 NQMom=    0.0000000   0.0000000   0.0000000
 NMagM=    2.7928460   2.7928460   2.7928460
 AtZNuc=   1.0000000   1.0000000   1.0000000
 Leave Link  101 at Mon Oct 14 11:08:31 2019, MaxMem= 10737418240 cpu:               8.7 elap:               0.4
 (Enter /apps/cent7/gaussian/g16-A.03/g16-haswell/g16/l103.exe)

 GradGradGradGradGradGradGradGradGradGradGradGradGradGradGradGradGradGrad
 Berny optimization.
 Initialization pass.
                           ----------------------------
                           !    Initial Parameters    !
                           ! (Angstroms and Degrees)  !
 --------------------------                            --------------------------
 ! Name  Definition              Value          Derivative Info.                !
 --------------------------------------------------------------------------------
 ! R1    R(1,2)                  1.3559         estimate D2E/DX2                !
 ! R2    R(1,8)                  0.96           estimate D2E/DX2                !
 ! R3    R(2,3)                  1.4088         estimate D2E/DX2                !
 ! R4    R(2,7)                  1.4088         estimate D2E/DX2                !
 ! R5    R(3,4)                  1.4092         estimate D2E/DX2                !
 ! R6    R(3,9)                  1.09           estimate D2E/DX2                !
 ! R7    R(4,5)                  1.4075         estimate D2E/DX2                !
 ! R8    R(4,10)                 1.09           estimate D2E/DX2                !
 ! R9    R(5,6)                  1.4076         estimate D2E/DX2                !
 ! R10   R(5,11)                 1.0899         estimate D2E/DX2                !
 ! R11   R(6,7)                  1.4091         estimate D2E/DX2                !
 ! R12   R(6,12)                 1.09           estimate D2E/DX2                !
 ! R13   R(7,13)                 1.09           estimate D2E/DX2                !
 ! A1    A(2,1,8)              109.4656         estimate D2E/DX2                !
 ! A2    A(1,2,3)              120.1519         estimate D2E/DX2                !
 ! A3    A(1,2,7)              120.1531         estimate D2E/DX2                !
 ! A4    A(3,2,7)              119.6897         estimate D2E/DX2                !
 ! A5    A(2,3,4)              120.1737         estimate D2E/DX2                !
 ! A6    A(2,3,9)              119.902          estimate D2E/DX2                !
 ! A7    A(4,3,9)              119.9242         estimate D2E/DX2                !
 ! A8    A(3,4,5)              120.0104         estimate D2E/DX2                !
 ! A9    A(3,4,10)             120.0497         estimate D2E/DX2                !
 ! A10   A(5,4,10)             119.9399         estimate D2E/DX2                !
 ! A11   A(4,5,6)              119.9425         estimate D2E/DX2                !
 ! A12   A(4,5,11)             120.0303         estimate D2E/DX2                !
 ! A13   A(6,5,11)             120.0272         estimate D2E/DX2                !
 ! A14   A(5,6,7)              120.0087         estimate D2E/DX2                !
 ! A15   A(5,6,12)             119.9342         estimate D2E/DX2                !
 ! A16   A(7,6,12)             120.0571         estimate D2E/DX2                !
 ! A17   A(2,7,6)              120.1747         estimate D2E/DX2                !
 ! A18   A(2,7,13)             119.9058         estimate D2E/DX2                !
 ! A19   A(6,7,13)             119.9195         estimate D2E/DX2                !
 ! D1    D(8,1,2,3)            179.1592         estimate D2E/DX2                !
 ! D2    D(8,1,2,7)              0.0            estimate D2E/DX2                !
 ! D3    D(1,2,3,4)           -179.008          estimate D2E/DX2                !
 ! D4    D(1,2,3,9)              0.9965         estimate D2E/DX2                !
 ! D5    D(7,2,3,4)              0.1551         estimate D2E/DX2                !
 ! D6    D(7,2,3,9)           -179.8405         estimate D2E/DX2                !
 ! D7    D(1,2,7,6)            179.008          estimate D2E/DX2                !
 ! D8    D(1,2,7,13)            -0.9965         estimate D2E/DX2                !
 ! D9    D(3,2,7,6)             -0.1551         estimate D2E/DX2                !
 ! D10   D(3,2,7,13)           179.8405         estimate D2E/DX2                !
 ! D11   D(2,3,4,5)             -0.0943         estimate D2E/DX2                !
 ! D12   D(2,3,4,10)           179.9066         estimate D2E/DX2                !
 ! D13   D(9,3,4,5)            179.9012         estimate D2E/DX2                !
 ! D14   D(9,3,4,10)            -0.0978         estimate D2E/DX2                !
 ! D15   D(3,4,5,6)              0.0328         estimate D2E/DX2                !
 ! D16   D(3,4,5,11)          -179.9704         estimate D2E/DX2                !
 ! D17   D(10,4,5,6)          -179.9681         estimate D2E/DX2                !
 ! D18   D(10,4,5,11)            0.0287         estimate D2E/DX2                !
 ! D19   D(4,5,6,7)             -0.0328         estimate D2E/DX2                !
 ! D20   D(4,5,6,12)           179.9681         estimate D2E/DX2                !
 ! D21   D(11,5,6,7)           179.9704         estimate D2E/DX2                !
 ! D22   D(11,5,6,12)           -0.0287         estimate D2E/DX2                !
 ! D23   D(5,6,7,2)              0.0943         estimate D2E/DX2                !
 ! D24   D(5,6,7,13)          -179.9012         estimate D2E/DX2                !
 ! D25   D(12,6,7,2)          -179.9066         estimate D2E/DX2                !
 ! D26   D(12,6,7,13)            0.0978         estimate D2E/DX2                !
 --------------------------------------------------------------------------------
 Trust Radius=3.00D-01 FncErr=1.00D-07 GrdErr=1.00D-06 EigMax=2.50D+02 EigMin=1.00D-04
 Number of steps in this run=     68 maximum allowed number of steps=    100.
 GradGradGradGradGradGradGradGradGradGradGradGradGradGradGradGradGradGrad

 Leave Link  103 at Mon Oct 14 11:08:31 2019, MaxMem= 10737418240 cpu:               0.4 elap:               0.0
 (Enter /apps/cent7/gaussian/g16-A.03/g16-haswell/g16/l202.exe)
                          Input orientation:                          
 ---------------------------------------------------------------------
 Center     Atomic      Atomic             Coordinates (Angstroms)
 Number     Number       Type             X           Y           Z
 ---------------------------------------------------------------------
      1          8           0       -0.690100   -1.195200   -0.014200
      2          6           0       -0.012200   -0.021100    0.003500
      3          6           0       -0.713300    1.200900    0.003800
      4          6           0       -0.009100    2.421500    0.001100
      5          6           0        1.398400    2.422200    0.000100
      6          6           0        2.101600    1.202800    0.001100
      7          6           0        1.396600   -0.017300    0.003800
      8          1           0       -0.066154   -1.924738   -0.025018
      9          1           0       -1.803300    1.202000    0.006200
     10          1           0       -0.553600    3.365800   -0.000200
     11          1           0        1.943400    3.366100   -0.001500
     12          1           0        3.191600    1.203500   -0.000200
     13          1           0        1.942600   -0.960700    0.006200
 ---------------------------------------------------------------------
                    Distance matrix (angstroms):
                    1          2          3          4          5
     1  O    0.000000
     2  C    1.355866   0.000000
     3  C    2.396280   1.408838   0.000000
     4  C    3.680287   2.442603   1.409173   0.000000
     5  C    4.177035   2.821262   2.439439   1.407501   0.000000
     6  C    3.680248   2.442558   2.814902   2.437270   1.407632
     7  C    2.396266   1.408805   2.436327   2.814915   2.439503
     8  H    0.960027   1.904616   3.192059   4.346691   4.587093
     9  H    2.643142   2.168875   1.090003   2.169415   3.426340
    10  H    4.563064   3.429901   2.170786   1.090039   2.168106
    11  H    5.266967   3.911204   3.427269   2.168993   1.089943
    12  H    4.563064   3.429868   3.904903   3.424618   2.168132
    13  H    2.643202   2.168893   3.424372   3.904925   3.426398
                    6          7          8          9         10
     6  C    0.000000
     7  C    1.409140   0.000000
     8  H    3.805435   2.403913   0.000000
     9  H    3.904903   3.424333   3.577030   0.000000
    10  H    3.424713   3.904953   5.313004   2.498764   0.000000
    11  H    2.169078   3.427304   5.659667   4.326794   2.497000
    12  H    1.090001   2.170805   4.516575   4.994904   4.324588
    13  H    2.169341   1.090012   2.228326   4.325395   4.994963
                   11         12         13
    11  H    0.000000
    12  H    2.496967   0.000000
    13  H    4.326807   2.498760   0.000000
 Stoichiometry    C6H6O
 Framework group  C1[X(C6H6O)]
 Deg. of freedom    33
 Full point group                 C1      NOp   1
 Largest Abelian subgroup         C1      NOp   1
 Largest concise Abelian subgroup C1      NOp   1
                         Standard orientation:                         
 ---------------------------------------------------------------------
 Center     Atomic      Atomic             Coordinates (Angstroms)
 Number     Number       Type             X           Y           Z
 ---------------------------------------------------------------------
      1          8           0       -2.309990   -0.120613    0.006914
      2          6           0       -0.955529   -0.060504   -0.007072
      3          6           0       -0.194507   -1.246112   -0.005096
      4          6           0        1.213286   -1.184104    0.001465
      5          6           0        1.862941    0.064495    0.004057
      6          6           0        1.105198    1.250767    0.000790
      7          6           0       -0.302521    1.187819   -0.005770
      8          1           0       -2.669642    0.769447    0.016605
      9          1           0       -0.696153   -2.213813   -0.008725
     10          1           0        1.800105   -2.102701    0.004520
     11          1           0        2.951801    0.112833    0.008643
     12          1           0        1.608444    2.217638    0.003324
     13          1           0       -0.887846    2.107332   -0.009922
 ---------------------------------------------------------------------
 Rotational constants (GHZ):           5.5613863           2.5923260           1.7681781
 Leave Link  202 at Mon Oct 14 11:08:31 2019, MaxMem= 10737418240 cpu:               0.2 elap:               0.0
 (Enter /apps/cent7/gaussian/g16-A.03/g16-haswell/g16/l301.exe)
 Standard basis: 6-31G(d) (6D, 7F)
 Ernie: Thresh=  0.10000D-02 Tol=  0.10000D-05 Strict=F.
 There are   117 symmetry adapted cartesian basis functions of A   symmetry.
 There are   117 symmetry adapted basis functions of A   symmetry.
   117 basis functions,   220 primitive gaussians,   117 cartesian basis functions
    25 alpha electrons       25 beta electrons
       nuclear repulsion energy       269.3973264770 Hartrees.
 IExCor=  402 DFT=T Ex+Corr=B3LYP ExCW=0 ScaHFX=  0.200000
 ScaDFX=  0.800000  0.720000  1.000000  0.810000 ScalE2=  1.000000  1.000000
 IRadAn=      5 IRanWt=     -1 IRanGd=            0 ICorTp=0 IEmpDi=  4
 NAtoms=   13 NActive=   13 NUniq=   13 SFac= 1.00D+00 NAtFMM=   60 NAOKFM=F Big=F
 Integral buffers will be    131072 words long.
 Raffenetti 2 integral format.
 Two-electron integral symmetry is turned on.
 Leave Link  301 at Mon Oct 14 11:08:31 2019, MaxMem= 10737418240 cpu:               1.7 elap:               0.1
 (Enter /apps/cent7/gaussian/g16-A.03/g16-haswell/g16/l302.exe)
 NPDir=0 NMtPBC=     1 NCelOv=     1 NCel=       1 NClECP=     1 NCelD=      1
         NCelK=      1 NCelE2=     1 NClLst=     1 CellRange=     0.0.
 One-electron integrals computed using PRISM.
 One-electron integral symmetry used in STVInt
 NBasis=   117 RedAO= T EigKep=  5.23D-04  NBF=   117
 NBsUse=   117 1.00D-06 EigRej= -1.00D+00 NBFU=   117
 Precomputing XC quadrature grid using
 IXCGrd= 4 IRadAn=           5 IRanWt=          -1 IRanGd=           0 AccXCQ= 0.00D+00.
 Generated NRdTot=       0 NPtTot=           0 NUsed=           0 NTot=          32
 NSgBfM=   117   117   117   117   117 MxSgAt=    13 MxSgA2=    13.
 Leave Link  302 at Mon Oct 14 11:08:31 2019, MaxMem= 10737418240 cpu:               3.3 elap:               0.2
 (Enter /apps/cent7/gaussian/g16-A.03/g16-haswell/g16/l303.exe)
 DipDrv:  MaxL=1.
 Leave Link  303 at Mon Oct 14 11:08:31 2019, MaxMem= 10737418240 cpu:               0.8 elap:               0.1
 (Enter /apps/cent7/gaussian/g16-A.03/g16-haswell/g16/l401.exe)
 ExpMin= 1.61D-01 ExpMax= 5.48D+03 ExpMxC= 8.25D+02 IAcc=3 IRadAn=         5 AccDes= 0.00D+00
 Harris functional with IExCor=  402 and IRadAn=       5 diagonalized for initial guess.
 HarFok:  IExCor=  402 AccDes= 0.00D+00 IRadAn=         5 IDoV= 1 UseB2=F ITyADJ=14
 ICtDFT=  3500011 ScaDFX=  1.000000  1.000000  1.000000  1.000000
 FoFCou: FMM=F IPFlag=           0 FMFlag=      100000 FMFlg1=           0
         NFxFlg=           0 DoJE=T BraDBF=F KetDBF=T FulRan=T
         wScrn=  0.000000 ICntrl=       500 IOpCl=  0 I1Cent=   200000004 NGrid=           0
         NMat0=    1 NMatS0=      1 NMatT0=    0 NMatD0=    1 NMtDS0=    0 NMtDT0=    0
 Petite list used in FoFCou.
 Harris En= -307.488455274072    
 JPrj=0 DoOrth=F DoCkMO=F.
 Leave Link  401 at Mon Oct 14 11:08:31 2019, MaxMem= 10737418240 cpu:               5.1 elap:               0.2
 (Enter /apps/cent7/gaussian/g16-A.03/g16-haswell/g16/l502.exe)
 Integral symmetry usage will be decided dynamically.
 Closed shell SCF:
 Using DIIS extrapolation, IDIIS=  1040.
 NGot= 10737418240 LenX= 10737386646 LenY= 10737372516
 Requested convergence on RMS density matrix=1.00D-08 within 128 cycles.
 Requested convergence on MAX density matrix=1.00D-06.
 Requested convergence on             energy=1.00D-06.
 No special actions if energy rises.
 Fock matrices will be formed incrementally for  20 cycles.
 Integral accuracy reduced to 1.0D-05 until final iterations.

 Cycle   1  Pass 0  IDiag  1:
 FoFJK:  IHMeth= 1 ICntrl=       0 DoSepK=F KAlg= 0 I1Cent=           0 FoldK=F
 IRaf= 980000000 NMat=       1 IRICut=       1 DoRegI=T DoRafI=F ISym2E= 0 IDoP0=0 IntGTp=1.
 FoFCou: FMM=F IPFlag=           0 FMFlag=      100000 FMFlg1=           0
         NFxFlg=           0 DoJE=F BraDBF=F KetDBF=F FulRan=T
         wScrn=  0.000000 ICntrl=         0 IOpCl=  0 I1Cent=           0 NGrid=           0
         NMat0=    1 NMatS0=      1 NMatT0=    0 NMatD0=    1 NMtDS0=    0 NMtDT0=    0
 Symmetry not used in FoFCou.
 E= -307.290475713129    
 DIIS: error= 4.76D-02 at cycle   1 NSaved=   1.
 NSaved= 1 IEnMin= 1 EnMin= -307.290475713129     IErMin= 1 ErrMin= 4.76D-02
 ErrMax= 4.76D-02  0.00D+00 EMaxC= 1.00D-01 BMatC= 1.68D-01 BMatP= 1.68D-01
 IDIUse=3 WtCom= 5.24D-01 WtEn= 4.76D-01
 Coeff-Com:  0.100D+01
 Coeff-En:   0.100D+01
 Coeff:      0.100D+01
 Gap=     0.227 Goal=   None    Shift=    0.000
 GapD=    0.227 DampG=1.000 DampE=0.500 DampFc=0.5000 IDamp=-1.
 Damping current iteration by 5.00D-01
 RMSDP=7.63D-03 MaxDP=1.22D-01              OVMax= 1.65D-01

 Cycle   2  Pass 0  IDiag  1:
 RMSU=  3.74D-03    CP:  9.75D-01
 E= -307.370555072200     Delta-E=       -0.080079359071 Rises=F Damp=T
 DIIS: error= 8.03D-03 at cycle   2 NSaved=   2.
 NSaved= 2 IEnMin= 2 EnMin= -307.370555072200     IErMin= 2 ErrMin= 8.03D-03
 ErrMax= 8.03D-03  0.00D+00 EMaxC= 1.00D-01 BMatC= 8.27D-03 BMatP= 1.68D-01
 IDIUse=3 WtCom= 9.20D-01 WtEn= 8.03D-02
 Coeff-Com:  0.356D-01 0.964D+00
 Coeff-En:   0.549D-01 0.945D+00
 Coeff:      0.371D-01 0.963D+00
 Gap=     0.288 Goal=   None    Shift=    0.000
 RMSDP=1.61D-03 MaxDP=3.04D-02 DE=-8.01D-02 OVMax= 1.16D-01

 Cycle   3  Pass 0  IDiag  1:
 RMSU=  1.57D-03    CP:  9.70D-01  9.06D-01
 E= -307.458421367852     Delta-E=       -0.087866295652 Rises=F Damp=F
 DIIS: error= 8.08D-03 at cycle   3 NSaved=   3.
 NSaved= 3 IEnMin= 3 EnMin= -307.458421367852     IErMin= 2 ErrMin= 8.03D-03
 ErrMax= 8.08D-03  0.00D+00 EMaxC= 1.00D-01 BMatC= 4.41D-03 BMatP= 8.27D-03
 IDIUse=3 WtCom= 9.19D-01 WtEn= 8.08D-02
 Coeff-Com: -0.198D-01 0.403D+00 0.617D+00
 Coeff-En:   0.000D+00 0.000D+00 0.100D+01
 Coeff:     -0.182D-01 0.370D+00 0.648D+00
 Gap=     0.218 Goal=   None    Shift=    0.000
 RMSDP=9.88D-04 MaxDP=2.38D-02 DE=-8.79D-02 OVMax= 5.08D-02

 Cycle   4  Pass 0  IDiag  1:
 RMSU=  7.90D-04    CP:  9.71D-01  9.47D-01  6.35D-01
 E= -307.460249453372     Delta-E=       -0.001828085520 Rises=F Damp=F
 DIIS: error= 6.89D-03 at cycle   4 NSaved=   4.
 NSaved= 4 IEnMin= 4 EnMin= -307.460249453372     IErMin= 4 ErrMin= 6.89D-03
 ErrMax= 6.89D-03  0.00D+00 EMaxC= 1.00D-01 BMatC= 2.57D-03 BMatP= 4.41D-03
 IDIUse=3 WtCom= 9.31D-01 WtEn= 6.89D-02
 Coeff-Com: -0.153D-01 0.931D-01 0.438D+00 0.484D+00
 Coeff-En:   0.000D+00 0.000D+00 0.404D+00 0.596D+00
 Coeff:     -0.142D-01 0.866D-01 0.436D+00 0.492D+00
 Gap=     0.216 Goal=   None    Shift=    0.000
 RMSDP=5.11D-04 MaxDP=9.14D-03 DE=-1.83D-03 OVMax= 2.56D-02

 Cycle   5  Pass 0  IDiag  1:
 RMSU=  1.57D-04    CP:  9.70D-01  9.40D-01  7.86D-01  4.63D-01
 E= -307.463157971187     Delta-E=       -0.002908517815 Rises=F Damp=F
 DIIS: error= 7.19D-04 at cycle   5 NSaved=   5.
 NSaved= 5 IEnMin= 5 EnMin= -307.463157971187     IErMin= 5 ErrMin= 7.19D-04
 ErrMax= 7.19D-04  0.00D+00 EMaxC= 1.00D-01 BMatC= 4.95D-05 BMatP= 2.57D-03
 IDIUse=3 WtCom= 9.93D-01 WtEn= 7.19D-03
 Coeff-Com: -0.415D-02 0.145D-01 0.148D+00 0.215D+00 0.627D+00
 Coeff-En:   0.000D+00 0.000D+00 0.000D+00 0.000D+00 0.100D+01
 Coeff:     -0.412D-02 0.144D-01 0.147D+00 0.213D+00 0.629D+00
 Gap=     0.216 Goal=   None    Shift=    0.000
 RMSDP=7.56D-05 MaxDP=1.28D-03 DE=-2.91D-03 OVMax= 3.72D-03

 Cycle   6  Pass 0  IDiag  1:
 RMSU=  4.91D-05    CP:  9.70D-01  9.44D-01  7.78D-01  5.14D-01  7.69D-01
 E= -307.463201164272     Delta-E=       -0.000043193085 Rises=F Damp=F
 DIIS: error= 2.75D-04 at cycle   6 NSaved=   6.
 NSaved= 6 IEnMin= 6 EnMin= -307.463201164272     IErMin= 6 ErrMin= 2.75D-04
 ErrMax= 2.75D-04  0.00D+00 EMaxC= 1.00D-01 BMatC= 8.69D-06 BMatP= 4.95D-05
 IDIUse=3 WtCom= 9.97D-01 WtEn= 2.75D-03
 Coeff-Com: -0.142D-02 0.214D-02 0.533D-01 0.867D-01 0.366D+00 0.493D+00
 Coeff-En:   0.000D+00 0.000D+00 0.000D+00 0.000D+00 0.842D-01 0.916D+00
 Coeff:     -0.142D-02 0.213D-02 0.532D-01 0.864D-01 0.365D+00 0.494D+00
 Gap=     0.216 Goal=   None    Shift=    0.000
 RMSDP=2.42D-05 MaxDP=4.38D-04 DE=-4.32D-05 OVMax= 7.09D-04

 Cycle   7  Pass 0  IDiag  1:
 RMSU=  7.15D-06    CP:  9.70D-01  9.42D-01  7.82D-01  5.13D-01  7.80D-01
                    CP:  5.68D-01
 E= -307.463208809086     Delta-E=       -0.000007644814 Rises=F Damp=F
 DIIS: error= 3.39D-05 at cycle   7 NSaved=   7.
 NSaved= 7 IEnMin= 7 EnMin= -307.463208809086     IErMin= 7 ErrMin= 3.39D-05
 ErrMax= 3.39D-05  0.00D+00 EMaxC= 1.00D-01 BMatC= 9.67D-08 BMatP= 8.69D-06
 IDIUse=1 WtCom= 1.00D+00 WtEn= 0.00D+00
 Coeff-Com: -0.314D-03 0.959D-04 0.142D-01 0.236D-01 0.113D+00 0.177D+00
 Coeff-Com:  0.672D+00
 Coeff:     -0.314D-03 0.959D-04 0.142D-01 0.236D-01 0.113D+00 0.177D+00
 Coeff:      0.672D+00
 Gap=     0.216 Goal=   None    Shift=    0.000
 RMSDP=3.90D-06 MaxDP=1.00D-04 DE=-7.64D-06 OVMax= 1.75D-04

 Initial convergence to 1.0D-05 achieved.  Increase integral accuracy.
 Cycle   8  Pass 1  IDiag  1:
 E= -307.463206693779     Delta-E=        0.000002115306 Rises=F Damp=F
 DIIS: error= 1.88D-05 at cycle   1 NSaved=   1.
 NSaved= 1 IEnMin= 1 EnMin= -307.463206693779     IErMin= 1 ErrMin= 1.88D-05
 ErrMax= 1.88D-05  0.00D+00 EMaxC= 1.00D-01 BMatC= 4.74D-08 BMatP= 4.74D-08
 IDIUse=1 WtCom= 1.00D+00 WtEn= 0.00D+00
 Coeff-Com:  0.100D+01
 Coeff:      0.100D+01
 Gap=     0.216 Goal=   None    Shift=    0.000
 RMSDP=3.90D-06 MaxDP=1.00D-04 DE= 2.12D-06 OVMax= 2.69D-04

 Cycle   9  Pass 1  IDiag  1:
 RMSU=  5.50D-06    CP:  1.00D+00
 E= -307.463206600468     Delta-E=        0.000000093311 Rises=F Damp=F
 DIIS: error= 3.35D-05 at cycle   2 NSaved=   2.
 NSaved= 2 IEnMin= 1 EnMin= -307.463206693779     IErMin= 1 ErrMin= 1.88D-05
 ErrMax= 3.35D-05  0.00D+00 EMaxC= 1.00D-01 BMatC= 1.39D-07 BMatP= 4.74D-08
 IDIUse=1 WtCom= 1.00D+00 WtEn= 0.00D+00
 Coeff-Com:  0.634D+00 0.366D+00
 Coeff:      0.634D+00 0.366D+00
 Gap=     0.216 Goal=   None    Shift=    0.000
 RMSDP=3.27D-06 MaxDP=7.37D-05 DE= 9.33D-08 OVMax= 1.79D-04

 Cycle  10  Pass 1  IDiag  1:
 RMSU=  1.40D-06    CP:  1.00D+00  4.62D-01
 E= -307.463206739660     Delta-E=       -0.000000139192 Rises=F Damp=F
 DIIS: error= 2.93D-06 at cycle   3 NSaved=   3.
 NSaved= 3 IEnMin= 3 EnMin= -307.463206739660     IErMin= 3 ErrMin= 2.93D-06
 ErrMax= 2.93D-06  0.00D+00 EMaxC= 1.00D-01 BMatC= 8.86D-10 BMatP= 4.74D-08
 IDIUse=1 WtCom= 1.00D+00 WtEn= 0.00D+00
 Coeff-Com:  0.229D+00 0.149D+00 0.623D+00
 Coeff:      0.229D+00 0.149D+00 0.623D+00
 Gap=     0.216 Goal=   None    Shift=    0.000
 RMSDP=4.03D-07 MaxDP=1.15D-05 DE=-1.39D-07 OVMax= 2.00D-05

 Cycle  11  Pass 1  IDiag  1:
 RMSU=  3.48D-07    CP:  1.00D+00  4.90D-01  9.02D-01
 E= -307.463206740263     Delta-E=       -0.000000000603 Rises=F Damp=F
 DIIS: error= 1.54D-06 at cycle   4 NSaved=   4.
 NSaved= 4 IEnMin= 4 EnMin= -307.463206740263     IErMin= 4 ErrMin= 1.54D-06
 ErrMax= 1.54D-06  0.00D+00 EMaxC= 1.00D-01 BMatC= 3.51D-10 BMatP= 8.86D-10
 IDIUse=1 WtCom= 1.00D+00 WtEn= 0.00D+00
 Coeff-Com:  0.321D-03 0.114D-01 0.399D+00 0.590D+00
 Coeff:      0.321D-03 0.114D-01 0.399D+00 0.590D+00
 Gap=     0.216 Goal=   None    Shift=    0.000
 RMSDP=1.64D-07 MaxDP=4.52D-06 DE=-6.03D-10 OVMax= 9.10D-06

 Cycle  12  Pass 1  IDiag  1:
 RMSU=  5.33D-08    CP:  1.00D+00  4.85D-01  9.45D-01  5.99D-01
 E= -307.463206740628     Delta-E=       -0.000000000365 Rises=F Damp=F
 DIIS: error= 2.49D-07 at cycle   5 NSaved=   5.
 NSaved= 5 IEnMin= 5 EnMin= -307.463206740628     IErMin= 5 ErrMin= 2.49D-07
 ErrMax= 2.49D-07  0.00D+00 EMaxC= 1.00D-01 BMatC= 9.77D-12 BMatP= 3.51D-10
 IDIUse=1 WtCom= 1.00D+00 WtEn= 0.00D+00
 Coeff-Com: -0.524D-02 0.279D-02 0.199D+00 0.313D+00 0.491D+00
 Coeff:     -0.524D-02 0.279D-02 0.199D+00 0.313D+00 0.491D+00
 Gap=     0.216 Goal=   None    Shift=    0.000
 RMSDP=2.81D-08 MaxDP=5.63D-07 DE=-3.65D-10 OVMax= 1.03D-06

 Cycle  13  Pass 1  IDiag  1:
 RMSU=  1.71D-08    CP:  1.00D+00  4.86D-01  9.45D-01  6.20D-01  6.34D-01
 E= -307.463206740638     Delta-E=       -0.000000000010 Rises=F Damp=F
 DIIS: error= 6.98D-08 at cycle   6 NSaved=   6.
 NSaved= 6 IEnMin= 6 EnMin= -307.463206740638     IErMin= 6 ErrMin= 6.98D-08
 ErrMax= 6.98D-08  0.00D+00 EMaxC= 1.00D-01 BMatC= 6.94D-13 BMatP= 9.77D-12
 IDIUse=1 WtCom= 1.00D+00 WtEn= 0.00D+00
 Coeff-Com: -0.263D-02 0.186D-03 0.539D-01 0.861D-01 0.247D+00 0.616D+00
 Coeff:     -0.263D-02 0.186D-03 0.539D-01 0.861D-01 0.247D+00 0.616D+00
 Gap=     0.216 Goal=   None    Shift=    0.000
 RMSDP=6.42D-09 MaxDP=1.88D-07 DE=-1.01D-11 OVMax= 2.50D-07

 SCF Done:  E(RB3LYP) =  -307.463206741     A.U. after   13 cycles
            NFock= 13  Conv=0.64D-08     -V/T= 2.0100
 KE= 3.044043973012D+02 PE=-1.253719895215D+03 EE= 3.724549646957D+02
 Leave Link  502 at Mon Oct 14 11:08:33 2019, MaxMem= 10737418240 cpu:              40.2 elap:               1.7
 (Enter /apps/cent7/gaussian/g16-A.03/g16-haswell/g16/l601.exe)
 Copying SCF densities to generalized density rwf, IOpCl= 0 IROHF=0.

 **********************************************************************

            Population analysis using the SCF density.

 **********************************************************************

 Orbital symmetries:
       Occupied  (A) (A) (A) (A) (A) (A) (A) (A) (A) (A) (A) (A)
                 (A) (A) (A) (A) (A) (A) (A) (A) (A) (A) (A) (A)
                 (A)
       Virtual   (A) (A) (A) (A) (A) (A) (A) (A) (A) (A) (A) (A)
                 (A) (A) (A) (A) (A) (A) (A) (A) (A) (A) (A) (A)
                 (A) (A) (A) (A) (A) (A) (A) (A) (A) (A) (A) (A)
                 (A) (A) (A) (A) (A) (A) (A) (A) (A) (A) (A) (A)
                 (A) (A) (A) (A) (A) (A) (A) (A) (A) (A) (A) (A)
                 (A) (A) (A) (A) (A) (A) (A) (A) (A) (A) (A) (A)
                 (A) (A) (A) (A) (A) (A) (A) (A) (A) (A) (A) (A)
                 (A) (A) (A) (A) (A) (A) (A) (A)
 The electronic state is 1-A.
 Alpha  occ. eigenvalues --  -19.17821 -10.25090 -10.19375 -10.19251 -10.19010
 Alpha  occ. eigenvalues --  -10.18638 -10.18352  -1.06471  -0.83869  -0.74113
 Alpha  occ. eigenvalues --   -0.73116  -0.62120  -0.59813  -0.54208  -0.49487
 Alpha  occ. eigenvalues --   -0.46147  -0.43624  -0.41894  -0.40456  -0.38418
 Alpha  occ. eigenvalues --   -0.35733  -0.33630  -0.32896  -0.24675  -0.21760
 Alpha virt. eigenvalues --   -0.00180   0.01585   0.06927   0.09400   0.14515
 Alpha virt. eigenvalues --    0.15498   0.16451   0.18609   0.18754   0.24433
 Alpha virt. eigenvalues --    0.29964   0.30258   0.33829   0.34494   0.48586
 Alpha virt. eigenvalues --    0.51138   0.52552   0.54803   0.55897   0.59189
 Alpha virt. eigenvalues --    0.60107   0.60544   0.60674   0.61553   0.61693
 Alpha virt. eigenvalues --    0.63978   0.66343   0.67399   0.75244   0.75640
 Alpha virt. eigenvalues --    0.83358   0.83562   0.85303   0.86693   0.89479
 Alpha virt. eigenvalues --    0.92641   0.93245   0.95285   0.95725   0.98547
 Alpha virt. eigenvalues --    1.03863   1.09641   1.11182   1.16882   1.19134
 Alpha virt. eigenvalues --    1.25036   1.27678   1.36113   1.37837   1.43658
 Alpha virt. eigenvalues --    1.44427   1.46500   1.49534   1.51246   1.66813
 Alpha virt. eigenvalues --    1.73068   1.76676   1.78198   1.85359   1.89295
 Alpha virt. eigenvalues --    1.91447   1.96198   1.96773   1.97513   2.05278
 Alpha virt. eigenvalues --    2.09755   2.12115   2.13972   2.23777   2.24249
 Alpha virt. eigenvalues --    2.29544   2.30431   2.40857   2.49843   2.53732
 Alpha virt. eigenvalues --    2.56208   2.63608   2.64653   2.70998   2.71153
 Alpha virt. eigenvalues --    2.73333   2.81426   2.94440   3.09177   3.38058
 Alpha virt. eigenvalues --    3.94103   4.07437   4.11217   4.17752   4.32640
 Alpha virt. eigenvalues --    4.40503   4.72006
          Condensed to atoms (all electrons):
               1          2          3          4          5          6
     1  O    8.211812   0.288903  -0.049010   0.002561   0.000199   0.004624
     2  C    0.288903   4.474546   0.541924  -0.013493  -0.037869  -0.007214
     3  C   -0.049010   0.541924   4.954488   0.536447  -0.037455  -0.034735
     4  C    0.002561  -0.013493   0.536447   4.848237   0.543130  -0.028304
     5  C    0.000199  -0.037869  -0.037455   0.543130   4.876019   0.550983
     6  C    0.004624  -0.007214  -0.034735  -0.028304   0.550983   4.862614
     7  C   -0.059910   0.504770  -0.068288  -0.036690  -0.039695   0.499473
     8  H    0.246606  -0.033419   0.005858  -0.000166  -0.000011   0.000562
     9  H   -0.001298  -0.037679   0.347958  -0.042783   0.004829   0.000080
    10  H   -0.000047   0.004010  -0.040241   0.359398  -0.042230   0.004629
    11  H    0.000002   0.000688   0.004468  -0.042373   0.358533  -0.042425
    12  H   -0.000056   0.003128   0.000605   0.004456  -0.040673   0.355070
    13  H   -0.006175  -0.047140   0.005015   0.000444   0.004478  -0.035074
               7          8          9         10         11         12
     1  O   -0.059910   0.246606  -0.001298  -0.000047   0.000002  -0.000056
     2  C    0.504770  -0.033419  -0.037679   0.004010   0.000688   0.003128
     3  C   -0.068288   0.005858   0.347958  -0.040241   0.004468   0.000605
     4  C   -0.036690  -0.000166  -0.042783   0.359398  -0.042373   0.004456
     5  C   -0.039695  -0.000011   0.004829  -0.042230   0.358533  -0.040673
     6  C    0.499473   0.000562   0.000080   0.004629  -0.042425   0.355070
     7  C    5.092206  -0.003443   0.006359   0.000510   0.004813  -0.037151
     8  H   -0.003443   0.365677  -0.000303   0.000005  -0.000001  -0.000017
     9  H    0.006359  -0.000303   0.591522  -0.005890  -0.000156   0.000013
    10  H    0.000510   0.000005  -0.005890   0.591480  -0.005174  -0.000181
    11  H    0.004813  -0.000001  -0.000156  -0.005174   0.601575  -0.005205
    12  H   -0.037151  -0.000017   0.000013  -0.000181  -0.005205   0.594039
    13  H    0.344290   0.008269  -0.000162   0.000012  -0.000168  -0.005596
              13
     1  O   -0.006175
     2  C   -0.047140
     3  C    0.005015
     4  C    0.000444
     5  C    0.004478
     6  C   -0.035074
     7  C    0.344290
     8  H    0.008269
     9  H   -0.000162
    10  H    0.000012
    11  H   -0.000168
    12  H   -0.005596
    13  H    0.615388
 Mulliken charges:
               1
     1  O   -0.638211
     2  C    0.358845
     3  C   -0.167032
     4  C   -0.130863
     5  C   -0.140237
     6  C   -0.130281
     7  C   -0.207243
     8  H    0.410383
     9  H    0.137509
    10  H    0.133718
    11  H    0.125425
    12  H    0.131569
    13  H    0.116419
 Sum of Mulliken charges =  -0.00000
 Mulliken charges with hydrogens summed into heavy atoms:
               1
     1  O   -0.227828
     2  C    0.358845
     3  C   -0.029523
     4  C    0.002855
     5  C   -0.014812
     6  C    0.001288
     7  C   -0.090825
 Electronic spatial extent (au):  <R**2>=            671.3721
 Charge=             -0.0000 electrons
 Dipole moment (field-independent basis, Debye):
    X=             -0.0983    Y=              1.3354    Z=              0.0117  Tot=              1.3390
 Quadrupole moment (field-independent basis, Debye-Ang):
   XX=            -36.5679   YY=            -35.3112   ZZ=            -43.8945
   XY=             -4.4967   XZ=             -0.0156   YZ=              0.0311
 Traceless Quadrupole moment (field-independent basis, Debye-Ang):
   XX=              2.0233   YY=              3.2800   ZZ=             -5.3033
   XY=             -4.4967   XZ=             -0.0156   YZ=              0.0311
 Octapole moment (field-independent basis, Debye-Ang**2):
  XXX=             -9.8676  YYY=             -0.0037  ZZZ=              0.0623  XYY=             -4.7426
  XXY=             12.6311  XXZ=              0.2031  XZZ=             -5.6928  YZZ=             -0.0255
  YYZ=              0.0173  XYZ=             -0.0838
 Hexadecapole moment (field-independent basis, Debye-Ang**3):
 XXXX=           -475.6088 YYYY=           -277.0347 ZZZZ=            -43.6705 XXXY=            -36.9493
 XXXZ=             -0.4291 YYYX=             -2.8271 YYYZ=              0.0335 ZZZX=             -0.1216
 ZZZY=              0.0194 XXYY=           -119.2626 XXZZ=           -100.3545 YYZZ=            -63.1523
 XXYZ=              0.2165 YYXZ=              0.0013 ZZXY=             -0.5210
 N-N= 2.693973264770D+02 E-N=-1.253719896553D+03  KE= 3.044043973012D+02
 No NMR shielding tensors so no spin-rotation constants.
 Leave Link  601 at Mon Oct 14 11:08:33 2019, MaxMem= 10737418240 cpu:               2.7 elap:               0.1
 (Enter /apps/cent7/gaussian/g16-A.03/g16-haswell/g16/l701.exe)
 ... and contract with generalized density number  0.
 Compute integral first derivatives.
 Leave Link  701 at Mon Oct 14 11:08:34 2019, MaxMem= 10737418240 cpu:               2.4 elap:               0.1
 (Enter /apps/cent7/gaussian/g16-A.03/g16-haswell/g16/l702.exe)
 L702 exits ... SP integral derivatives will be done elsewhere.
 Leave Link  702 at Mon Oct 14 11:08:34 2019, MaxMem= 10737418240 cpu:               1.1 elap:               0.1
 (Enter /apps/cent7/gaussian/g16-A.03/g16-haswell/g16/l703.exe)
 Integral derivatives from FoFJK, PRISM(SPDF).
 Compute integral first derivatives, UseDBF=F ICtDFT=           0.
 Calling FoFJK, ICntrl=      2127 FMM=F ISym2X=0 I1Cent= 0 IOpClX= 0 NMat=1 NMatS=1 NMatT=0.
 FoFJK:  IHMeth= 1 ICntrl=    2127 DoSepK=F KAlg= 0 I1Cent=           0 FoldK=F
 IRaf=         0 NMat=       1 IRICut=       1 DoRegI=T DoRafI=F ISym2E= 0 IDoP0=0 IntGTp=1.
 FoFCou: FMM=F IPFlag=           0 FMFlag=      100000 FMFlg1=         800
         NFxFlg=           0 DoJE=F BraDBF=F KetDBF=F FulRan=T
         wScrn=  0.000000 ICntrl=      2127 IOpCl=  0 I1Cent=           0 NGrid=           0
         NMat0=    1 NMatS0=      1 NMatT0=    0 NMatD0=    1 NMtDS0=    0 NMtDT0=    0
 Symmetry not used in FoFCou.
 Leave Link  703 at Mon Oct 14 11:08:34 2019, MaxMem= 10737418240 cpu:              10.3 elap:               0.5
 (Enter /apps/cent7/gaussian/g16-A.03/g16-haswell/g16/l716.exe)
 Dipole        =-3.86784846D-02 5.25370700D-01 4.58449712D-03
 ***** Axes restored to original set *****
 -------------------------------------------------------------------
 Center     Atomic                   Forces (Hartrees/Bohr)
 Number     Number              X              Y              Z
 -------------------------------------------------------------------
      1        8          -0.018232550    0.003157257    0.000750742
      2        6           0.016160886    0.011324891   -0.001341685
      3        6           0.001728025    0.004317038    0.000216759
      4        6           0.006519304   -0.013845609    0.000342841
      5        6          -0.001615564   -0.004153977   -0.000108877
      6        6          -0.012151325   -0.000716155    0.000300513
      7        6           0.002371891    0.014117493    0.000163792
      8        1           0.006403401   -0.005973136    0.000028539
      9        1           0.002871594   -0.002336567   -0.000235141
     10        1           0.000331325   -0.003071707    0.000052783
     11        1          -0.001115168   -0.002287997   -0.000058132
     12        1          -0.002548148   -0.000894694    0.000055950
     13        1          -0.000723671    0.000363164   -0.000168084
 -------------------------------------------------------------------
 Cartesian Forces:  Max     0.018232550 RMS     0.006155507
 Leave Link  716 at Mon Oct 14 11:08:34 2019, MaxMem= 10737418240 cpu:               0.6 elap:               0.0
 (Enter /apps/cent7/gaussian/g16-A.03/g16-haswell/g16/l103.exe)

 GradGradGradGradGradGradGradGradGradGradGradGradGradGradGradGradGradGrad
 Berny optimization.
 FormGI is forming the generalized inverse of G from B-inverse, IUseBI=4.
 Internal  Forces:  Max     0.013601954 RMS     0.004555052
 Search for a local minimum.
 Step number   1 out of a maximum of   68
 All quantities printed in internal units (Hartrees-Bohrs-Radians)
 RMS Force = .45551D-02 SwitMx=.10000D-02 MixMth= 1
 Mixed Optimization -- RFO/linear search
 Second derivative matrix not updated -- first step.
 ITU=  0
     Eigenvalues ---    0.01969   0.01970   0.01971   0.01973   0.01977
     Eigenvalues ---    0.01979   0.01984   0.01989   0.02029   0.02276
     Eigenvalues ---    0.16000   0.16000   0.16000   0.16000   0.16000
     Eigenvalues ---    0.16000   0.22000   0.22000   0.23482   0.24997
     Eigenvalues ---    0.34808   0.34811   0.34812   0.34813   0.34819
     Eigenvalues ---    0.40295   0.40596   0.44136   0.44178   0.44290
     Eigenvalues ---    0.44352   0.53792   0.55468
 RFO step:  Lambda=-3.22334457D-03 EMin= 1.96941513D-02
 Linear search not attempted -- first point.
 Iteration  1 RMS(Cart)=  0.02278883 RMS(Int)=  0.00031364
 Iteration  2 RMS(Cart)=  0.00038041 RMS(Int)=  0.00011562
 Iteration  3 RMS(Cart)=  0.00000007 RMS(Int)=  0.00011562
 ITry= 1 IFail=0 DXMaxC= 7.60D-02 DCOld= 1.00D+10 DXMaxT= 3.00D-01 DXLimC= 3.00D+00 Rises=F
 Variable       Old X    -DE/DX   Delta X   Delta X   Delta X     New X
                                 (Linear)    (Quad)   (Total)
    R1        2.56222   0.00834   0.00000   0.01542   0.01542   2.57763
    R2        1.81419   0.00870   0.00000   0.01560   0.01560   1.82978
    R3        2.66232  -0.01143   0.00000  -0.02554  -0.02554   2.63678
    R4        2.66226  -0.00615   0.00000  -0.01354  -0.01355   2.64871
    R5        2.66295  -0.01360   0.00000  -0.03074  -0.03073   2.63222
    R6        2.05981  -0.00287   0.00000  -0.00818  -0.00818   2.05163
    R7        2.65979  -0.00962   0.00000  -0.02178  -0.02178   2.63801
    R8        2.05987  -0.00283   0.00000  -0.00805  -0.00805   2.05183
    R9        2.66004  -0.01146   0.00000  -0.02577  -0.02577   2.63427
   R10        2.05969  -0.00254   0.00000  -0.00722  -0.00722   2.05247
   R11        2.66289  -0.01332   0.00000  -0.02981  -0.02981   2.63308
   R12        2.05980  -0.00255   0.00000  -0.00725  -0.00725   2.05255
   R13        2.05982  -0.00068   0.00000  -0.00193  -0.00193   2.05790
    A1        1.91054  -0.00179   0.00000  -0.01095  -0.01095   1.89958
    A2        2.09705  -0.01058   0.00000  -0.04210  -0.04215   2.05489
    A3        2.09707   0.01027   0.00000   0.04023   0.04017   2.13724
    A4        2.08898   0.00032   0.00000   0.00212   0.00206   2.09104
    A5        2.09743  -0.00222   0.00000  -0.00993  -0.00991   2.08752
    A6        2.09269  -0.00129   0.00000  -0.00976  -0.00977   2.08291
    A7        2.09307   0.00351   0.00000   0.01969   0.01968   2.11275
    A8        2.09458   0.00357   0.00000   0.01518   0.01521   2.10978
    A9        2.09526  -0.00307   0.00000  -0.01547  -0.01548   2.07978
   A10        2.09335  -0.00050   0.00000   0.00028   0.00027   2.09362
   A11        2.09339  -0.00216   0.00000  -0.01048  -0.01046   2.08293
   A12        2.09492   0.00126   0.00000   0.00636   0.00635   2.10128
   A13        2.09487   0.00090   0.00000   0.00412   0.00411   2.09898
   A14        2.09455   0.00096   0.00000   0.00435   0.00435   2.09890
   A15        2.09325   0.00044   0.00000   0.00345   0.00346   2.09670
   A16        2.09539  -0.00140   0.00000  -0.00781  -0.00781   2.08758
   A17        2.09744  -0.00048   0.00000  -0.00125  -0.00126   2.09619
   A18        2.09275  -0.00022   0.00000  -0.00217  -0.00217   2.09058
   A19        2.09299   0.00070   0.00000   0.00343   0.00343   2.09642
    D1        3.12692   0.00034   0.00000   0.01390   0.01388   3.14079
    D2        0.00000  -0.00014   0.00000  -0.00620  -0.00618  -0.00618
    D3       -3.12428  -0.00055   0.00000  -0.02053  -0.02008   3.13883
    D4        0.01739  -0.00051   0.00000  -0.01916  -0.01880  -0.00141
    D5        0.00271   0.00001   0.00000  -0.00020  -0.00024   0.00247
    D6       -3.13881   0.00005   0.00000   0.00116   0.00104  -3.13777
    D7        3.12428   0.00038   0.00000   0.01962   0.02005  -3.13885
    D8       -0.01739   0.00034   0.00000   0.01733   0.01769   0.00030
    D9       -0.00271   0.00000   0.00000  -0.00001  -0.00005  -0.00275
   D10        3.13881  -0.00004   0.00000  -0.00229  -0.00241   3.13640
   D11       -0.00165   0.00002   0.00000   0.00174   0.00183   0.00018
   D12        3.13996   0.00002   0.00000   0.00098   0.00099   3.14095
   D13        3.13987  -0.00002   0.00000   0.00037   0.00053   3.14040
   D14       -0.00171  -0.00002   0.00000  -0.00039  -0.00031  -0.00202
   D15        0.00057  -0.00007   0.00000  -0.00308  -0.00313  -0.00255
   D16       -3.14108  -0.00003   0.00000  -0.00152  -0.00157   3.14054
   D17       -3.14104  -0.00006   0.00000  -0.00232  -0.00228   3.13987
   D18        0.00050  -0.00002   0.00000  -0.00076  -0.00072  -0.00022
   D19       -0.00057   0.00007   0.00000   0.00289   0.00284   0.00226
   D20        3.14104   0.00006   0.00000   0.00273   0.00276  -3.13939
   D21        3.14108   0.00004   0.00000   0.00133   0.00128  -3.14083
   D22       -0.00050   0.00002   0.00000   0.00117   0.00120   0.00070
   D23        0.00165  -0.00004   0.00000  -0.00134  -0.00128   0.00037
   D24       -3.13987  -0.00001   0.00000   0.00094   0.00110  -3.13877
   D25       -3.13996  -0.00003   0.00000  -0.00118  -0.00120  -3.14116
   D26        0.00171   0.00001   0.00000   0.00110   0.00118   0.00288
         Item               Value     Threshold  Converged?
 Maximum Force            0.013602     0.000450     NO 
 RMS     Force            0.004555     0.000300     NO 
 Maximum Displacement     0.075999     0.001800     NO 
 RMS     Displacement     0.022930     0.001200     NO 
 Predicted change in Energy=-1.629481D-03
 Lowest energy point so far.  Saving SCF results.
 GradGradGradGradGradGradGradGradGradGradGradGradGradGradGradGradGradGrad

 Leave Link  103 at Mon Oct 14 11:08:34 2019, MaxMem= 10737418240 cpu:               1.3 elap:               0.1
 (Enter /apps/cent7/gaussian/g16-A.03/g16-haswell/g16/l202.exe)
                          Input orientation:                          
 ---------------------------------------------------------------------
 Center     Atomic      Atomic             Coordinates (Angstroms)
 Number     Number       Type             X           Y           Z
 ---------------------------------------------------------------------
      1          8           0       -0.717647   -1.167255   -0.006657
      2          6           0        0.005488   -0.010692   -0.006132
      3          6           0       -0.697390    1.194659   -0.001925
      4          6           0        0.002141    2.399167    0.002107
      5          6           0        1.398002    2.417087    0.001780
      6          6           0        2.096656    1.210809    0.000451
      7          6           0        1.407079    0.000052   -0.003262
      8          1           0       -0.106371   -1.918183   -0.010444
      9          1           0       -1.782928    1.177495   -0.000568
     10          1           0       -0.552050    3.332861    0.004759
     11          1           0        1.935450    3.360910    0.003957
     12          1           0        3.182816    1.209791    0.002249
     13          1           0        1.955200   -0.940939   -0.001635
 ---------------------------------------------------------------------
                    Distance matrix (angstroms):
                    1          2          3          4          5
     1  O    0.000000
     2  C    1.364024   0.000000
     3  C    2.362005   1.395324   0.000000
     4  C    3.638342   2.409875   1.392910   0.000000
     5  C    4.162157   2.798798   2.425905   1.395976   0.000000
     6  C    3.684500   2.421795   2.794094   2.408150   1.393996
     7  C    2.424268   1.401635   2.419893   2.780221   2.417058
     8  H    0.968280   1.910773   3.168464   4.318731   4.588884
     9  H    2.575405   2.147150   1.085674   2.163091   3.413929
    10  H    4.503176   3.389737   2.143147   1.085781   2.154380
    11  H    5.248172   3.884914   3.409476   2.159314   1.086119
    12  H    4.567717   3.403683   3.880238   3.395777   2.154790
    13  H    2.682416   2.160267   3.405439   3.869206   3.403942
                    6          7          8          9         10
     6  C    0.000000
     7  C    1.393364   0.000000
     8  H    3.826753   2.443401   0.000000
     9  H    3.879727   3.400371   3.520534   0.000000
    10  H    3.393930   3.865989   5.269946   2.482075   0.000000
    11  H    2.156138   3.402145   5.660217   4.312036   2.487658
    12  H    1.086162   2.148660   4.539067   4.965849   4.296121
    13  H    2.156394   1.088992   2.281481   4.296669   4.954968
                   11         12         13
    11  H    0.000000
    12  H    2.486611   0.000000
    13  H    4.301898   2.476428   0.000000
 Stoichiometry    C6H6O
 Framework group  C1[X(C6H6O)]
 Deg. of freedom    33
 Full point group                 C1      NOp   1
 RotChk:  IX=2 Diff= 3.10D-02
 Largest Abelian subgroup         C1      NOp   1
 Largest concise Abelian subgroup C1      NOp   1
                         Standard orientation:                         
 ---------------------------------------------------------------------
 Center     Atomic      Atomic             Coordinates (Angstroms)
 Number     Number       Type             X           Y           Z
 ---------------------------------------------------------------------
      1          8           0       -2.304947   -0.106508   -0.000694
      2          6           0       -0.943185   -0.028029    0.001971
      3          6           0       -0.223806   -1.223612    0.000126
      4          6           0        1.168670   -1.188873   -0.000620
      5          6           0        1.855078    0.026689    0.000674
      6          6           0        1.132863    1.219010   -0.000364
      7          6           0       -0.260310    1.196005    0.000055
      8          1           0       -2.669810    0.790396    0.001737
      9          1           0       -0.760442   -2.167385   -0.001990
     10          1           0        1.721245   -2.123529   -0.001450
     11          1           0        2.941051    0.044537    0.001065
     12          1           0        1.653860    2.172063   -0.001445
     13          1           0       -0.822190    2.128840   -0.003416
 ---------------------------------------------------------------------
 Rotational constants (GHZ):           5.6589135           2.6177404           1.7898025
 Leave Link  202 at Mon Oct 14 11:08:34 2019, MaxMem= 10737418240 cpu:               0.3 elap:               0.0
 (Enter /apps/cent7/gaussian/g16-A.03/g16-haswell/g16/l301.exe)
 Standard basis: 6-31G(d) (6D, 7F)
 Ernie: Thresh=  0.10000D-02 Tol=  0.10000D-05 Strict=F.
 There are   117 symmetry adapted cartesian basis functions of A   symmetry.
 There are   117 symmetry adapted basis functions of A   symmetry.
   117 basis functions,   220 primitive gaussians,   117 cartesian basis functions
    25 alpha electrons       25 beta electrons
       nuclear repulsion energy       271.0195112349 Hartrees.
 IExCor=  402 DFT=T Ex+Corr=B3LYP ExCW=0 ScaHFX=  0.200000
 ScaDFX=  0.800000  0.720000  1.000000  0.810000 ScalE2=  1.000000  1.000000
 IRadAn=      5 IRanWt=     -1 IRanGd=            0 ICorTp=0 IEmpDi=  4
 NAtoms=   13 NActive=   13 NUniq=   13 SFac= 1.00D+00 NAtFMM=   60 NAOKFM=F Big=F
 Integral buffers will be    131072 words long.
 Raffenetti 2 integral format.
 Two-electron integral symmetry is turned on.
 Leave Link  301 at Mon Oct 14 11:08:34 2019, MaxMem= 10737418240 cpu:               1.7 elap:               0.1
 (Enter /apps/cent7/gaussian/g16-A.03/g16-haswell/g16/l302.exe)
 NPDir=0 NMtPBC=     1 NCelOv=     1 NCel=       1 NClECP=     1 NCelD=      1
         NCelK=      1 NCelE2=     1 NClLst=     1 CellRange=     0.0.
 One-electron integrals computed using PRISM.
 One-electron integral symmetry used in STVInt
 NBasis=   117 RedAO= T EigKep=  4.82D-04  NBF=   117
 NBsUse=   117 1.00D-06 EigRej= -1.00D+00 NBFU=   117
 Precomputing XC quadrature grid using
 IXCGrd= 4 IRadAn=           5 IRanWt=          -1 IRanGd=           0 AccXCQ= 0.00D+00.
 Generated NRdTot=       0 NPtTot=           0 NUsed=           0 NTot=          32
 NSgBfM=   117   117   117   117   117 MxSgAt=    13 MxSgA2=    13.
 Leave Link  302 at Mon Oct 14 11:08:35 2019, MaxMem= 10737418240 cpu:               2.7 elap:               0.1
 (Enter /apps/cent7/gaussian/g16-A.03/g16-haswell/g16/l303.exe)
 DipDrv:  MaxL=1.
 Leave Link  303 at Mon Oct 14 11:08:35 2019, MaxMem= 10737418240 cpu:               1.1 elap:               0.1
 (Enter /apps/cent7/gaussian/g16-A.03/g16-haswell/g16/l401.exe)
 Initial guess from the checkpoint file:  "21.chk"
 B after Tr=     0.000000    0.000000    0.000000
         Rot=    0.999953   -0.000033    0.000007    0.009679 Ang=  -1.11 deg.
 Guess basis will be translated and rotated to current coordinates.
 JPrj=2 DoOrth=T DoCkMO=T.
 Generating alternative initial guess.
 ExpMin= 1.61D-01 ExpMax= 5.48D+03 ExpMxC= 8.25D+02 IAcc=2 IRadAn=         4 AccDes= 0.00D+00
 Harris functional with IExCor=  402 and IRadAn=       4 diagonalized for initial guess.
 HarFok:  IExCor=  402 AccDes= 0.00D+00 IRadAn=         4 IDoV= 1 UseB2=F ITyADJ=14
 ICtDFT=  3500011 ScaDFX=  1.000000  1.000000  1.000000  1.000000
 FoFCou: FMM=F IPFlag=           0 FMFlag=      100000 FMFlg1=           0
         NFxFlg=           0 DoJE=T BraDBF=F KetDBF=T FulRan=T
         wScrn=  0.000000 ICntrl=       500 IOpCl=  0 I1Cent=   200000004 NGrid=           0
         NMat0=    1 NMatS0=      1 NMatT0=    0 NMatD0=    1 NMtDS0=    0 NMtDT0=    0
 Petite list used in FoFCou.
 Harris En= -307.496710769384    
 Leave Link  401 at Mon Oct 14 11:08:35 2019, MaxMem= 10737418240 cpu:               5.2 elap:               0.2
 (Enter /apps/cent7/gaussian/g16-A.03/g16-haswell/g16/l502.exe)
 Integral symmetry usage will be decided dynamically.
 Closed shell SCF:
 Using DIIS extrapolation, IDIIS=  1040.
 NGot= 10737418240 LenX= 10737386646 LenY= 10737372516
 Requested convergence on RMS density matrix=1.00D-08 within 128 cycles.
 Requested convergence on MAX density matrix=1.00D-06.
 Requested convergence on             energy=1.00D-06.
 No special actions if energy rises.
 Fock matrices will be formed incrementally for  20 cycles.
 Integral accuracy reduced to 1.0D-05 until final iterations.

 Cycle   1  Pass 0  IDiag  1:
 FoFJK:  IHMeth= 1 ICntrl=       0 DoSepK=F KAlg= 0 I1Cent=           0 FoldK=F
 IRaf= 980000000 NMat=       1 IRICut=       1 DoRegI=T DoRafI=F ISym2E= 0 IDoP0=0 IntGTp=1.
 FoFCou: FMM=F IPFlag=           0 FMFlag=      100000 FMFlg1=           0
         NFxFlg=           0 DoJE=F BraDBF=F KetDBF=F FulRan=T
         wScrn=  0.000000 ICntrl=         0 IOpCl=  0 I1Cent=           0 NGrid=           0
         NMat0=    1 NMatS0=      1 NMatT0=    0 NMatD0=    1 NMtDS0=    0 NMtDT0=    0
 Symmetry not used in FoFCou.
 E= -307.463868973072    
 DIIS: error= 1.89D-03 at cycle   1 NSaved=   1.
 NSaved= 1 IEnMin= 1 EnMin= -307.463868973072     IErMin= 1 ErrMin= 1.89D-03
 ErrMax= 1.89D-03  0.00D+00 EMaxC= 1.00D-01 BMatC= 6.18D-04 BMatP= 6.18D-04
 IDIUse=3 WtCom= 9.81D-01 WtEn= 1.89D-02
 Coeff-Com:  0.100D+01
 Coeff-En:   0.100D+01
 Coeff:      0.100D+01
 Gap=     1.860 Goal=   None    Shift=    0.000
 GapD=    1.860 DampG=2.000 DampE=1.000 DampFc=2.0000 IDamp=-1.
 RMSDP=4.67D-04 MaxDP=6.74D-03              OVMax= 8.05D-03

 Cycle   2  Pass 0  IDiag  1:
 RMSU=  4.65D-04    CP:  1.00D+00
 E= -307.464663416928     Delta-E=       -0.000794443856 Rises=F Damp=F
 DIIS: error= 1.28D-03 at cycle   2 NSaved=   2.
 NSaved= 2 IEnMin= 2 EnMin= -307.464663416928     IErMin= 2 ErrMin= 1.28D-03
 ErrMax= 1.28D-03  0.00D+00 EMaxC= 1.00D-01 BMatC= 1.58D-04 BMatP= 6.18D-04
 IDIUse=3 WtCom= 9.87D-01 WtEn= 1.28D-02
 Coeff-Com:  0.255D+00 0.745D+00
 Coeff-En:   0.000D+00 0.100D+01
 Coeff:      0.252D+00 0.748D+00
 Gap=     0.222 Goal=   None    Shift=    0.000
 RMSDP=1.80D-04 MaxDP=4.55D-03 DE=-7.94D-04 OVMax= 6.55D-03

 Cycle   3  Pass 0  IDiag  1:
 RMSU=  1.78D-04    CP:  1.00D+00  9.44D-01
 E= -307.464682623773     Delta-E=       -0.000019206845 Rises=F Damp=F
 DIIS: error= 1.29D-03 at cycle   3 NSaved=   3.
 NSaved= 3 IEnMin= 3 EnMin= -307.464682623773     IErMin= 2 ErrMin= 1.28D-03
 ErrMax= 1.29D-03  0.00D+00 EMaxC= 1.00D-01 BMatC= 1.40D-04 BMatP= 1.58D-04
 IDIUse=3 WtCom= 9.87D-01 WtEn= 1.29D-02
 Coeff-Com: -0.165D-01 0.487D+00 0.529D+00
 Coeff-En:   0.000D+00 0.468D+00 0.532D+00
 Coeff:     -0.163D-01 0.487D+00 0.529D+00
 Gap=     0.220 Goal=   None    Shift=    0.000
 RMSDP=1.03D-04 MaxDP=2.63D-03 DE=-1.92D-05 OVMax= 4.39D-03

 Cycle   4  Pass 0  IDiag  1:
 RMSU=  3.90D-05    CP:  1.00D+00  1.00D+00  4.85D-01
 E= -307.464797579343     Delta-E=       -0.000114955570 Rises=F Damp=F
 DIIS: error= 1.60D-04 at cycle   4 NSaved=   4.
 NSaved= 4 IEnMin= 4 EnMin= -307.464797579343     IErMin= 4 ErrMin= 1.60D-04
 ErrMax= 1.60D-04  0.00D+00 EMaxC= 1.00D-01 BMatC= 3.92D-06 BMatP= 1.40D-04
 IDIUse=3 WtCom= 9.98D-01 WtEn= 1.60D-03
 Coeff-Com: -0.171D-01 0.224D+00 0.279D+00 0.514D+00
 Coeff-En:   0.000D+00 0.000D+00 0.000D+00 0.100D+01
 Coeff:     -0.171D-01 0.224D+00 0.278D+00 0.515D+00
 Gap=     0.220 Goal=   None    Shift=    0.000
 RMSDP=2.22D-05 MaxDP=3.94D-04 DE=-1.15D-04 OVMax= 9.85D-04

 Cycle   5  Pass 0  IDiag  1:
 RMSU=  1.44D-05    CP:  1.00D+00  1.00D+00  5.05D-01  5.77D-01
 E= -307.464801215564     Delta-E=       -0.000003636221 Rises=F Damp=F
 DIIS: error= 5.19D-05 at cycle   5 NSaved=   5.
 NSaved= 5 IEnMin= 5 EnMin= -307.464801215564     IErMin= 5 ErrMin= 5.19D-05
 ErrMax= 5.19D-05  0.00D+00 EMaxC= 1.00D-01 BMatC= 2.82D-07 BMatP= 3.92D-06
 IDIUse=1 WtCom= 1.00D+00 WtEn= 0.00D+00
 Coeff-Com: -0.698D-02 0.682D-01 0.963D-01 0.260D+00 0.582D+00
 Coeff:     -0.698D-02 0.682D-01 0.963D-01 0.260D+00 0.582D+00
 Gap=     0.220 Goal=   None    Shift=    0.000
 RMSDP=6.27D-06 MaxDP=1.22D-04 DE=-3.64D-06 OVMax= 2.93D-04

 Initial convergence to 1.0D-05 achieved.  Increase integral accuracy.
 Cycle   6  Pass 1  IDiag  1:
 E= -307.464792700285     Delta-E=        0.000008515279 Rises=F Damp=F
 DIIS: error= 2.71D-05 at cycle   1 NSaved=   1.
 NSaved= 1 IEnMin= 1 EnMin= -307.464792700285     IErMin= 1 ErrMin= 2.71D-05
 ErrMax= 2.71D-05  0.00D+00 EMaxC= 1.00D-01 BMatC= 6.25D-08 BMatP= 6.25D-08
 IDIUse=1 WtCom= 1.00D+00 WtEn= 0.00D+00
 Coeff-Com:  0.100D+01
 Coeff:      0.100D+01
 Gap=     0.220 Goal=   None    Shift=    0.000
 RMSDP=6.27D-06 MaxDP=1.22D-04 DE= 8.52D-06 OVMax= 2.91D-04

 Cycle   7  Pass 1  IDiag  1:
 RMSU=  6.22D-06    CP:  1.00D+00
 E= -307.464792553961     Delta-E=        0.000000146324 Rises=F Damp=F
 DIIS: error= 5.28D-05 at cycle   2 NSaved=   2.
 NSaved= 2 IEnMin= 1 EnMin= -307.464792700285     IErMin= 1 ErrMin= 2.71D-05
 ErrMax= 5.28D-05  0.00D+00 EMaxC= 1.00D-01 BMatC= 1.91D-07 BMatP= 6.25D-08
 IDIUse=1 WtCom= 1.00D+00 WtEn= 0.00D+00
 Coeff-Com:  0.638D+00 0.362D+00
 Coeff:      0.638D+00 0.362D+00
 Gap=     0.220 Goal=   None    Shift=    0.000
 RMSDP=4.05D-06 MaxDP=7.05D-05 DE= 1.46D-07 OVMax= 2.04D-04

 Cycle   8  Pass 1  IDiag  1:
 RMSU=  1.37D-06    CP:  1.00D+00  3.87D-01
 E= -307.464792765783     Delta-E=       -0.000000211821 Rises=F Damp=F
 DIIS: error= 3.91D-06 at cycle   3 NSaved=   3.
 NSaved= 3 IEnMin= 3 EnMin= -307.464792765783     IErMin= 3 ErrMin= 3.91D-06
 ErrMax= 3.91D-06  0.00D+00 EMaxC= 1.00D-01 BMatC= 2.05D-09 BMatP= 6.25D-08
 IDIUse=1 WtCom= 1.00D+00 WtEn= 0.00D+00
 Coeff-Com:  0.302D+00 0.188D+00 0.510D+00
 Coeff:      0.302D+00 0.188D+00 0.510D+00
 Gap=     0.220 Goal=   None    Shift=    0.000
 RMSDP=4.88D-07 MaxDP=8.19D-06 DE=-2.12D-07 OVMax= 1.87D-05

 Cycle   9  Pass 1  IDiag  1:
 RMSU=  3.33D-07    CP:  1.00D+00  4.10D-01  7.62D-01
 E= -307.464792767824     Delta-E=       -0.000000002042 Rises=F Damp=F
 DIIS: error= 9.76D-07 at cycle   4 NSaved=   4.
 NSaved= 4 IEnMin= 4 EnMin= -307.464792767824     IErMin= 4 ErrMin= 9.76D-07
 ErrMax= 9.76D-07  0.00D+00 EMaxC= 1.00D-01 BMatC= 8.92D-11 BMatP= 2.05D-09
 IDIUse=1 WtCom= 1.00D+00 WtEn= 0.00D+00
 Coeff-Com:  0.221D-01 0.190D-01 0.183D+00 0.776D+00
 Coeff:      0.221D-01 0.190D-01 0.183D+00 0.776D+00
 Gap=     0.220 Goal=   None    Shift=    0.000
 RMSDP=1.08D-07 MaxDP=3.17D-06 DE=-2.04D-09 OVMax= 4.87D-06

 Cycle  10  Pass 1  IDiag  1:
 RMSU=  8.79D-08    CP:  1.00D+00  4.07D-01  7.94D-01  8.76D-01
 E= -307.464792767868     Delta-E=       -0.000000000044 Rises=F Damp=F
 DIIS: error= 6.34D-07 at cycle   5 NSaved=   5.
 NSaved= 5 IEnMin= 5 EnMin= -307.464792767868     IErMin= 5 ErrMin= 6.34D-07
 ErrMax= 6.34D-07  0.00D+00 EMaxC= 1.00D-01 BMatC= 3.48D-11 BMatP= 8.92D-11
 IDIUse=1 WtCom= 1.00D+00 WtEn= 0.00D+00
 Coeff-Com: -0.650D-02-0.871D-03 0.777D-01 0.492D+00 0.437D+00
 Coeff:     -0.650D-02-0.871D-03 0.777D-01 0.492D+00 0.437D+00
 Gap=     0.220 Goal=   None    Shift=    0.000
 RMSDP=4.72D-08 MaxDP=1.07D-06 DE=-4.37D-11 OVMax= 1.75D-06

 Cycle  11  Pass 1  IDiag  1:
 RMSU=  1.31D-08    CP:  1.00D+00  4.09D-01  7.99D-01  8.83D-01  5.09D-01
 E= -307.464792767897     Delta-E=       -0.000000000030 Rises=F Damp=F
 DIIS: error= 2.23D-08 at cycle   6 NSaved=   6.
 NSaved= 6 IEnMin= 6 EnMin= -307.464792767897     IErMin= 6 ErrMin= 2.23D-08
 ErrMax= 2.23D-08  0.00D+00 EMaxC= 1.00D-01 BMatC= 2.76D-14 BMatP= 3.48D-11
 IDIUse=1 WtCom= 1.00D+00 WtEn= 0.00D+00
 Coeff-Com: -0.119D-02-0.424D-03 0.461D-02 0.374D-01 0.368D-01 0.923D+00
 Coeff:     -0.119D-02-0.424D-03 0.461D-02 0.374D-01 0.368D-01 0.923D+00
 Gap=     0.220 Goal=   None    Shift=    0.000
 RMSDP=3.57D-09 MaxDP=6.81D-08 DE=-2.96D-11 OVMax= 1.89D-07

 SCF Done:  E(RB3LYP) =  -307.464792768     A.U. after   11 cycles
            NFock= 11  Conv=0.36D-08     -V/T= 2.0094
 KE= 3.045926494241D+02 PE=-1.257143482227D+03 EE= 3.740665287996D+02
 Leave Link  502 at Mon Oct 14 11:08:36 2019, MaxMem= 10737418240 cpu:              36.4 elap:               1.5
 (Enter /apps/cent7/gaussian/g16-A.03/g16-haswell/g16/l701.exe)
 ... and contract with generalized density number  0.
 Compute integral first derivatives.
 Leave Link  701 at Mon Oct 14 11:08:37 2019, MaxMem= 10737418240 cpu:               2.3 elap:               0.1
 (Enter /apps/cent7/gaussian/g16-A.03/g16-haswell/g16/l702.exe)
 L702 exits ... SP integral derivatives will be done elsewhere.
 Leave Link  702 at Mon Oct 14 11:08:37 2019, MaxMem= 10737418240 cpu:               0.5 elap:               0.0
 (Enter /apps/cent7/gaussian/g16-A.03/g16-haswell/g16/l703.exe)
 Integral derivatives from FoFJK, PRISM(SPDF).
 Compute integral first derivatives, UseDBF=F ICtDFT=           0.
 Calling FoFJK, ICntrl=      2127 FMM=F ISym2X=0 I1Cent= 0 IOpClX= 0 NMat=1 NMatS=1 NMatT=0.
 FoFJK:  IHMeth= 1 ICntrl=    2127 DoSepK=F KAlg= 0 I1Cent=           0 FoldK=F
 IRaf=         0 NMat=       1 IRICut=       1 DoRegI=T DoRafI=F ISym2E= 0 IDoP0=0 IntGTp=1.
 FoFCou: FMM=F IPFlag=           0 FMFlag=      100000 FMFlg1=         800
         NFxFlg=           0 DoJE=F BraDBF=F KetDBF=F FulRan=T
         wScrn=  0.000000 ICntrl=      2127 IOpCl=  0 I1Cent=           0 NGrid=           0
         NMat0=    1 NMatS0=      1 NMatT0=    0 NMatD0=    1 NMtDS0=    0 NMtDT0=    0
 Symmetry not used in FoFCou.
 Leave Link  703 at Mon Oct 14 11:08:37 2019, MaxMem= 10737418240 cpu:              10.1 elap:               0.4
 (Enter /apps/cent7/gaussian/g16-A.03/g16-haswell/g16/l716.exe)
 Dipole        =-3.05496931D-02 5.31499545D-01 6.00030750D-04
 ***** Axes restored to original set *****
 -------------------------------------------------------------------
 Center     Atomic                   Forces (Hartrees/Bohr)
 Number     Number              X              Y              Z
 -------------------------------------------------------------------
      1        8          -0.002780929   -0.001779815   -0.000176911
      2        6           0.005290233    0.001108391    0.000515007
      3        6          -0.002194499    0.002663063   -0.000032589
      4        6          -0.000378151    0.000083020   -0.000165778
      5        6           0.000910667    0.001769403    0.000104514
      6        6          -0.000392102    0.000586460   -0.000112465
      7        6          -0.000946149   -0.002436228   -0.000008408
      8        1           0.000655974   -0.001247381    0.000003845
      9        1           0.000052900   -0.000777636   -0.000059824
     10        1          -0.000391845    0.000689104    0.000014816
     11        1          -0.000140575    0.000061862    0.000023511
     12        1           0.000418739   -0.000444306   -0.000001366
     13        1          -0.000104263   -0.000275936   -0.000104352
 -------------------------------------------------------------------
 Cartesian Forces:  Max     0.005290233 RMS     0.001315896
 Leave Link  716 at Mon Oct 14 11:08:37 2019, MaxMem= 10737418240 cpu:               0.4 elap:               0.0
 (Enter /apps/cent7/gaussian/g16-A.03/g16-haswell/g16/l103.exe)

 GradGradGradGradGradGradGradGradGradGradGradGradGradGradGradGradGradGrad
 Berny optimization.
 Using GEDIIS/GDIIS optimizer.
 FormGI is forming the generalized inverse of G from B-inverse, IUseBI=4.
 Internal  Forces:  Max     0.003693224 RMS     0.000856910
 Search for a local minimum.
 Step number   2 out of a maximum of   68
 All quantities printed in internal units (Hartrees-Bohrs-Radians)
 RMS Force = .85691D-03 SwitMx=.10000D-02 MixMth= 2
 Mixed Optimization -- En-DIIS/RFO-DIIS
 Update second derivatives using D2CorX and points    1    2
 DE= -1.59D-03 DEPred=-1.63D-03 R= 9.73D-01
 TightC=F SS=  1.41D+00  RLast= 1.05D-01 DXNew= 5.0454D-01 3.1648D-01
 Trust test= 9.73D-01 RLast= 1.05D-01 DXMaxT set to 3.16D-01
 ITU=  1  0
 Use linear search instead of GDIIS.
     Eigenvalues ---    0.01969   0.01970   0.01972   0.01973   0.01977
     Eigenvalues ---    0.01979   0.01984   0.01989   0.02043   0.02276
     Eigenvalues ---    0.15610   0.16000   0.16000   0.16000   0.16000
     Eigenvalues ---    0.16065   0.21526   0.22199   0.23300   0.24497
     Eigenvalues ---    0.34757   0.34811   0.34812   0.34817   0.34963
     Eigenvalues ---    0.40235   0.40557   0.43100   0.44215   0.44342
     Eigenvalues ---    0.49220   0.53970   0.55420
 RFO step:  Lambda=-1.05883590D-04 EMin= 1.96878654D-02
 Quartic linear search produced a step of -0.02226.
 Iteration  1 RMS(Cart)=  0.00373129 RMS(Int)=  0.00001408
 Iteration  2 RMS(Cart)=  0.00001520 RMS(Int)=  0.00000678
 Iteration  3 RMS(Cart)=  0.00000000 RMS(Int)=  0.00000678
 ITry= 1 IFail=0 DXMaxC= 1.09D-02 DCOld= 1.00D+10 DXMaxT= 3.16D-01 DXLimC= 3.00D+00 Rises=F
 Variable       Old X    -DE/DX   Delta X   Delta X   Delta X     New X
                                 (Linear)    (Quad)   (Total)
    R1        2.57763   0.00369  -0.00034   0.00757   0.00723   2.58486
    R2        1.82978   0.00138  -0.00035   0.00330   0.00296   1.83274
    R3        2.63678   0.00310   0.00057   0.00543   0.00600   2.64278
    R4        2.64871  -0.00140   0.00030  -0.00393  -0.00363   2.64508
    R5        2.63222   0.00077   0.00068   0.00006   0.00075   2.63296
    R6        2.05163  -0.00004   0.00018  -0.00057  -0.00039   2.05124
    R7        2.63801   0.00114   0.00048   0.00137   0.00186   2.63987
    R8        2.05183   0.00079   0.00018   0.00178   0.00196   2.05378
    R9        2.63427   0.00186   0.00057   0.00266   0.00323   2.63750
   R10        2.05247  -0.00002   0.00016  -0.00045  -0.00029   2.05218
   R11        2.63308   0.00163   0.00066   0.00188   0.00254   2.63562
   R12        2.05255   0.00042   0.00016   0.00077   0.00093   2.05348
   R13        2.05790   0.00019   0.00004   0.00041   0.00046   2.05835
    A1        1.89958   0.00051   0.00024   0.00249   0.00274   1.90232
    A2        2.05489  -0.00086   0.00094  -0.00566  -0.00473   2.05016
    A3        2.13724   0.00016  -0.00089   0.00292   0.00202   2.13926
    A4        2.09104   0.00070  -0.00005   0.00277   0.00272   2.09376
    A5        2.08752   0.00008   0.00022  -0.00000   0.00022   2.08774
    A6        2.08291  -0.00084   0.00022  -0.00571  -0.00550   2.07742
    A7        2.11275   0.00076  -0.00044   0.00571   0.00527   2.11803
    A8        2.10978  -0.00048  -0.00034  -0.00088  -0.00122   2.10856
    A9        2.07978   0.00025   0.00034   0.00009   0.00043   2.08021
   A10        2.09362   0.00022  -0.00001   0.00080   0.00079   2.09441
   A11        2.08293  -0.00037   0.00023  -0.00199  -0.00176   2.08117
   A12        2.10128   0.00003  -0.00014   0.00010  -0.00004   2.10124
   A13        2.09898   0.00034  -0.00009   0.00190   0.00180   2.10078
   A14        2.09890   0.00096  -0.00010   0.00445   0.00435   2.10325
   A15        2.09670  -0.00003  -0.00008   0.00087   0.00080   2.09750
   A16        2.08758  -0.00094   0.00017  -0.00532  -0.00515   2.08244
   A17        2.09619  -0.00090   0.00003  -0.00433  -0.00430   2.09189
   A18        2.09058   0.00021   0.00005   0.00057   0.00062   2.09120
   A19        2.09642   0.00069  -0.00008   0.00376   0.00369   2.10010
    D1        3.14079  -0.00007  -0.00031  -0.00266  -0.00297   3.13783
    D2       -0.00618   0.00009   0.00014   0.00382   0.00396  -0.00223
    D3        3.13883   0.00009   0.00045   0.00315   0.00358  -3.14078
    D4       -0.00141   0.00007   0.00042   0.00182   0.00222   0.00081
    D5        0.00247  -0.00006   0.00001  -0.00316  -0.00316  -0.00069
    D6       -3.13777  -0.00009  -0.00002  -0.00449  -0.00451   3.14091
    D7       -3.13885  -0.00009  -0.00045  -0.00315  -0.00362   3.14071
    D8        0.00030  -0.00004  -0.00039  -0.00097  -0.00139  -0.00109
    D9       -0.00275   0.00007   0.00000   0.00344   0.00344   0.00069
   D10        3.13640   0.00012   0.00005   0.00562   0.00568  -3.14111
   D11        0.00018  -0.00000  -0.00004  -0.00017  -0.00022  -0.00004
   D12        3.14095   0.00002  -0.00002   0.00097   0.00094  -3.14130
   D13        3.14040   0.00002  -0.00001   0.00118   0.00116   3.14156
   D14       -0.00202   0.00005   0.00001   0.00231   0.00232   0.00030
   D15       -0.00255   0.00007   0.00007   0.00323   0.00330   0.00075
   D16        3.14054   0.00002   0.00003   0.00091   0.00095   3.14149
   D17        3.13987   0.00005   0.00005   0.00209   0.00214  -3.14118
   D18       -0.00022  -0.00000   0.00002  -0.00023  -0.00022  -0.00044
   D19        0.00226  -0.00006  -0.00006  -0.00294  -0.00301  -0.00074
   D20       -3.13939  -0.00006  -0.00006  -0.00273  -0.00279   3.14100
   D21       -3.14083  -0.00001  -0.00003  -0.00063  -0.00066  -3.14148
   D22        0.00070  -0.00001  -0.00003  -0.00041  -0.00044   0.00026
   D23        0.00037  -0.00001   0.00003  -0.00037  -0.00034   0.00003
   D24       -3.13877  -0.00005  -0.00002  -0.00255  -0.00259  -3.14136
   D25       -3.14116  -0.00001   0.00003  -0.00058  -0.00056   3.14147
   D26        0.00288  -0.00006  -0.00003  -0.00277  -0.00280   0.00008
         Item               Value     Threshold  Converged?
 Maximum Force            0.003693     0.000450     NO 
 RMS     Force            0.000857     0.000300     NO 
 Maximum Displacement     0.010908     0.001800     NO 
 RMS     Displacement     0.003732     0.001200     NO 
 Predicted change in Energy=-5.379034D-05
 Lowest energy point so far.  Saving SCF results.
 GradGradGradGradGradGradGradGradGradGradGradGradGradGradGradGradGradGrad

 Leave Link  103 at Mon Oct 14 11:08:37 2019, MaxMem= 10737418240 cpu:               0.4 elap:               0.0
 (Enter /apps/cent7/gaussian/g16-A.03/g16-haswell/g16/l202.exe)
                          Input orientation:                          
 ---------------------------------------------------------------------
 Center     Atomic      Atomic             Coordinates (Angstroms)
 Number     Number       Type             X           Y           Z
 ---------------------------------------------------------------------
      1          8           0       -0.719685   -1.167806   -0.006515
      2          6           0        0.009567   -0.010575   -0.002760
      3          6           0       -0.696359    1.196682   -0.001194
      4          6           0        0.001658    2.402526    0.001640
      5          6           0        1.398499    2.420735    0.002980
      6          6           0        2.096119    1.211886    0.000536
      7          6           0        1.409256   -0.001960   -0.002310
      8          1           0       -0.112143   -1.923764   -0.010683
      9          1           0       -1.781552    1.172262   -0.002220
     10          1           0       -0.553986    3.336564    0.003124
     11          1           0        1.935645    3.364555    0.005093
     12          1           0        3.182769    1.208305    0.000980
     13          1           0        1.956660   -0.943648   -0.003990
 ---------------------------------------------------------------------
                    Distance matrix (angstroms):
                    1          2          3          4          5
     1  O    0.000000
     2  C    1.367848   0.000000
     3  C    2.364608   1.398500   0.000000
     4  C    3.642482   2.413118   1.393305   0.000000
     5  C    4.167064   2.800077   2.426263   1.396960   0.000000
     6  C    3.686697   2.418288   2.792520   2.409230   1.395706
     7  C    2.427263   1.399715   2.422882   2.786199   2.422725
     8  H    0.969844   1.917073   3.174677   4.327804   4.599663
     9  H    2.569727   2.146442   1.085468   2.166427   3.416349
    10  H    4.507427   3.394255   2.144618   1.086816   2.156603
    11  H    5.252923   3.886044   3.409862   2.160049   1.085967
    12  H    4.568928   3.399248   3.879146   3.397886   2.157223
    13  H    2.685718   2.159120   3.408743   3.875428   3.410376
                    6          7          8          9         10
     6  C    0.000000
     7  C    1.394709   0.000000
     8  H    3.835212   2.451133   0.000000
     9  H    3.877874   3.400008   3.517438   0.000000
    10  H    3.396663   3.872995   5.278869   2.488203   0.000000
    11  H    2.158646   3.407428   5.670978   4.315525   2.489789
    12  H    1.086656   2.147114   4.546035   4.964453   4.300329
    13  H    2.160045   1.089233   2.289240   4.295499   4.962218
                   11         12         13
    11  H    0.000000
    12  H    2.490933   0.000000
    13  H    4.308263   2.476745   0.000000
 Stoichiometry    C6H6O
 Framework group  C1[X(C6H6O)]
 Deg. of freedom    33
 Full point group                 C1      NOp   1
 RotChk:  IX=0 Diff= 2.20D-03
 Largest Abelian subgroup         C1      NOp   1
 Largest concise Abelian subgroup C1      NOp   1
                         Standard orientation:                         
 ---------------------------------------------------------------------
 Center     Atomic      Atomic             Coordinates (Angstroms)
 Number     Number       Type             X           Y           Z
 ---------------------------------------------------------------------
      1          8           0       -2.307081   -0.111595    0.000005
      2          6           0       -0.941917   -0.025957   -0.000694
      3          6           0       -0.220479   -1.224009   -0.000067
      4          6           0        1.172388   -1.189078    0.000243
      5          6           0        1.857635    0.028268   -0.000108
      6          6           0        1.130817    1.219793    0.000133
      7          6           0       -0.263729    1.198488   -0.000175
      8          1           0       -2.679539    0.783873    0.002911
      9          1           0       -0.761858   -2.164832    0.000168
     10          1           0        1.726014   -2.124315    0.000449
     11          1           0        2.943432    0.047538    0.000233
     12          1           0        1.648315    2.175312    0.000419
     13          1           0       -0.828018    2.130157   -0.000207
 ---------------------------------------------------------------------
 Rotational constants (GHZ):           5.6506430           2.6126955           1.7866158
 Leave Link  202 at Mon Oct 14 11:08:37 2019, MaxMem= 10737418240 cpu:               0.2 elap:               0.0
 (Enter /apps/cent7/gaussian/g16-A.03/g16-haswell/g16/l301.exe)
 Standard basis: 6-31G(d) (6D, 7F)
 Ernie: Thresh=  0.10000D-02 Tol=  0.10000D-05 Strict=F.
 There are   117 symmetry adapted cartesian basis functions of A   symmetry.
 There are   117 symmetry adapted basis functions of A   symmetry.
   117 basis functions,   220 primitive gaussians,   117 cartesian basis functions
    25 alpha electrons       25 beta electrons
       nuclear repulsion energy       270.7739527742 Hartrees.
 IExCor=  402 DFT=T Ex+Corr=B3LYP ExCW=0 ScaHFX=  0.200000
 ScaDFX=  0.800000  0.720000  1.000000  0.810000 ScalE2=  1.000000  1.000000
 IRadAn=      5 IRanWt=     -1 IRanGd=            0 ICorTp=0 IEmpDi=  4
 NAtoms=   13 NActive=   13 NUniq=   13 SFac= 1.00D+00 NAtFMM=   60 NAOKFM=F Big=F
 Integral buffers will be    131072 words long.
 Raffenetti 2 integral format.
 Two-electron integral symmetry is turned on.
 Leave Link  301 at Mon Oct 14 11:08:37 2019, MaxMem= 10737418240 cpu:               1.2 elap:               0.1
 (Enter /apps/cent7/gaussian/g16-A.03/g16-haswell/g16/l302.exe)
 NPDir=0 NMtPBC=     1 NCelOv=     1 NCel=       1 NClECP=     1 NCelD=      1
         NCelK=      1 NCelE2=     1 NClLst=     1 CellRange=     0.0.
 One-electron integrals computed using PRISM.
 One-electron integral symmetry used in STVInt
 NBasis=   117 RedAO= T EigKep=  4.86D-04  NBF=   117
 NBsUse=   117 1.00D-06 EigRej= -1.00D+00 NBFU=   117
 Precomputing XC quadrature grid using
 IXCGrd= 4 IRadAn=           5 IRanWt=          -1 IRanGd=           0 AccXCQ= 0.00D+00.
 Generated NRdTot=       0 NPtTot=           0 NUsed=           0 NTot=          32
 NSgBfM=   117   117   117   117   117 MxSgAt=    13 MxSgA2=    13.
 Leave Link  302 at Mon Oct 14 11:08:37 2019, MaxMem= 10737418240 cpu:               3.3 elap:               0.2
 (Enter /apps/cent7/gaussian/g16-A.03/g16-haswell/g16/l303.exe)
 DipDrv:  MaxL=1.
 Leave Link  303 at Mon Oct 14 11:08:37 2019, MaxMem= 10737418240 cpu:               0.5 elap:               0.0
 (Enter /apps/cent7/gaussian/g16-A.03/g16-haswell/g16/l401.exe)
 Initial guess from the checkpoint file:  "21.chk"
 B after Tr=     0.000000   -0.000000    0.000000
[...]
 ! A3    A(1,2,7)              122.6087         -DE/DX =   -0.0001              !
 ! A4    A(3,2,7)              120.0758         -DE/DX =    0.0                 !
 ! A5    A(2,3,4)              119.5741         -DE/DX =    0.0                 !
 ! A6    A(2,3,9)              118.901          -DE/DX =    0.0                 !
 ! A7    A(4,3,9)              121.5249         -DE/DX =    0.0                 !
 ! A8    A(3,4,5)              120.7853         -DE/DX =    0.0                 !
 ! A9    A(3,4,10)             119.2127         -DE/DX =    0.0001              !
 ! A10   A(5,4,10)             120.0021         -DE/DX =    0.0                 !
 ! A11   A(4,5,6)              119.2612         -DE/DX =    0.0001              !
 ! A12   A(4,5,11)             120.3996         -DE/DX =   -0.0001              !
 ! A13   A(6,5,11)             120.3392         -DE/DX =    0.0                 !
 ! A14   A(5,6,7)              120.5396         -DE/DX =    0.0                 !
 ! A15   A(5,6,12)             120.1941         -DE/DX =    0.0                 !
 ! A16   A(7,6,12)             119.2663         -DE/DX =    0.0                 !
 ! A17   A(2,7,6)              119.764          -DE/DX =    0.0                 !
 ! A18   A(2,7,13)             119.9002         -DE/DX =    0.0001              !
 ! A19   A(6,7,13)             120.3358         -DE/DX =   -0.0001              !
 ! D1    D(8,1,2,3)           -180.0586         -DE/DX =    0.0                 !
 ! D2    D(8,1,2,7)             -0.1267         -DE/DX =    0.0                 !
 ! D3    D(1,2,3,4)            179.9465         -DE/DX =    0.0                 !
 ! D4    D(1,2,3,9)             -0.0595         -DE/DX =    0.0                 !
 ! D5    D(7,2,3,4)              0.0128         -DE/DX =    0.0                 !
 ! D6    D(7,2,3,9)           -179.9933         -DE/DX =    0.0                 !
 ! D7    D(1,2,7,6)            180.05           -DE/DX =    0.0                 !
 ! D8    D(1,2,7,13)             0.0525         -DE/DX =    0.0                 !
 ! D9    D(3,2,7,6)             -0.0199         -DE/DX =    0.0                 !
 ! D10   D(3,2,7,13)           179.9827         -DE/DX =    0.0                 !
 ! D11   D(2,3,4,5)              0.0112         -DE/DX =    0.0                 !
 ! D12   D(2,3,4,10)          -180.0064         -DE/DX =    0.0                 !
 ! D13   D(9,3,4,5)            180.0174         -DE/DX =    0.0                 !
 ! D14   D(9,3,4,10)            -0.0002         -DE/DX =    0.0                 !
 ! D15   D(3,4,5,6)             -0.0277         -DE/DX =    0.0                 !
 ! D16   D(3,4,5,11)           179.9916         -DE/DX =    0.0                 !
 ! D17   D(10,4,5,6)           179.9901         -DE/DX =    0.0                 !
 ! D18   D(10,4,5,11)            0.0093         -DE/DX =    0.0                 !
 ! D19   D(4,5,6,7)              0.0204         -DE/DX =    0.0                 !
 ! D20   D(4,5,6,12)           180.0166         -DE/DX =    0.0                 !
 ! D21   D(11,5,6,7)           180.0012         -DE/DX =    0.0                 !
 ! D22   D(11,5,6,12)           -0.0026         -DE/DX =    0.0                 !
 ! D23   D(5,6,7,2)              0.0032         -DE/DX =    0.0                 !
 ! D24   D(5,6,7,13)          -179.9994         -DE/DX =    0.0                 !
 ! D25   D(12,6,7,2)          -179.9931         -DE/DX =    0.0                 !
 ! D26   D(12,6,7,13)            0.0043         -DE/DX =    0.0                 !
 --------------------------------------------------------------------------------
 GradGradGradGradGradGradGradGradGradGradGradGradGradGradGradGradGradGrad

 Leave Link  103 at Mon Oct 14 11:08:55 2019, MaxMem= 10737418240 cpu:               1.0 elap:               0.1
 (Enter /apps/cent7/gaussian/g16-A.03/g16-haswell/g16/l9999.exe)

 ----------------------------------------------------------------------

 Electric dipole moment (input orientation):
 (Debye = 10**-18 statcoulomb cm , SI units = C m)
                  (au)            (Debye)         (10**-30 SI)
   Tot        0.533160D+00      0.135516D+01      0.452032D+01
   x          0.454459D+00      0.115512D+01      0.385306D+01
   y         -0.278792D+00     -0.708619D+00     -0.236370D+01
   z         -0.122543D-02     -0.311473D-02     -0.103896D-01

 Dipole polarizability, Alpha (input orientation).
 (esu units = cm**3 , SI units = C**2 m**2 J**-1)
 Alpha(0;0):
               (au)            (10**-24 esu)      (10**-40 SI)
   iso        0.593092D+02      0.878871D+01      0.977876D+01
   aniso      0.551869D+02      0.817786D+01      0.909909D+01
   xx         0.740759D+02      0.109769D+02      0.122135D+02
   yx         0.247729D+01      0.367097D+00      0.408450D+00
   yy         0.810033D+02      0.120035D+02      0.133556D+02
   zx         0.416020D-01      0.616477D-02      0.685924D-02
   zy         0.140195D+00      0.207748D-01      0.231151D-01
   zz         0.228484D+02      0.338578D+01      0.376719D+01

 ----------------------------------------------------------------------

 Dipole orientation:
     8         -1.34516053         -2.21603540         -0.00825464
     6          0.00368135         -0.00882431          0.02724592
     6          0.65546839          1.05254810         -2.30524233
     6          2.02601482          3.29914287         -2.37288778
     6          2.75760069          4.50444776         -0.13891535
     6          2.09905196          3.43322440          2.17884414
     6          0.72613399          1.18337524          2.27357731
     1         -1.66655104         -2.74151880          1.71793129
     1          0.07619971          0.09729873         -4.02568909
     1          2.52657337          4.11378617         -4.19094978
     1          3.82599798          6.25522427         -0.20545301
     1          2.65260354          4.34640738          3.93344207
     1          0.21550562          0.35285406          4.08593884

 Electric dipole moment (dipole orientation):
 (Debye = 10**-18 statcoulomb cm , SI units = C m)
                  (au)            (Debye)         (10**-30 SI)
   Tot        0.533160D+00      0.135516D+01      0.452032D+01
   x          0.000000D+00      0.000000D+00      0.000000D+00
   y          0.000000D+00      0.000000D+00      0.000000D+00
   z          0.533160D+00      0.135516D+01      0.452032D+01

 Dipole polarizability, Alpha (dipole orientation).
 (esu units = cm**3 , SI units = C**2 m**2 J**-1)
 Alpha(0;0):
               (au)            (10**-24 esu)      (10**-40 SI)
   iso        0.593092D+02      0.878871D+01      0.977876D+01
   aniso      0.551869D+02      0.817786D+01      0.909909D+01
   xx         0.387139D+02      0.573680D+01      0.638305D+01
   yx         0.259989D+02      0.385264D+01      0.428664D+01
   yy         0.654521D+02      0.969900D+01      0.107916D+02
   zx        -0.109524D+01     -0.162297D+00     -0.180580D+00
   zy        -0.163394D+01     -0.242124D+00     -0.269400D+00
   zz         0.737616D+02      0.109303D+02      0.121616D+02

 ----------------------------------------------------------------------
 1\1\GINC-BROWN-A547\Freq\RB3LYP\6-31G(d)\C6H6O1\FINEJ\14-Oct-2019\0\\#
 P Geom=AllCheck Guess=TCheck SCRF=Check GenChk RB3LYP/6-31G(d) Freq\\T
 itle Card Required\\0,1\O,-0.7210577458,-1.1670135387,-0.0064347072\C,
 0.0107329387,-0.0100587782,-0.004135435\C,-0.6967191285,1.1971775459,-
 0.001604242\C,0.0009780131,2.4029341922,0.0019281855\C,1.3987949447,2.
 4207436338,0.002738429\C,2.096302161,1.2122001373,0.0005492514\C,1.409
 7129041,-0.0028627661,-0.0028469252\H,-0.1128845102,-1.9225097876,-0.0
 089728234\H,-1.78188339,1.1693385392,-0.0025511116\H,-0.5545115612,3.3
 372910932,0.0037751093\H,1.9363246706,3.3642944714,0.0053604381\H,3.18
 32276175,1.2083496334,0.0014144691\H,1.957429416,-0.9441223757,-0.0045
 383479\\Version=ES64L-G16RevA.03\State=1-A\HF=-307.46486\RMSD=1.096e-0
 9\RMSF=1.265e-04\ZeroPoint=0.1047908\Thermal=0.1047908\Dipole=0.454458
 7,-0.2787921,-0.0012254\DipoleDeriv=-0.4820522,-0.6163736,-0.0018055,-
 0.5558823,-1.1764394,-0.0019071,-0.0011136,-0.0010228,-0.4117428,0.381
 9352,0.6083242,0.0015644,0.5672338,1.1208336,0.0023061,0.0010907,0.001
 62,0.1648595,0.0699395,0.0771877,0.0003511,-0.1949296,-0.2946996,-0.00
 03768,-0.0002808,-0.000252,-0.158608,0.1839162,-0.065803,0.0000018,0.0
 460854,0.1581084,0.0006876,0.0003438,0.0004421,-0.0979669,-0.1922654,0
 .1008077,0.0001706,0.131649,-0.0451438,0.0003197,0.0003377,0.0005029,-
 0.1499503,0.1549336,0.0555299,0.0003539,-0.1094,0.1475747,0.0004559,-0
 .0001333,0.0006034,-0.0939834,-0.1495266,-0.3511082,-0.0006924,-0.0269
 881,-0.0794272,0.0002402,0.0000132,0.0002031,-0.1854616,0.1753618,0.14
 4175,0.0004995,0.0763603,0.3190911,-0.0000471,0.0001694,-0.0002984,0.3
 439517,-0.0759359,-0.0093176,-0.0001724,-0.0133635,0.0679356,-0.000157
 6,-0.0002021,-0.0001645,0.1262771,0.014182,0.0821012,0.0001458,0.07984
 18,-0.0746009,-0.0003981,0.0000699,-0.0003123,0.1092359,0.0112392,-0.0
 749798,-0.0002454,-0.0753743,-0.0783479,-0.0005078,-0.0002789,-0.00061
 22,0.1209685,-0.1219326,-0.0037966,-0.0001958,0.0059078,0.0600261,-0.0
 001019,-0.0001069,-0.0001751,0.1100162,0.0302053,0.053253,0.0000245,0.
 0688598,-0.1249107,-0.000513,0.000091,-0.0005341,0.1224042\Polar=74.07
 58842,2.4772913,81.0032981,0.041602,0.1401952,22.8483806\Quadrupole=-0
 .5679071,4.4207236,-3.8528165,-2.188336,-0.0008457,0.0225807\PG=C01 [X
 (C6H6O1)]\NImag=0\\0.41893062,-0.09688935,0.61348309,-0.00051552,0.001
 64877,0.02671200,-0.16938948,-0.12067144,-0.00023916,0.70258276,-0.064
 64862,-0.24859076,-0.00048839,-0.01346724,0.71212545,-0.00012934,-0.00
 046500,-0.04122510,0.00028217,0.00124633,0.15421685,0.02040521,-0.0225
 7084,-0.00005127,-0.19205811,0.13055296,0.00024777,0.75056428,0.014960
 46,-0.05703883,-0.00012536,0.05715913,-0.25350233,-0.00042412,0.021697
 42,0.69009219,0.00004453,-0.00013260,0.00645711,0.00006162,-0.00038636
 ,-0.06603108,0.00052323,0.00140534,0.12060596,-0.00816691,0.00804474,0
 .00000842,0.07200522,-0.02838636,-0.00002472,-0.18613670,-0.06564059,-
 0.00025654,0.69230295,0.00210650,0.00373209,-0.00001731,0.02433870,-0.
 05937767,-0.00011854,-0.12935532,-0.29705691,-0.00069905,-0.02607807,0
 .72776117,-0.00000545,0.00000240,0.00464242,0.00010032,-0.00016633,0.0
 0085880,-0.00041300,-0.00066027,-0.05446221,0.00030970,0.00143726,0.13
 183964,0.00297843,-0.00606751,0.00000266,-0.05550030,0.03478772,0.0000
 3408,-0.02516856,-0.07628667,-0.00021007,-0.33639043,0.02967830,-0.000
 07932,0.68463665,-0.00531269,-0.00223749,-0.00000455,0.03498896,-0.016
 75137,-0.00000664,-0.02903304,0.03056235,0.00004330,-0.03550186,-0.127
 78452,-0.00018968,0.03455301,0.73085502,-0.00000790,-0.00000632,-0.001
 12091,0.00004506,-0.00000465,-0.00492967,-0.00009725,0.00000029,0.0067
 5366,-0.00023335,-0.00014184,-0.05867799,0.00045793,0.00144441,0.12127
 896,-0.00368717,0.00208412,-0.00001044,-0.02570159,-0.03114203,-0.0000
 7800,-0.00189240,0.00343463,0.00001043,-0.02998096,0.02704640,0.000029
 28,-0.18061962,0.12526449,0.00019005,0.74095844,0.01043397,-0.00161970
 ,-0.00000055,-0.08508543,0.03909445,0.00001079,0.00005136,-0.06460046,
 -0.00015524,0.07817354,0.03258783,0.00011735,0.06007664,-0.28868362,-0
 .00047387,-0.00196802,0.67678779,0.00002030,-0.00001824,0.00745113,-0.
 00021771,0.00005517,0.00032796,0.00000146,-0.00013324,-0.00422041,0.00
 015999,0.00007290,0.00693601,0.00003514,-0.00042454,-0.05846166,0.0004
 8964,0.00127095,0.12942356,-0.02990426,-0.01236995,-0.00006286,-0.3187
 2970,-0.02472695,-0.00026878,-0.02263410,0.06715630,0.00013670,-0.0494
 8591,-0.02408575,-0.00008437,0.06080638,-0.02498276,-0.00001603,-0.179
 32248,-0.06241684,-0.00025977,0.68189517,-0.05148719,-0.01088296,-0.00
 008147,0.05392575,-0.13124773,-0.00010073,0.02455087,0.03257654,0.0000
 8466,-0.02933548,-0.01733951,-0.00004936,0.02402891,-0.05773299,-0.000
 13728,-0.12641705,-0.29257809,-0.00066304,-0.01619136,0.73421185,-0.00
 011089,-0.00002952,0.00849865,-0.00011054,-0.00018132,-0.06245562,0.00
 003357,0.00011681,0.00799668,-0.00010832,-0.00005573,-0.00506048,0.000
 10751,-0.00016718,0.00703502,-0.00040872,-0.00059876,-0.05317157,0.000
 43162,0.00138648,0.11439029,-0.23517282,0.24882119,0.00086173,0.012820
 22,-0.02440285,-0.00007631,-0.00183308,-0.00417873,-0.00001066,0.00097
 407,-0.00004525,0.00000147,-0.00031877,0.00012789,-0.00000111,-0.00068
 924,0.00011485,-0.00000121,0.00205901,-0.00512992,-0.00001009,0.223228
 44,0.19259184,-0.30160628,-0.00095436,0.02789106,-0.03902893,-0.000106
 20,-0.00655522,-0.00348206,-0.00001991,0.00227124,-0.00075237,-0.00000
 041,-0.00041368,0.00099282,0.00000167,0.00034464,-0.00132462,0.0000032
 6,0.00245852,0.00567660,0.00001592,-0.21649510,0.33905861,0.00070909,-
 0.00102827,-0.00405706,0.00006163,-0.00003598,-0.00279466,-0.00000998,
 -0.00002069,0.00244525,0.00000839,0.00000302,0.00177379,-0.00000824,0.
 00000287,0.00011173,0.00000259,-0.00000717,-0.00062367,0.00001111,0.00
 001636,-0.00099120,-0.00076836,0.00106566,0.00470555,0.00127133,-0.000
 40981,0.00000279,-0.01411856,-0.00398117,-0.00002509,-0.34248418,-0.00
 341407,-0.00025345,-0.01047180,0.00175530,-0.00000348,0.00119706,-0.00
 286311,-0.00001189,0.00074458,0.00030034,0.00000148,0.00028738,0.00304
 548,0.00000428,0.00020121,-0.00009878,0.00000045,0.36374541,-0.0006577
 9,0.00227684,0.00001266,0.02882903,0.00525349,0.00002497,-0.00537053,-
 0.05991905,-0.00007706,-0.02877100,0.00494862,-0.00001001,-0.00168450,
 -0.00468348,-0.00003118,-0.00009979,-0.00144364,-0.00000226,0.00172752
 ,-0.00496657,-0.00002372,-0.00029984,0.00035169,0.00000178,0.00573276,
 0.05666589,-0.00000137,0.00001130,-0.00330906,0.00007038,-0.00000157,0
 .00428480,-0.00026796,-0.00006770,-0.03298428,-0.00007982,0.00001033,0
 .00125979,-0.00000721,-0.00003089,0.00715122,0.00000094,-0.00000169,-0
 .00034629,-0.00000148,-0.00002419,0.00498609,0.00000010,0.00000102,-0.
 00065733,0.00028198,0.00008931,0.02394866,0.00073945,-0.00053883,-0.00
 000216,-0.00135232,-0.00301846,-0.00001198,0.01182846,-0.01499317,-0.0
 0003053,-0.13334247,0.12213610,0.00022732,-0.01035299,0.02936830,0.000
 05990,-0.00592867,-0.00163075,-0.00001111,-0.00054786,-0.00103281,-0.0
 0000305,-0.00008713,-0.00036326,-0.00000005,0.00090141,0.00047760,0.00
 000441,0.13764407,0.00091099,-0.00148744,-0.00000495,-0.00403655,-0.00
 173671,-0.00002469,0.01616434,-0.01965361,-0.00004247,0.12181230,-0.26
 558956,-0.00046534,-0.00191931,0.00405715,0.00000187,-0.00034560,0.001
 48128,-0.00001242,-0.00085550,0.00011377,0.00000026,-0.00014652,-0.000
 36029,0.00000069,-0.00019573,0.00112695,0.00001250,-0.13172698,0.28117
 796,0.00000358,-0.00000547,0.00019659,-0.00002141,-0.00002375,0.007851
 16,0.00004661,-0.00006988,0.00259191,0.00022275,-0.00045764,-0.0363352
 2,-0.00001290,0.00001946,0.00267707,-0.00000640,-0.00001231,0.00645727
 ,-0.00000130,0.00000306,-0.00033466,-0.00000037,-0.00000116,-0.0002542
 5,0.00000358,0.00001382,-0.00419601,-0.00023862,0.00052143,0.02573781,
 0.00029007,-0.00029580,0.00000003,-0.00105344,0.00119629,0.00000241,-0
 .00536684,0.00179537,-0.00000312,-0.01077019,-0.02972086,-0.00008084,-
 0.12855253,-0.12086872,-0.00035379,0.01199556,0.01573603,0.00004659,-0
 .00127715,0.00272962,0.00000041,-0.00004697,-0.00007647,-0.00000017,-0
 .00059290,-0.00149525,-0.00000445,0.00110108,0.00038588,0.00000408,0.1
 3287459,-0.00030588,0.00003036,0.00000137,0.00102794,0.00019663,0.0000
 0236,0.00040217,0.00139731,-0.00001170,0.00212071,0.00367428,0.0000085
 8,-0.12074942,-0.27170614,-0.00065589,-0.01617385,-0.01931919,-0.00006
 074,0.00409924,-0.00252916,-0.00001807,0.00016075,0.00010655,0.0000008
 4,0.00016356,0.00009101,-0.00000089,-0.00041142,0.00079107,0.00001026,
 0.13024012,0.28739815,-0.00000121,0.00000173,-0.00073979,0.00000259,0.
 00000235,-0.00035492,-0.00000611,-0.00001132,0.00650790,-0.00000213,-0
 .00000999,0.00068940,-0.00035876,-0.00066344,-0.03117354,-0.00002780,-
 0.00003550,0.00069739,0.00000349,-0.00001743,0.00673528,0.00000085,-0.
 00000033,-0.00010390,-0.00000063,-0.00000216,0.00057208,0.00000215,0.0
 0001140,-0.00370650,0.00038483,0.00071705,0.02410694,-0.00113194,-0.00
 034334,-0.00000224,0.00150936,-0.00261959,-0.00000957,0.00075627,0.000
 00449,0.00000106,0.00041329,0.00344140,0.00000175,-0.01173744,-0.00272
 242,-0.00001731,-0.33834276,0.00082638,-0.00024280,-0.01192209,0.00226
 704,-0.00000646,0.00004013,0.00023636,0.00000094,-0.00008046,-0.000025
 53,0.00000073,-0.00073615,-0.00015305,-0.00000078,0.00089820,0.0002505
 7,0.00000502,0.35941613,-0.00183999,-0.00017260,-0.00000257,-0.0012683
 9,-0.00468360,-0.00002586,-0.00021189,-0.00116312,-0.00000200,0.002047
 46,-0.00492288,-0.00002466,0.02857176,0.00561669,0.00002737,0.00099527
 ,-0.06048129,-0.00005589,-0.02882603,0.00398006,-0.00002144,0.00000022
 ,0.00025858,0.00000103,-0.00000070,0.00021095,0.00000287,0.00159006,0.
 00012272,0.00000013,-0.00052462,0.00101655,0.00001133,-0.00091761,0.05
 909765,-0.00000760,-0.00000060,0.00011456,-0.00000305,-0.00003368,0.00
 743654,0.00000164,0.00000197,-0.00052807,-0.00000340,-0.00002411,0.006
 74170,0.00005715,-0.00000040,0.00262434,-0.00023944,-0.00005277,-0.035
 22950,-0.00008289,0.00000491,0.00204357,0.00000058,0.00000111,-0.00002
 978,0.00000058,0.00000294,-0.00096308,0.00000262,-0.00000057,0.0002643
 5,0.00000201,0.00001163,-0.00387675,0.00026669,0.00007859,0.02528316,0
 .00283749,0.00120682,0.00000802,-0.01101406,0.02985629,0.00005737,-0.0
 0598026,-0.00169459,-0.00001319,-0.00095017,-0.00121746,-0.00000337,-0
 .00097789,-0.00301805,-0.00001429,0.01246632,-0.01461207,-0.00002201,-
 0.13122438,0.11904615,0.00018069,-0.00117507,-0.00179115,-0.00000738,-
 0.00060048,0.00163732,0.00000376,0.00013312,0.00010571,0.00000117,0.00
 050053,-0.00082447,-0.00000230,0.00091746,0.00038447,0.00000512,0.1350
 6739,0.00013774,0.00411367,0.00001671,-0.00363151,-0.00175091,-0.00001
 267,-0.00032227,0.00178799,-0.00000690,-0.00075662,0.00011943,0.000000
 46,-0.00457526,-0.00250442,-0.00002459,0.01697678,-0.01990074,-0.00003
 190,0.11901355,-0.25928181,-0.00042373,0.00147331,0.00010970,-0.000000
 14,-0.00003408,0.00008729,-0.00000041,0.00014362,-0.00004328,0.0000020
 7,0.00089841,-0.00114742,-0.00000369,-0.00024469,0.00112029,0.00001098
 ,-0.12907897,0.27729023,0.00000180,0.00002184,-0.00362054,-0.00003189,
 0.00001817,0.00281495,-0.00000870,-0.00001183,0.00486760,-0.00000097,0
 .00000070,-0.00020565,-0.00001797,-0.00002274,0.00673177,0.00004786,-0
 .00006123,0.00075978,0.00019456,-0.00042198,-0.02967206,0.00000341,-0.
 00000626,0.00047553,-0.00000061,0.00000090,0.00025341,0.00000111,0.000
 00232,-0.00094951,0.00000201,-0.00000480,0.00064643,0.00000298,0.00001
 111,-0.00388103,-0.00019360,0.00047381,0.02177932\\-0.00012268,0.00014
 583,0.00006093,-0.00007758,-0.00012664,-0.00011486,-0.00014816,-0.0001
 6945,0.00001983,0.00026695,0.00006479,0.00004457,-0.00014903,0.0003286
 8,-0.00003678,-0.00005872,-0.00034150,0.00002739,0.00028812,0.00023069
 ,0.00002638,0.00010096,-0.00006532,-0.00000819,-0.00000642,0.00002724,
 -0.00001205,-0.00008478,0.00001565,-0.00000221,0.00000070,-0.00002406,
 -0.00000141,0.00003470,-0.00002262,0.00000131,-0.00004406,-0.00006329,
 -0.00000490\\\@


 TOWERING GENIUS DISDAINS A BEATEN PATH.  IT SEEKS 
 REGIONS HITHERTO UNEXPLORED.

                                -- ABRAHAM LINCOLN
 Job cpu time:       0 days  0 hours  4 minutes 20.5 seconds.
 Elapsed time:       0 days  0 hours  0 minutes 11.4 seconds.
 File lengths (MBytes):  RWF=     27 Int=      0 D2E=      0 Chk=      2 Scr=      1
 Normal termination of Gaussian 16 at Mon Oct 14 11:08:55 2019.
real 24.64
user 529.32
sys 6.41
Machine:
brown-a547
brown-a547
brown-a547
brown-a547
brown-a547
brown-a547
brown-a547
brown-a547
brown-a547
brown-a547
brown-a547
brown-a547
brown-a547
brown-a547
brown-a547
brown-a547
brown-a547
brown-a547
brown-a547
brown-a547
brown-a547
brown-a547
brown-a547
brown-a547
