 Entering Gaussian System, Link 0=/apps/cent7/gaussian/g16-A.03/g16-haswell/g16/g16
 Initial command:
 /apps/cent7/gaussian/g16-A.03/g16-haswell/g16/l1.exe "/scratch/brown/finej/gaussian/Gau-37632.inp" -scrdir="/scratch/brown/finej/gaussian/"
 Entering Link 1 = /apps/cent7/gaussian/g16-A.03/g16-haswell/g16/l1.exe PID=     37635.
  
 Copyright (c) 1988,1990,1992,1993,1995,1998,2003,2009,2016,
            Gaussian, Inc.  All Rights Reserved.
  
 This is part of the Gaussian(R) 16 program.  It is based on
 the Gaussian(R) 09 system (copyright 2009, Gaussian, Inc.),
 the Gaussian(R) 03 system (copyright 2003, Gaussian, Inc.),
 the Gaussian(R) 98 system (copyright 1998, Gaussian, Inc.),
 the Gaussian(R) 94 system (copyright 1995, Gaussian, Inc.),
 the Gaussian 92(TM) system (copyright 1992, Gaussian, Inc.),
 the Gaussian 90(TM) system (copyright 1990, Gaussian, Inc.),
 the Gaussian 88(TM) system (copyright 1988, Gaussian, Inc.),
 the Gaussian 86(TM) system (copyright 1986, Carnegie Mellon
 University), and the Gaussian 82(TM) system (copyright 1983,
 Carnegie Mellon University). Gaussian is a federally registered
 trademark of Gaussian, Inc.
  
 This software contains proprietary and confidential information,
 including trade secrets, belonging to Gaussian, Inc.
  
 This software is provided under written license and may be
 used, copied, transmitted, or stored only in accord with that
 written license.
  
 The following legend is applicable only to US Government
 contracts under FAR:
  
                    RESTRICTED RIGHTS LEGEND
  
 Use, reproduction and disclosure by the US Government is
 subject to restrictions as set forth in subparagraphs (a)
 and (c) of the Commercial Computer Software - Restricted
 Rights clause in FAR 52.227-19.
  
 Gaussian, Inc.
 340 Quinnipiac St., Bldg. 40, Wallingford CT 06492
  
  
 ---------------------------------------------------------------
 Warning -- This program may not be used in any manner that
 competes with the business of Gaussian, Inc. or will provide
 assistance to any competitor of Gaussian, Inc.  The licensee
 of this program is prohibited from giving any competitor of
 Gaussian, Inc. access to this program.  By using this program,
 the user acknowledges that Gaussian, Inc. is engaged in the
 business of creating and licensing software in the field of
 computational chemistry and represents and warrants to the
 licensee that it is not a competitor of Gaussian, Inc. and that
 it will not use this program in any manner prohibited above.
 ---------------------------------------------------------------
  

 Cite this work as:
 Gaussian 16, Revision A.03,
 M. J. Frisch, G. W. Trucks, H. B. Schlegel, G. E. Scuseria, 
 M. A. Robb, J. R. Cheeseman, G. Scalmani, V. Barone, 
 G. A. Petersson, H. Nakatsuji, X. Li, M. Caricato, A. V. Marenich, 
 J. Bloino, B. G. Janesko, R. Gomperts, B. Mennucci, H. P. Hratchian, 
 J. V. Ortiz, A. F. Izmaylov, J. L. Sonnenberg, D. Williams-Young, 
 F. Ding, F. Lipparini, F. Egidi, J. Goings, B. Peng, A. Petrone, 
 T. Henderson, D. Ranasinghe, V. G. Zakrzewski, J. Gao, N. Rega, 
 G. Zheng, W. Liang, M. Hada, M. Ehara, K. Toyota, R. Fukuda, 
 J. Hasegawa, M. Ishida, T. Nakajima, Y. Honda, O. Kitao, H. Nakai, 
 T. Vreven, K. Throssell, J. A. Montgomery, Jr., J. E. Peralta, 
 F. Ogliaro, M. J. Bearpark, J. J. Heyd, E. N. Brothers, K. N. Kudin, 
 V. N. Staroverov, T. A. Keith, R. Kobayashi, J. Normand, 
 K. Raghavachari, A. P. Rendell, J. C. Burant, S. S. Iyengar, 
 J. Tomasi, M. Cossi, J. M. Millam, M. Klene, C. Adamo, R. Cammi, 
 J. W. Ochterski, R. L. Martin, K. Morokuma, O. Farkas, 
 J. B. Foresman, and D. J. Fox, Gaussian, Inc., Wallingford CT, 2016.
 
 ******************************************
 Gaussian 16:  ES64L-G16RevA.03 25-Dec-2016
                14-Oct-2019 
 ******************************************
 %chk=21_p.chk
 %nprocshared=24
 Will use up to   24 processors via shared memory.
 %mem=80GB
 --------------------------------------------------------------
 #P opt freq b3lyp/6-31g(d) geom=connectivity temperature=0.001
 --------------------------------------------------------------
 1/18=20,19=15,26=3,38=1,57=2,112=-1000/1,3;
 2/9=110,12=2,17=6,18=5,40=1/2;
 3/5=1,6=6,7=1,11=2,25=1,30=1,71=1,74=-5/1,2,3;
 4//1;
 5/5=2,38=5/2;
 6/7=2,8=2,9=2,10=2,28=1/1;
 7//1,2,3,16;
 1/18=20,19=15,26=3/3(2);
 2/9=110/2;
 99//99;
 2/9=110/2;
 3/5=1,6=6,7=1,11=2,25=1,30=1,71=1,74=-5/1,2,3;
 4/5=5,16=3,69=1/1;
 5/5=2,38=5/2;
 7//1,2,3,16;
 1/18=20,19=15,26=3/3(-5);
 2/9=110/2;
 6/7=2,8=2,9=2,10=2,19=2,28=1/1;
 99/9=1/99;
 Leave Link    1 at Mon Oct 14 01:13:02 2019, MaxMem= 10737418240 cpu:               1.0 elap:               0.0
 (Enter /apps/cent7/gaussian/g16-A.03/g16-haswell/g16/l101.exe)
 -------------------
 Title Card Required
 -------------------
 Symbolic Z-matrix:
 Charge =  1 Multiplicity = 1
 O                    -0.6901   -1.1952   -0.0142 
 C                    -0.0122   -0.0211    0.0035 
 C                    -0.7133    1.2009    0.0038 
 C                    -0.0091    2.4215    0.0011 
 C                     1.3984    2.4222    0.0001 
 C                     2.1016    1.2028    0.0011 
 C                     1.3966   -0.0173    0.0038 
 H                    -0.4795   -1.69825   0.77586 
 H                    -1.8033    1.202     0.0062 
 H                    -0.5536    3.3658   -0.0002 
 H                     1.9434    3.3661   -0.0015 
 H                     3.1916    1.2035   -0.0002 
 H                     1.9426   -0.9607    0.0062 
 H                    -1.63356  -1.01962  -0.03974 
 
 ITRead=  0  0  0  0  0  0  0  0  0  0  0  0  0  0
 MicOpt= -1 -1 -1 -1 -1 -1 -1 -1 -1 -1 -1 -1 -1 -1
 NAtoms=     14 NQM=       14 NQMF=       0 NMMI=      0 NMMIF=      0
                NMic=       0 NMicF=      0.
                    Isotopes and Nuclear Properties:
 (Nuclear quadrupole moments (NQMom) in fm**2, nuclear magnetic moments (NMagM)
  in nuclear magnetons)

  Atom         1           2           3           4           5           6           7           8           9          10
 IAtWgt=          16          12          12          12          12          12          12           1           1           1
 AtmWgt=  15.9949146  12.0000000  12.0000000  12.0000000  12.0000000  12.0000000  12.0000000   1.0078250   1.0078250   1.0078250
 NucSpn=           0           0           0           0           0           0           0           1           1           1
 AtZEff=  -0.0000000  -0.0000000  -0.0000000  -0.0000000  -0.0000000  -0.0000000  -0.0000000  -0.0000000  -0.0000000  -0.0000000
 NQMom=    0.0000000   0.0000000   0.0000000   0.0000000   0.0000000   0.0000000   0.0000000   0.0000000   0.0000000   0.0000000
 NMagM=    0.0000000   0.0000000   0.0000000   0.0000000   0.0000000   0.0000000   0.0000000   2.7928460   2.7928460   2.7928460
 AtZNuc=   8.0000000   6.0000000   6.0000000   6.0000000   6.0000000   6.0000000   6.0000000   1.0000000   1.0000000   1.0000000

  Atom        11          12          13          14
 IAtWgt=           1           1           1           1
 AtmWgt=   1.0078250   1.0078250   1.0078250   1.0078250
 NucSpn=           1           1           1           1
 AtZEff=  -0.0000000  -0.0000000  -0.0000000  -0.0000000
 NQMom=    0.0000000   0.0000000   0.0000000   0.0000000
 NMagM=    2.7928460   2.7928460   2.7928460   2.7928460
 AtZNuc=   1.0000000   1.0000000   1.0000000   1.0000000
 Leave Link  101 at Mon Oct 14 01:13:02 2019, MaxMem= 10737418240 cpu:               8.7 elap:               0.4
 (Enter /apps/cent7/gaussian/g16-A.03/g16-haswell/g16/l103.exe)

 GradGradGradGradGradGradGradGradGradGradGradGradGradGradGradGradGradGrad
 Berny optimization.
 Initialization pass.
                           ----------------------------
                           !    Initial Parameters    !
                           ! (Angstroms and Degrees)  !
 --------------------------                            --------------------------
 ! Name  Definition              Value          Derivative Info.                !
 --------------------------------------------------------------------------------
 ! R1    R(1,2)                  1.3559         estimate D2E/DX2                !
 ! R2    R(1,8)                  0.96           estimate D2E/DX2                !
 ! R3    R(1,14)                 0.96           estimate D2E/DX2                !
 ! R4    R(2,3)                  1.4088         estimate D2E/DX2                !
 ! R5    R(2,7)                  1.4088         estimate D2E/DX2                !
 ! R6    R(3,4)                  1.4092         estimate D2E/DX2                !
 ! R7    R(3,9)                  1.09           estimate D2E/DX2                !
 ! R8    R(4,5)                  1.4075         estimate D2E/DX2                !
 ! R9    R(4,10)                 1.09           estimate D2E/DX2                !
 ! R10   R(5,6)                  1.4076         estimate D2E/DX2                !
 ! R11   R(5,11)                 1.0899         estimate D2E/DX2                !
 ! R12   R(6,7)                  1.4091         estimate D2E/DX2                !
 ! R13   R(6,12)                 1.09           estimate D2E/DX2                !
 ! R14   R(7,13)                 1.09           estimate D2E/DX2                !
 ! A1    A(2,1,8)              109.4712         estimate D2E/DX2                !
 ! A2    A(2,1,14)             109.4712         estimate D2E/DX2                !
 ! A3    A(8,1,14)             109.4712         estimate D2E/DX2                !
 ! A4    A(1,2,3)              120.1519         estimate D2E/DX2                !
 ! A5    A(1,2,7)              120.1531         estimate D2E/DX2                !
 ! A6    A(3,2,7)              119.6897         estimate D2E/DX2                !
 ! A7    A(2,3,4)              120.1737         estimate D2E/DX2                !
 ! A8    A(2,3,9)              119.902          estimate D2E/DX2                !
 ! A9    A(4,3,9)              119.9242         estimate D2E/DX2                !
 ! A10   A(3,4,5)              120.0104         estimate D2E/DX2                !
 ! A11   A(3,4,10)             120.0497         estimate D2E/DX2                !
 ! A12   A(5,4,10)             119.9399         estimate D2E/DX2                !
 ! A13   A(4,5,6)              119.9425         estimate D2E/DX2                !
 ! A14   A(4,5,11)             120.0303         estimate D2E/DX2                !
 ! A15   A(6,5,11)             120.0272         estimate D2E/DX2                !
 ! A16   A(5,6,7)              120.0087         estimate D2E/DX2                !
 ! A17   A(5,6,12)             119.9342         estimate D2E/DX2                !
 ! A18   A(7,6,12)             120.0571         estimate D2E/DX2                !
 ! A19   A(2,7,6)              120.1747         estimate D2E/DX2                !
 ! A20   A(2,7,13)             119.9058         estimate D2E/DX2                !
 ! A21   A(6,7,13)             119.9195         estimate D2E/DX2                !
 ! D1    D(8,1,2,3)           -119.0679         estimate D2E/DX2                !
 ! D2    D(8,1,2,7)             61.773          estimate D2E/DX2                !
 ! D3    D(14,1,2,3)             0.9321         estimate D2E/DX2                !
 ! D4    D(14,1,2,7)          -178.227          estimate D2E/DX2                !
 ! D5    D(1,2,3,4)           -179.008          estimate D2E/DX2                !
 ! D6    D(1,2,3,9)              0.9965         estimate D2E/DX2                !
 ! D7    D(7,2,3,4)              0.1551         estimate D2E/DX2                !
 ! D8    D(7,2,3,9)           -179.8405         estimate D2E/DX2                !
 ! D9    D(1,2,7,6)            179.008          estimate D2E/DX2                !
 ! D10   D(1,2,7,13)            -0.9965         estimate D2E/DX2                !
 ! D11   D(3,2,7,6)             -0.1551         estimate D2E/DX2                !
 ! D12   D(3,2,7,13)           179.8405         estimate D2E/DX2                !
 ! D13   D(2,3,4,5)             -0.0943         estimate D2E/DX2                !
 ! D14   D(2,3,4,10)           179.9066         estimate D2E/DX2                !
 ! D15   D(9,3,4,5)            179.9012         estimate D2E/DX2                !
 ! D16   D(9,3,4,10)            -0.0978         estimate D2E/DX2                !
 ! D17   D(3,4,5,6)              0.0328         estimate D2E/DX2                !
 ! D18   D(3,4,5,11)          -179.9704         estimate D2E/DX2                !
 ! D19   D(10,4,5,6)          -179.9681         estimate D2E/DX2                !
 ! D20   D(10,4,5,11)            0.0287         estimate D2E/DX2                !
 ! D21   D(4,5,6,7)             -0.0328         estimate D2E/DX2                !
 ! D22   D(4,5,6,12)           179.9681         estimate D2E/DX2                !
 ! D23   D(11,5,6,7)           179.9704         estimate D2E/DX2                !
 ! D24   D(11,5,6,12)           -0.0287         estimate D2E/DX2                !
 ! D25   D(5,6,7,2)              0.0943         estimate D2E/DX2                !
 ! D26   D(5,6,7,13)          -179.9012         estimate D2E/DX2                !
 ! D27   D(12,6,7,2)          -179.9066         estimate D2E/DX2                !
 ! D28   D(12,6,7,13)            0.0978         estimate D2E/DX2                !
 --------------------------------------------------------------------------------
 Trust Radius=3.00D-01 FncErr=1.00D-07 GrdErr=1.00D-06 EigMax=2.50D+02 EigMin=1.00D-04
 Number of steps in this run=     73 maximum allowed number of steps=    100.
 GradGradGradGradGradGradGradGradGradGradGradGradGradGradGradGradGradGrad

 Leave Link  103 at Mon Oct 14 01:13:02 2019, MaxMem= 10737418240 cpu:               0.5 elap:               0.0
 (Enter /apps/cent7/gaussian/g16-A.03/g16-haswell/g16/l202.exe)
                          Input orientation:                          
 ---------------------------------------------------------------------
 Center     Atomic      Atomic             Coordinates (Angstroms)
 Number     Number       Type             X           Y           Z
 ---------------------------------------------------------------------
      1          8           0       -0.690100   -1.195200   -0.014200
      2          6           0       -0.012200   -0.021100    0.003500
      3          6           0       -0.713300    1.200900    0.003800
      4          6           0       -0.009100    2.421500    0.001100
      5          6           0        1.398400    2.422200    0.000100
      6          6           0        2.101600    1.202800    0.001100
      7          6           0        1.396600   -0.017300    0.003800
      8          1           0       -0.479495   -1.698249    0.775855
      9          1           0       -1.803300    1.202000    0.006200
     10          1           0       -0.553600    3.365800   -0.000200
     11          1           0        1.943400    3.366100   -0.001500
     12          1           0        3.191600    1.203500   -0.000200
     13          1           0        1.942600   -0.960700    0.006200
     14          1           0       -1.633562   -1.019621   -0.039740
 ---------------------------------------------------------------------
                    Distance matrix (angstroms):
                    1          2          3          4          5
     1  O    0.000000
     2  C    1.355866   0.000000
     3  C    2.396280   1.408838   0.000000
     4  C    3.680287   2.442603   1.409173   0.000000
     5  C    4.177035   2.821262   2.439439   1.407501   0.000000
     6  C    3.680248   2.442558   2.814902   2.437270   1.407632
     7  C    2.396266   1.408805   2.436327   2.814915   2.439503
     8  H    0.960000   1.904659   3.009286   4.218276   4.594169
     9  H    2.643142   2.168875   1.090003   2.169415   3.426340
    10  H    4.563064   3.429901   2.170786   1.090039   2.168106
    11  H    5.266967   3.911204   3.427269   2.168993   1.089943
    12  H    4.563064   3.429868   3.904903   3.424618   2.168132
    13  H    2.643202   2.168893   3.424372   3.904925   3.426398
    14  H    0.960000   1.904659   2.404057   3.805503   4.586993
                    6          7          8          9         10
     6  C    0.000000
     7  C    1.409140   0.000000
     8  H    3.959594   2.634652   0.000000
     9  H    3.904903   3.424333   3.279676   0.000000
    10  H    3.424713   3.904953   5.123704   2.498764   0.000000
    11  H    2.169078   3.427304   5.667657   4.326794   2.497000
    12  H    1.090001   2.170805   4.743348   4.994904   4.324588
    13  H    2.169341   1.090012   2.646298   4.325395   4.994963
    14  H    4.346522   3.191931   1.567673   2.228569   4.516613
                   11         12         13         14
    11  H    0.000000
    12  H    2.496967   0.000000
    13  H    4.326807   2.498760   0.000000
    14  H    5.659564   5.312816   3.576942   0.000000
 Stoichiometry    C6H7O(1+)
 Framework group  C1[X(C6H7O)]
 Deg. of freedom    36
 Full point group                 C1      NOp   1
 Largest Abelian subgroup         C1      NOp   1
 Largest concise Abelian subgroup C1      NOp   1
                         Standard orientation:                         
 ---------------------------------------------------------------------
 Center     Atomic      Atomic             Coordinates (Angstroms)
 Number     Number       Type             X           Y           Z
 ---------------------------------------------------------------------
      1          8           0       -2.259928   -0.053906   -0.061373
      2          6           0       -0.904847   -0.027143   -0.023817
      3          6           0       -0.221658    1.204806   -0.004323
      4          6           0        1.187114    1.233258    0.013621
      5          6           0        1.915603    0.028948    0.014108
      6          6           0        1.235706   -1.203463   -0.004041
      7          6           0       -0.173051   -1.230972   -0.021978
      8          1           0       -2.592970   -0.500237    0.720594
      9          1           0       -0.784435    2.138288   -0.003048
     10          1           0        1.713660    2.187590    0.027151
     11          1           0        3.005236    0.050573    0.028473
     12          1           0        1.800007   -2.136023   -0.004187
     13          1           0       -0.698068   -2.186131   -0.034391
     14          1           0       -2.597203    0.844584   -0.085034
 ---------------------------------------------------------------------
 Rotational constants (GHZ):           5.5110017           2.4974191           1.7255848
 Leave Link  202 at Mon Oct 14 01:13:02 2019, MaxMem= 10737418240 cpu:               0.4 elap:               0.0
 (Enter /apps/cent7/gaussian/g16-A.03/g16-haswell/g16/l301.exe)
 Standard basis: 6-31G(d) (6D, 7F)
 Ernie: Thresh=  0.10000D-02 Tol=  0.10000D-05 Strict=F.
 There are   119 symmetry adapted cartesian basis functions of A   symmetry.
 There are   119 symmetry adapted basis functions of A   symmetry.
   119 basis functions,   224 primitive gaussians,   119 cartesian basis functions
    25 alpha electrons       25 beta electrons
       nuclear repulsion energy       280.9871475273 Hartrees.
 IExCor=  402 DFT=T Ex+Corr=B3LYP ExCW=0 ScaHFX=  0.200000
 ScaDFX=  0.800000  0.720000  1.000000  0.810000 ScalE2=  1.000000  1.000000
 IRadAn=      5 IRanWt=     -1 IRanGd=            0 ICorTp=0 IEmpDi=  4
 NAtoms=   14 NActive=   14 NUniq=   14 SFac= 1.00D+00 NAtFMM=   60 NAOKFM=F Big=F
 Integral buffers will be    131072 words long.
 Raffenetti 2 integral format.
 Two-electron integral symmetry is turned on.
 Leave Link  301 at Mon Oct 14 01:13:02 2019, MaxMem= 10737418240 cpu:               1.6 elap:               0.1
 (Enter /apps/cent7/gaussian/g16-A.03/g16-haswell/g16/l302.exe)
 NPDir=0 NMtPBC=     1 NCelOv=     1 NCel=       1 NClECP=     1 NCelD=      1
         NCelK=      1 NCelE2=     1 NClLst=     1 CellRange=     0.0.
 One-electron integrals computed using PRISM.
 One-electron integral symmetry used in STVInt
 NBasis=   119 RedAO= T EigKep=  5.13D-04  NBF=   119
 NBsUse=   119 1.00D-06 EigRej= -1.00D+00 NBFU=   119
 Precomputing XC quadrature grid using
 IXCGrd= 4 IRadAn=           5 IRanWt=          -1 IRanGd=           0 AccXCQ= 0.00D+00.
 Generated NRdTot=       0 NPtTot=           0 NUsed=           0 NTot=          32
 NSgBfM=   119   119   119   119   119 MxSgAt=    14 MxSgA2=    14.
 Leave Link  302 at Mon Oct 14 01:13:02 2019, MaxMem= 10737418240 cpu:               3.3 elap:               0.2
 (Enter /apps/cent7/gaussian/g16-A.03/g16-haswell/g16/l303.exe)
 DipDrv:  MaxL=1.
 Leave Link  303 at Mon Oct 14 01:13:02 2019, MaxMem= 10737418240 cpu:               0.7 elap:               0.1
 (Enter /apps/cent7/gaussian/g16-A.03/g16-haswell/g16/l401.exe)
 ExpMin= 1.61D-01 ExpMax= 5.48D+03 ExpMxC= 8.25D+02 IAcc=3 IRadAn=         5 AccDes= 0.00D+00
 Harris functional with IExCor=  402 and IRadAn=       5 diagonalized for initial guess.
 HarFok:  IExCor=  402 AccDes= 0.00D+00 IRadAn=         5 IDoV= 1 UseB2=F ITyADJ=14
 ICtDFT=  3500011 ScaDFX=  1.000000  1.000000  1.000000  1.000000
 FoFCou: FMM=F IPFlag=           0 FMFlag=      100000 FMFlg1=           0
         NFxFlg=           0 DoJE=T BraDBF=F KetDBF=T FulRan=T
         wScrn=  0.000000 ICntrl=       500 IOpCl=  0 I1Cent=   200000004 NGrid=           0
         NMat0=    1 NMatS0=      1 NMatT0=    0 NMatD0=    1 NMtDS0=    0 NMtDT0=    0
 Petite list used in FoFCou.
 Harris En= -307.823823237800    
 JPrj=0 DoOrth=F DoCkMO=F.
 Leave Link  401 at Mon Oct 14 01:13:03 2019, MaxMem= 10737418240 cpu:               6.1 elap:               0.3
 (Enter /apps/cent7/gaussian/g16-A.03/g16-haswell/g16/l502.exe)
 Integral symmetry usage will be decided dynamically.
 Closed shell SCF:
 Using DIIS extrapolation, IDIIS=  1040.
 NGot= 10737418240 LenX= 10737385609 LenY= 10737371007
 Requested convergence on RMS density matrix=1.00D-08 within 128 cycles.
 Requested convergence on MAX density matrix=1.00D-06.
 Requested convergence on             energy=1.00D-06.
 No special actions if energy rises.
 Fock matrices will be formed incrementally for  20 cycles.
 Integral accuracy reduced to 1.0D-05 until final iterations.

 Cycle   1  Pass 0  IDiag  1:
 FoFJK:  IHMeth= 1 ICntrl=       0 DoSepK=F KAlg= 0 I1Cent=           0 FoldK=F
 IRaf= 980000000 NMat=       1 IRICut=       1 DoRegI=T DoRafI=F ISym2E= 0 IDoP0=0 IntGTp=1.
 FoFCou: FMM=F IPFlag=           0 FMFlag=      100000 FMFlg1=           0
         NFxFlg=           0 DoJE=F BraDBF=F KetDBF=F FulRan=T
         wScrn=  0.000000 ICntrl=         0 IOpCl=  0 I1Cent=           0 NGrid=           0
         NMat0=    1 NMatS0=      1 NMatT0=    0 NMatD0=    1 NMtDS0=    0 NMtDT0=    0
 Symmetry not used in FoFCou.
 E= -307.574270806692    
 DIIS: error= 4.37D-02 at cycle   1 NSaved=   1.
 NSaved= 1 IEnMin= 1 EnMin= -307.574270806692     IErMin= 1 ErrMin= 4.37D-02
 ErrMax= 4.37D-02  0.00D+00 EMaxC= 1.00D-01 BMatC= 1.46D-01 BMatP= 1.46D-01
 IDIUse=3 WtCom= 5.63D-01 WtEn= 4.37D-01
 Coeff-Com:  0.100D+01
 Coeff-En:   0.100D+01
 Coeff:      0.100D+01
 Gap=     0.287 Goal=   None    Shift=    0.000
 GapD=    0.287 DampG=1.000 DampE=0.500 DampFc=0.5000 IDamp=-1.
 Damping current iteration by 5.00D-01
 RMSDP=8.83D-03 MaxDP=1.25D-01              OVMax= 2.88D-01

 Cycle   2  Pass 0  IDiag  1:
 RMSU=  4.35D-03    CP:  9.76D-01
 E= -307.635672622273     Delta-E=       -0.061401815581 Rises=F Damp=T
 DIIS: error= 8.40D-03 at cycle   2 NSaved=   2.
 NSaved= 2 IEnMin= 2 EnMin= -307.635672622273     IErMin= 2 ErrMin= 8.40D-03
 ErrMax= 8.40D-03  0.00D+00 EMaxC= 1.00D-01 BMatC= 1.78D-02 BMatP= 1.46D-01
 IDIUse=3 WtCom= 9.16D-01 WtEn= 8.40D-02
 Coeff-Com:  0.132D+00 0.868D+00
 Coeff-En:   0.239D+00 0.761D+00
 Coeff:      0.141D+00 0.859D+00
 Gap=     0.234 Goal=   None    Shift=    0.000
 RMSDP=2.44D-03 MaxDP=5.66D-02 DE=-6.14D-02 OVMax= 2.45D-01

 Cycle   3  Pass 0  IDiag  1:
 RMSU=  2.25D-03    CP:  9.67D-01  7.90D-01
 E= -307.728090502701     Delta-E=       -0.092417880428 Rises=F Damp=F
 DIIS: error= 1.06D-02 at cycle   3 NSaved=   3.
 NSaved= 3 IEnMin= 3 EnMin= -307.728090502701     IErMin= 2 ErrMin= 8.40D-03
 ErrMax= 1.06D-02  0.00D+00 EMaxC= 1.00D-01 BMatC= 1.46D-02 BMatP= 1.78D-02
 IDIUse=3 WtCom= 8.94D-01 WtEn= 1.06D-01
 Coeff-Com:  0.663D-02 0.471D+00 0.523D+00
 Coeff-En:   0.000D+00 0.000D+00 0.100D+01
 Coeff:      0.593D-02 0.421D+00 0.574D+00
 Gap=     0.219 Goal=   None    Shift=    0.000
 RMSDP=1.40D-03 MaxDP=3.88D-02 DE=-9.24D-02 OVMax= 7.60D-02

 Cycle   4  Pass 0  IDiag  1:
 RMSU=  1.02D-03    CP:  9.70D-01  9.08D-01  6.39D-01
 E= -307.740236169897     Delta-E=       -0.012145667196 Rises=F Damp=F
 DIIS: error= 5.42D-03 at cycle   4 NSaved=   4.
 NSaved= 4 IEnMin= 4 EnMin= -307.740236169897     IErMin= 4 ErrMin= 5.42D-03
 ErrMax= 5.42D-03  0.00D+00 EMaxC= 1.00D-01 BMatC= 3.25D-03 BMatP= 1.46D-02
 IDIUse=3 WtCom= 9.46D-01 WtEn= 5.42D-02
 Coeff-Com: -0.887D-02 0.817D-01 0.338D+00 0.589D+00
 Coeff-En:   0.000D+00 0.000D+00 0.223D+00 0.777D+00
 Coeff:     -0.839D-02 0.773D-01 0.332D+00 0.600D+00
 Gap=     0.223 Goal=   None    Shift=    0.000
 RMSDP=5.75D-04 MaxDP=8.90D-03 DE=-1.21D-02 OVMax= 3.01D-02

 Cycle   5  Pass 0  IDiag  1:
 RMSU=  2.12D-04    CP:  9.69D-01  8.62D-01  7.72D-01  6.12D-01
 E= -307.743790614550     Delta-E=       -0.003554444653 Rises=F Damp=F
 DIIS: error= 8.06D-04 at cycle   5 NSaved=   5.
 NSaved= 5 IEnMin= 5 EnMin= -307.743790614550     IErMin= 5 ErrMin= 8.06D-04
 ErrMax= 8.06D-04  0.00D+00 EMaxC= 1.00D-01 BMatC= 1.18D-04 BMatP= 3.25D-03
 IDIUse=3 WtCom= 9.92D-01 WtEn= 8.06D-03
 Coeff-Com: -0.505D-02 0.133D-01 0.132D+00 0.303D+00 0.557D+00
 Coeff-En:   0.000D+00 0.000D+00 0.000D+00 0.000D+00 0.100D+01
 Coeff:     -0.501D-02 0.132D-01 0.131D+00 0.301D+00 0.560D+00
 Gap=     0.220 Goal=   None    Shift=    0.000
 RMSDP=1.03D-04 MaxDP=2.22D-03 DE=-3.55D-03 OVMax= 5.45D-03

 Cycle   6  Pass 0  IDiag  1:
 RMSU=  7.45D-05    CP:  9.69D-01  8.67D-01  7.63D-01  6.54D-01  7.77D-01
 E= -307.743903749271     Delta-E=       -0.000113134721 Rises=F Damp=F
 DIIS: error= 2.12D-04 at cycle   6 NSaved=   6.
 NSaved= 6 IEnMin= 6 EnMin= -307.743903749271     IErMin= 6 ErrMin= 2.12D-04
 ErrMax= 2.12D-04  0.00D+00 EMaxC= 1.00D-01 BMatC= 1.14D-05 BMatP= 1.18D-04
 IDIUse=3 WtCom= 9.98D-01 WtEn= 2.12D-03
 Coeff-Com: -0.151D-02-0.517D-03 0.326D-01 0.946D-01 0.295D+00 0.580D+00
 Coeff-En:   0.000D+00 0.000D+00 0.000D+00 0.000D+00 0.000D+00 0.100D+01
 Coeff:     -0.151D-02-0.516D-03 0.325D-01 0.944D-01 0.294D+00 0.581D+00
 Gap=     0.219 Goal=   None    Shift=    0.000
 RMSDP=2.68D-05 MaxDP=5.43D-04 DE=-1.13D-04 OVMax= 1.07D-03

 Cycle   7  Pass 0  IDiag  1:
 RMSU=  1.13D-05    CP:  9.69D-01  8.68D-01  7.65D-01  6.58D-01  7.83D-01
                    CP:  6.86D-01
 E= -307.743914180241     Delta-E=       -0.000010430970 Rises=F Damp=F
 DIIS: error= 1.86D-05 at cycle   7 NSaved=   7.
 NSaved= 7 IEnMin= 7 EnMin= -307.743914180241     IErMin= 7 ErrMin= 1.86D-05
 ErrMax= 1.86D-05  0.00D+00 EMaxC= 1.00D-01 BMatC= 1.10D-07 BMatP= 1.14D-05
 IDIUse=1 WtCom= 1.00D+00 WtEn= 0.00D+00
 Coeff-Com:  0.332D-04-0.907D-03 0.183D-02 0.709D-02 0.328D-01 0.121D+00
 Coeff-Com:  0.838D+00
 Coeff:      0.332D-04-0.907D-03 0.183D-02 0.709D-02 0.328D-01 0.121D+00
 Coeff:      0.838D+00
 Gap=     0.219 Goal=   None    Shift=    0.000
 RMSDP=3.68D-06 MaxDP=7.34D-05 DE=-1.04D-05 OVMax= 1.68D-04

 Initial convergence to 1.0D-05 achieved.  Increase integral accuracy.
 Cycle   8  Pass 1  IDiag  1:
 E= -307.743903261098     Delta-E=        0.000010919144 Rises=F Damp=F
 DIIS: error= 1.68D-05 at cycle   1 NSaved=   1.
 NSaved= 1 IEnMin= 1 EnMin= -307.743903261098     IErMin= 1 ErrMin= 1.68D-05
 ErrMax= 1.68D-05  0.00D+00 EMaxC= 1.00D-01 BMatC= 4.78D-08 BMatP= 4.78D-08
 IDIUse=1 WtCom= 1.00D+00 WtEn= 0.00D+00
 Coeff-Com:  0.100D+01
 Coeff:      0.100D+01
 Gap=     0.219 Goal=   None    Shift=    0.000
 RMSDP=3.68D-06 MaxDP=7.34D-05 DE= 1.09D-05 OVMax= 2.45D-04

 Cycle   9  Pass 1  IDiag  1:
 RMSU=  5.24D-06    CP:  1.00D+00
 E= -307.743903174497     Delta-E=        0.000000086601 Rises=F Damp=F
 DIIS: error= 3.41D-05 at cycle   2 NSaved=   2.
 NSaved= 2 IEnMin= 1 EnMin= -307.743903261098     IErMin= 1 ErrMin= 1.68D-05
 ErrMax= 3.41D-05  0.00D+00 EMaxC= 1.00D-01 BMatC= 1.25D-07 BMatP= 4.78D-08
 IDIUse=1 WtCom= 1.00D+00 WtEn= 0.00D+00
 Coeff-Com:  0.621D+00 0.379D+00
 Coeff:      0.621D+00 0.379D+00
 Gap=     0.219 Goal=   None    Shift=    0.000
 RMSDP=3.06D-06 MaxDP=6.02D-05 DE= 8.66D-08 OVMax= 1.80D-04

 Cycle  10  Pass 1  IDiag  1:
 RMSU=  1.51D-06    CP:  1.00D+00  4.91D-01
 E= -307.743903306808     Delta-E=       -0.000000132311 Rises=F Damp=F
 DIIS: error= 4.44D-06 at cycle   3 NSaved=   3.
 NSaved= 3 IEnMin= 3 EnMin= -307.743903306808     IErMin= 3 ErrMin= 4.44D-06
 ErrMax= 4.44D-06  0.00D+00 EMaxC= 1.00D-01 BMatC= 2.01D-09 BMatP= 4.78D-08
 IDIUse=1 WtCom= 1.00D+00 WtEn= 0.00D+00
 Coeff-Com:  0.292D+00 0.200D+00 0.508D+00
 Coeff:      0.292D+00 0.200D+00 0.508D+00
 Gap=     0.219 Goal=   None    Shift=    0.000
 RMSDP=4.58D-07 MaxDP=1.12D-05 DE=-1.32D-07 OVMax= 2.70D-05

 Cycle  11  Pass 1  IDiag  1:
 RMSU=  3.36D-07    CP:  1.00D+00  5.30D-01  8.45D-01
 E= -307.743903308801     Delta-E=       -0.000000001993 Rises=F Damp=F
 DIIS: error= 9.24D-07 at cycle   4 NSaved=   4.
 NSaved= 4 IEnMin= 4 EnMin= -307.743903308801     IErMin= 4 ErrMin= 9.24D-07
 ErrMax= 9.24D-07  0.00D+00 EMaxC= 1.00D-01 BMatC= 1.97D-10 BMatP= 2.01D-09
 IDIUse=1 WtCom= 1.00D+00 WtEn= 0.00D+00
 Coeff-Com:  0.177D-02 0.138D-01 0.249D+00 0.736D+00
 Coeff:      0.177D-02 0.138D-01 0.249D+00 0.736D+00
 Gap=     0.219 Goal=   None    Shift=    0.000
 RMSDP=1.12D-07 MaxDP=2.96D-06 DE=-1.99D-09 OVMax= 5.79D-06

 Cycle  12  Pass 1  IDiag  1:
 RMSU=  5.94D-08    CP:  1.00D+00  5.27D-01  8.85D-01  7.88D-01
 E= -307.743903308981     Delta-E=       -0.000000000180 Rises=F Damp=F
 DIIS: error= 1.83D-07 at cycle   5 NSaved=   5.
 NSaved= 5 IEnMin= 5 EnMin= -307.743903308981     IErMin= 5 ErrMin= 1.83D-07
 ErrMax= 1.83D-07  0.00D+00 EMaxC= 1.00D-01 BMatC= 5.73D-12 BMatP= 1.97D-10
 IDIUse=1 WtCom= 1.00D+00 WtEn= 0.00D+00
 Coeff-Com: -0.603D-02 0.194D-02 0.962D-01 0.314D+00 0.594D+00
 Coeff:     -0.603D-02 0.194D-02 0.962D-01 0.314D+00 0.594D+00
 Gap=     0.219 Goal=   None    Shift=    0.000
 RMSDP=2.66D-08 MaxDP=7.98D-07 DE=-1.80D-10 OVMax= 1.20D-06

 Cycle  13  Pass 1  IDiag  1:
 RMSU=  1.84D-08    CP:  1.00D+00  5.28D-01  8.87D-01  7.95D-01  7.17D-01
 E= -307.743903308988     Delta-E=       -0.000000000007 Rises=F Damp=F
 DIIS: error= 4.89D-08 at cycle   6 NSaved=   6.
 NSaved= 6 IEnMin= 6 EnMin= -307.743903308988     IErMin= 6 ErrMin= 4.89D-08
 ErrMax= 4.89D-08  0.00D+00 EMaxC= 1.00D-01 BMatC= 7.46D-13 BMatP= 5.73D-12
 IDIUse=1 WtCom= 1.00D+00 WtEn= 0.00D+00
 Coeff-Com: -0.311D-02-0.360D-04 0.244D-01 0.822D-01 0.302D+00 0.595D+00
 Coeff:     -0.311D-02-0.360D-04 0.244D-01 0.822D-01 0.302D+00 0.595D+00
 Gap=     0.219 Goal=   None    Shift=    0.000
 RMSDP=7.46D-09 MaxDP=1.74D-07 DE=-6.82D-12 OVMax= 2.98D-07

 SCF Done:  E(RB3LYP) =  -307.743903309     A.U. after   13 cycles
            NFock= 13  Conv=0.75D-08     -V/T= 2.0096
 KE= 3.048298336427D+02 PE=-1.266714218889D+03 EE= 3.731533344100D+02
 Leave Link  502 at Mon Oct 14 01:13:05 2019, MaxMem= 10737418240 cpu:              41.0 elap:               1.8
 (Enter /apps/cent7/gaussian/g16-A.03/g16-haswell/g16/l601.exe)
 Copying SCF densities to generalized density rwf, IOpCl= 0 IROHF=0.

 **********************************************************************

            Population analysis using the SCF density.

 **********************************************************************

 Orbital symmetries:
       Occupied  (A) (A) (A) (A) (A) (A) (A) (A) (A) (A) (A) (A)
                 (A) (A) (A) (A) (A) (A) (A) (A) (A) (A) (A) (A)
                 (A)
       Virtual   (A) (A) (A) (A) (A) (A) (A) (A) (A) (A) (A) (A)
                 (A) (A) (A) (A) (A) (A) (A) (A) (A) (A) (A) (A)
                 (A) (A) (A) (A) (A) (A) (A) (A) (A) (A) (A) (A)
                 (A) (A) (A) (A) (A) (A) (A) (A) (A) (A) (A) (A)
                 (A) (A) (A) (A) (A) (A) (A) (A) (A) (A) (A) (A)
                 (A) (A) (A) (A) (A) (A) (A) (A) (A) (A) (A) (A)
                 (A) (A) (A) (A) (A) (A) (A) (A) (A) (A) (A) (A)
                 (A) (A) (A) (A) (A) (A) (A) (A) (A) (A)
 The electronic state is 1-A.
 Alpha  occ. eigenvalues --  -19.54490 -10.45578 -10.38417 -10.37966 -10.36477
 Alpha  occ. eigenvalues --  -10.36363 -10.35746  -1.44122  -1.03586  -0.95538
 Alpha  occ. eigenvalues --   -0.94205  -0.90284  -0.85675  -0.78394  -0.74296
 Alpha  occ. eigenvalues --   -0.72178  -0.67005  -0.61832  -0.61016  -0.59416
 Alpha  occ. eigenvalues --   -0.53498  -0.53248  -0.51833  -0.42516  -0.42203
 Alpha virt. eigenvalues --   -0.20274  -0.18058  -0.17604  -0.13199  -0.07445
 Alpha virt. eigenvalues --   -0.01886  -0.00892  -0.00088   0.02773   0.03042
 Alpha virt. eigenvalues --    0.04568   0.11371   0.13485   0.14876   0.16236
 Alpha virt. eigenvalues --    0.30389   0.32318   0.34821   0.37022   0.37677
 Alpha virt. eigenvalues --    0.39188   0.42271   0.42568   0.42941   0.43319
 Alpha virt. eigenvalues --    0.45480   0.45603   0.49211   0.49487   0.53486
 Alpha virt. eigenvalues --    0.56361   0.58592   0.63924   0.66672   0.67883
 Alpha virt. eigenvalues --    0.69299   0.70334   0.70918   0.76633   0.78007
 Alpha virt. eigenvalues --    0.79009   0.80229   0.82605   0.90228   0.93702
 Alpha virt. eigenvalues --    0.96945   1.00456   1.01479   1.06203   1.13587
 Alpha virt. eigenvalues --    1.18486   1.25945   1.26413   1.28886   1.32010
 Alpha virt. eigenvalues --    1.33536   1.43038   1.54617   1.55520   1.62382
 Alpha virt. eigenvalues --    1.67098   1.70881   1.72223   1.77948   1.78909
 Alpha virt. eigenvalues --    1.86668   1.89353   1.91367   1.93162   1.96803
 Alpha virt. eigenvalues --    2.03146   2.05406   2.11397   2.11594   2.23034
 Alpha virt. eigenvalues --    2.27807   2.33310   2.38238   2.44466   2.46864
 Alpha virt. eigenvalues --    2.52788   2.53155   2.54133   2.61920   2.70612
 Alpha virt. eigenvalues --    2.88475   3.19641   3.64266   3.89490   3.93291
 Alpha virt. eigenvalues --    3.98094   4.14794   4.21151   4.52745
          Condensed to atoms (all electrons):
               1          2          3          4          5          6
     1  O    8.015981   0.121904  -0.044869   0.002723   0.000230   0.002206
     2  C    0.121904   4.852158   0.520994  -0.022193  -0.038873  -0.019449
     3  C   -0.044869   0.520994   4.937700   0.545580  -0.038927  -0.036978
     4  C    0.002723  -0.022193   0.545580   4.797125   0.543223  -0.025674
     5  C    0.000230  -0.038873  -0.038927   0.543223   4.835799   0.537209
     6  C    0.002206  -0.019449  -0.036978  -0.025674   0.537209   4.806540
     7  C   -0.036241   0.524054  -0.050871  -0.036032  -0.036657   0.544412
     8  H    0.253572  -0.015760   0.001444  -0.000079   0.000041  -0.000049
     9  H   -0.004262  -0.058116   0.348574  -0.016559   0.004029   0.000300
    10  H   -0.000050   0.003533  -0.034105   0.363858  -0.032690   0.003849
    11  H    0.000002   0.000692   0.004477  -0.035498   0.364123  -0.035344
    12  H   -0.000047   0.003784   0.000576   0.003888  -0.033631   0.364656
    13  H   -0.003215  -0.054190   0.004137   0.000242   0.004176  -0.022164
    14  H    0.251544  -0.019562   0.004967  -0.000016   0.000034  -0.000083
               7          8          9         10         11         12
     1  O   -0.036241   0.253572  -0.004262  -0.000050   0.000002  -0.000047
     2  C    0.524054  -0.015760  -0.058116   0.003533   0.000692   0.003784
     3  C   -0.050871   0.001444   0.348574  -0.034105   0.004477   0.000576
     4  C   -0.036032  -0.000079  -0.016559   0.363858  -0.035498   0.003888
     5  C   -0.036657   0.000041   0.004029  -0.032690   0.364123  -0.033631
     6  C    0.544412  -0.000049   0.000300   0.003849  -0.035344   0.364656
     7  C    4.895465  -0.001442   0.003870   0.000575   0.004302  -0.034259
     8  H   -0.001442   0.249270  -0.000138   0.000004  -0.000001  -0.000003
     9  H    0.003870  -0.000138   0.541253  -0.004676  -0.000127   0.000009
    10  H    0.000575   0.000004  -0.004676   0.500826  -0.004003  -0.000135
    11  H    0.004302  -0.000001  -0.000127  -0.004003   0.504612  -0.003921
    12  H   -0.034259  -0.000003   0.000009  -0.000135  -0.003921   0.500029
    13  H    0.357741   0.002228  -0.000131   0.000009  -0.000123  -0.004788
    14  H    0.003672  -0.010487   0.010261  -0.000019  -0.000001   0.000004
              13         14
     1  O   -0.003215   0.251544
     2  C   -0.054190  -0.019562
     3  C    0.004137   0.004967
     4  C    0.000242  -0.000016
     5  C    0.004176   0.000034
     6  C   -0.022164  -0.000083
     7  C    0.357741   0.003672
     8  H    0.002228  -0.010487
     9  H   -0.000131   0.010261
    10  H    0.000009  -0.000019
    11  H   -0.000123  -0.000001
    12  H   -0.004788   0.000004
    13  H    0.527758  -0.000218
    14  H   -0.000218   0.245379
 Mulliken charges:
               1
     1  O   -0.559478
     2  C    0.201023
     3  C   -0.162699
     4  C   -0.120586
     5  C   -0.108085
     6  C   -0.119431
     7  C   -0.138589
     8  H    0.521399
     9  H    0.175712
    10  H    0.203023
    11  H    0.200811
    12  H    0.203838
    13  H    0.188537
    14  H    0.514525
 Sum of Mulliken charges =   1.00000
 Mulliken charges with hydrogens summed into heavy atoms:
               1
     1  O    0.476446
     2  C    0.201023
     3  C    0.013013
     4  C    0.082437
     5  C    0.092726
     6  C    0.084407
     7  C    0.049949
 Electronic spatial extent (au):  <R**2>=            670.8165
 Charge=              1.0000 electrons
 Dipole moment (field-independent basis, Debye):
    X=             -6.2049    Y=              0.6406    Z=              1.3987  Tot=              6.3927
 Quadrupole moment (field-independent basis, Debye-Ang):
   XX=             -8.4892   YY=            -28.6020   ZZ=            -41.2263
   XY=             -2.0949   XZ=             -3.9374   YZ=             -1.0952
 Traceless Quadrupole moment (field-independent basis, Debye-Ang):
   XX=             17.6166   YY=             -2.4962   ZZ=            -15.1204
   XY=             -2.0949   XZ=             -3.9374   YZ=             -1.0952
 Octapole moment (field-independent basis, Debye-Ang**2):
  XXX=            -56.7837  YYY=              0.7220  ZZZ=              1.5924  XYY=             -5.5443
  XXY=              5.9041  XXZ=             11.3034  XZZ=            -10.3921  YZZ=             -0.6723
  YYZ=              0.3921  XYZ=              3.2100
 Hexadecapole moment (field-independent basis, Debye-Ang**3):
 XXXX=           -288.3084 YYYY=           -242.1625 ZZZZ=            -41.7154 XXXY=            -17.0203
 XXXZ=            -30.3384 YYYX=             -3.0777 YYYZ=             -0.4154 ZZZX=             -4.5536
 ZZZY=             -1.2831 XXYY=            -97.7405 XXZZ=            -87.0566 YYZZ=            -59.9319
 XXYZ=             -8.1819 YYXZ=             -1.2440 ZZXY=              1.4692
 N-N= 2.809871475273D+02 E-N=-1.266714221171D+03  KE= 3.048298336427D+02
 No NMR shielding tensors so no spin-rotation constants.
 Leave Link  601 at Mon Oct 14 01:13:05 2019, MaxMem= 10737418240 cpu:               2.1 elap:               0.1
 (Enter /apps/cent7/gaussian/g16-A.03/g16-haswell/g16/l701.exe)
 ... and contract with generalized density number  0.
 Compute integral first derivatives.
 Leave Link  701 at Mon Oct 14 01:13:05 2019, MaxMem= 10737418240 cpu:               2.3 elap:               0.1
 (Enter /apps/cent7/gaussian/g16-A.03/g16-haswell/g16/l702.exe)
 L702 exits ... SP integral derivatives will be done elsewhere.
 Leave Link  702 at Mon Oct 14 01:13:05 2019, MaxMem= 10737418240 cpu:               0.8 elap:               0.1
 (Enter /apps/cent7/gaussian/g16-A.03/g16-haswell/g16/l703.exe)
 Integral derivatives from FoFJK, PRISM(SPDF).
 Compute integral first derivatives, UseDBF=F ICtDFT=           0.
 Calling FoFJK, ICntrl=      2127 FMM=F ISym2X=0 I1Cent= 0 IOpClX= 0 NMat=1 NMatS=1 NMatT=0.
 FoFJK:  IHMeth= 1 ICntrl=    2127 DoSepK=F KAlg= 0 I1Cent=           0 FoldK=F
 IRaf=         0 NMat=       1 IRICut=       1 DoRegI=T DoRafI=F ISym2E= 0 IDoP0=0 IntGTp=1.
 FoFCou: FMM=F IPFlag=           0 FMFlag=      100000 FMFlg1=         800
         NFxFlg=           0 DoJE=F BraDBF=F KetDBF=F FulRan=T
         wScrn=  0.000000 ICntrl=      2127 IOpCl=  0 I1Cent=           0 NGrid=           0
         NMat0=    1 NMatS0=      1 NMatT0=    0 NMatD0=    1 NMtDS0=    0 NMtDT0=    0
 Symmetry not used in FoFCou.
 Leave Link  703 at Mon Oct 14 01:13:05 2019, MaxMem= 10737418240 cpu:              11.1 elap:               0.5
 (Enter /apps/cent7/gaussian/g16-A.03/g16-haswell/g16/l716.exe)
 Dipole        =-2.44118572D+00 2.52044351D-01 5.50283295D-01
 ***** Axes restored to original set *****
 -------------------------------------------------------------------
 Center     Atomic                   Forces (Hartrees/Bohr)
 Number     Number              X              Y              Z
 -------------------------------------------------------------------
      1        8          -0.017427303   -0.049395692   -0.009769140
      2        6           0.065122766    0.111716610   -0.004283443
      3        6           0.001977152   -0.008023409   -0.000008850
      4        6           0.006139988   -0.009104261   -0.000523539
      5        6          -0.004707591   -0.007553980   -0.000189774
      6        6          -0.012904446    0.000563494    0.001094978
      7        6          -0.005188798   -0.006748142   -0.000594527
      8        1           0.001637954   -0.022185955    0.018720756
      9        1          -0.000831510    0.001702519   -0.000096088
     10        1           0.000117892   -0.004514220    0.000057065
     11        1          -0.001909606   -0.002979545   -0.000052400
     12        1          -0.003985513   -0.002302700    0.000044635
     13        1           0.000118553    0.001477309   -0.000994188
     14        1          -0.028159536   -0.002652029   -0.003405485
 -------------------------------------------------------------------
 Cartesian Forces:  Max     0.111716610 RMS     0.022785813
 Leave Link  716 at Mon Oct 14 01:13:06 2019, MaxMem= 10737418240 cpu:               0.6 elap:               0.0
 (Enter /apps/cent7/gaussian/g16-A.03/g16-haswell/g16/l103.exe)

 GradGradGradGradGradGradGradGradGradGradGradGradGradGradGradGradGradGrad
 Berny optimization.
 FormGI is forming the generalized inverse of G from B-inverse, IUseBI=4.
 Internal  Forces:  Max     0.086182901 RMS     0.013446171
 Search for a local minimum.
 Step number   1 out of a maximum of   73
 All quantities printed in internal units (Hartrees-Bohrs-Radians)
 RMS Force = .13446D-01 SwitMx=.10000D-02 MixMth= 1
 Mixed Optimization -- RFO/linear search
 Second derivative matrix not updated -- first step.
 ITU=  0
     Eigenvalues ---    0.01969   0.01970   0.01971   0.01973   0.01977
     Eigenvalues ---    0.01979   0.01984   0.01989   0.02067   0.02276
     Eigenvalues ---    0.06498   0.16000   0.16000   0.16000   0.16000
     Eigenvalues ---    0.16000   0.16000   0.16000   0.22000   0.22000
     Eigenvalues ---    0.23482   0.24997   0.34808   0.34811   0.34812
     Eigenvalues ---    0.34813   0.34819   0.40295   0.40596   0.44136
     Eigenvalues ---    0.44178   0.44290   0.44352   0.53792   0.55473
     Eigenvalues ---    0.55473
 RFO step:  Lambda=-2.43603644D-02 EMin= 1.96941603D-02
 Linear search not attempted -- first point.
 Iteration  1 RMS(Cart)=  0.03949898 RMS(Int)=  0.00202920
 Iteration  2 RMS(Cart)=  0.00134221 RMS(Int)=  0.00127685
 Iteration  3 RMS(Cart)=  0.00000395 RMS(Int)=  0.00127684
 Iteration  4 RMS(Cart)=  0.00000003 RMS(Int)=  0.00127684
 ITry= 1 IFail=0 DXMaxC= 1.77D-01 DCOld= 1.00D+10 DXMaxT= 3.00D-01 DXLimC= 3.00D+00 Rises=F
 Variable       Old X    -DE/DX   Delta X   Delta X   Delta X     New X
                                 (Linear)    (Quad)   (Total)
    R1        2.56222   0.08618   0.00000   0.15327   0.15327   2.71549
    R2        1.81414   0.02739   0.00000   0.04730   0.04730   1.86144
    R3        1.81414   0.02728   0.00000   0.04711   0.04711   1.86125
    R4        2.66232  -0.01768   0.00000  -0.03819  -0.03806   2.62426
    R5        2.66226  -0.01845   0.00000  -0.03982  -0.03969   2.62256
    R6        2.66295  -0.01551   0.00000  -0.03331  -0.03332   2.62964
    R7        2.05981   0.00083   0.00000   0.00224   0.00224   2.06204
    R8        2.65979  -0.01017   0.00000  -0.02146  -0.02159   2.63820
    R9        2.05987  -0.00397   0.00000  -0.01066  -0.01066   2.04922
   R10        2.66004  -0.00914   0.00000  -0.01926  -0.01939   2.64065
   R11        2.05969  -0.00354   0.00000  -0.00949  -0.00949   2.05020
   R12        2.66289  -0.01554   0.00000  -0.03336  -0.03336   2.62953
   R13        2.05980  -0.00399   0.00000  -0.01070  -0.01070   2.04910
   R14        2.05982  -0.00122   0.00000  -0.00328  -0.00328   2.05654
    A1        1.91063   0.01445   0.00000   0.09192   0.08779   1.99842
    A2        1.91063   0.01120   0.00000   0.07427   0.07009   1.98072
    A3        1.91063  -0.00580   0.00000  -0.00440  -0.01108   1.89955
    A4        2.09705  -0.00573   0.00000  -0.02099  -0.02112   2.07593
    A5        2.09707  -0.01013   0.00000  -0.03703  -0.03716   2.05991
    A6        2.08898   0.01586   0.00000   0.05794   0.05818   2.14716
    A7        2.09743  -0.00810   0.00000  -0.03248  -0.03236   2.06507
    A8        2.09269   0.00580   0.00000   0.02575   0.02569   2.11837
    A9        2.09307   0.00230   0.00000   0.00673   0.00667   2.09974
   A10        2.09458  -0.00054   0.00000  -0.00053  -0.00067   2.09390
   A11        2.09526  -0.00195   0.00000  -0.01176  -0.01169   2.08357
   A12        2.09335   0.00249   0.00000   0.01229   0.01236   2.10571
   A13        2.09339   0.00146   0.00000   0.00820   0.00793   2.10132
   A14        2.09492  -0.00090   0.00000  -0.00501  -0.00488   2.09004
   A15        2.09487  -0.00056   0.00000  -0.00318  -0.00305   2.09182
   A16        2.09455   0.00086   0.00000   0.00524   0.00510   2.09964
   A17        2.09325   0.00194   0.00000   0.01023   0.01029   2.10354
   A18        2.09539  -0.00280   0.00000  -0.01547  -0.01541   2.07998
   A19        2.09744  -0.00954   0.00000  -0.03835  -0.03822   2.05922
   A20        2.09275   0.00564   0.00000   0.02389   0.02382   2.11657
   A21        2.09299   0.00390   0.00000   0.01446   0.01440   2.10739
    D1       -2.07813  -0.00404   0.00000  -0.04402  -0.04632  -2.12445
    D2        1.07814  -0.00392   0.00000  -0.03866  -0.04114   1.03700
    D3        0.01627   0.00457   0.00000   0.05237   0.05485   0.07112
    D4       -3.11065   0.00469   0.00000   0.05772   0.06003  -3.05062
    D5       -3.12428   0.00017   0.00000   0.00285   0.00290  -3.12138
    D6        0.01739   0.00008   0.00000   0.00075   0.00079   0.01818
    D7        0.00271  -0.00017   0.00000  -0.00328  -0.00339  -0.00069
    D8       -3.13881  -0.00026   0.00000  -0.00537  -0.00551   3.13887
    D9        3.12428   0.00022   0.00000   0.00521   0.00514   3.12941
   D10       -0.01739   0.00030   0.00000   0.00747   0.00747  -0.00992
   D11       -0.00271   0.00052   0.00000   0.01120   0.01125   0.00855
   D12        3.13881   0.00060   0.00000   0.01346   0.01359  -3.13079
   D13       -0.00165  -0.00017   0.00000  -0.00434  -0.00440  -0.00605
   D14        3.13996  -0.00001   0.00000  -0.00059  -0.00061   3.13936
   D15        3.13987  -0.00008   0.00000  -0.00225  -0.00231   3.13755
   D16       -0.00171   0.00008   0.00000   0.00151   0.00148  -0.00023
   D17        0.00057   0.00019   0.00000   0.00421   0.00424   0.00481
   D18       -3.14108   0.00009   0.00000   0.00223   0.00234  -3.13874
   D19       -3.14104   0.00004   0.00000   0.00045   0.00039  -3.14064
   D20        0.00050  -0.00006   0.00000  -0.00152  -0.00151  -0.00101
   D21       -0.00057   0.00015   0.00000   0.00368   0.00384   0.00327
   D22        3.14104  -0.00022   0.00000  -0.00459  -0.00449   3.13655
   D23        3.14108   0.00025   0.00000   0.00566   0.00574  -3.13637
   D24       -0.00050  -0.00012   0.00000  -0.00261  -0.00258  -0.00308
   D25        0.00165  -0.00053   0.00000  -0.01149  -0.01133  -0.00968
   D26       -3.13987  -0.00061   0.00000  -0.01375  -0.01365   3.12966
   D27       -3.13996  -0.00016   0.00000  -0.00321  -0.00312   3.14011
   D28        0.00171  -0.00025   0.00000  -0.00547  -0.00544  -0.00373
         Item               Value     Threshold  Converged?
 Maximum Force            0.086183     0.000450     NO 
 RMS     Force            0.013446     0.000300     NO 
 Maximum Displacement     0.176617     0.001800     NO 
 RMS     Displacement     0.039231     0.001200     NO 
 Predicted change in Energy=-1.307985D-02
 Lowest energy point so far.  Saving SCF results.
 GradGradGradGradGradGradGradGradGradGradGradGradGradGradGradGradGradGrad

 Leave Link  103 at Mon Oct 14 01:13:06 2019, MaxMem= 10737418240 cpu:               0.9 elap:               0.1
 (Enter /apps/cent7/gaussian/g16-A.03/g16-haswell/g16/l202.exe)
                          Input orientation:                          
 ---------------------------------------------------------------------
 Center     Atomic      Atomic             Coordinates (Angstroms)
 Number     Number       Type             X           Y           Z
 ---------------------------------------------------------------------
      1          8           0       -0.695472   -1.202034    0.008658
      2          6           0        0.018339    0.045073    0.018328
      3          6           0       -0.702472    1.232035    0.011829
      4          6           0        0.001913    2.432036   -0.003435
      5          6           0        1.397946    2.421337   -0.004490
      6          6           0        2.095749    1.210697    0.003912
      7          6           0        1.405460    0.002515    0.009502
      8          1           0       -0.497950   -1.791711    0.772563
      9          1           0       -1.793646    1.234066    0.016536
     10          1           0       -0.543715    3.369136   -0.010821
     11          1           0        1.943508    3.359064   -0.013725
     12          1           0        3.180018    1.199948   -0.001601
     13          1           0        1.941556   -0.944546    0.004898
     14          1           0       -1.671690   -1.094985   -0.066339
 ---------------------------------------------------------------------
                    Distance matrix (angstroms):
                    1          2          3          4          5
     1  O    0.000000
     2  C    1.436975   0.000000
     3  C    2.434081   1.388700   0.000000
     4  C    3.700400   2.387119   1.391544   0.000000
     5  C    4.184662   2.747811   2.413806   1.396075   0.000000
     6  C    3.689473   2.382125   2.798313   2.424019   1.397372
     7  C    2.421746   1.387801   2.440307   2.805830   2.418874
     8  H    0.985031   2.051634   3.124673   4.323433   4.684870
     9  H    2.672196   2.167256   1.091187   2.158602   3.405336
    10  H    4.573730   3.371372   2.143110   1.084399   2.160650
    11  H    5.269567   3.832732   3.395013   2.151576   1.084921
    12  H    4.559501   3.366058   3.882646   3.408577   2.160458
    13  H    2.649572   2.162936   3.424680   3.894046   3.409512
    14  H    0.984929   2.040367   2.522006   3.904456   4.668084
                    6          7          8          9         10
     6  C    0.000000
     7  C    1.391487   0.000000
     8  H    4.041355   2.724790   0.000000
     9  H    3.889485   3.427980   3.377237   0.000000
    10  H    3.409669   3.890222   5.220165   2.474187   0.000000
    11  H    2.153826   3.399479   5.754081   4.299169   2.487245
    12  H    1.084337   2.140801   4.803833   4.973814   4.309483
    13  H    2.160753   1.088276   2.694102   4.324144   4.978421
    14  H    4.417544   3.267890   1.602139   2.333714   4.604757
                   11         12         13         14
    11  H    0.000000
    12  H    2.488148   0.000000
    13  H    4.303651   2.476427   0.000000
    14  H    5.736809   5.367493   3.617078   0.000000
 Stoichiometry    C6H7O(1+)
 Framework group  C1[X(C6H7O)]
 Deg. of freedom    36
 Full point group                 C1      NOp   1
 RotChk:  IX=0 Diff= 9.85D-03
 Largest Abelian subgroup         C1      NOp   1
 Largest concise Abelian subgroup C1      NOp   1
                         Standard orientation:                         
 ---------------------------------------------------------------------
 Center     Atomic      Atomic             Coordinates (Angstroms)
 Number     Number       Type             X           Y           Z
 ---------------------------------------------------------------------
      1          8           0       -2.281653   -0.045755   -0.056426
      2          6           0       -0.845462   -0.017954   -0.017950
      3          6           0       -0.197312    1.210086   -0.000409
      4          6           0        1.194124    1.222014    0.012093
      5          6           0        1.901917    0.018665    0.014176
      6          6           0        1.221601   -1.201809   -0.002030
      7          6           0       -0.169422   -1.229944   -0.024348
      8          1           0       -2.701233   -0.524967    0.694968
      9          1           0       -0.756049    2.147368    0.001705
     10          1           0        1.717923    2.171445    0.023742
     11          1           0        2.986683    0.032141    0.026627
     12          1           0        1.769330   -2.137634   -0.005158
     13          1           0       -0.706422   -2.176203   -0.048224
     14          1           0       -2.689682    0.847537   -0.131437
 ---------------------------------------------------------------------
 Rotational constants (GHZ):           5.5322591           2.4956629           1.7264138
 Leave Link  202 at Mon Oct 14 01:13:06 2019, MaxMem= 10737418240 cpu:               0.3 elap:               0.0
 (Enter /apps/cent7/gaussian/g16-A.03/g16-haswell/g16/l301.exe)
 Standard basis: 6-31G(d) (6D, 7F)
 Ernie: Thresh=  0.10000D-02 Tol=  0.10000D-05 Strict=F.
 There are   119 symmetry adapted cartesian basis functions of A   symmetry.
 There are   119 symmetry adapted basis functions of A   symmetry.
   119 basis functions,   224 primitive gaussians,   119 cartesian basis functions
    25 alpha electrons       25 beta electrons
       nuclear repulsion energy       280.8132569495 Hartrees.
 IExCor=  402 DFT=T Ex+Corr=B3LYP ExCW=0 ScaHFX=  0.200000
 ScaDFX=  0.800000  0.720000  1.000000  0.810000 ScalE2=  1.000000  1.000000
 IRadAn=      5 IRanWt=     -1 IRanGd=            0 ICorTp=0 IEmpDi=  4
 NAtoms=   14 NActive=   14 NUniq=   14 SFac= 1.00D+00 NAtFMM=   60 NAOKFM=F Big=F
 Integral buffers will be    131072 words long.
 Raffenetti 2 integral format.
 Two-electron integral symmetry is turned on.
 Leave Link  301 at Mon Oct 14 01:13:06 2019, MaxMem= 10737418240 cpu:               1.6 elap:               0.1
 (Enter /apps/cent7/gaussian/g16-A.03/g16-haswell/g16/l302.exe)
 NPDir=0 NMtPBC=     1 NCelOv=     1 NCel=       1 NClECP=     1 NCelD=      1
         NCelK=      1 NCelE2=     1 NClLst=     1 CellRange=     0.0.
 One-electron integrals computed using PRISM.
 One-electron integral symmetry used in STVInt
 NBasis=   119 RedAO= T EigKep=  4.77D-04  NBF=   119
 NBsUse=   119 1.00D-06 EigRej= -1.00D+00 NBFU=   119
 Precomputing XC quadrature grid using
 IXCGrd= 4 IRadAn=           5 IRanWt=          -1 IRanGd=           0 AccXCQ= 0.00D+00.
 Generated NRdTot=       0 NPtTot=           0 NUsed=           0 NTot=          32
 NSgBfM=   119   119   119   119   119 MxSgAt=    14 MxSgA2=    14.
 Leave Link  302 at Mon Oct 14 01:13:06 2019, MaxMem= 10737418240 cpu:               3.4 elap:               0.2
 (Enter /apps/cent7/gaussian/g16-A.03/g16-haswell/g16/l303.exe)
 DipDrv:  MaxL=1.
 Leave Link  303 at Mon Oct 14 01:13:06 2019, MaxMem= 10737418240 cpu:               1.0 elap:               0.1
 (Enter /apps/cent7/gaussian/g16-A.03/g16-haswell/g16/l401.exe)
 Initial guess from the checkpoint file:  "21_p.chk"
 B after Tr=    -0.000000   -0.000000   -0.000000
         Rot=    0.999997   -0.000469    0.000558    0.002525 Ang=  -0.30 deg.
 Guess basis will be translated and rotated to current coordinates.
 JPrj=2 DoOrth=T DoCkMO=T.
 Generating alternative initial guess.
 ExpMin= 1.61D-01 ExpMax= 5.48D+03 ExpMxC= 8.25D+02 IAcc=2 IRadAn=         4 AccDes= 0.00D+00
 Harris functional with IExCor=  402 and IRadAn=       4 diagonalized for initial guess.
 HarFok:  IExCor=  402 AccDes= 0.00D+00 IRadAn=         4 IDoV= 1 UseB2=F ITyADJ=14
 ICtDFT=  3500011 ScaDFX=  1.000000  1.000000  1.000000  1.000000
 FoFCou: FMM=F IPFlag=           0 FMFlag=      100000 FMFlg1=           0
         NFxFlg=           0 DoJE=T BraDBF=F KetDBF=T FulRan=T
         wScrn=  0.000000 ICntrl=       500 IOpCl=  0 I1Cent=   200000004 NGrid=           0
         NMat0=    1 NMatS0=      1 NMatT0=    0 NMatD0=    1 NMtDS0=    0 NMtDT0=    0
 Petite list used in FoFCou.
 Harris En= -307.840071578067    
 Leave Link  401 at Mon Oct 14 01:13:06 2019, MaxMem= 10737418240 cpu:               5.9 elap:               0.3
 (Enter /apps/cent7/gaussian/g16-A.03/g16-haswell/g16/l502.exe)
 Integral symmetry usage will be decided dynamically.
 Closed shell SCF:
 Using DIIS extrapolation, IDIIS=  1040.
 NGot= 10737418240 LenX= 10737385609 LenY= 10737371007
 Requested convergence on RMS density matrix=1.00D-08 within 128 cycles.
 Requested convergence on MAX density matrix=1.00D-06.
 Requested convergence on             energy=1.00D-06.
 No special actions if energy rises.
 Fock matrices will be formed incrementally for  20 cycles.
 Integral accuracy reduced to 1.0D-05 until final iterations.

 Cycle   1  Pass 0  IDiag  1:
 FoFJK:  IHMeth= 1 ICntrl=       0 DoSepK=F KAlg= 0 I1Cent=           0 FoldK=F
 IRaf= 980000000 NMat=       1 IRICut=       1 DoRegI=T DoRafI=F ISym2E= 0 IDoP0=0 IntGTp=1.
 FoFCou: FMM=F IPFlag=           0 FMFlag=      100000 FMFlg1=           0
         NFxFlg=           0 DoJE=F BraDBF=F KetDBF=F FulRan=T
         wScrn=  0.000000 ICntrl=         0 IOpCl=  0 I1Cent=           0 NGrid=           0
         NMat0=    1 NMatS0=      1 NMatT0=    0 NMatD0=    1 NMtDS0=    0 NMtDT0=    0
 Symmetry not used in FoFCou.
 E= -307.752674022128    
 DIIS: error= 4.30D-03 at cycle   1 NSaved=   1.
 NSaved= 1 IEnMin= 1 EnMin= -307.752674022128     IErMin= 1 ErrMin= 4.30D-03
 ErrMax= 4.30D-03  0.00D+00 EMaxC= 1.00D-01 BMatC= 4.67D-03 BMatP= 4.67D-03
 IDIUse=3 WtCom= 9.57D-01 WtEn= 4.30D-02
 Coeff-Com:  0.100D+01
 Coeff-En:   0.100D+01
 Coeff:      0.100D+01
 Gap=     1.838 Goal=   None    Shift=    0.000
 GapD=    1.838 DampG=2.000 DampE=1.000 DampFc=2.0000 IDamp=-1.
 RMSDP=9.65D-04 MaxDP=1.47D-02              OVMax= 2.05D-02

 Cycle   2  Pass 0  IDiag  1:
 RMSU=  9.65D-04    CP:  9.99D-01
 E= -307.757008933831     Delta-E=       -0.004334911702 Rises=F Damp=F
 DIIS: error= 3.01D-03 at cycle   2 NSaved=   2.
 NSaved= 2 IEnMin= 2 EnMin= -307.757008933831     IErMin= 2 ErrMin= 3.01D-03
 ErrMax= 3.01D-03  0.00D+00 EMaxC= 1.00D-01 BMatC= 1.49D-03 BMatP= 4.67D-03
 IDIUse=3 WtCom= 9.70D-01 WtEn= 3.01D-02
 Coeff-Com:  0.311D+00 0.689D+00
 Coeff-En:   0.000D+00 0.100D+01
 Coeff:      0.302D+00 0.698D+00
 Gap=     0.216 Goal=   None    Shift=    0.000
 RMSDP=4.08D-04 MaxDP=1.23D-02 DE=-4.33D-03 OVMax= 1.63D-02

 Cycle   3  Pass 0  IDiag  1:
 RMSU=  3.90D-04    CP:  1.00D+00  8.82D-01
 E= -307.757424518707     Delta-E=       -0.000415584876 Rises=F Damp=F
 DIIS: error= 2.13D-03 at cycle   3 NSaved=   3.
 NSaved= 3 IEnMin= 3 EnMin= -307.757424518707     IErMin= 3 ErrMin= 2.13D-03
 ErrMax= 2.13D-03  0.00D+00 EMaxC= 1.00D-01 BMatC= 8.95D-04 BMatP= 1.49D-03
 IDIUse=3 WtCom= 9.79D-01 WtEn= 2.13D-02
 Coeff-Com: -0.133D-02 0.436D+00 0.566D+00
 Coeff-En:   0.000D+00 0.407D+00 0.593D+00
 Coeff:     -0.130D-02 0.435D+00 0.566D+00
 Gap=     0.220 Goal=   None    Shift=    0.000
 RMSDP=2.30D-04 MaxDP=6.06D-03 DE=-4.16D-04 OVMax= 1.04D-02

 Cycle   4  Pass 0  IDiag  1:
 RMSU=  1.01D-04    CP:  1.00D+00  9.61D-01  5.10D-01
 E= -307.758149848265     Delta-E=       -0.000725329558 Rises=F Damp=F
 DIIS: error= 6.27D-04 at cycle   4 NSaved=   4.
 NSaved= 4 IEnMin= 4 EnMin= -307.758149848265     IErMin= 4 ErrMin= 6.27D-04
 ErrMax= 6.27D-04  0.00D+00 EMaxC= 1.00D-01 BMatC= 2.28D-05 BMatP= 8.95D-04
 IDIUse=3 WtCom= 9.94D-01 WtEn= 6.27D-03
 Coeff-Com: -0.102D-01 0.195D+00 0.292D+00 0.523D+00
 Coeff-En:   0.000D+00 0.000D+00 0.000D+00 0.100D+01
 Coeff:     -0.102D-01 0.194D+00 0.290D+00 0.526D+00
 Gap=     0.220 Goal=   None    Shift=    0.000
 RMSDP=5.70D-05 MaxDP=1.34D-03 DE=-7.25D-04 OVMax= 2.97D-03

 Cycle   5  Pass 0  IDiag  1:
 RMSU=  3.67D-05    CP:  1.00D+00  9.57D-01  5.72D-01  6.45D-01
 E= -307.758171640300     Delta-E=       -0.000021792035 Rises=F Damp=F
 DIIS: error= 2.34D-04 at cycle   5 NSaved=   5.
 NSaved= 5 IEnMin= 5 EnMin= -307.758171640300     IErMin= 5 ErrMin= 2.34D-04
 ErrMax= 2.34D-04  0.00D+00 EMaxC= 1.00D-01 BMatC= 4.57D-06 BMatP= 2.28D-05
 IDIUse=3 WtCom= 9.98D-01 WtEn= 2.34D-03
 Coeff-Com: -0.713D-02 0.599D-01 0.106D+00 0.332D+00 0.509D+00
 Coeff-En:   0.000D+00 0.000D+00 0.000D+00 0.155D+00 0.845D+00
 Coeff:     -0.711D-02 0.598D-01 0.106D+00 0.332D+00 0.510D+00
 Gap=     0.220 Goal=   None    Shift=    0.000
 RMSDP=1.74D-05 MaxDP=3.40D-04 DE=-2.18D-05 OVMax= 9.06D-04

 Cycle   6  Pass 0  IDiag  1:
 RMSU=  7.23D-06    CP:  1.00D+00  9.60D-01  5.63D-01  7.11D-01  6.27D-01
 E= -307.758176307556     Delta-E=       -0.000004667256 Rises=F Damp=F
 DIIS: error= 1.48D-05 at cycle   6 NSaved=   6.
 NSaved= 6 IEnMin= 6 EnMin= -307.758176307556     IErMin= 6 ErrMin= 1.48D-05
 ErrMax= 1.48D-05  0.00D+00 EMaxC= 1.00D-01 BMatC= 3.04D-08 BMatP= 4.57D-06
 IDIUse=1 WtCom= 1.00D+00 WtEn= 0.00D+00
 Coeff-Com: -0.132D-02 0.699D-02 0.156D-01 0.552D-01 0.120D+00 0.804D+00
 Coeff:     -0.132D-02 0.699D-02 0.156D-01 0.552D-01 0.120D+00 0.804D+00
 Gap=     0.220 Goal=   None    Shift=    0.000
 RMSDP=2.54D-06 MaxDP=3.70D-05 DE=-4.67D-06 OVMax= 8.29D-05

 Initial convergence to 1.0D-05 achieved.  Increase integral accuracy.
 Cycle   7  Pass 1  IDiag  1:
 E= -307.758168925691     Delta-E=        0.000007381866 Rises=F Damp=F
 DIIS: error= 6.75D-06 at cycle   1 NSaved=   1.
 NSaved= 1 IEnMin= 1 EnMin= -307.758168925691     IErMin= 1 ErrMin= 6.75D-06
 ErrMax= 6.75D-06  0.00D+00 EMaxC= 1.00D-01 BMatC= 1.06D-08 BMatP= 1.06D-08
 IDIUse=1 WtCom= 1.00D+00 WtEn= 0.00D+00
 Coeff-Com:  0.100D+01
 Coeff:      0.100D+01
 Gap=     0.220 Goal=   None    Shift=    0.000
 RMSDP=2.54D-06 MaxDP=3.70D-05 DE= 7.38D-06 OVMax= 5.77D-05

 Cycle   8  Pass 1  IDiag  1:
 RMSU=  2.38D-06    CP:  1.00D+00
 E= -307.758168921159     Delta-E=        0.000000004532 Rises=F Damp=F
 DIIS: error= 7.87D-06 at cycle   2 NSaved=   2.
 NSaved= 2 IEnMin= 1 EnMin= -307.758168925691     IErMin= 1 ErrMin= 6.75D-06
 ErrMax= 7.87D-06  0.00D+00 EMaxC= 1.00D-01 BMatC= 1.51D-08 BMatP= 1.06D-08
 IDIUse=1 WtCom= 1.00D+00 WtEn= 0.00D+00
 Coeff-Com:  0.547D+00 0.453D+00
 Coeff:      0.547D+00 0.453D+00
 Gap=     0.220 Goal=   None    Shift=    0.000
 RMSDP=1.07D-06 MaxDP=2.28D-05 DE= 4.53D-09 OVMax= 3.89D-05

 Cycle   9  Pass 1  IDiag  1:
 RMSU=  8.52D-07    CP:  1.00D+00  7.31D-01
 E= -307.758168935514     Delta-E=       -0.000000014355 Rises=F Damp=F
 DIIS: error= 1.63D-06 at cycle   3 NSaved=   3.
 NSaved= 3 IEnMin= 3 EnMin= -307.758168935514     IErMin= 3 ErrMin= 1.63D-06
 ErrMax= 1.63D-06  0.00D+00 EMaxC= 1.00D-01 BMatC= 4.05D-10 BMatP= 1.06D-08
 IDIUse=1 WtCom= 1.00D+00 WtEn= 0.00D+00
 Coeff-Com:  0.113D+00 0.171D+00 0.716D+00
 Coeff:      0.113D+00 0.171D+00 0.716D+00
 Gap=     0.220 Goal=   None    Shift=    0.000
 RMSDP=2.59D-07 MaxDP=5.12D-06 DE=-1.44D-08 OVMax= 1.33D-05

 Cycle  10  Pass 1  IDiag  1:
 RMSU=  2.12D-07    CP:  1.00D+00  7.71D-01  8.66D-01
 E= -307.758168935763     Delta-E=       -0.000000000249 Rises=F Damp=F
 DIIS: error= 1.44D-06 at cycle   4 NSaved=   4.
 NSaved= 4 IEnMin= 4 EnMin= -307.758168935763     IErMin= 4 ErrMin= 1.44D-06
 ErrMax= 1.44D-06  0.00D+00 EMaxC= 1.00D-01 BMatC= 1.70D-10 BMatP= 4.05D-10
 IDIUse=1 WtCom= 1.00D+00 WtEn= 0.00D+00
 Coeff-Com:  0.180D-02 0.531D-01 0.455D+00 0.490D+00
 Coeff:      0.180D-02 0.531D-01 0.455D+00 0.490D+00
 Gap=     0.220 Goal=   None    Shift=    0.000
 RMSDP=1.28D-07 MaxDP=3.59D-06 DE=-2.49D-10 OVMax= 6.86D-06

 Cycle  11  Pass 1  IDiag  1:
 RMSU=  5.26D-08    CP:  1.00D+00  7.66D-01  9.02D-01  4.75D-01
 E= -307.758168935944     Delta-E=       -0.000000000181 Rises=F Damp=F
 DIIS: error= 2.74D-07 at cycle   5 NSaved=   5.
 NSaved= 5 IEnMin= 5 EnMin= -307.758168935944     IErMin= 5 ErrMin= 2.74D-07
 ErrMax= 2.74D-07  0.00D+00 EMaxC= 1.00D-01 BMatC= 8.20D-12 BMatP= 1.70D-10
 IDIUse=1 WtCom= 1.00D+00 WtEn= 0.00D+00
 Coeff-Com: -0.583D-02 0.172D-01 0.192D+00 0.268D+00 0.528D+00
 Coeff:     -0.583D-02 0.172D-01 0.192D+00 0.268D+00 0.528D+00
 Gap=     0.220 Goal=   None    Shift=    0.000
 RMSDP=2.77D-08 MaxDP=5.44D-07 DE=-1.81D-10 OVMax= 1.22D-06

 Cycle  12  Pass 1  IDiag  1:
 RMSU=  1.30D-08    CP:  1.00D+00  7.69D-01  8.99D-01  5.08D-01  5.76D-01
 E= -307.758168935956     Delta-E=       -0.000000000012 Rises=F Damp=F
 DIIS: error= 4.09D-08 at cycle   6 NSaved=   6.
 NSaved= 6 IEnMin= 6 EnMin= -307.758168935956     IErMin= 6 ErrMin= 4.09D-08
 ErrMax= 4.09D-08  0.00D+00 EMaxC= 1.00D-01 BMatC= 1.80D-13 BMatP= 8.20D-12
 IDIUse=1 WtCom= 1.00D+00 WtEn= 0.00D+00
 Coeff-Com: -0.242D-02 0.471D-02 0.584D-01 0.902D-01 0.213D+00 0.637D+00
 Coeff:     -0.242D-02 0.471D-02 0.584D-01 0.902D-01 0.213D+00 0.637D+00
 Gap=     0.220 Goal=   None    Shift=    0.000
 RMSDP=4.44D-09 MaxDP=6.38D-08 DE=-1.16D-11 OVMax= 1.03D-07

 SCF Done:  E(RB3LYP) =  -307.758168936     A.U. after   12 cycles
            NFock= 12  Conv=0.44D-08     -V/T= 2.0096
 KE= 3.048374373977D+02 PE=-1.266638138486D+03 EE= 3.732292752030D+02
 Leave Link  502 at Mon Oct 14 01:13:08 2019, MaxMem= 10737418240 cpu:              38.8 elap:               1.6
 (Enter /apps/cent7/gaussian/g16-A.03/g16-haswell/g16/l701.exe)
 ... and contract with generalized density number  0.
 Compute integral first derivatives.
 Leave Link  701 at Mon Oct 14 01:13:08 2019, MaxMem= 10737418240 cpu:               2.7 elap:               0.1
 (Enter /apps/cent7/gaussian/g16-A.03/g16-haswell/g16/l702.exe)
 L702 exits ... SP integral derivatives will be done elsewhere.
 Leave Link  702 at Mon Oct 14 01:13:08 2019, MaxMem= 10737418240 cpu:               0.4 elap:               0.0
 (Enter /apps/cent7/gaussian/g16-A.03/g16-haswell/g16/l703.exe)
 Integral derivatives from FoFJK, PRISM(SPDF).
 Compute integral first derivatives, UseDBF=F ICtDFT=           0.
 Calling FoFJK, ICntrl=      2127 FMM=F ISym2X=0 I1Cent= 0 IOpClX= 0 NMat=1 NMatS=1 NMatT=0.
 FoFJK:  IHMeth= 1 ICntrl=    2127 DoSepK=F KAlg= 0 I1Cent=           0 FoldK=F
 IRaf=         0 NMat=       1 IRICut=       1 DoRegI=T DoRafI=F ISym2E= 0 IDoP0=0 IntGTp=1.
 FoFCou: FMM=F IPFlag=           0 FMFlag=      100000 FMFlg1=         800
         NFxFlg=           0 DoJE=F BraDBF=F KetDBF=F FulRan=T
         wScrn=  0.000000 ICntrl=      2127 IOpCl=  0 I1Cent=           0 NGrid=           0
         NMat0=    1 NMatS0=      1 NMatT0=    0 NMatD0=    1 NMtDS0=    0 NMtDT0=    0
 Symmetry not used in FoFCou.
 Leave Link  703 at Mon Oct 14 01:13:09 2019, MaxMem= 10737418240 cpu:              10.6 elap:               0.5
 (Enter /apps/cent7/gaussian/g16-A.03/g16-haswell/g16/l716.exe)
 Dipole        =-2.48321607D+00 2.44162715D-01 4.97098144D-01
 ***** Axes restored to original set *****
 -------------------------------------------------------------------
 Center     Atomic                   Forces (Hartrees/Bohr)
 Number     Number              X              Y              Z
 -------------------------------------------------------------------
      1        8          -0.013615400   -0.022168058    0.001807713
      2        6           0.020094462    0.037512632    0.000438995
      3        6          -0.010444263   -0.009613522    0.000241356
      4        6           0.004052291    0.001588574   -0.000427451
      5        6           0.000562888    0.000379238   -0.000049387
      6        6          -0.000725682    0.004517880    0.000128309
      7        6          -0.002667423   -0.013491676    0.000125023
      8        1           0.001215534   -0.000188975    0.000106353
      9        1           0.001448145    0.000425633    0.000235195
     10        1          -0.000300735    0.000015734   -0.000024418
     11        1           0.000148374    0.000044861    0.000037295
     12        1           0.000269715   -0.000147145    0.000020990
     13        1          -0.000325573    0.000885275   -0.000558231
     14        1           0.000287667    0.000239549   -0.002081744
 -------------------------------------------------------------------
 Cartesian Forces:  Max     0.037512632 RMS     0.008355571
 Leave Link  716 at Mon Oct 14 01:13:09 2019, MaxMem= 10737418240 cpu:               0.5 elap:               0.0
 (Enter /apps/cent7/gaussian/g16-A.03/g16-haswell/g16/l103.exe)

 GradGradGradGradGradGradGradGradGradGradGradGradGradGradGradGradGradGrad
 Berny optimization.
 Using GEDIIS/GDIIS optimizer.
 FormGI is forming the generalized inverse of G from B-inverse, IUseBI=4.
 Internal  Forces:  Max     0.025212801 RMS     0.003756490
 Search for a local minimum.
 Step number   2 out of a maximum of   73
 All quantities printed in internal units (Hartrees-Bohrs-Radians)
 RMS Force = .37565D-02 SwitMx=.10000D-02 MixMth= 1
 Mixed Optimization -- RFO/linear search
 Update second derivatives using D2CorX and points    1    2
 DE= -1.43D-02 DEPred=-1.31D-02 R= 1.09D+00
 TightC=F SS=  1.41D+00  RLast= 2.62D-01 DXNew= 5.0454D-01 7.8485D-01
 Trust test= 1.09D+00 RLast= 2.62D-01 DXMaxT set to 5.05D-01
 ITU=  1  0
 Use linear search instead of GDIIS.
     Eigenvalues ---    0.01969   0.01969   0.01972   0.01974   0.01978
     Eigenvalues ---    0.01980   0.01984   0.01989   0.02061   0.02273
     Eigenvalues ---    0.05544   0.15978   0.16000   0.16000   0.16000
     Eigenvalues ---    0.16000   0.16000   0.16769   0.20780   0.22010
     Eigenvalues ---    0.22086   0.24982   0.34763   0.34810   0.34812
     Eigenvalues ---    0.34817   0.34901   0.39261   0.40343   0.42820
     Eigenvalues ---    0.44179   0.44350   0.45709   0.46785   0.55473
     Eigenvalues ---    0.57841
 RFO step:  Lambda=-1.88406116D-03 EMin= 1.96919714D-02
 Quartic linear search produced a step of  0.36849.
 Iteration  1 RMS(Cart)=  0.02019244 RMS(Int)=  0.00088656
 Iteration  2 RMS(Cart)=  0.00067842 RMS(Int)=  0.00066105
 Iteration  3 RMS(Cart)=  0.00000022 RMS(Int)=  0.00066105
 ITry= 1 IFail=0 DXMaxC= 8.33D-02 DCOld= 1.00D+10 DXMaxT= 5.05D-01 DXLimC= 3.00D+00 Rises=F
 Variable       Old X    -DE/DX   Delta X   Delta X   Delta X     New X
                                 (Linear)    (Quad)   (Total)
    R1        2.71549   0.02521   0.05648   0.02165   0.07813   2.79361
    R2        1.86144   0.00044   0.01743  -0.01201   0.00542   1.86686
    R3        1.86125  -0.00010   0.01736  -0.01328   0.00408   1.86532
    R4        2.62426  -0.00409  -0.01402  -0.00256  -0.01641   2.60786
    R5        2.62256  -0.00339  -0.01463   0.00005  -0.01440   2.60817
    R6        2.62964   0.00388  -0.01228   0.02096   0.00868   2.63831
    R7        2.06204  -0.00145   0.00082  -0.00624  -0.00541   2.05663
    R8        2.63820   0.00090  -0.00796   0.00878   0.00065   2.63885
    R9        2.04922   0.00017  -0.00393   0.00342  -0.00051   2.04871
   R10        2.64065   0.00033  -0.00714   0.00642  -0.00089   2.63976
   R11        2.05020   0.00011  -0.00350   0.00291  -0.00059   2.04962
   R12        2.62953   0.00371  -0.01229   0.02043   0.00814   2.63767
   R13        2.04910   0.00027  -0.00394   0.00384  -0.00010   2.04900
   R14        2.05654  -0.00093  -0.00121  -0.00278  -0.00399   2.05256
    A1        1.99842  -0.00046   0.03235  -0.01313   0.01700   2.01543
    A2        1.98072   0.00022   0.02583  -0.00364   0.01995   2.00067
    A3        1.89955   0.00131  -0.00408   0.03020   0.02280   1.92235
    A4        2.07593  -0.00327  -0.00778  -0.01285  -0.02083   2.05510
    A5        2.05991  -0.00536  -0.01369  -0.02031  -0.03420   2.02571
    A6        2.14716   0.00862   0.02144   0.03290   0.05461   2.20177
    A7        2.06507  -0.00501  -0.01192  -0.02261  -0.03437   2.03069
    A8        2.11837   0.00295   0.00947   0.01304   0.02243   2.14080
    A9        2.09974   0.00207   0.00246   0.00957   0.01194   2.11169
   A10        2.09390   0.00058  -0.00025   0.00533   0.00488   2.09878
   A11        2.08357  -0.00055  -0.00431  -0.00235  -0.00658   2.07699
   A12        2.10571  -0.00003   0.00455  -0.00300   0.00164   2.10734
   A13        2.10132   0.00019   0.00292   0.00137   0.00394   2.10526
   A14        2.09004   0.00001  -0.00180   0.00043  -0.00120   2.08884
   A15        2.09182  -0.00021  -0.00112  -0.00180  -0.00275   2.08907
   A16        2.09964   0.00032   0.00188   0.00228   0.00396   2.10361
   A17        2.10354  -0.00001   0.00379  -0.00261   0.00124   2.10477
   A18        2.07998  -0.00031  -0.00568   0.00025  -0.00539   2.07459
   A19        2.05922  -0.00470  -0.01408  -0.01939  -0.03333   2.02589
   A20        2.11657   0.00251   0.00878   0.01005   0.01869   2.13527
   A21        2.10739   0.00219   0.00531   0.00930   0.01447   2.12186
    D1       -2.12445  -0.00036  -0.01707   0.00910  -0.00876  -2.13320
    D2        1.03700  -0.00027  -0.01516   0.02302   0.00642   1.04342
    D3        0.07112   0.00127   0.02021   0.03680   0.05845   0.12957
    D4       -3.05062   0.00136   0.02212   0.05071   0.07363  -2.97699
    D5       -3.12138   0.00028   0.00107   0.01637   0.01762  -3.10376
    D6        0.01818   0.00028   0.00029   0.01545   0.01592   0.03410
    D7       -0.00069   0.00000  -0.00125   0.00105  -0.00045  -0.00114
    D8        3.13887   0.00000  -0.00203   0.00012  -0.00215   3.13672
    D9        3.12941  -0.00015   0.00189  -0.00584  -0.00412   3.12529
   D10       -0.00992   0.00009   0.00275   0.01047   0.01317   0.00325
   D11        0.00855   0.00010   0.00415   0.00928   0.01355   0.02210
   D12       -3.13079   0.00034   0.00501   0.02558   0.03084  -3.09995
   D13       -0.00605  -0.00012  -0.00162  -0.00955  -0.01121  -0.01726
   D14        3.13936  -0.00003  -0.00022  -0.00237  -0.00256   3.13679
   D15        3.13755  -0.00012  -0.00085  -0.00864  -0.00956   3.12800
   D16       -0.00023  -0.00003   0.00055  -0.00146  -0.00091  -0.00113
   D17        0.00481   0.00010   0.00156   0.00756   0.00922   0.01403
   D18       -3.13874   0.00007   0.00086   0.00525   0.00629  -3.13245
   D19       -3.14064   0.00001   0.00015   0.00028   0.00040  -3.14024
   D20       -0.00101  -0.00002  -0.00056  -0.00203  -0.00253  -0.00354
   D21        0.00327   0.00003   0.00141   0.00319   0.00483   0.00809
   D22        3.13655  -0.00009  -0.00165  -0.00784  -0.00933   3.12721
   D23       -3.13637   0.00006   0.00212   0.00550   0.00776  -3.12861
   D24       -0.00308  -0.00007  -0.00095  -0.00554  -0.00641  -0.00949
   D25       -0.00968  -0.00010  -0.00418  -0.01118  -0.01516  -0.02485
   D26        3.12966  -0.00034  -0.00503  -0.02739  -0.03230   3.09736
   D27        3.14011   0.00002  -0.00115  -0.00028  -0.00127   3.13884
   D28       -0.00373  -0.00022  -0.00200  -0.01650  -0.01841  -0.02214
         Item               Value     Threshold  Converged?
 Maximum Force            0.025213     0.000450     NO 
 RMS     Force            0.003756     0.000300     NO 
 Maximum Displacement     0.083302     0.001800     NO 
 RMS     Displacement     0.020191     0.001200     NO 
 Predicted change in Energy=-1.433528D-03
 Lowest energy point so far.  Saving SCF results.
 GradGradGradGradGradGradGradGradGradGradGradGradGradGradGradGradGradGrad

 Leave Link  103 at Mon Oct 14 01:13:09 2019, MaxMem= 10737418240 cpu:               0.9 elap:               0.1
 (Enter /apps/cent7/gaussian/g16-A.03/g16-haswell/g16/l202.exe)
                          Input orientation:                          
 ---------------------------------------------------------------------
 Center     Atomic      Atomic             Coordinates (Angstroms)
 Number     Number       Type             X           Y           Z
 ---------------------------------------------------------------------
      1          8           0       -0.695638   -1.206184    0.022629
      2          6           0        0.032416    0.080344    0.036928
      3          6           0       -0.713866    1.241108    0.025083
      4          6           0        0.003235    2.438542   -0.008241
      5          6           0        1.399560    2.422618   -0.006928
      6          6           0        2.097349    1.212616    0.010756
      7          6           0        1.409995   -0.002185    0.017696
      8          1           0       -0.504409   -1.811081    0.779911
      9          1           0       -1.802121    1.239796    0.037136
     10          1           0       -0.540265    3.376475   -0.023207
     11          1           0        1.947367    3.358558   -0.024364
     12          1           0        3.181494    1.200545   -0.001649
     13          1           0        1.934831   -0.952746   -0.009514
     14          1           0       -1.670405   -1.125777   -0.110421
 ---------------------------------------------------------------------
                    Distance matrix (angstroms):
                    1          2          3          4          5
     1  O    0.000000
     2  C    1.478317   0.000000
     3  C    2.447361   1.380018   0.000000
     4  C    3.711253   2.358810   1.396135   0.000000
     5  C    4.190338   2.712425   2.421479   1.396417   0.000000
     6  C    3.694795   2.355137   2.811396   2.426637   1.396899
     7  C    2.425558   1.380184   2.461020   2.817232   2.424950
     8  H    0.987899   2.101832   3.151110   4.351802   4.708336
     9  H    2.684648   2.170219   1.088322   2.167569   3.413469
    10  H    4.585522   3.346051   2.142957   1.084129   2.161720
    11  H    5.274899   3.797036   3.401206   2.150893   1.084611
    12  H    4.563452   3.342609   3.895663   3.410867   2.160736
    13  H    2.642845   2.165321   3.439446   3.902806   3.417543
    14  H    0.987086   2.091898   2.556457   3.939020   4.693240
                    6          7          8          9         10
     6  C    0.000000
     7  C    1.395795   0.000000
     8  H    4.062449   2.741902   0.000000
     9  H    3.899653   3.443920   3.397591   0.000000
    10  H    3.411810   3.901350   5.249479   2.482200   0.000000
    11  H    2.151464   3.403693   5.777823   4.307156   2.487697
    12  H    1.084284   2.141294   4.823549   4.983920   4.311221
    13  H    2.171546   1.086167   2.703669   4.332923   4.986827
    14  H    4.436071   3.281423   1.619221   2.373828   4.642747
                   11         12         13         14
    11  H    0.000000
    12  H    2.486082   0.000000
    13  H    4.311348   2.488151   0.000000
    14  H    5.762373   5.381870   3.610796   0.000000
 Stoichiometry    C6H7O(1+)
 Framework group  C1[X(C6H7O)]
 Deg. of freedom    36
 Full point group                 C1      NOp   1
 RotChk:  IX=0 Diff= 5.26D-03
 Largest Abelian subgroup         C1      NOp   1
 Largest concise Abelian subgroup C1      NOp   1
[...]
 ! D5    D(1,2,3,4)            180.0            -DE/DX =    0.0                 !
 ! D6    D(1,2,3,9)              0.0            -DE/DX =    0.0                 !
 ! D7    D(7,2,3,4)              0.0            -DE/DX =    0.0                 !
 ! D8    D(7,2,3,9)            180.0            -DE/DX =    0.0                 !
 ! D9    D(1,2,7,6)           -180.0            -DE/DX =    0.0                 !
 ! D10   D(1,2,7,13)             0.0            -DE/DX =    0.0                 !
 ! D11   D(3,2,7,6)              0.0            -DE/DX =    0.0                 !
 ! D12   D(3,2,7,13)          -180.0            -DE/DX =    0.0                 !
 ! D13   D(2,3,4,5)              0.0            -DE/DX =    0.0                 !
 ! D14   D(2,3,4,10)          -180.0            -DE/DX =    0.0                 !
 ! D15   D(9,3,4,5)            180.0            -DE/DX =    0.0                 !
 ! D16   D(9,3,4,10)             0.0            -DE/DX =    0.0                 !
 ! D17   D(3,4,5,6)              0.0            -DE/DX =    0.0                 !
 ! D18   D(3,4,5,11)          -180.0            -DE/DX =    0.0                 !
 ! D19   D(10,4,5,6)          -180.0            -DE/DX =    0.0                 !
 ! D20   D(10,4,5,11)            0.0            -DE/DX =    0.0                 !
 ! D21   D(4,5,6,7)              0.0            -DE/DX =    0.0                 !
 ! D22   D(4,5,6,12)           180.0            -DE/DX =    0.0                 !
 ! D23   D(11,5,6,7)          -180.0            -DE/DX =    0.0                 !
 ! D24   D(11,5,6,12)            0.0            -DE/DX =    0.0                 !
 ! D25   D(5,6,7,2)              0.0            -DE/DX =    0.0                 !
 ! D26   D(5,6,7,13)           180.0            -DE/DX =    0.0                 !
 ! D27   D(12,6,7,2)          -180.0            -DE/DX =    0.0                 !
 ! D28   D(12,6,7,13)            0.0            -DE/DX =    0.0                 !
 --------------------------------------------------------------------------------
 GradGradGradGradGradGradGradGradGradGradGradGradGradGradGradGradGradGrad

 Leave Link  103 at Mon Oct 14 01:13:56 2019, MaxMem= 10737418240 cpu:               0.5 elap:               0.0
 (Enter /apps/cent7/gaussian/g16-A.03/g16-haswell/g16/l9999.exe)

 ----------------------------------------------------------------------

 Electric dipole moment (input orientation):
 (Debye = 10**-18 statcoulomb cm , SI units = C m)
                  (au)            (Debye)         (10**-30 SI)
   Tot        0.242347D+01      0.615985D+01      0.205471D+02
   x         -0.161574D+01     -0.410680D+01     -0.136988D+02
   y         -0.180132D+01     -0.457849D+01     -0.152722D+02
   z          0.133703D+00      0.339839D+00      0.113358D+01

 Dipole polarizability, Alpha (input orientation).
 (esu units = cm**3 , SI units = C**2 m**2 J**-1)
 Alpha(0;0):
               (au)            (10**-24 esu)      (10**-40 SI)
   iso        0.572343D+02      0.848125D+01      0.943667D+01
   aniso      0.484722D+02      0.718284D+01      0.799199D+01
   xx         0.726817D+02      0.107703D+02      0.119836D+02
   yx         0.313212D+01      0.464133D+00      0.516417D+00
   yy         0.736357D+02      0.109117D+02      0.121409D+02
   zx        -0.344624D+01     -0.510679D+00     -0.568207D+00
   zy        -0.716753D+00     -0.106212D+00     -0.118177D+00
   zz         0.253856D+02      0.376176D+01      0.418552D+01

 ----------------------------------------------------------------------

 Dipole orientation:
     8          0.60600339         -0.34993311          2.59502483
     6          0.11485353          0.13272825         -0.17535348
     6         -1.68871880          1.90783751         -0.82127069
     6         -2.06379622          2.27632409         -3.41121150
     6         -0.66012844          0.89370508         -5.17127952
     6          1.13623024         -0.87471270         -4.38600002
     6          1.56160150         -1.29312527         -1.80997594
     1          1.28035302          1.11922015          3.50910385
     1         -2.76005918          2.96350992          0.57490842
     1         -3.45542536          3.64656422         -4.03521509
     1         -0.97116043          1.19944244         -7.17504942
     1          2.21783976         -1.93989223         -5.76414417
     1          2.94029316         -2.65038522         -1.13475331
     1         -0.85098449         -1.05030710          3.50906249

 Electric dipole moment (dipole orientation):
 (Debye = 10**-18 statcoulomb cm , SI units = C m)
                  (au)            (Debye)         (10**-30 SI)
   Tot        0.242347D+01      0.615985D+01      0.205471D+02
   x          0.000000D+00      0.000000D+00      0.000000D+00
   y          0.000000D+00      0.000000D+00      0.000000D+00
   z          0.242347D+01      0.615985D+01      0.205471D+02

 Dipole polarizability, Alpha (dipole orientation).
 (esu units = cm**3 , SI units = C**2 m**2 J**-1)
 Alpha(0;0):
               (au)            (10**-24 esu)      (10**-40 SI)
   iso        0.572343D+02      0.848125D+01      0.943667D+01
   aniso      0.484722D+02      0.718284D+01      0.799199D+01
   xx         0.479560D+02      0.710635D+01      0.790688D+01
   yx        -0.224773D+02     -0.333080D+01     -0.370601D+01
   yy         0.472656D+02      0.700404D+01      0.779305D+01
   zx         0.222632D-01      0.329907D-02      0.367071D-02
   zy        -0.461588D-02     -0.684002D-03     -0.761055D-03
   zz         0.764813D+02      0.113334D+02      0.126101D+02

 ----------------------------------------------------------------------
 1\1\GINC-BROWN-A226\Freq\RB3LYP\6-31G(d)\C6H7O1(1+)\FINEJ\14-Oct-2019\
 0\\#P Geom=AllCheck Guess=TCheck SCRF=Check GenChk RB3LYP/6-31G(d) Fre
 q\\Title Card Required\\1,1\O,-0.6429754659,-1.259517755,0.1519237002\
 C,0.0640547248,0.073889988,0.0876068976\C,-0.70157647,1.2236979357,0.1
 306383763\C,0.0057177553,2.4285036405,0.0676323144\C,1.4001739071,2.42
 33685443,-0.0323525421\C,2.1127652802,1.2222255179,-0.0712284619\C,1.4
 381915648,-0.0021923881,-0.0105220084\H,-1.1240554482,-1.4162475434,0.
 9943796042\H,-1.7846194974,1.2069425411,0.2086494941\H,-0.5408645663,3
 .3652435153,0.097393268\H,1.9358736124,3.3658814877,-0.0803309261\H,3.
 194953238,1.2269383405,-0.1488294545\H,1.9595155218,-0.9525903448,-0.0
 382465919\H,-1.2376110865,-1.4335133999,-0.6108980199\\Version=ES64L-G
 16RevA.03\State=1-A\HF=-307.7621952\RMSD=4.606e-09\RMSF=3.719e-05\Zero
 Point=0.1163638\Thermal=0.1163638\Dipole=-1.6157377,-1.8013157,0.13370
 3\DipoleDeriv=-0.4488991,-0.3107136,0.0179433,-0.3224763,-0.8675124,0.
 0295501,0.0179101,0.0284024,-0.2451014,0.5630082,0.3534256,-0.0474923,
 0.3260206,0.8963815,-0.033013,-0.0469669,-0.0345532,-0.0463526,-0.0702
 216,-0.0564724,0.0004404,0.0745388,-0.1789676,-0.0043537,-0.0011087,0.
 0050097,-0.0717184,-0.0386879,-0.0641171,-0.001587,-0.1247761,0.106396
 8,0.0071583,-0.001001,0.0028481,-0.0704237,0.026486,0.1146971,-0.00583
 55,0.0908753,0.1258637,-0.0081612,-0.0056166,-0.009927,-0.0380048,0.15
 8974,-0.017543,-0.0161378,0.0839095,-0.0640147,-0.0060633,-0.0171366,0
 .0012426,-0.0674278,-0.1623842,0.0320759,0.008654,-0.1321559,-0.065041
 1,0.0097606,0.0103538,-0.0022285,-0.0371787,0.3335928,-0.0208141,-0.03
 29641,0.0173257,0.3767389,-0.0854819,-0.0987077,-0.1620353,0.4569873,0
 .0173046,-0.0366254,0.0096477,-0.0412616,0.0957108,0.0034995,0.0097924
 ,0.0031689,0.1458551,0.0562597,0.0197913,0.0053087,0.0214947,0.036942,
 -0.0005622,0.0053203,-0.0004413,0.1327394,0.0670073,-0.0290368,0.00485
 ,-0.0287486,0.0323065,0.0030606,0.0048322,0.0030687,0.130154,0.0267833
 ,0.0030678,0.0075049,-0.0025692,0.0706179,0.0008003,0.0075972,0.000401
 ,0.1313344,0.1164485,0.0091749,0.0022121,0.0063734,0.0526777,0.000497,
 0.0021955,0.0003885,0.1482309,0.3543283,0.0030899,0.0474557,0.0314496,
 0.3819,0.0833089,0.1125361,0.1646553,0.4309062\Polar=72.6817035,3.1321
 234,73.6357104,-3.4462351,-0.716753,25.3855866\Quadrupole=3.5650431,6.
 2732073,-9.8382504,8.5068329,-1.0550117,-0.7706422\PG=C01 [X(C6H7O1)]\
 NImag=0\\0.41563739,0.16348378,0.22443895,0.01986292,-0.00621069,0.720
 88166,-0.06344251,0.00646350,-0.00011827,0.68779053,-0.02308675,-0.089
 00463,0.00185880,-0.13654467,0.50608355,0.00018847,-0.00022033,-0.0648
 4061,-0.03882869,0.00595325,0.13107926,0.00263849,-0.03692490,0.000063
 36,-0.20806608,0.16443014,0.00967405,0.77076914,0.00147493,-0.04463134
 ,0.00034131,0.08794914,-0.24760505,-0.00427507,-0.01234051,0.65308092,
 -0.00032017,0.00308377,-0.00166642,0.01044588,-0.00975236,-0.05035247,
 -0.04658263,-0.00456871,0.12352812,0.00272547,0.01477973,0.00022757,0.
 06227277,-0.03925693,-0.00388934,-0.17910504,-0.05438080,0.00903289,0.
 68170351,0.00163274,-0.00247538,-0.00001300,0.02905290,-0.06439611,-0.
 00140403,-0.12448650,-0.28134621,0.01117832,-0.04125671,0.72959419,0.0
 0036931,-0.00095317,0.00808327,-0.00459532,0.00349967,0.00265987,0.009
 75263,0.00614238,-0.06165411,-0.03877083,-0.00307045,0.13846974,-0.001
 32386,-0.00100508,0.00000824,-0.05539000,0.03028672,0.00323361,-0.0220
 0617,-0.07398336,0.00280969,-0.33695159,0.03269609,0.01921678,0.689194
 58,0.00088164,0.00116556,-0.00009300,0.02825602,-0.02225547,-0.0018619
 1,-0.03095736,0.03241984,0.00195725,-0.02997719,-0.13290815,0.00284138
 ,0.03552689,0.73683651,-0.00001323,0.00004553,-0.00139469,0.00325448,-
 0.00200719,-0.00624771,0.00236498,0.00504701,0.00637663,0.01984642,-0.
 00165246,-0.06589881,-0.03964255,-0.00859583,0.14437957,-0.00722724,-0
 .00370241,0.00122172,-0.02639591,-0.02333284,0.00226142,0.00120722,-0.
 00172528,-0.00035935,-0.02567009,0.03191440,0.00209983,-0.18758606,0.1
 2251318,0.00758271,0.75139677,0.00394139,0.00502343,-0.00024280,-0.090
 26387,0.02698525,0.00622943,0.00738582,-0.06368514,0.00008106,0.071447
 57,0.03539248,-0.00540197,0.06021949,-0.28624238,-0.00205805,-0.001557
 62,0.66156795,0.00113864,0.00031473,0.00909781,0.00295483,0.00141802,0
 .00169940,-0.00045384,0.00072927,-0.00405947,0.00169813,-0.00256456,0.
 00801568,0.00821256,-0.00653106,-0.06499073,-0.04402937,-0.00520159,0.
 14016824,-0.01451678,-0.01208881,0.00101424,-0.35218147,0.00570667,0.0
 2164696,-0.02921872,0.07123970,0.00199088,-0.04858144,-0.03154199,0.00
 351181,0.06459110,-0.02223220,-0.00394841,-0.17675230,-0.05132824,0.00
 873302,0.69697156,-0.04390160,-0.01858014,0.00333462,0.08240153,-0.105
 82724,-0.00536281,0.02197984,0.02676037,-0.00177004,-0.02217774,-0.013
 15694,0.00168494,0.01937003,-0.05376779,-0.00078389,-0.12117785,-0.284
 75960,0.01092963,-0.06028288,0.74059785,0.00132866,0.00102892,-0.00230
 656,0.02086925,0.00015449,-0.05212134,0.00248320,-0.00530101,0.0084764
 0,0.00342235,0.00236109,-0.00437977,-0.00437911,0.00221269,0.00668556,
 0.00945108,0.00591681,-0.06278459,-0.04054038,-0.00192131,0.12706462,-
 0.14370828,-0.05927892,0.18924032,-0.00892536,0.00055422,0.00623274,0.
 00255907,0.00094088,0.00028151,-0.00097060,0.00007204,-0.00032319,0.00
 053949,-0.00021316,-0.00001943,-0.00099064,0.00094992,-0.00120349,-0.0
 0115368,-0.00347502,0.00096749,0.13599294,-0.04699121,-0.03771489,0.03
 163452,-0.01375371,-0.00274141,0.02013913,-0.00038967,0.00052159,0.000
 70026,-0.00025922,-0.00048756,-0.00169504,0.00008051,0.00003007,0.0003
 0360,-0.00057430,0.00006721,-0.00118861,0.00039020,-0.00230699,0.00153
 749,0.05236242,0.04103178,0.14872784,0.04094646,-0.35582692,0.00559261
 ,0.00937608,0.00807359,-0.00222263,-0.00168249,-0.00024492,0.00055596,
 -0.00033764,0.00013619,-0.00030734,-0.00001073,0.00010209,-0.00040817,
 -0.00036554,0.00001130,-0.00066641,-0.00162124,-0.00024331,-0.17086746
 ,-0.04872755,0.36896984,0.00202598,-0.00056256,-0.00043950,-0.01235483
 ,-0.00391700,0.00112318,-0.34334496,-0.00161032,0.02240101,-0.01014083
 ,0.00120274,0.00098860,0.00056729,-0.00253677,0.00048845,0.00059621,-0
 .00048212,-0.00012270,0.00129646,0.00269614,0.00017097,-0.00021567,0.0
 0101499,-0.00005056,0.36177974,-0.00024446,0.00348483,-0.00006120,0.02
 745127,0.00250041,-0.00197111,-0.00154474,-0.05803016,0.00038257,-0.02
 877870,0.00578953,0.00204731,-0.00190256,-0.00493528,0.00025833,-0.000
 33313,-0.00109798,0.00002283,0.00145919,-0.00484353,-0.00001308,0.0003
 5338,-0.00070587,0.00037491,0.00305147,0.05678634,-0.00044488,-0.00003
 773,-0.00414323,0.00079559,0.00028752,0.00264727,0.02240960,0.00038372
 ,-0.03344780,0.00129275,-0.00010733,0.00369616,0.00048061,0.00030370,0
 .00697256,-0.00012414,0.00003333,-0.00117346,0.00018519,-0.00010176,0.
 00405147,0.00016931,0.00106817,0.00009397,-0.02438173,-0.00056866,0.02
 466473,-0.00021933,-0.00270387,0.00010207,-0.00086710,-0.00112258,0.00
 051574,0.01138451,-0.01732799,-0.00038595,-0.13315232,0.12688765,0.005
 52996,-0.01012179,0.02797951,0.00075517,-0.00554126,-0.00116212,0.0008
 6975,-0.00080617,-0.00084115,0.00002351,0.00006351,0.00000714,-0.00015
 870,0.00095671,0.00040132,-0.00038042,0.13755416,0.00005690,-0.0020101
 3,0.00002479,-0.00327357,-0.00077794,0.00030404,0.01348525,-0.01947813
 ,-0.00073308,0.12642697,-0.27604473,-0.00666795,-0.00212878,0.00576308
 ,0.00013860,-0.00080001,0.00098597,0.00011209,-0.00057497,0.00029448,0
 .00003260,0.00008047,0.00001903,-0.00021081,0.00025585,0.00107437,-0.0
 0007250,-0.13357742,0.28922398,0.00007307,0.00022366,0.00080916,0.0005
 4071,0.00015011,0.00612769,-0.00069947,0.00147994,0.00357704,0.0055361
 5,-0.00670350,-0.03854584,0.00105965,-0.00202131,0.00430016,0.00086492
 ,0.00013877,0.00635360,0.00001967,0.00005060,-0.00060176,-0.00008747,-
 0.00019062,0.00010943,-0.00037906,-0.00008370,-0.00425569,-0.00663303,
 0.00692627,0.02671504,0.00024141,-0.00026742,-0.00012025,-0.00137501,0
 .00141887,0.00018135,-0.00520705,0.00045591,0.00084803,-0.01099073,-0.
 02799581,0.00136964,-0.13084450,-0.12396681,0.00770044,0.01246996,0.01
 602565,-0.00074990,-0.00104728,0.00352432,0.00052792,-0.00001212,0.000
 11226,-0.00003211,-0.00052132,-0.00138898,0.00004874,0.00102037,0.0001
 0807,-0.00035363,0.13500224,-0.00017774,-0.00001562,-0.00000175,0.0014
 5215,0.00029141,-0.00009389,0.00098210,0.00130751,-0.00001589,0.002225
 42,0.00539061,-0.00017218,-0.12402572,-0.27860819,0.01130571,-0.014147
 30,-0.01807132,0.00124048,0.00301484,-0.00300965,-0.00011587,0.0000058
 5,-0.00000898,-0.00001577,0.00023924,0.00025271,-0.00002019,-0.0001108
 6,0.00068192,-0.00003853,0.13136640,0.29160076,-0.00012181,0.00000360,
 -0.00146559,0.00018041,-0.00008947,0.00134842,0.00084215,0.00002078,0.
 00661097,0.00106515,0.00199534,0.00405769,0.00769928,0.01130145,-0.041
 65775,-0.00044336,-0.00092462,0.00431604,0.00053408,-0.00015181,0.0067
 7960,0.00023816,0.00027692,-0.00011384,0.00003210,0.00009659,-0.000043
 01,-0.00035162,-0.00005396,-0.00386984,-0.00905317,-0.01210170,0.02810
 958,-0.00036839,0.00001066,0.00008239,0.00109802,-0.00199380,0.0003903
 3,0.00063740,0.00022034,-0.00009081,0.00020988,0.00257134,0.00042425,-
 0.00963993,-0.00181295,0.00102934,-0.34866247,-0.00133798,0.02221874,-
 0.00974343,0.00096548,0.00096740,-0.00003690,-0.00003976,-0.00010115,-
 0.00005603,-0.00000618,-0.00004249,-0.00046049,-0.00024287,0.00002194,
 0.00074885,-0.00005319,-0.00033557,0.36556709,-0.00242969,-0.00145091,
 0.00019883,-0.00007899,-0.00255777,0.00009304,0.00000599,-0.00118534,0
 .00000599,0.00228288,-0.00471878,-0.00004983,0.02828451,0.00517787,-0.
 00203573,-0.00093289,-0.05943310,0.00027376,-0.02991180,0.00198193,0.0
 0216522,-0.00019931,-0.00020381,-0.00016080,0.00002325,0.00015864,-0.0
 0000997,0.00142972,0.00023526,-0.00010695,-0.00027017,0.00095432,-0.00
 003002,0.00158898,0.05999975,0.00010625,0.00002198,0.00077178,0.000370
 69,0.00023259,0.00624824,-0.00008795,-0.00001195,-0.00059621,0.0004295
 2,-0.00006996,0.00647016,0.00072262,0.00012384,0.00440128,0.02221526,0
 .00030069,-0.04042294,0.00128059,-0.00004634,0.00378218,-0.00000018,-0
 .00023663,0.00004921,-0.00004293,-0.00000772,-0.00064593,0.00000493,0.
 00001298,-0.00018831,-0.00033373,-0.00004590,-0.00391819,-0.02431824,-
 0.00045262,0.02823757,0.00234921,0.00099146,-0.00053178,-0.01196080,0.
 02772987,0.00084409,-0.00501331,-0.00207539,0.00066870,-0.00036633,-0.
 00087511,-0.00005251,-0.00160586,-0.00325066,0.00064678,0.01389742,-0.
 01485192,-0.00055928,-0.12768687,0.12413814,0.00547253,-0.00012492,0.0
 0014014,0.00016081,-0.00036122,0.00118719,0.00011824,0.00009059,0.0000
 7291,-0.00005029,0.00055858,-0.00077435,-0.00003777,0.00072706,0.00038
 083,-0.00036060,0.12974853,0.00022304,0.00100453,-0.00007556,-0.002600
 62,0.00266850,0.00019901,-0.00117702,0.00133416,0.00011135,-0.00105240
 ,-0.00018690,0.00006508,-0.00345969,-0.00270078,0.00034545,0.01424229,
 -0.01682559,-0.00080899,0.12596330,-0.28109938,-0.00652154,-0.00002007
 ,0.00017880,0.00004605,-0.00022668,0.00030118,0.00002786,0.00010319,0.
 00000598,-0.00001356,0.00080601,-0.00075109,-0.00005081,0.00013291,0.0
 0123610,-0.00006535,-0.13289299,0.29466452,-0.00052125,-0.00013213,-0.
 00484922,0.00116036,-0.00198548,0.00371001,0.00065901,0.00017980,0.003
 92955,-0.00005247,0.00005217,-0.00121528,0.00064880,0.00032970,0.00690
 139,-0.00085508,0.00127585,0.00403618,0.00544743,-0.00638095,-0.034169
 05,0.00076039,0.00039286,0.00014370,0.00013284,-0.00007361,0.00144710,
 -0.00005061,-0.00001149,-0.00059639,-0.00005373,0.00006216,-0.00007673
 ,-0.00035711,-0.00008293,-0.00421391,-0.00621410,0.00678253,0.02467492
 ,-0.19481156,-0.06919514,-0.21061302,-0.01020224,-0.00087191,-0.003573
 92,0.00276548,0.00116274,-0.00073967,-0.00098266,0.00012623,0.00047903
 ,0.00057729,-0.00021015,-0.00004514,-0.00074160,0.00101403,0.00129292,
 -0.00117100,-0.00321923,-0.00076488,0.01698316,0.00790020,0.01977730,-
 0.00022753,0.00029495,-0.00012638,0.00009862,0.00011121,0.00008685,-0.
 00004339,0.00000314,-0.00024803,-0.00002067,-0.00017331,0.00001378,-0.
 00025208,-0.00004126,-0.00070449,0.18802818,-0.05486297,-0.03923425,-0
 .03069486,-0.01651107,-0.00336352,-0.01772876,-0.00044843,0.00053697,-
 0.00066050,-0.00002285,-0.00044605,0.00172982,0.00004094,0.00002511,-0
 .00031108,-0.00038624,0.00009282,0.00125400,0.00018698,-0.00228336,-0.
 00153651,0.00786730,0.00232103,0.00238909,0.00085178,-0.00073520,-0.00
 118617,0.00003745,0.00002686,0.00018883,0.00007170,-0.00001438,-0.0002
 9228,-0.00000297,-0.00019416,0.00024440,0.00007988,0.00016995,-0.00040
 849,0.06309849,0.04309819,-0.17037383,-0.03811460,-0.30315045,-0.00262
 253,-0.00909603,0.00996837,0.00179753,0.00151501,-0.00047729,-0.000394
 23,0.00033601,0.00010507,0.00023717,0.00004385,0.00007044,0.00052253,0
 .00021863,-0.00026707,0.00079135,0.00214035,-0.00023346,-0.02538870,-0
 .00401453,-0.02126033,0.00007932,-0.00040345,0.00013586,0.00015920,0.0
 0019841,0.00006571,0.00002041,0.00001333,-0.00007734,0.00011097,0.0001
 9201,0.00002509,-0.00010483,-0.00004151,0.00027773,0.19516564,0.047012
 52,0.31481766\\0.00009817,0.00004941,0.00000141,-0.00000375,0.00003829
 ,0.00004491,-0.00004622,-0.00011517,-0.00002483,0.00004723,0.00005154,
 -0.00000374,-0.00001502,0.00001351,-0.00000702,-0.00000395,0.00003428,
 0.00001904,-0.00003858,-0.00010733,-0.00003744,-0.00003422,0.00000072,
 0.00001518,0.00000829,0.00002124,0.00000389,-0.00000432,-0.00000109,0.
 00000593,0.00000494,-0.00000237,-0.00000110,0.00000525,-0.00000535,0.0
 0000506,0.00002159,0.00002548,-0.00000209,-0.00003942,-0.00000315,-0.0
 0001920\\\@


 THE MEEK SHALL INHERIT THE EARTH.
 (THE REST OF US WILL ESCAPE TO THE STARS)
 Job cpu time:       0 days  0 hours  4 minutes 34.4 seconds.
 Elapsed time:       0 days  0 hours  0 minutes 11.9 seconds.
 File lengths (MBytes):  RWF=     29 Int=      0 D2E=      0 Chk=      2 Scr=      1
 Normal termination of Gaussian 16 at Mon Oct 14 01:13:56 2019.
real 54.41
user 1150.24
sys 15.91
Machine:
brown-a226
brown-a226
brown-a226
brown-a226
brown-a226
brown-a226
brown-a226
brown-a226
brown-a226
brown-a226
brown-a226
brown-a226
brown-a226
brown-a226
brown-a226
brown-a226
brown-a226
brown-a226
brown-a226
brown-a226
brown-a226
brown-a226
brown-a226
brown-a226
