 Entering Gaussian System, Link 0=/apps/cent7/gaussian/g16-A.03/g16-haswell/g16/g16
 Initial command:
 /apps/cent7/gaussian/g16-A.03/g16-haswell/g16/l1.exe "/scratch/brown/finej/gaussian/Gau-41061.inp" -scrdir="/scratch/brown/finej/gaussian/"
 Entering Link 1 = /apps/cent7/gaussian/g16-A.03/g16-haswell/g16/l1.exe PID=     41062.
  
 Copyright (c) 1988,1990,1992,1993,1995,1998,2003,2009,2016,
            Gaussian, Inc.  All Rights Reserved.
  
 This is part of the Gaussian(R) 16 program.  It is based on
 the Gaussian(R) 09 system (copyright 2009, Gaussian, Inc.),
 the Gaussian(R) 03 system (copyright 2003, Gaussian, Inc.),
 the Gaussian(R) 98 system (copyright 1998, Gaussian, Inc.),
 the Gaussian(R) 94 system (copyright 1995, Gaussian, Inc.),
 the Gaussian 92(TM) system (copyright 1992, Gaussian, Inc.),
 the Gaussian 90(TM) system (copyright 1990, Gaussian, Inc.),
 the Gaussian 88(TM) system (copyright 1988, Gaussian, Inc.),
 the Gaussian 86(TM) system (copyright 1986, Carnegie Mellon
 University), and the Gaussian 82(TM) system (copyright 1983,
 Carnegie Mellon University). Gaussian is a federally registered
 trademark of Gaussian, Inc.
  
 This software contains proprietary and confidential information,
 including trade secrets, belonging to Gaussian, Inc.
  
 This software is provided under written license and may be
 used, copied, transmitted, or stored only in accord with that
 written license.
  
 The following legend is applicable only to US Government
 contracts under FAR:
  
                    RESTRICTED RIGHTS LEGEND
  
 Use, reproduction and disclosure by the US Government is
 subject to restrictions as set forth in subparagraphs (a)
 and (c) of the Commercial Computer Software - Restricted
 Rights clause in FAR 52.227-19.
  
 Gaussian, Inc.
 340 Quinnipiac St., Bldg. 40, Wallingford CT 06492
  
  
 ---------------------------------------------------------------
 Warning -- This program may not be used in any manner that
 competes with the business of Gaussian, Inc. or will provide
 assistance to any competitor of Gaussian, Inc.  The licensee
 of this program is prohibited from giving any competitor of
 Gaussian, Inc. access to this program.  By using this program,
 the user acknowledges that Gaussian, Inc. is engaged in the
 business of creating and licensing software in the field of
 computational chemistry and represents and warrants to the
 licensee that it is not a competitor of Gaussian, Inc. and that
 it will not use this program in any manner prohibited above.
 ---------------------------------------------------------------
  

 Cite this work as:
 Gaussian 16, Revision A.03,
 M. J. Frisch, G. W. Trucks, H. B. Schlegel, G. E. Scuseria, 
 M. A. Robb, J. R. Cheeseman, G. Scalmani, V. Barone, 
 G. A. Petersson, H. Nakatsuji, X. Li, M. Caricato, A. V. Marenich, 
 J. Bloino, B. G. Janesko, R. Gomperts, B. Mennucci, H. P. Hratchian, 
 J. V. Ortiz, A. F. Izmaylov, J. L. Sonnenberg, D. Williams-Young, 
 F. Ding, F. Lipparini, F. Egidi, J. Goings, B. Peng, A. Petrone, 
 T. Henderson, D. Ranasinghe, V. G. Zakrzewski, J. Gao, N. Rega, 
 G. Zheng, W. Liang, M. Hada, M. Ehara, K. Toyota, R. Fukuda, 
 J. Hasegawa, M. Ishida, T. Nakajima, Y. Honda, O. Kitao, H. Nakai, 
 T. Vreven, K. Throssell, J. A. Montgomery, Jr., J. E. Peralta, 
 F. Ogliaro, M. J. Bearpark, J. J. Heyd, E. N. Brothers, K. N. Kudin, 
 V. N. Staroverov, T. A. Keith, R. Kobayashi, J. Normand, 
 K. Raghavachari, A. P. Rendell, J. C. Burant, S. S. Iyengar, 
 J. Tomasi, M. Cossi, J. M. Millam, M. Klene, C. Adamo, R. Cammi, 
 J. W. Ochterski, R. L. Martin, K. Morokuma, O. Farkas, 
 J. B. Foresman, and D. J. Fox, Gaussian, Inc., Wallingford CT, 2016.
 
 ******************************************
 Gaussian 16:  ES64L-G16RevA.03 25-Dec-2016
                14-Oct-2019 
 ******************************************
 %chk=22.chk
 %nprocshared=24
 Will use up to   24 processors via shared memory.
 %mem=80GB
 --------------------------------------------------------------
 #P opt freq b3lyp/6-31g(d) geom=connectivity temperature=0.001
 --------------------------------------------------------------
 1/18=20,19=15,26=3,38=1,57=2,112=-1000/1,3;
 2/9=110,12=2,17=6,18=5,40=1/2;
 3/5=1,6=6,7=1,11=2,25=1,30=1,71=1,74=-5/1,2,3;
 4//1;
 5/5=2,38=5/2;
 6/7=2,8=2,9=2,10=2,28=1/1;
 7//1,2,3,16;
 1/18=20,19=15,26=3/3(2);
 2/9=110/2;
 99//99;
 2/9=110/2;
 3/5=1,6=6,7=1,11=2,25=1,30=1,71=1,74=-5/1,2,3;
 4/5=5,16=3,69=1/1;
 5/5=2,38=5/2;
 7//1,2,3,16;
 1/18=20,19=15,26=3/3(-5);
 2/9=110/2;
 6/7=2,8=2,9=2,10=2,19=2,28=1/1;
 99/9=1/99;
 Leave Link    1 at Mon Oct 14 01:15:18 2019, MaxMem= 10737418240 cpu:               0.9 elap:               0.0
 (Enter /apps/cent7/gaussian/g16-A.03/g16-haswell/g16/l101.exe)
 -------------------
 Title Card Required
 -------------------
 Symbolic Z-matrix:
 Charge =  0 Multiplicity = 1
 O                    -0.0951    2.9154    1.3701 
 S                    -0.3951    1.7832    0.2792 
 C                     0.8845    0.4973    0.467 
 C                     1.1733    0.1618   -1.0101 
 C                     1.2142    1.485    -1.8222 
 C                     0.0923    2.4454   -1.3523 
 H                     1.8051    0.9215    0.8677 
 H                     0.4643   -0.407     0.9072 
 H                     2.1748   -0.2668   -1.0462 
 H                     0.3215   -0.4117   -1.3757 
 H                     2.1595    1.9703   -1.5793 
 H                     0.9856    1.2234   -2.8554 
 H                     0.5721    3.4176   -1.2387 
 H                    -0.7176    2.318    -2.0705 
 
 ITRead=  0  0  0  0  0  0  0  0  0  0  0  0  0  0
 MicOpt= -1 -1 -1 -1 -1 -1 -1 -1 -1 -1 -1 -1 -1 -1
 NAtoms=     14 NQM=       14 NQMF=       0 NMMI=      0 NMMIF=      0
                NMic=       0 NMicF=      0.
                    Isotopes and Nuclear Properties:
 (Nuclear quadrupole moments (NQMom) in fm**2, nuclear magnetic moments (NMagM)
  in nuclear magnetons)

  Atom         1           2           3           4           5           6           7           8           9          10
 IAtWgt=          16          32          12          12          12          12           1           1           1           1
 AtmWgt=  15.9949146  31.9720718  12.0000000  12.0000000  12.0000000  12.0000000   1.0078250   1.0078250   1.0078250   1.0078250
 NucSpn=           0           0           0           0           0           0           1           1           1           1
 AtZEff=  -0.0000000  -0.0000000  -0.0000000  -0.0000000  -0.0000000  -0.0000000  -0.0000000  -0.0000000  -0.0000000  -0.0000000
 NQMom=    0.0000000   0.0000000   0.0000000   0.0000000   0.0000000   0.0000000   0.0000000   0.0000000   0.0000000   0.0000000
 NMagM=    0.0000000   0.0000000   0.0000000   0.0000000   0.0000000   0.0000000   2.7928460   2.7928460   2.7928460   2.7928460
 AtZNuc=   8.0000000  16.0000000   6.0000000   6.0000000   6.0000000   6.0000000   1.0000000   1.0000000   1.0000000   1.0000000

  Atom        11          12          13          14
 IAtWgt=           1           1           1           1
 AtmWgt=   1.0078250   1.0078250   1.0078250   1.0078250
 NucSpn=           1           1           1           1
 AtZEff=  -0.0000000  -0.0000000  -0.0000000  -0.0000000
 NQMom=    0.0000000   0.0000000   0.0000000   0.0000000
 NMagM=    2.7928460   2.7928460   2.7928460   2.7928460
 AtZNuc=   1.0000000   1.0000000   1.0000000   1.0000000
 Leave Link  101 at Mon Oct 14 01:15:19 2019, MaxMem= 10737418240 cpu:               8.9 elap:               0.4
 (Enter /apps/cent7/gaussian/g16-A.03/g16-haswell/g16/l103.exe)

 GradGradGradGradGradGradGradGradGradGradGradGradGradGradGradGradGradGrad
 Berny optimization.
 Initialization pass.
                           ----------------------------
                           !    Initial Parameters    !
                           ! (Angstroms and Degrees)  !
 --------------------------                            --------------------------
 ! Name  Definition              Value          Derivative Info.                !
 --------------------------------------------------------------------------------
 ! R1    R(1,2)                  1.6006         estimate D2E/DX2                !
 ! R2    R(2,3)                  1.8238         estimate D2E/DX2                !
 ! R3    R(2,6)                  1.827          estimate D2E/DX2                !
 ! R4    R(3,4)                  1.542          estimate D2E/DX2                !
 ! R5    R(3,7)                  1.09           estimate D2E/DX2                !
 ! R6    R(3,8)                  1.09           estimate D2E/DX2                !
 ! R7    R(4,5)                  1.5531         estimate D2E/DX2                !
 ! R8    R(4,9)                  1.09           estimate D2E/DX2                !
 ! R9    R(4,10)                 1.09           estimate D2E/DX2                !
 ! R10   R(5,6)                  1.5498         estimate D2E/DX2                !
 ! R11   R(5,11)                 1.09           estimate D2E/DX2                !
 ! R12   R(5,12)                 1.09           estimate D2E/DX2                !
 ! R13   R(6,13)                 1.0901         estimate D2E/DX2                !
 ! R14   R(6,14)                 1.0899         estimate D2E/DX2                !
 ! A1    A(1,2,3)              107.2807         estimate D2E/DX2                !
 ! A2    A(1,2,6)              107.5923         estimate D2E/DX2                !
 ! A3    A(3,2,6)               99.2264         estimate D2E/DX2                !
 ! A4    A(2,3,4)              100.7295         estimate D2E/DX2                !
 ! A5    A(2,3,7)              110.8578         estimate D2E/DX2                !
 ! A6    A(2,3,8)              110.8584         estimate D2E/DX2                !
 ! A7    A(4,3,7)              106.1793         estimate D2E/DX2                !
 ! A8    A(4,3,8)              106.1735         estimate D2E/DX2                !
 ! A9    A(7,3,8)              120.0013         estimate D2E/DX2                !
 ! A10   A(3,4,5)              108.6902         estimate D2E/DX2                !
 ! A11   A(3,4,9)              106.8203         estimate D2E/DX2                !
 ! A12   A(3,4,10)             106.8224         estimate D2E/DX2                !
 ! A13   A(5,4,9)              107.0681         estimate D2E/DX2                !
 ! A14   A(5,4,10)             107.0652         estimate D2E/DX2                !
 ! A15   A(9,4,10)             120.0025         estimate D2E/DX2                !
 ! A16   A(4,5,6)              110.5098         estimate D2E/DX2                !
 ! A17   A(4,5,11)             106.5973         estimate D2E/DX2                !
 ! A18   A(4,5,12)             106.597          estimate D2E/DX2                !
 ! A19   A(6,5,11)             106.5188         estimate D2E/DX2                !
 ! A20   A(6,5,12)             106.5169         estimate D2E/DX2                !
 ! A21   A(11,5,12)            119.9966         estimate D2E/DX2                !
 ! A22   A(2,6,5)              103.8435         estimate D2E/DX2                !
 ! A23   A(2,6,13)             110.3418         estimate D2E/DX2                !
 ! A24   A(2,6,14)             110.3545         estimate D2E/DX2                !
 ! A25   A(5,6,13)             105.4058         estimate D2E/DX2                !
 ! A26   A(5,6,14)             105.4077         estimate D2E/DX2                !
 ! A27   A(13,6,14)            119.9983         estimate D2E/DX2                !
 ! D1    D(1,2,3,4)           -139.7804         estimate D2E/DX2                !
 ! D2    D(1,2,3,7)            -27.7136         estimate D2E/DX2                !
 ! D3    D(1,2,3,8)            108.159          estimate D2E/DX2                !
 ! D4    D(6,2,3,4)            -27.99           estimate D2E/DX2                !
 ! D5    D(6,2,3,7)             84.0768         estimate D2E/DX2                !
 ! D6    D(6,2,3,8)           -140.0506         estimate D2E/DX2                !
 ! D7    D(1,2,6,5)            118.1742         estimate D2E/DX2                !
 ! D8    D(1,2,6,13)             5.6447         estimate D2E/DX2                !
 ! D9    D(1,2,6,14)          -129.2887         estimate D2E/DX2                !
 ! D10   D(3,2,6,5)              6.6302         estimate D2E/DX2                !
 ! D11   D(3,2,6,13)          -105.8993         estimate D2E/DX2                !
 ! D12   D(3,2,6,14)           119.1672         estimate D2E/DX2                !
 ! D13   D(2,3,4,5)             41.6222         estimate D2E/DX2                !
 ! D14   D(2,3,4,9)            156.8338         estimate D2E/DX2                !
 ! D15   D(2,3,4,10)           -73.5872         estimate D2E/DX2                !
 ! D16   D(7,3,4,5)            -73.9918         estimate D2E/DX2                !
 ! D17   D(7,3,4,9)             41.2199         estimate D2E/DX2                !
 ! D18   D(7,3,4,10)           170.7988         estimate D2E/DX2                !
 ! D19   D(8,3,4,5)            157.2348         estimate D2E/DX2                !
 ! D20   D(8,3,4,9)            -87.5535         estimate D2E/DX2                !
 ! D21   D(8,3,4,10)            42.0255         estimate D2E/DX2                !
 ! D22   D(3,4,5,6)            -40.6512         estimate D2E/DX2                !
 ! D23   D(3,4,5,11)            74.7066         estimate D2E/DX2                !
 ! D24   D(3,4,5,12)          -156.0066         estimate D2E/DX2                !
 ! D25   D(9,4,5,6)           -155.7019         estimate D2E/DX2                !
 ! D26   D(9,4,5,11)           -40.3441         estimate D2E/DX2                !
 ! D27   D(9,4,5,12)            88.9427         estimate D2E/DX2                !
 ! D28   D(10,4,5,6)            74.4005         estimate D2E/DX2                !
 ! D29   D(10,4,5,11)         -170.2417         estimate D2E/DX2                !
 ! D30   D(10,4,5,12)          -40.9549         estimate D2E/DX2                !
 ! D31   D(4,5,6,2)             17.646          estimate D2E/DX2                !
 ! D32   D(4,5,6,13)           133.7031         estimate D2E/DX2                !
 ! D33   D(4,5,6,14)           -98.4261         estimate D2E/DX2                !
 ! D34   D(11,5,6,2)           -97.761          estimate D2E/DX2                !
 ! D35   D(11,5,6,13)           18.2962         estimate D2E/DX2                !
 ! D36   D(11,5,6,14)          146.1669         estimate D2E/DX2                !
 ! D37   D(12,5,6,2)           133.0516         estimate D2E/DX2                !
 ! D38   D(12,5,6,13)         -110.8912         estimate D2E/DX2                !
 ! D39   D(12,5,6,14)           16.9795         estimate D2E/DX2                !
 --------------------------------------------------------------------------------
 Trust Radius=3.00D-01 FncErr=1.00D-07 GrdErr=1.00D-06 EigMax=2.50D+02 EigMin=1.00D-04
 Number of steps in this run=     90 maximum allowed number of steps=    100.
 GradGradGradGradGradGradGradGradGradGradGradGradGradGradGradGradGradGrad

 Leave Link  103 at Mon Oct 14 01:15:19 2019, MaxMem= 10737418240 cpu:               0.2 elap:               0.0
 (Enter /apps/cent7/gaussian/g16-A.03/g16-haswell/g16/l202.exe)
                          Input orientation:                          
 ---------------------------------------------------------------------
 Center     Atomic      Atomic             Coordinates (Angstroms)
 Number     Number       Type             X           Y           Z
 ---------------------------------------------------------------------
      1          8           0       -0.095100    2.915400    1.370100
      2         16           0       -0.395100    1.783200    0.279200
      3          6           0        0.884500    0.497300    0.467000
      4          6           0        1.173300    0.161800   -1.010100
      5          6           0        1.214200    1.485000   -1.822200
      6          6           0        0.092300    2.445400   -1.352300
      7          1           0        1.805100    0.921500    0.867700
      8          1           0        0.464300   -0.407000    0.907200
      9          1           0        2.174800   -0.266800   -1.046200
     10          1           0        0.321500   -0.411700   -1.375700
     11          1           0        2.159500    1.970300   -1.579300
     12          1           0        0.985600    1.223400   -2.855400
     13          1           0        0.572100    3.417600   -1.238700
     14          1           0       -0.717600    2.318000   -2.070500
 ---------------------------------------------------------------------
                    Distance matrix (angstroms):
                    1          2          3          4          5
     1  O    0.000000
     2  S    1.600606   0.000000
     3  C    2.760872   1.823783   0.000000
     4  C    3.854414   2.598290   1.542008   0.000000
     5  C    3.735116   2.663579   2.514894   1.553074   0.000000
     6  C    2.769022   1.826981   2.780742   2.549606   1.549785
     7  H    2.799786   2.435106   1.089959   2.121897   2.811095
     8  H    3.400816   2.435144   1.090001   2.121851   3.404650
     9  H    4.595362   3.544513   2.130375   1.089956   2.143299
    10  H    4.333886   2.840739   2.130444   1.090013   2.143303
    11  H    3.830848   3.164650   2.825367   2.137113   1.090004
    12  H    4.678208   3.470652   3.402320   2.137138   1.090043
    13  H    2.739197   2.431205   3.396345   3.318725   2.118421
    14  H    3.547129   2.431277   3.510068   3.057638   2.118347
                    6          7          8          9         10
     6  C    0.000000
     7  H    3.191294   0.000000
     8  H    3.657856   1.887913   0.000000
     9  H    3.433152   2.282925   2.600238   0.000000
    10  H    2.866374   3.001889   2.287367   1.887932   0.000000
    11  H    2.133205   2.685775   3.835093   2.299793   3.015563
    12  H    2.133208   3.824160   4.133657   2.628326   2.303062
    13  H    1.090085   3.491092   4.386807   4.022500   3.839936
    14  H    1.089945   4.116703   4.205854   4.012027   3.002289
                   11         12         13         14
    11  H    0.000000
    12  H    1.887944   0.000000
    13  H    2.174977   2.756667   0.000000
    14  H    2.939367   2.171430   1.887945   0.000000
 Stoichiometry    C4H8OS
 Framework group  C1[X(C4H8OS)]
 Deg. of freedom    36
 Full point group                 C1      NOp   1
 Largest Abelian subgroup         C1      NOp   1
 Largest concise Abelian subgroup C1      NOp   1
                         Standard orientation:                         
 ---------------------------------------------------------------------
 Center     Atomic      Atomic             Coordinates (Angstroms)
 Number     Number       Type             X           Y           Z
 ---------------------------------------------------------------------
      1          8           0       -2.101494    0.022103    0.547184
      2         16           0       -0.854209   -0.049455   -0.453366
      3          6           0        0.246957   -1.373367    0.147363
      4          6           0        1.627096   -0.725007   -0.082061
      5          6           0        1.552892    0.766961    0.342867
      6          6           0        0.211085    1.395018   -0.112032
      7          1           0        0.147180   -1.501936    1.225104
      8          1           0        0.205858   -2.240995   -0.511147
      9          1           0        2.323428   -1.216817    0.597091
     10          1           0        1.809329   -0.742885   -1.156584
     11          1           0        1.547634    0.780386    1.432775
     12          1           0        2.339496    1.286160   -0.204747
     13          1           0       -0.160176    1.943510    0.753766
     14          1           0        0.438359    1.925412   -1.036699
 ---------------------------------------------------------------------
 Rotational constants (GHZ):           5.0973552           2.6227095           2.0147382
 Leave Link  202 at Mon Oct 14 01:15:19 2019, MaxMem= 10737418240 cpu:               0.3 elap:               0.0
 (Enter /apps/cent7/gaussian/g16-A.03/g16-haswell/g16/l301.exe)
 Standard basis: 6-31G(d) (6D, 7F)
 Ernie: Thresh=  0.10000D-02 Tol=  0.10000D-05 Strict=F.
 There are   110 symmetry adapted cartesian basis functions of A   symmetry.
 There are   110 symmetry adapted basis functions of A   symmetry.
   110 basis functions,   224 primitive gaussians,   110 cartesian basis functions
    28 alpha electrons       28 beta electrons
       nuclear repulsion energy       319.3838012813 Hartrees.
 IExCor=  402 DFT=T Ex+Corr=B3LYP ExCW=0 ScaHFX=  0.200000
 ScaDFX=  0.800000  0.720000  1.000000  0.810000 ScalE2=  1.000000  1.000000
 IRadAn=      5 IRanWt=     -1 IRanGd=            0 ICorTp=0 IEmpDi=  4
 NAtoms=   14 NActive=   14 NUniq=   14 SFac= 1.00D+00 NAtFMM=   60 NAOKFM=F Big=F
 Integral buffers will be    131072 words long.
 Raffenetti 2 integral format.
 Two-electron integral symmetry is turned on.
 Leave Link  301 at Mon Oct 14 01:15:19 2019, MaxMem= 10737418240 cpu:               1.3 elap:               0.1
 (Enter /apps/cent7/gaussian/g16-A.03/g16-haswell/g16/l302.exe)
 NPDir=0 NMtPBC=     1 NCelOv=     1 NCel=       1 NClECP=     1 NCelD=      1
         NCelK=      1 NCelE2=     1 NClLst=     1 CellRange=     0.0.
 One-electron integrals computed using PRISM.
 One-electron integral symmetry used in STVInt
 NBasis=   110 RedAO= T EigKep=  3.82D-03  NBF=   110
 NBsUse=   110 1.00D-06 EigRej= -1.00D+00 NBFU=   110
 Precomputing XC quadrature grid using
 IXCGrd= 4 IRadAn=           5 IRanWt=          -1 IRanGd=           0 AccXCQ= 0.00D+00.
 Generated NRdTot=       0 NPtTot=           0 NUsed=           0 NTot=          32
 NSgBfM=   110   110   110   110   110 MxSgAt=    14 MxSgA2=    14.
 Leave Link  302 at Mon Oct 14 01:15:19 2019, MaxMem= 10737418240 cpu:               3.0 elap:               0.2
 (Enter /apps/cent7/gaussian/g16-A.03/g16-haswell/g16/l303.exe)
 DipDrv:  MaxL=1.
 Leave Link  303 at Mon Oct 14 01:15:19 2019, MaxMem= 10737418240 cpu:               0.7 elap:               0.1
 (Enter /apps/cent7/gaussian/g16-A.03/g16-haswell/g16/l401.exe)
 ExpMin= 1.17D-01 ExpMax= 2.19D+04 ExpMxC= 3.30D+03 IAcc=3 IRadAn=         5 AccDes= 0.00D+00
 Harris functional with IExCor=  402 and IRadAn=       5 diagonalized for initial guess.
 HarFok:  IExCor=  402 AccDes= 0.00D+00 IRadAn=         5 IDoV= 1 UseB2=F ITyADJ=14
 ICtDFT=  3500011 ScaDFX=  1.000000  1.000000  1.000000  1.000000
 FoFCou: FMM=F IPFlag=           0 FMFlag=      100000 FMFlg1=           0
         NFxFlg=           0 DoJE=T BraDBF=F KetDBF=T FulRan=T
         wScrn=  0.000000 ICntrl=       500 IOpCl=  0 I1Cent=   200000004 NGrid=           0
         NMat0=    1 NMatS0=      1 NMatT0=    0 NMatD0=    1 NMtDS0=    0 NMtDT0=    0
 Petite list used in FoFCou.
 Harris En= -630.620260931451    
 JPrj=0 DoOrth=F DoCkMO=F.
 Leave Link  401 at Mon Oct 14 01:15:19 2019, MaxMem= 10737418240 cpu:               5.3 elap:               0.3
 (Enter /apps/cent7/gaussian/g16-A.03/g16-haswell/g16/l502.exe)
 Integral symmetry usage will be decided dynamically.
 Closed shell SCF:
 Using DIIS extrapolation, IDIIS=  1040.
 NGot= 10737418240 LenX= 10737389983 LenY= 10737377442
 Requested convergence on RMS density matrix=1.00D-08 within 128 cycles.
 Requested convergence on MAX density matrix=1.00D-06.
 Requested convergence on             energy=1.00D-06.
 No special actions if energy rises.
 Fock matrices will be formed incrementally for  20 cycles.
 Integral accuracy reduced to 1.0D-05 until final iterations.

 Cycle   1  Pass 0  IDiag  1:
 FoFJK:  IHMeth= 1 ICntrl=       0 DoSepK=F KAlg= 0 I1Cent=           0 FoldK=F
 IRaf= 990000000 NMat=       1 IRICut=       1 DoRegI=T DoRafI=F ISym2E= 0 IDoP0=0 IntGTp=1.
 FoFCou: FMM=F IPFlag=           0 FMFlag=      100000 FMFlg1=           0
         NFxFlg=           0 DoJE=F BraDBF=F KetDBF=F FulRan=T
         wScrn=  0.000000 ICntrl=         0 IOpCl=  0 I1Cent=           0 NGrid=           0
         NMat0=    1 NMatS0=      1 NMatT0=    0 NMatD0=    1 NMtDS0=    0 NMtDT0=    0
 Symmetry not used in FoFCou.
 E= -630.269452513614    
 DIIS: error= 4.99D-02 at cycle   1 NSaved=   1.
 NSaved= 1 IEnMin= 1 EnMin= -630.269452513614     IErMin= 1 ErrMin= 4.99D-02
 ErrMax= 4.99D-02  0.00D+00 EMaxC= 1.00D-01 BMatC= 3.29D-01 BMatP= 3.29D-01
 IDIUse=3 WtCom= 5.01D-01 WtEn= 4.99D-01
 Coeff-Com:  0.100D+01
 Coeff-En:   0.100D+01
 Coeff:      0.100D+01
 Gap=     0.210 Goal=   None    Shift=    0.000
 GapD=    0.210 DampG=1.000 DampE=0.500 DampFc=0.5000 IDamp=-1.
 Damping current iteration by 5.00D-01
 RMSDP=2.65D-02 MaxDP=6.38D-01              OVMax= 4.55D-01

 Cycle   2  Pass 0  IDiag  1:
 RMSU=  1.32D-02    CP:  1.02D+00
 E= -630.194303046532     Delta-E=        0.075149467083 Rises=F Damp=T
 DIIS: error= 3.46D-02 at cycle   2 NSaved=   2.
 NSaved= 2 IEnMin= 1 EnMin= -630.269452513614     IErMin= 2 ErrMin= 3.46D-02
 ErrMax= 3.46D-02  0.00D+00 EMaxC= 1.00D-01 BMatC= 1.47D-01 BMatP= 3.29D-01
 IDIUse=3 WtCom= 6.54D-01 WtEn= 3.46D-01
 Coeff-Com:  0.375D+00 0.625D+00
 Coeff-En:   0.578D+00 0.422D+00
 Coeff:      0.445D+00 0.555D+00
 Gap=     0.172 Goal=   None    Shift=    0.000
 RMSDP=1.16D-02 MaxDP=3.08D-01 DE= 7.51D-02 OVMax= 3.61D-01

 Cycle   3  Pass 0  IDiag  1:
 RMSU=  5.47D-03    CP:  9.90D-01  2.27D-01
 E= -630.484965033690     Delta-E=       -0.290661987159 Rises=F Damp=F
 DIIS: error= 2.52D-02 at cycle   3 NSaved=   3.
 NSaved= 3 IEnMin= 3 EnMin= -630.484965033690     IErMin= 3 ErrMin= 2.52D-02
 ErrMax= 2.52D-02  0.00D+00 EMaxC= 1.00D-01 BMatC= 8.64D-02 BMatP= 1.47D-01
 IDIUse=3 WtCom= 7.48D-01 WtEn= 2.52D-01
 Coeff-Com:  0.199D+00 0.392D+00 0.409D+00
 Coeff-En:   0.701D-01 0.000D+00 0.930D+00
 Coeff:      0.167D+00 0.293D+00 0.540D+00
 Gap=     0.221 Goal=   None    Shift=    0.000
 RMSDP=5.53D-03 MaxDP=1.00D-01 DE=-2.91D-01 OVMax= 1.19D-01

 Cycle   4  Pass 0  IDiag  1:
 RMSU=  2.72D-03    CP:  1.01D+00  4.67D-01  3.55D-01
 E= -630.555324262886     Delta-E=       -0.070359229196 Rises=F Damp=F
 DIIS: error= 1.12D-02 at cycle   4 NSaved=   4.
 NSaved= 4 IEnMin= 4 EnMin= -630.555324262886     IErMin= 4 ErrMin= 1.12D-02
 ErrMax= 1.12D-02  0.00D+00 EMaxC= 1.00D-01 BMatC= 2.12D-02 BMatP= 8.64D-02
 IDIUse=3 WtCom= 8.88D-01 WtEn= 1.12D-01
 Coeff-Com:  0.435D-01 0.669D-02 0.316D+00 0.634D+00
 Coeff-En:   0.000D+00 0.000D+00 0.209D+00 0.791D+00
 Coeff:      0.386D-01 0.594D-02 0.304D+00 0.651D+00
 Gap=     0.219 Goal=   None    Shift=    0.000
 RMSDP=2.09D-03 MaxDP=4.40D-02 DE=-7.04D-02 OVMax= 4.67D-02

 Cycle   5  Pass 0  IDiag  1:
 RMSU=  5.04D-04    CP:  1.00D+00  3.62D-01  5.61D-01  6.57D-01
 E= -630.574478047835     Delta-E=       -0.019153784949 Rises=F Damp=F
 DIIS: error= 9.61D-04 at cycle   5 NSaved=   5.
 NSaved= 5 IEnMin= 5 EnMin= -630.574478047835     IErMin= 5 ErrMin= 9.61D-04
 ErrMax= 9.61D-04  0.00D+00 EMaxC= 1.00D-01 BMatC= 2.06D-04 BMatP= 2.12D-02
 IDIUse=3 WtCom= 9.90D-01 WtEn= 9.61D-03
 Coeff-Com:  0.157D-02-0.146D-01 0.654D-01 0.207D+00 0.740D+00
 Coeff-En:   0.000D+00 0.000D+00 0.000D+00 0.000D+00 0.100D+01
 Coeff:      0.155D-02-0.144D-01 0.648D-01 0.205D+00 0.743D+00
 Gap=     0.216 Goal=   None    Shift=    0.000
 RMSDP=2.38D-04 MaxDP=3.86D-03 DE=-1.92D-02 OVMax= 4.57D-03

 Cycle   6  Pass 0  IDiag  1:
 RMSU=  1.09D-04    CP:  1.00D+00  3.70D-01  5.51D-01  7.01D-01  7.39D-01
 E= -630.574660328407     Delta-E=       -0.000182280573 Rises=F Damp=F
 DIIS: error= 3.15D-04 at cycle   6 NSaved=   6.
 NSaved= 6 IEnMin= 6 EnMin= -630.574660328407     IErMin= 6 ErrMin= 3.15D-04
 ErrMax= 3.15D-04  0.00D+00 EMaxC= 1.00D-01 BMatC= 1.53D-05 BMatP= 2.06D-04
 IDIUse=3 WtCom= 9.97D-01 WtEn= 3.15D-03
 Coeff-Com:  0.960D-03-0.530D-02 0.878D-02 0.261D-01 0.202D+00 0.768D+00
 Coeff-En:   0.000D+00 0.000D+00 0.000D+00 0.000D+00 0.000D+00 0.100D+01
 Coeff:      0.957D-03-0.528D-02 0.875D-02 0.261D-01 0.201D+00 0.768D+00
 Gap=     0.217 Goal=   None    Shift=    0.000
 RMSDP=6.72D-05 MaxDP=1.32D-03 DE=-1.82D-04 OVMax= 1.53D-03

 Cycle   7  Pass 0  IDiag  1:
 RMSU=  2.64D-05    CP:  1.00D+00  3.66D-01  5.54D-01  6.92D-01  7.84D-01
                    CP:  8.64D-01
 E= -630.574674596908     Delta-E=       -0.000014268501 Rises=F Damp=F
 DIIS: error= 6.58D-05 at cycle   7 NSaved=   7.
 NSaved= 7 IEnMin= 7 EnMin= -630.574674596908     IErMin= 7 ErrMin= 6.58D-05
 ErrMax= 6.58D-05  0.00D+00 EMaxC= 1.00D-01 BMatC= 8.12D-07 BMatP= 1.53D-05
 IDIUse=1 WtCom= 1.00D+00 WtEn= 0.00D+00
 Coeff-Com:  0.654D-03-0.170D-02 0.843D-03 0.145D-03 0.425D-01 0.307D+00
 Coeff-Com:  0.651D+00
 Coeff:      0.654D-03-0.170D-02 0.843D-03 0.145D-03 0.425D-01 0.307D+00
 Coeff:      0.651D+00
 Gap=     0.217 Goal=   None    Shift=    0.000
 RMSDP=1.28D-05 MaxDP=2.09D-04 DE=-1.43D-05 OVMax= 2.44D-04

 Cycle   8  Pass 0  IDiag  1:
 RMSU=  5.97D-06    CP:  1.00D+00  3.66D-01  5.54D-01  6.91D-01  7.82D-01
                    CP:  9.06D-01  8.27D-01
 E= -630.574675380761     Delta-E=       -0.000000783853 Rises=F Damp=F
 DIIS: error= 1.52D-05 at cycle   8 NSaved=   8.
 NSaved= 8 IEnMin= 8 EnMin= -630.574675380761     IErMin= 8 ErrMin= 1.52D-05
 ErrMax= 1.52D-05  0.00D+00 EMaxC= 1.00D-01 BMatC= 5.07D-08 BMatP= 8.12D-07
 IDIUse=1 WtCom= 1.00D+00 WtEn= 0.00D+00
 Coeff-Com:  0.269D-03-0.482D-03-0.985D-04-0.142D-02 0.498D-02 0.836D-01
 Coeff-Com:  0.279D+00 0.634D+00
 Coeff:      0.269D-03-0.482D-03-0.985D-04-0.142D-02 0.498D-02 0.836D-01
 Coeff:      0.279D+00 0.634D+00
 Gap=     0.217 Goal=   None    Shift=    0.000
 RMSDP=3.05D-06 MaxDP=5.65D-05 DE=-7.84D-07 OVMax= 7.38D-05

 Initial convergence to 1.0D-05 achieved.  Increase integral accuracy.
 Cycle   9  Pass 1  IDiag  1:
 E= -630.574669008727     Delta-E=        0.000006372035 Rises=F Damp=F
 DIIS: error= 6.67D-06 at cycle   1 NSaved=   1.
 NSaved= 1 IEnMin= 1 EnMin= -630.574669008727     IErMin= 1 ErrMin= 6.67D-06
 ErrMax= 6.67D-06  0.00D+00 EMaxC= 1.00D-01 BMatC= 9.98D-09 BMatP= 9.98D-09
 IDIUse=1 WtCom= 1.00D+00 WtEn= 0.00D+00
 Coeff-Com:  0.100D+01
 Coeff:      0.100D+01
 Gap=     0.217 Goal=   None    Shift=    0.000
 RMSDP=3.05D-06 MaxDP=5.65D-05 DE= 6.37D-06 OVMax= 4.01D-05

 Cycle  10  Pass 1  IDiag  1:
 RMSU=  3.06D-06    CP:  1.00D+00
 E= -630.574669013154     Delta-E=       -0.000000004428 Rises=F Damp=F
 DIIS: error= 4.38D-06 at cycle   2 NSaved=   2.
 NSaved= 2 IEnMin= 2 EnMin= -630.574669013154     IErMin= 2 ErrMin= 4.38D-06
 ErrMax= 4.38D-06  0.00D+00 EMaxC= 1.00D-01 BMatC= 7.52D-09 BMatP= 9.98D-09
 IDIUse=1 WtCom= 1.00D+00 WtEn= 0.00D+00
 Coeff-Com:  0.456D+00 0.544D+00
 Coeff:      0.456D+00 0.544D+00
 Gap=     0.217 Goal=   None    Shift=    0.000
 RMSDP=1.08D-06 MaxDP=2.25D-05 DE=-4.43D-09 OVMax= 2.16D-05

 Cycle  11  Pass 1  IDiag  1:
 RMSU=  9.29D-07    CP:  1.00D+00  8.22D-01
 E= -630.574669019603     Delta-E=       -0.000000006449 Rises=F Damp=F
 DIIS: error= 1.67D-06 at cycle   3 NSaved=   3.
 NSaved= 3 IEnMin= 3 EnMin= -630.574669019603     IErMin= 3 ErrMin= 1.67D-06
 ErrMax= 1.67D-06  0.00D+00 EMaxC= 1.00D-01 BMatC= 9.67D-10 BMatP= 7.52D-09
 IDIUse=1 WtCom= 1.00D+00 WtEn= 0.00D+00
 Coeff-Com:  0.353D-01 0.261D+00 0.703D+00
 Coeff:      0.353D-01 0.261D+00 0.703D+00
 Gap=     0.217 Goal=   None    Shift=    0.000
 RMSDP=5.53D-07 MaxDP=1.27D-05 DE=-6.45D-09 OVMax= 1.22D-05

 Cycle  12  Pass 1  IDiag  1:
 RMSU=  3.91D-07    CP:  1.00D+00  9.23D-01  7.69D-01
 E= -630.574669020249     Delta-E=       -0.000000000646 Rises=F Damp=F
 DIIS: error= 1.43D-06 at cycle   4 NSaved=   4.
 NSaved= 4 IEnMin= 4 EnMin= -630.574669020249     IErMin= 4 ErrMin= 1.43D-06
 ErrMax= 1.43D-06  0.00D+00 EMaxC= 1.00D-01 BMatC= 3.25D-10 BMatP= 9.67D-10
 IDIUse=1 WtCom= 1.00D+00 WtEn= 0.00D+00
 Coeff-Com: -0.799D-02 0.140D+00 0.482D+00 0.386D+00
 Coeff:     -0.799D-02 0.140D+00 0.482D+00 0.386D+00
 Gap=     0.217 Goal=   None    Shift=    0.000
 RMSDP=2.64D-07 MaxDP=5.54D-06 DE=-6.46D-10 OVMax= 6.20D-06

 Cycle  13  Pass 1  IDiag  1:
 RMSU=  9.74D-08    CP:  1.00D+00  9.02D-01  8.05D-01  4.18D-01
 E= -630.574669020519     Delta-E=       -0.000000000271 Rises=F Damp=F
 DIIS: error= 3.13D-07 at cycle   5 NSaved=   5.
 NSaved= 5 IEnMin= 5 EnMin= -630.574669020519     IErMin= 5 ErrMin= 3.13D-07
 ErrMax= 3.13D-07  0.00D+00 EMaxC= 1.00D-01 BMatC= 1.95D-11 BMatP= 3.25D-10
 IDIUse=1 WtCom= 1.00D+00 WtEn= 0.00D+00
 Coeff-Com: -0.879D-02 0.579D-01 0.221D+00 0.240D+00 0.489D+00
 Coeff:     -0.879D-02 0.579D-01 0.221D+00 0.240D+00 0.489D+00
 Gap=     0.217 Goal=   None    Shift=    0.000
 RMSDP=5.70D-08 MaxDP=1.24D-06 DE=-2.71D-10 OVMax= 1.33D-06

 Cycle  14  Pass 1  IDiag  1:
 RMSU=  2.80D-08    CP:  1.00D+00  9.05D-01  8.13D-01  4.87D-01  6.03D-01
 E= -630.574669020534     Delta-E=       -0.000000000014 Rises=F Damp=F
 DIIS: error= 4.97D-08 at cycle   6 NSaved=   6.
 NSaved= 6 IEnMin= 6 EnMin= -630.574669020534     IErMin= 6 ErrMin= 4.97D-08
 ErrMax= 4.97D-08  0.00D+00 EMaxC= 1.00D-01 BMatC= 4.95D-13 BMatP= 1.95D-11
 IDIUse=1 WtCom= 1.00D+00 WtEn= 0.00D+00
 Coeff-Com: -0.320D-02 0.173D-01 0.677D-01 0.807D-01 0.205D+00 0.632D+00
 Coeff:     -0.320D-02 0.173D-01 0.677D-01 0.807D-01 0.205D+00 0.632D+00
 Gap=     0.217 Goal=   None    Shift=    0.000
 RMSDP=9.50D-09 MaxDP=1.50D-07 DE=-1.43D-11 OVMax= 2.17D-07

 SCF Done:  E(RB3LYP) =  -630.574669021     A.U. after   14 cycles
            NFock= 14  Conv=0.95D-08     -V/T= 2.0056
 KE= 6.270788671905D+02 PE=-2.125263444939D+03 EE= 5.482261074465D+02
 Leave Link  502 at Mon Oct 14 01:15:21 2019, MaxMem= 10737418240 cpu:              42.3 elap:               1.8
 (Enter /apps/cent7/gaussian/g16-A.03/g16-haswell/g16/l601.exe)
 Copying SCF densities to generalized density rwf, IOpCl= 0 IROHF=0.

 **********************************************************************

            Population analysis using the SCF density.

 **********************************************************************

 Orbital symmetries:
       Occupied  (A) (A) (A) (A) (A) (A) (A) (A) (A) (A) (A) (A)
                 (A) (A) (A) (A) (A) (A) (A) (A) (A) (A) (A) (A)
                 (A) (A) (A) (A)
       Virtual   (A) (A) (A) (A) (A) (A) (A) (A) (A) (A) (A) (A)
                 (A) (A) (A) (A) (A) (A) (A) (A) (A) (A) (A) (A)
                 (A) (A) (A) (A) (A) (A) (A) (A) (A) (A) (A) (A)
                 (A) (A) (A) (A) (A) (A) (A) (A) (A) (A) (A) (A)
                 (A) (A) (A) (A) (A) (A) (A) (A) (A) (A) (A) (A)
                 (A) (A) (A) (A) (A) (A) (A) (A) (A) (A) (A) (A)
                 (A) (A) (A) (A) (A) (A) (A) (A) (A) (A)
 The electronic state is 1-A.
 Alpha  occ. eigenvalues --  -88.96955 -19.08430 -10.21845 -10.21765 -10.20915
 Alpha  occ. eigenvalues --  -10.20757  -8.01859  -5.98227  -5.98200  -5.97562
 Alpha  occ. eigenvalues --   -0.94807  -0.84792  -0.75472  -0.71714  -0.59439
 Alpha  occ. eigenvalues --   -0.58503  -0.52312  -0.47484  -0.47118  -0.42645
 Alpha  occ. eigenvalues --   -0.40743  -0.37048  -0.36686  -0.35846  -0.34862
 Alpha  occ. eigenvalues --   -0.32728  -0.23293  -0.20300
 Alpha virt. eigenvalues --    0.01384   0.05098   0.06436   0.08051   0.10680
 Alpha virt. eigenvalues --    0.11355   0.14420   0.15337   0.16228   0.17950
 Alpha virt. eigenvalues --    0.18447   0.20155   0.21095   0.24980   0.35171
 Alpha virt. eigenvalues --    0.38551   0.41359   0.46114   0.47871   0.50420
 Alpha virt. eigenvalues --    0.52520   0.54580   0.56938   0.57831   0.59960
 Alpha virt. eigenvalues --    0.64453   0.65996   0.70695   0.74236   0.76671
 Alpha virt. eigenvalues --    0.83370   0.84707   0.85399   0.86196   0.87338
 Alpha virt. eigenvalues --    0.89324   0.90030   0.91118   0.91906   0.92562
 Alpha virt. eigenvalues --    0.97628   1.05587   1.06259   1.09165   1.10097
 Alpha virt. eigenvalues --    1.15462   1.18066   1.30515   1.41874   1.43023
 Alpha virt. eigenvalues --    1.47573   1.63450   1.68685   1.74793   1.82421
 Alpha virt. eigenvalues --    1.86398   1.88896   1.90793   1.94490   1.97789
 Alpha virt. eigenvalues --    2.00773   2.01096   2.04551   2.05870   2.08322
 Alpha virt. eigenvalues --    2.13493   2.18309   2.20981   2.23562   2.28286
 Alpha virt. eigenvalues --    2.32259   2.37976   2.54040   2.55817   2.65312
 Alpha virt. eigenvalues --    2.71402   3.80004   3.95212   4.13950   4.21162
 Alpha virt. eigenvalues --    4.42858   4.50135
          Condensed to atoms (all electrons):
               1          2          3          4          5          6
     1  O    8.421280   0.315584  -0.046999   0.001577   0.001519  -0.045468
     2  S    0.315584  15.038011   0.031238  -0.037859  -0.029992   0.016564
     3  C   -0.046999   0.031238   5.609682   0.288023  -0.064152  -0.012774
     4  C    0.001577  -0.037859   0.288023   5.138761   0.365707  -0.049242
     5  C    0.001519  -0.029992  -0.064152   0.365707   5.092565   0.294822
     6  C   -0.045468   0.016564  -0.012774  -0.049242   0.294822   5.635685
     7  H    0.003418  -0.008949   0.336148  -0.029940  -0.000755  -0.006588
     8  H    0.001107  -0.026113   0.365022  -0.032181   0.005173   0.002964
     9  H   -0.000085   0.000648  -0.026889   0.365311  -0.036451   0.006618
    10  H   -0.000023   0.005597  -0.047763   0.375986  -0.041316  -0.003997
    11  H    0.000221   0.004127  -0.001400  -0.041102   0.385170  -0.046064
    12  H   -0.000050  -0.000723   0.006476  -0.036055   0.367738  -0.030426
    13  H    0.002836  -0.013937  -0.001749   0.005012  -0.026062   0.349754
    14  H    0.001403  -0.015355   0.002628  -0.000077  -0.032988   0.346872
               7          8          9         10         11         12
     1  O    0.003418   0.001107  -0.000085  -0.000023   0.000221  -0.000050
     2  S   -0.008949  -0.026113   0.000648   0.005597   0.004127  -0.000723
     3  C    0.336148   0.365022  -0.026889  -0.047763  -0.001400   0.006476
     4  C   -0.029940  -0.032181   0.365311   0.375986  -0.041102  -0.036055
     5  C   -0.000755   0.005173  -0.036451  -0.041316   0.385170   0.367738
     6  C   -0.006588   0.002964   0.006618  -0.003997  -0.046064  -0.030426
     7  H    0.528288  -0.018456  -0.009347   0.005656   0.003422  -0.000325
     8  H   -0.018456   0.515230  -0.000475  -0.005946  -0.000079  -0.000195
     9  H   -0.009347  -0.000475   0.560487  -0.019017  -0.007170   0.001047
    10  H    0.005656  -0.005946  -0.019017   0.575626   0.005595  -0.007792
    11  H    0.003422  -0.000079  -0.007170   0.005595   0.561902  -0.020088
    12  H   -0.000325  -0.000195   0.001047  -0.007792  -0.020088   0.573125
    13  H    0.000727  -0.000066  -0.000271  -0.000031  -0.009033   0.000915
    14  H   -0.000011  -0.000054  -0.000165   0.001487   0.004902  -0.011248
              13         14
     1  O    0.002836   0.001403
     2  S   -0.013937  -0.015355
     3  C   -0.001749   0.002628
     4  C    0.005012  -0.000077
     5  C   -0.026062  -0.032988
     6  C    0.349754   0.346872
     7  H    0.000727  -0.000011
     8  H   -0.000066  -0.000054
     9  H   -0.000271  -0.000165
    10  H   -0.000031   0.001487
    11  H   -0.009033   0.004902
    12  H    0.000915  -0.011248
    13  H    0.496779  -0.017421
    14  H   -0.017421   0.535969
 Mulliken charges:
               1
     1  O   -0.656322
     2  S    0.721158
     3  C   -0.437492
     4  C   -0.313922
     5  C   -0.280978
     6  C   -0.458720
     7  H    0.196711
     8  H    0.194068
     9  H    0.165758
    10  H    0.155937
    11  H    0.159596
    12  H    0.157600
    13  H    0.212547
    14  H    0.184059
 Sum of Mulliken charges =  -0.00000
 Mulliken charges with hydrogens summed into heavy atoms:
               1
     1  O   -0.656322
     2  S    0.721158
     3  C   -0.046713
     4  C    0.007773
     5  C    0.036218
     6  C   -0.062114
 Electronic spatial extent (au):  <R**2>=            663.5456
 Charge=             -0.0000 electrons
 Dipole moment (field-independent basis, Debye):
    X=              4.9581    Y=             -0.0282    Z=             -0.9199  Tot=              5.0428
 Quadrupole moment (field-independent basis, Debye-Ang):
   XX=            -53.4347   YY=            -40.0547   ZZ=            -42.8778
   XY=              0.0034   XZ=              2.3491   YZ=             -0.3634
 Traceless Quadrupole moment (field-independent basis, Debye-Ang):
   XX=             -7.9790   YY=              5.4010   ZZ=              2.5780
   XY=              0.0034   XZ=              2.3491   YZ=             -0.3634
 Octapole moment (field-independent basis, Debye-Ang**2):
  XXX=             14.0896  YYY=             -1.1219  ZZZ=              3.1198  XYY=             -1.9711
  XXY=              0.0356  XXZ=             -5.6564  XZZ=              1.5419  YZZ=              0.4878
  YYZ=             -1.1040  XYZ=             -1.8365
 Hexadecapole moment (field-independent basis, Debye-Ang**3):
 XXXX=           -532.0333 YYYY=           -269.5199 ZZZZ=           -104.2530 XXXY=              0.8708
 XXXZ=              7.8407 YYYX=             -0.3116 YYYZ=              2.7686 ZZZX=             -3.2092
 ZZZY=             -1.4266 XXYY=           -126.5414 XXZZ=            -98.5495 YYZZ=            -57.8950
 XXYZ=             -4.4988 YYXZ=             -1.8388 ZZXY=             -0.8493
 N-N= 3.193838012813D+02 E-N=-2.125263441427D+03  KE= 6.270788671905D+02
 No NMR shielding tensors so no spin-rotation constants.
 Leave Link  601 at Mon Oct 14 01:15:21 2019, MaxMem= 10737418240 cpu:               3.2 elap:               0.2
 (Enter /apps/cent7/gaussian/g16-A.03/g16-haswell/g16/l701.exe)
 ... and contract with generalized density number  0.
 Compute integral first derivatives.
 Leave Link  701 at Mon Oct 14 01:15:22 2019, MaxMem= 10737418240 cpu:               2.5 elap:               0.1
 (Enter /apps/cent7/gaussian/g16-A.03/g16-haswell/g16/l702.exe)
 L702 exits ... SP integral derivatives will be done elsewhere.
 Leave Link  702 at Mon Oct 14 01:15:22 2019, MaxMem= 10737418240 cpu:               0.5 elap:               0.0
 (Enter /apps/cent7/gaussian/g16-A.03/g16-haswell/g16/l703.exe)
 Integral derivatives from FoFJK, PRISM(SPDF).
 Compute integral first derivatives, UseDBF=F ICtDFT=           0.
 Calling FoFJK, ICntrl=      2127 FMM=F ISym2X=0 I1Cent= 0 IOpClX= 0 NMat=1 NMatS=1 NMatT=0.
 FoFJK:  IHMeth= 1 ICntrl=    2127 DoSepK=F KAlg= 0 I1Cent=           0 FoldK=F
 IRaf=         0 NMat=       1 IRICut=       1 DoRegI=T DoRafI=F ISym2E= 0 IDoP0=0 IntGTp=1.
 FoFCou: FMM=F IPFlag=           0 FMFlag=      100000 FMFlg1=         800
         NFxFlg=           0 DoJE=F BraDBF=F KetDBF=F FulRan=T
         wScrn=  0.000000 ICntrl=      2127 IOpCl=  0 I1Cent=           0 NGrid=           0
         NMat0=    1 NMatS0=      1 NMatT0=    0 NMatD0=    1 NMtDS0=    0 NMtDT0=    0
 Symmetry not used in FoFCou.
 Leave Link  703 at Mon Oct 14 01:15:22 2019, MaxMem= 10737418240 cpu:              11.1 elap:               0.5
 (Enter /apps/cent7/gaussian/g16-A.03/g16-haswell/g16/l716.exe)
 Dipole        = 1.95064975D+00-1.10966176D-02-3.61934596D-01
 ***** Axes restored to original set *****
 -------------------------------------------------------------------
 Center     Atomic                   Forces (Hartrees/Bohr)
 Number     Number              X              Y              Z
 -------------------------------------------------------------------
      1        8          -0.011712013   -0.035296082   -0.034805523
      2       16          -0.014254488    0.050558998    0.066087347
      3        6           0.006593398    0.001908698   -0.042866050
      4        6          -0.001900813    0.021337268    0.004077853
      5        6          -0.009940291   -0.010884979    0.012699742
      6        6           0.029818356   -0.029378089   -0.005360873
      7        1          -0.005422158   -0.000735263    0.016512896
      8        1           0.003409761    0.006527999    0.015634756
      9        1          -0.006061520   -0.017736051   -0.009239537
     10        1           0.008945347   -0.015159327   -0.006052219
     11        1           0.006409035   -0.000629340   -0.016468956
     12        1           0.019998743    0.006128784   -0.007444934
     13        1          -0.017867133    0.007917841    0.000574741
     14        1          -0.008016223    0.015439543    0.006650757
 -------------------------------------------------------------------
 Cartesian Forces:  Max     0.066087347 RMS     0.020213272
 Leave Link  716 at Mon Oct 14 01:15:22 2019, MaxMem= 10737418240 cpu:               0.6 elap:               0.0
 (Enter /apps/cent7/gaussian/g16-A.03/g16-haswell/g16/l103.exe)

 GradGradGradGradGradGradGradGradGradGradGradGradGradGradGradGradGradGrad
 Berny optimization.
 FormGI is forming the generalized inverse of G from B-inverse, IUseBI=4.
 Internal  Forces:  Max     0.050884085 RMS     0.009735634
 Search for a local minimum.
 Step number   1 out of a maximum of   90
 All quantities printed in internal units (Hartrees-Bohrs-Radians)
 RMS Force = .97356D-02 SwitMx=.10000D-02 MixMth= 1
 Mixed Optimization -- RFO/linear search
 Second derivative matrix not updated -- first step.
 ITU=  0
     Eigenvalues ---    0.00260   0.00427   0.02447   0.02611   0.04679
     Eigenvalues ---    0.05106   0.05336   0.05534   0.05664   0.05925
     Eigenvalues ---    0.06460   0.06545   0.07025   0.07192   0.07331
     Eigenvalues ---    0.07470   0.08993   0.09389   0.11404   0.12230
     Eigenvalues ---    0.20595   0.21219   0.23875   0.24255   0.26790
     Eigenvalues ---    0.27110   0.27665   0.34803   0.34808   0.34811
     Eigenvalues ---    0.34812   0.34813   0.34817   0.34818   0.34819
     Eigenvalues ---    0.51101
 RFO step:  Lambda=-3.90512517D-02 EMin= 2.59943213D-03
 Linear search not attempted -- first point.
 Maximum step size (   0.300) exceeded in Quadratic search.
    -- Step size scaled by   0.820
 Iteration  1 RMS(Cart)=  0.05471240 RMS(Int)=  0.00247997
 Iteration  2 RMS(Cart)=  0.00194087 RMS(Int)=  0.00177097
 Iteration  3 RMS(Cart)=  0.00000341 RMS(Int)=  0.00177096
 Iteration  4 RMS(Cart)=  0.00000002 RMS(Int)=  0.00177096
 ITry= 1 IFail=0 DXMaxC= 1.52D-01 DCOld= 1.00D+10 DXMaxT= 3.00D-01 DXLimC= 3.00D+00 Rises=F
 Variable       Old X    -DE/DX   Delta X   Delta X   Delta X     New X
                                 (Linear)    (Quad)   (Total)
    R1        3.02471  -0.05088   0.00000  -0.07584  -0.07584   2.94886
    R2        3.44645   0.00861   0.00000   0.02203   0.02240   3.46885
    R3        3.45249   0.00956   0.00000   0.03084   0.03104   3.48353
    R4        2.91397   0.01202   0.00000   0.03068   0.03053   2.94451
    R5        2.05972   0.00120   0.00000   0.00255   0.00255   2.06228
    R6        2.05980  -0.00042   0.00000  -0.00088  -0.00088   2.05892
    R7        2.93488   0.00002   0.00000  -0.00277  -0.00304   2.93184
    R8        2.05972   0.00171   0.00000   0.00362   0.00362   2.06334
    R9        2.05983   0.00302   0.00000   0.00639   0.00639   2.06621
   R10        2.92867   0.01517   0.00000   0.04223   0.04197   2.97064
   R11        2.05981   0.00161   0.00000   0.00341   0.00341   2.06321
   R12        2.05988   0.00139   0.00000   0.00295   0.00295   2.06283
   R13        2.05996  -0.00074   0.00000  -0.00157  -0.00157   2.05839
   R14        2.05970  -0.00023   0.00000  -0.00049  -0.00049   2.05921
    A1        1.87240   0.00780   0.00000   0.02349   0.02312   1.89552
    A2        1.87784   0.00478   0.00000   0.01083   0.01083   1.88867
    A3        1.73183  -0.02238   0.00000  -0.08355  -0.08240   1.64942
    A4        1.75806   0.01960   0.00000   0.06975   0.06906   1.82713
    A5        1.93483  -0.00489   0.00000  -0.03395  -0.03881   1.89602
    A6        1.93484  -0.01114   0.00000  -0.04670  -0.05105   1.88379
    A7        1.85318   0.00514   0.00000   0.06288   0.06320   1.91637
    A8        1.85308   0.00417   0.00000   0.05522   0.05582   1.90890
    A9        2.09442  -0.00619   0.00000  -0.06782  -0.07309   2.02133
   A10        1.89700  -0.00952   0.00000  -0.03407  -0.03362   1.86339
   A11        1.86437   0.00822   0.00000   0.03810   0.03854   1.90291
   A12        1.86440   0.00320   0.00000   0.03140   0.03134   1.89574
   A13        1.86869   0.00176   0.00000   0.02341   0.02358   1.89227
   A14        1.86864   0.00800   0.00000   0.03368   0.03403   1.90267
   A15        2.09444  -0.01240   0.00000  -0.09248  -0.09242   2.00202
   A16        1.92876  -0.00842   0.00000  -0.03282  -0.03274   1.89602
   A17        1.86047   0.00530   0.00000   0.02125   0.02178   1.88225
   A18        1.86047   0.00292   0.00000   0.02884   0.02891   1.88938
   A19        1.85910   0.00246   0.00000   0.02507   0.02505   1.88416
   A20        1.85907   0.00919   0.00000   0.04983   0.05030   1.90937
   A21        2.09434  -0.01229   0.00000  -0.09403  -0.09401   2.00033
   A22        1.81241   0.01864   0.00000   0.06859   0.06786   1.88028
   A23        1.92583  -0.01073   0.00000  -0.05042  -0.05555   1.87027
   A24        1.92605  -0.00705   0.00000  -0.04184  -0.04671   1.87934
   A25        1.83968   0.00607   0.00000   0.06792   0.06848   1.90816
   A26        1.83971   0.00634   0.00000   0.06632   0.06661   1.90632
   A27        2.09437  -0.00692   0.00000  -0.07311  -0.07964   2.01472
    D1       -2.43963  -0.00047   0.00000   0.00125   0.00097  -2.43866
    D2       -0.48369   0.01314   0.00000   0.09407   0.09150  -0.39219
    D3        1.88773  -0.01074   0.00000  -0.07835  -0.07543   1.81230
    D4       -0.48852  -0.00188   0.00000  -0.01335  -0.01394  -0.50246
    D5        1.46742   0.01173   0.00000   0.07948   0.07659   1.54401
    D6       -2.44434  -0.01215   0.00000  -0.09294  -0.09034  -2.53468
    D7        2.06253  -0.00064   0.00000  -0.00581  -0.00592   2.05661
    D8        0.09852  -0.01247   0.00000  -0.09702  -0.09343   0.00508
    D9       -2.25651   0.01306   0.00000   0.08719   0.08407  -2.17244
   D10        0.11572  -0.00151   0.00000  -0.00085  -0.00121   0.11451
   D11       -1.84829  -0.01334   0.00000  -0.09205  -0.08873  -1.93702
   D12        2.07986   0.01219   0.00000   0.09215   0.08877   2.16863
   D13        0.72644   0.00676   0.00000   0.03109   0.03150   0.75794
   D14        2.73727   0.00835   0.00000   0.06122   0.06155   2.79882
   D15       -1.28434   0.00048   0.00000  -0.00756  -0.00712  -1.29146
   D16       -1.29140   0.00224   0.00000   0.01764   0.01689  -1.27451
   D17        0.71942   0.00383   0.00000   0.04777   0.04695   0.76637
   D18        2.98100  -0.00404   0.00000  -0.02101  -0.02173   2.95927
   D19        2.74427   0.00406   0.00000   0.02785   0.02848   2.77275
   D20       -1.52810   0.00565   0.00000   0.05798   0.05854  -1.46956
   D21        0.73348  -0.00222   0.00000  -0.01080  -0.01014   0.72334
   D22       -0.70950   0.00445   0.00000   0.01310   0.01365  -0.69585
   D23        1.30388   0.00604   0.00000   0.03789   0.03818   1.34206
   D24       -2.72283  -0.00376   0.00000  -0.04517  -0.04482  -2.76765
   D25       -2.71751  -0.00131   0.00000  -0.02652  -0.02625  -2.74376
   D26       -0.70414   0.00027   0.00000  -0.00173  -0.00172  -0.70586
   D27        1.55234  -0.00953   0.00000  -0.08480  -0.08472   1.46762
   D28        1.29853   0.00760   0.00000   0.05021   0.05045   1.34898
   D29       -2.97128   0.00918   0.00000   0.07500   0.07498  -2.89629
   D30       -0.71480  -0.00062   0.00000  -0.00806  -0.00802  -0.72282
   D31        0.30798   0.00252   0.00000   0.00638   0.00681   0.31479
   D32        2.33356   0.00100   0.00000   0.00725   0.00807   2.34163
   D33       -1.71786  -0.00019   0.00000  -0.00341  -0.00396  -1.72182
   D34       -1.70625  -0.00085   0.00000  -0.01603  -0.01565  -1.72190
   D35        0.31933  -0.00237   0.00000  -0.01516  -0.01438   0.30494
   D36        2.55109  -0.00356   0.00000  -0.02582  -0.02642   2.52468
   D37        2.32219   0.00681   0.00000   0.05151   0.05176   2.37395
   D38       -1.93542   0.00529   0.00000   0.05238   0.05303  -1.88239
   D39        0.29635   0.00410   0.00000   0.04172   0.04099   0.33734
         Item               Value     Threshold  Converged?
 Maximum Force            0.050884     0.000450     NO 
 RMS     Force            0.009736     0.000300     NO 
 Maximum Displacement     0.152135     0.001800     NO 
 RMS     Displacement     0.054868     0.001200     NO 
 Predicted change in Energy=-2.233631D-02
 Lowest energy point so far.  Saving SCF results.
 GradGradGradGradGradGradGradGradGradGradGradGradGradGradGradGradGradGrad

 Leave Link  103 at Mon Oct 14 01:15:22 2019, MaxMem= 10737418240 cpu:               1.0 elap:               0.1
 (Enter /apps/cent7/gaussian/g16-A.03/g16-haswell/g16/l202.exe)
                          Input orientation:                          
 ---------------------------------------------------------------------
 Center     Atomic      Atomic             Coordinates (Angstroms)
 Number     Number       Type             X           Y           Z
 ---------------------------------------------------------------------
      1          8           0       -0.126648    2.919975    1.379301
      2         16           0       -0.428269    1.808501    0.326344
      3          6           0        0.880579    0.526226    0.437027
      4          6           0        1.180461    0.139116   -1.042195
      5          6           0        1.241664    1.463624   -1.847785
      6          6           0        0.108370    2.420777   -1.327525
      7          1           0        1.767953    0.971890    0.889693
      8          1           0        0.463511   -0.334728    0.958465
      9          1           0        2.159728   -0.341136   -1.092984
     10          1           0        0.353229   -0.468820   -1.418505
     11          1           0        2.203435    1.937059   -1.640675
     12          1           0        1.066106    1.232236   -2.900038
     13          1           0        0.518192    3.419586   -1.182961
     14          1           0       -0.748911    2.359093   -1.997362
 ---------------------------------------------------------------------
                    Distance matrix (angstroms):
                    1          2          3          4          5
     1  O    0.000000
     2  S    1.560471   0.000000
     3  C    2.762683   1.835636   0.000000
     4  C    3.912206   2.692166   1.558166   0.000000
     5  C    3.795697   2.763051   2.495889   1.551464   0.000000
     6  C    2.762488   1.843406   2.701716   2.537079   1.571995
     7  H    2.761207   2.416748   1.091309   2.184228   2.830648
     8  H    3.334439   2.405884   1.089535   2.177426   3.422664
     9  H    4.687702   3.651459   2.174735   1.091873   2.160954
    10  H    4.420626   2.973454   2.170533   1.093392   2.169778
    11  H    3.938993   3.288093   2.838529   2.153429   1.091806
    12  H    4.752249   3.602052   3.415973   2.158604   1.091603
    13  H    2.688980   2.401954   3.335748   3.349611   2.188879
    14  H    3.479031   2.409476   3.455559   3.092429   2.187836
                    6          7          8          9         10
     6  C    0.000000
     7  H    3.125627   0.000000
     8  H    3.597872   1.847579   0.000000
     9  H    3.448368   2.410089   2.661886   0.000000
    10  H    2.901380   3.066735   2.383302   1.840028   0.000000
    11  H    2.172865   2.742984   3.865732   2.343512   3.043169
    12  H    2.191503   3.862956   4.207915   2.633810   2.365740
    13  H    1.089252   3.442239   4.322449   4.104359   3.899025
    14  H    1.089687   4.073576   4.178941   4.070543   3.089803
                   11         12         13         14
    11  H    0.000000
    12  H    1.837468   0.000000
    13  H    2.290728   2.834266   0.000000
    14  H    3.003612   2.319250   1.842130   0.000000
 Stoichiometry    C4H8OS
 Framework group  C1[X(C4H8OS)]
 Deg. of freedom    36
 Full point group                 C1      NOp   1
 RotChk:  IX=0 Diff= 2.12D-02
 Largest Abelian subgroup         C1      NOp   1
 Largest concise Abelian subgroup C1      NOp   1
                         Standard orientation:                         
 ---------------------------------------------------------------------
 Center     Atomic      Atomic             Coordinates (Angstroms)
 Number     Number       Type             X           Y           Z
 ---------------------------------------------------------------------
      1          8           0       -2.106539    0.031613    0.552362
      2         16           0       -0.910047   -0.058072   -0.445352
      3          6           0        0.265733   -1.329689    0.163000
      4          6           0        1.676108   -0.722612   -0.101920
      5          6           0        1.610740    0.766171    0.329699
      6          6           0        0.223503    1.357425   -0.114323
      7          1           0        0.114694   -1.459371    1.235998
      8          1           0        0.137120   -2.224109   -0.445733
      9          1           0        2.407371   -1.232742    0.528324
     10          1           0        1.882351   -0.773850   -1.174461
     11          1           0        1.657938    0.800834    1.419934
     12          1           0        2.413464    1.304745   -0.177421
     13          1           0       -0.205728    1.927144    0.708873
     14          1           0        0.349350    1.905827   -1.047509
 ---------------------------------------------------------------------
 Rotational constants (GHZ):           5.2646626           2.5083111           1.9658614
 Leave Link  202 at Mon Oct 14 01:15:22 2019, MaxMem= 10737418240 cpu:               0.2 elap:               0.0
 (Enter /apps/cent7/gaussian/g16-A.03/g16-haswell/g16/l301.exe)
 Standard basis: 6-31G(d) (6D, 7F)
 Ernie: Thresh=  0.10000D-02 Tol=  0.10000D-05 Strict=F.
 There are   110 symmetry adapted cartesian basis functions of A   symmetry.
 There are   110 symmetry adapted basis functions of A   symmetry.
   110 basis functions,   224 primitive gaussians,   110 cartesian basis functions
    28 alpha electrons       28 beta electrons
       nuclear repulsion energy       317.8197677243 Hartrees.
 IExCor=  402 DFT=T Ex+Corr=B3LYP ExCW=0 ScaHFX=  0.200000
 ScaDFX=  0.800000  0.720000  1.000000  0.810000 ScalE2=  1.000000  1.000000
 IRadAn=      5 IRanWt=     -1 IRanGd=            0 ICorTp=0 IEmpDi=  4
 NAtoms=   14 NActive=   14 NUniq=   14 SFac= 1.00D+00 NAtFMM=   60 NAOKFM=F Big=F
 Integral buffers will be    131072 words long.
 Raffenetti 2 integral format.
 Two-electron integral symmetry is turned on.
 Leave Link  301 at Mon Oct 14 01:15:22 2019, MaxMem= 10737418240 cpu:               1.2 elap:               0.1
 (Enter /apps/cent7/gaussian/g16-A.03/g16-haswell/g16/l302.exe)
 NPDir=0 NMtPBC=     1 NCelOv=     1 NCel=       1 NClECP=     1 NCelD=      1
         NCelK=      1 NCelE2=     1 NClLst=     1 CellRange=     0.0.
 One-electron integrals computed using PRISM.
 One-electron integral symmetry used in STVInt
 NBasis=   110 RedAO= T EigKep=  3.96D-03  NBF=   110
 NBsUse=   110 1.00D-06 EigRej= -1.00D+00 NBFU=   110
 Precomputing XC quadrature grid using
 IXCGrd= 4 IRadAn=           5 IRanWt=          -1 IRanGd=           0 AccXCQ= 0.00D+00.
 Generated NRdTot=       0 NPtTot=           0 NUsed=           0 NTot=          32
 NSgBfM=   110   110   110   110   110 MxSgAt=    14 MxSgA2=    14.
 Leave Link  302 at Mon Oct 14 01:15:23 2019, MaxMem= 10737418240 cpu:               2.8 elap:               0.1
 (Enter /apps/cent7/gaussian/g16-A.03/g16-haswell/g16/l303.exe)
 DipDrv:  MaxL=1.
 Leave Link  303 at Mon Oct 14 01:15:23 2019, MaxMem= 10737418240 cpu:               1.0 elap:               0.1
 (Enter /apps/cent7/gaussian/g16-A.03/g16-haswell/g16/l401.exe)
 Initial guess from the checkpoint file:  "22.chk"
 B after Tr=     0.000000    0.000000    0.000000
         Rot=    0.999974    0.004416   -0.005724    0.000126 Ang=   0.83 deg.
 Guess basis will be translated and rotated to current coordinates.
 JPrj=2 DoOrth=T DoCkMO=T.
 Generating alternative initial guess.
 ExpMin= 1.17D-01 ExpMax= 2.19D+04 ExpMxC= 3.30D+03 IAcc=2 IRadAn=         4 AccDes= 0.00D+00
 Harris functional with IExCor=  402 and IRadAn=       4 diagonalized for initial guess.
 HarFok:  IExCor=  402 AccDes= 0.00D+00 IRadAn=         4 IDoV= 1 UseB2=F ITyADJ=14
 ICtDFT=  3500011 ScaDFX=  1.000000  1.000000  1.000000  1.000000
 FoFCou: FMM=F IPFlag=           0 FMFlag=      100000 FMFlg1=           0
         NFxFlg=           0 DoJE=T BraDBF=F KetDBF=T FulRan=T
         wScrn=  0.000000 ICntrl=       500 IOpCl=  0 I1Cent=   200000004 NGrid=           0
         NMat0=    1 NMatS0=      1 NMatT0=    0 NMatD0=    1 NMtDS0=    0 NMtDT0=    0
 Petite list used in FoFCou.
 Harris En= -630.634937739732    
 Leave Link  401 at Mon Oct 14 01:15:23 2019, MaxMem= 10737418240 cpu:               5.2 elap:               0.2
 (Enter /apps/cent7/gaussian/g16-A.03/g16-haswell/g16/l502.exe)
 Integral symmetry usage will be decided dynamically.
 Closed shell SCF:
 Using DIIS extrapolation, IDIIS=  1040.
 NGot= 10737418240 LenX= 10737389983 LenY= 10737377442
 Requested convergence on RMS density matrix=1.00D-08 within 128 cycles.
 Requested convergence on MAX density matrix=1.00D-06.
 Requested convergence on             energy=1.00D-06.
 No special actions if energy rises.
 Fock matrices will be formed incrementally for  20 cycles.
 Integral accuracy reduced to 1.0D-05 until final iterations.

 Cycle   1  Pass 0  IDiag  1:
 FoFJK:  IHMeth= 1 ICntrl=       0 DoSepK=F KAlg= 0 I1Cent=           0 FoldK=F
 IRaf= 990000000 NMat=       1 IRICut=       1 DoRegI=T DoRafI=F ISym2E= 0 IDoP0=0 IntGTp=1.
 FoFCou: FMM=F IPFlag=           0 FMFlag=      100000 FMFlg1=           0
         NFxFlg=           0 DoJE=F BraDBF=F KetDBF=F FulRan=T
         wScrn=  0.000000 ICntrl=         0 IOpCl=  0 I1Cent=           0 NGrid=           0
         NMat0=    1 NMatS0=      1 NMatT0=    0 NMatD0=    1 NMtDS0=    0 NMtDT0=    0
 Symmetry not used in FoFCou.
 E= -630.593217508797    
 DIIS: error= 3.70D-03 at cycle   1 NSaved=   1.
 NSaved= 1 IEnMin= 1 EnMin= -630.593217508797     IErMin= 1 ErrMin= 3.70D-03
 ErrMax= 3.70D-03  0.00D+00 EMaxC= 1.00D-01 BMatC= 2.90D-03 BMatP= 2.90D-03
 IDIUse=3 WtCom= 9.63D-01 WtEn= 3.70D-02
 Coeff-Com:  0.100D+01
 Coeff-En:   0.100D+01
 Coeff:      0.100D+01
 Gap=     1.552 Goal=   None    Shift=    0.000
 GapD=    1.552 DampG=2.000 DampE=1.000 DampFc=2.0000 IDamp=-1.
 RMSDP=1.18D-03 MaxDP=1.37D-02              OVMax= 2.30D-02

 Cycle   2  Pass 0  IDiag  1:
 RMSU=  1.17D-03    CP:  9.96D-01
 E= -630.596351827892     Delta-E=       -0.003134319095 Rises=F Damp=F
 DIIS: error= 3.11D-03 at cycle   2 NSaved=   2.
 NSaved= 2 IEnMin= 2 EnMin= -630.596351827892     IErMin= 2 ErrMin= 3.11D-03
 ErrMax= 3.11D-03  0.00D+00 EMaxC= 1.00D-01 BMatC= 1.58D-03 BMatP= 2.90D-03
 IDIUse=3 WtCom= 9.69D-01 WtEn= 3.11D-02
 Coeff-Com:  0.389D+00 0.611D+00
 Coeff-En:   0.000D+00 0.100D+01
 Coeff:      0.377D+00 0.623D+00
 Gap=     0.227 Goal=   None    Shift=    0.000
 RMSDP=1.04D-03 MaxDP=2.23D-02 DE=-3.13D-03 OVMax= 2.69D-02

 Cycle   3  Pass 0  IDiag  1:
 RMSU=  9.07D-04    CP:  1.00D+00  6.00D-01
 E= -630.596129135487     Delta-E=        0.000222692405 Rises=F Damp=F
 DIIS: error= 3.60D-03 at cycle   3 NSaved=   3.
 NSaved= 3 IEnMin= 2 EnMin= -630.596351827892     IErMin= 2 ErrMin= 3.11D-03
 ErrMax= 3.60D-03  0.00D+00 EMaxC= 1.00D-01 BMatC= 1.86D-03 BMatP= 1.58D-03
 IDIUse=3 WtCom= 1.43D-01 WtEn= 8.57D-01
 Coeff-Com:  0.187D-01 0.515D+00 0.466D+00
 Coeff-En:   0.000D+00 0.528D+00 0.472D+00
 Coeff:      0.266D-02 0.526D+00 0.471D+00
 Gap=     0.233 Goal=   None    Shift=    0.000
 RMSDP=5.66D-04 MaxDP=1.14D-02 DE= 2.23D-04 OVMax= 1.36D-02

 Cycle   4  Pass 0  IDiag  1:
 RMSU=  1.23D-04    CP:  9.99D-01  8.45D-01  4.97D-01
 E= -630.597676125911     Delta-E=       -0.001546990423 Rises=F Damp=F
 DIIS: error= 3.73D-04 at cycle   4 NSaved=   4.
 NSaved= 4 IEnMin= 4 EnMin= -630.597676125911     IErMin= 4 ErrMin= 3.73D-04
 ErrMax= 3.73D-04  0.00D+00 EMaxC= 1.00D-01 BMatC= 1.89D-05 BMatP= 1.58D-03
 IDIUse=3 WtCom= 9.96D-01 WtEn= 3.73D-03
 Coeff-Com: -0.139D-01 0.198D+00 0.201D+00 0.615D+00
 Coeff-En:   0.000D+00 0.000D+00 0.000D+00 0.100D+01
 Coeff:     -0.139D-01 0.197D+00 0.200D+00 0.616D+00
 Gap=     0.233 Goal=   None    Shift=    0.000
 RMSDP=5.52D-05 MaxDP=1.46D-03 DE=-1.55D-03 OVMax= 1.39D-03

 Cycle   5  Pass 0  IDiag  1:
 RMSU=  3.98D-05    CP:  9.99D-01  8.57D-01  4.97D-01  7.12D-01
 E= -630.597691621721     Delta-E=       -0.000015495810 Rises=F Damp=F
 DIIS: error= 1.13D-04 at cycle   5 NSaved=   5.
 NSaved= 5 IEnMin= 5 EnMin= -630.597691621721     IErMin= 5 ErrMin= 1.13D-04
 ErrMax= 1.13D-04  0.00D+00 EMaxC= 1.00D-01 BMatC= 2.35D-06 BMatP= 1.89D-05
 IDIUse=3 WtCom= 9.99D-01 WtEn= 1.13D-03
 EnCoef did     7 forward-backward iterations
 Coeff-Com: -0.807D-02 0.619D-01 0.720D-01 0.316D+00 0.558D+00
 Coeff-En:   0.000D+00 0.000D+00 0.000D+00 0.211D-02 0.998D+00
 Coeff:     -0.806D-02 0.618D-01 0.719D-01 0.316D+00 0.559D+00
 Gap=     0.233 Goal=   None    Shift=    0.000
 RMSDP=1.91D-05 MaxDP=4.01D-04 DE=-1.55D-05 OVMax= 3.80D-04

 Cycle   6  Pass 0  IDiag  1:
 RMSU=  1.08D-05    CP:  9.99D-01  8.55D-01  5.08D-01  7.69D-01  7.56D-01
 E= -630.597694145356     Delta-E=       -0.000002523636 Rises=F Damp=F
 DIIS: error= 1.42D-05 at cycle   6 NSaved=   6.
 NSaved= 6 IEnMin= 6 EnMin= -630.597694145356     IErMin= 6 ErrMin= 1.42D-05
 ErrMax= 1.42D-05  0.00D+00 EMaxC= 1.00D-01 BMatC= 3.82D-08 BMatP= 2.35D-06
 IDIUse=1 WtCom= 1.00D+00 WtEn= 0.00D+00
 Coeff-Com: -0.835D-03-0.115D-02 0.144D-02 0.256D-01 0.126D+00 0.849D+00
 Coeff:     -0.835D-03-0.115D-02 0.144D-02 0.256D-01 0.126D+00 0.849D+00
 Gap=     0.233 Goal=   None    Shift=    0.000
 RMSDP=3.92D-06 MaxDP=7.17D-05 DE=-2.52D-06 OVMax= 7.72D-05

 Initial convergence to 1.0D-05 achieved.  Increase integral accuracy.
 Cycle   7  Pass 1  IDiag  1:
 E= -630.597682272232     Delta-E=        0.000011873125 Rises=F Damp=F
 DIIS: error= 5.02D-06 at cycle   1 NSaved=   1.
 NSaved= 1 IEnMin= 1 EnMin= -630.597682272232     IErMin= 1 ErrMin= 5.02D-06
 ErrMax= 5.02D-06  0.00D+00 EMaxC= 1.00D-01 BMatC= 9.92D-09 BMatP= 9.92D-09
 IDIUse=1 WtCom= 1.00D+00 WtEn= 0.00D+00
 Coeff-Com:  0.100D+01
 Coeff:      0.100D+01
 Gap=     0.233 Goal=   None    Shift=    0.000
 RMSDP=3.92D-06 MaxDP=7.17D-05 DE= 1.19D-05 OVMax= 6.66D-05

 Cycle   8  Pass 1  IDiag  1:
 RMSU=  3.51D-06    CP:  1.00D+00
 E= -630.597682273160     Delta-E=       -0.000000000929 Rises=F Damp=F
 DIIS: error= 6.97D-06 at cycle   2 NSaved=   2.
 NSaved= 2 IEnMin= 2 EnMin= -630.597682273160     IErMin= 1 ErrMin= 5.02D-06
 ErrMax= 6.97D-06  0.00D+00 EMaxC= 1.00D-01 BMatC= 1.21D-08 BMatP= 9.92D-09
 IDIUse=1 WtCom= 1.00D+00 WtEn= 0.00D+00
 Coeff-Com:  0.531D+00 0.469D+00
 Coeff:      0.531D+00 0.469D+00
 Gap=     0.233 Goal=   None    Shift=    0.000
 RMSDP=1.91D-06 MaxDP=4.31D-05 DE=-9.29D-10 OVMax= 4.20D-05

 Cycle   9  Pass 1  IDiag  1:
 RMSU=  1.41D-06    CP:  1.00D+00  6.50D-01
 E= -630.597682282175     Delta-E=       -0.000000009015 Rises=F Damp=F
 DIIS: error= 4.15D-06 at cycle   3 NSaved=   3.
 NSaved= 3 IEnMin= 3 EnMin= -630.597682282175     IErMin= 3 ErrMin= 4.15D-06
 ErrMax= 4.15D-06  0.00D+00 EMaxC= 1.00D-01 BMatC= 2.64D-09 BMatP= 9.92D-09
 IDIUse=1 WtCom= 1.00D+00 WtEn= 0.00D+00
 Coeff-Com:  0.122D+00 0.308D+00 0.570D+00
 Coeff:      0.122D+00 0.308D+00 0.570D+00
 Gap=     0.233 Goal=   None    Shift=    0.000
 RMSDP=7.83D-07 MaxDP=1.58D-05 DE=-9.01D-09 OVMax= 1.97D-05

 Cycle  10  Pass 1  IDiag  1:
 RMSU=  4.10D-07    CP:  1.00D+00  7.89D-01  6.99D-01
 E= -630.597682283828     Delta-E=       -0.000000001652 Rises=F Damp=F
 DIIS: error= 1.60D-06 at cycle   4 NSaved=   4.
 NSaved= 4 IEnMin= 4 EnMin= -630.597682283828     IErMin= 4 ErrMin= 1.60D-06
 ErrMax= 1.60D-06  0.00D+00 EMaxC= 1.00D-01 BMatC= 5.27D-10 BMatP= 2.64D-09
 IDIUse=1 WtCom= 1.00D+00 WtEn= 0.00D+00
 Coeff-Com: -0.810D-02 0.129D+00 0.378D+00 0.501D+00
 Coeff:     -0.810D-02 0.129D+00 0.378D+00 0.501D+00
 Gap=     0.233 Goal=   None    Shift=    0.000
 RMSDP=2.75D-07 MaxDP=6.64D-06 DE=-1.65D-09 OVMax= 7.77D-06

 Cycle  11  Pass 1  IDiag  1:
 RMSU=  1.04D-07    CP:  1.00D+00  7.67D-01  7.74D-01  4.81D-01
 E= -630.597682284299     Delta-E=       -0.000000000472 Rises=F Damp=F
 DIIS: error= 2.17D-07 at cycle   5 NSaved=   5.
 NSaved= 5 IEnMin= 5 EnMin= -630.597682284299     IErMin= 5 ErrMin= 2.17D-07
 ErrMax= 2.17D-07  0.00D+00 EMaxC= 1.00D-01 BMatC= 1.17D-11 BMatP= 5.27D-10
 IDIUse=1 WtCom= 1.00D+00 WtEn= 0.00D+00
 Coeff-Com: -0.770D-02 0.409D-01 0.124D+00 0.223D+00 0.620D+00
 Coeff:     -0.770D-02 0.409D-01 0.124D+00 0.223D+00 0.620D+00
 Gap=     0.233 Goal=   None    Shift=    0.000
 RMSDP=5.98D-08 MaxDP=1.24D-06 DE=-4.72D-10 OVMax= 1.46D-06

 Cycle  12  Pass 1  IDiag  1:
 RMSU=  3.34D-08    CP:  1.00D+00  7.76D-01  7.64D-01  5.31D-01  7.41D-01
 E= -630.597682284314     Delta-E=       -0.000000000014 Rises=F Damp=F
 DIIS: error= 4.44D-08 at cycle   6 NSaved=   6.
 NSaved= 6 IEnMin= 6 EnMin= -630.597682284314     IErMin= 6 ErrMin= 4.44D-08
 ErrMax= 4.44D-08  0.00D+00 EMaxC= 1.00D-01 BMatC= 6.30D-13 BMatP= 1.17D-11
 IDIUse=1 WtCom= 1.00D+00 WtEn= 0.00D+00
 Coeff-Com: -0.265D-02 0.864D-02 0.267D-01 0.629D-01 0.266D+00 0.639D+00
 Coeff:     -0.265D-02 0.864D-02 0.267D-01 0.629D-01 0.266D+00 0.639D+00
 Gap=     0.233 Goal=   None    Shift=    0.000
 RMSDP=1.19D-08 MaxDP=2.05D-07 DE=-1.43D-11 OVMax= 3.35D-07

 Cycle  13  Pass 1  IDiag  1:
 RMSU=  9.17D-09    CP:  1.00D+00  7.77D-01  7.65D-01  5.32D-01  8.07D-01
                    CP:  9.59D-01
 E= -630.597682284315     Delta-E=       -0.000000000001 Rises=F Damp=F
 DIIS: error= 1.45D-08 at cycle   7 NSaved=   7.
 NSaved= 7 IEnMin= 7 EnMin= -630.597682284315     IErMin= 7 ErrMin= 1.45D-08
 ErrMax= 1.45D-08  0.00D+00 EMaxC= 1.00D-01 BMatC= 8.93D-14 BMatP= 6.30D-13
 IDIUse=1 WtCom= 1.00D+00 WtEn= 0.00D+00
 Coeff-Com: -0.642D-04-0.251D-02-0.673D-02-0.449D-02 0.409D-01 0.305D+00
 Coeff-Com:  0.668D+00
 Coeff:     -0.642D-04-0.251D-02-0.673D-02-0.449D-02 0.409D-01 0.305D+00
 Coeff:      0.668D+00
 Gap=     0.233 Goal=   None    Shift=    0.000
 RMSDP=4.06D-09 MaxDP=6.82D-08 DE=-1.36D-12 OVMax= 1.05D-07

 SCF Done:  E(RB3LYP) =  -630.597682284     A.U. after   13 cycles
            NFock= 13  Conv=0.41D-08     -V/T= 2.0057
 KE= 6.270029667732D+02 PE=-2.122095429329D+03 EE= 5.466750125474D+02
 Leave Link  502 at Mon Oct 14 01:15:25 2019, MaxMem= 10737418240 cpu:              42.4 elap:               1.8
 (Enter /apps/cent7/gaussian/g16-A.03/g16-haswell/g16/l701.exe)
 ... and contract with generalized density number  0.
 Compute integral first derivatives.
 Leave Link  701 at Mon Oct 14 01:15:25 2019, MaxMem= 10737418240 cpu:               2.8 elap:               0.1
 (Enter /apps/cent7/gaussian/g16-A.03/g16-haswell/g16/l702.exe)
 L702 exits ... SP integral derivatives will be done elsewhere.
 Leave Link  702 at Mon Oct 14 01:15:25 2019, MaxMem= 10737418240 cpu:               0.5 elap:               0.0
 (Enter /apps/cent7/gaussian/g16-A.03/g16-haswell/g16/l703.exe)
 Integral derivatives from FoFJK, PRISM(SPDF).
 Compute integral first derivatives, UseDBF=F ICtDFT=           0.
 Calling FoFJK, ICntrl=      2127 FMM=F ISym2X=0 I1Cent= 0 IOpClX= 0 NMat=1 NMatS=1 NMatT=0.
 FoFJK:  IHMeth= 1 ICntrl=    2127 DoSepK=F KAlg= 0 I1Cent=           0 FoldK=F
 IRaf=         0 NMat=       1 IRICut=       1 DoRegI=T DoRafI=F ISym2E= 0 IDoP0=0 IntGTp=1.
 FoFCou: FMM=F IPFlag=           0 FMFlag=      100000 FMFlg1=         800
         NFxFlg=           0 DoJE=F BraDBF=F KetDBF=F FulRan=T
         wScrn=  0.000000 ICntrl=      2127 IOpCl=  0 I1Cent=           0 NGrid=           0
         NMat0=    1 NMatS0=      1 NMatT0=    0 NMatD0=    1 NMtDS0=    0 NMtDT0=    0
 Symmetry not used in FoFCou.
 Leave Link  703 at Mon Oct 14 01:15:25 2019, MaxMem= 10737418240 cpu:              10.7 elap:               0.5
 (Enter /apps/cent7/gaussian/g16-A.03/g16-haswell/g16/l716.exe)
 Dipole        = 1.83051655D+00-2.13590198D-02-3.72107467D-01
 ***** Axes restored to original set *****
 -------------------------------------------------------------------
 Center     Atomic                   Forces (Hartrees/Bohr)
 Number     Number              X              Y              Z
 -------------------------------------------------------------------
      1        8          -0.006857869   -0.022755654   -0.021074444
      2       16          -0.002712212    0.029648477    0.034546749
      3        6           0.002525886   -0.006587991   -0.030108220
      4        6          -0.002700461    0.020821815    0.012025307
      5        6          -0.016400534   -0.002314677    0.013866835
      6        6           0.022635391   -0.021683416   -0.008889789
      7        1          -0.002459420   -0.000787151    0.008233769
      8        1           0.004577126    0.002008851    0.009675015
      9        1          -0.004491134   -0.010774590   -0.003450435
     10        1           0.005566586   -0.007573231   -0.002118878
     11        1           0.002594666    0.000448242   -0.009276151
     12        1           0.009940105    0.005720941   -0.003759851
     13        1          -0.009163644    0.005115417   -0.000850618
     14        1          -0.003054484    0.008712967    0.001180710
 -------------------------------------------------------------------
 Cartesian Forces:  Max     0.034546749 RMS     0.012936636
 Leave Link  716 at Mon Oct 14 01:15:25 2019, MaxMem= 10737418240 cpu:               0.5 elap:               0.0
 (Enter /apps/cent7/gaussian/g16-A.03/g16-haswell/g16/l103.exe)

 GradGradGradGradGradGradGradGradGradGradGradGradGradGradGradGradGradGrad
 Berny optimization.
 Using GEDIIS/GDIIS optimizer.
 FormGI is forming the generalized inverse of G from B-inverse, IUseBI=4.
 Internal  Forces:  Max     0.031754551 RMS     0.004952069
 Search for a local minimum.
 Step number   2 out of a maximum of   90
 All quantities printed in internal units (Hartrees-Bohrs-Radians)
 RMS Force = .49521D-02 SwitMx=.10000D-02 MixMth= 1
 Mixed Optimization -- RFO/linear search
 Update second derivatives using D2CorX and points    1    2
 DE= -2.30D-02 DEPred=-2.23D-02 R= 1.03D+00
 TightC=F SS=  1.41D+00  RLast= 4.39D-01 DXNew= 5.0454D-01 1.3165D+00
 Trust test= 1.03D+00 RLast= 4.39D-01 DXMaxT set to 5.05D-01
 ITU=  1  0
 Use linear search instead of GDIIS.
     Eigenvalues ---    0.00261   0.00438   0.02328   0.02540   0.04482
     Eigenvalues ---    0.04799   0.05107   0.05257   0.05737   0.05795
     Eigenvalues ---    0.05894   0.06134   0.07036   0.07281   0.07787
     Eigenvalues ---    0.08301   0.09040   0.09560   0.11472   0.11897
     Eigenvalues ---    0.20456   0.21415   0.23679   0.23912   0.26754
     Eigenvalues ---    0.27108   0.31823   0.34778   0.34806   0.34809
     Eigenvalues ---    0.34812   0.34815   0.34817   0.34818   0.34995
     Eigenvalues ---    0.45931
 RFO step:  Lambda=-7.18036610D-03 EMin= 2.60815720D-03
 Quartic linear search produced a step of  0.75579.
 Iteration  1 RMS(Cart)=  0.04305784 RMS(Int)=  0.00305990
 Iteration  2 RMS(Cart)=  0.00196022 RMS(Int)=  0.00235594
 Iteration  3 RMS(Cart)=  0.00000143 RMS(Int)=  0.00235594
 Iteration  4 RMS(Cart)=  0.00000001 RMS(Int)=  0.00235594
 ITry= 1 IFail=0 DXMaxC= 1.55D-01 DCOld= 1.00D+10 DXMaxT= 5.05D-01 DXLimC= 3.00D+00 Rises=F
 Variable       Old X    -DE/DX   Delta X   Delta X   Delta X     New X
                                 (Linear)    (Quad)   (Total)
    R1        2.94886  -0.03175  -0.05732  -0.04641  -0.10373   2.84513
    R2        3.46885   0.00489   0.01693   0.01701   0.03441   3.50326
    R3        3.48353   0.00657   0.02346   0.02514   0.04888   3.53242
    R4        2.94451  -0.00596   0.02308  -0.06470  -0.04180   2.90271
    R5        2.06228   0.00109   0.00193   0.00325   0.00518   2.06746
    R6        2.05892   0.00129  -0.00067   0.00702   0.00635   2.06527
    R7        2.93184   0.00014  -0.00230  -0.00147  -0.00419   2.92766
    R8        2.06334   0.00087   0.00274   0.00129   0.00403   2.06737
    R9        2.06621   0.00073   0.00483  -0.00167   0.00316   2.06937
   R10        2.97064  -0.00676   0.03172  -0.07653  -0.04514   2.92550
   R11        2.06321   0.00072   0.00257   0.00073   0.00331   2.06652
   R12        2.06283   0.00081   0.00223   0.00156   0.00379   2.06662
   R13        2.05839   0.00113  -0.00119   0.00680   0.00561   2.06400
   R14        2.05921   0.00118  -0.00037   0.00618   0.00581   2.06502
    A1        1.89552   0.00293   0.01747  -0.00341   0.01356   1.90908
    A2        1.88867   0.00217   0.00818   0.00794   0.01569   1.90436
    A3        1.64942  -0.00795  -0.06228   0.00330  -0.05664   1.59278
    A4        1.82713   0.00461   0.05220  -0.01745   0.03361   1.86074
    A5        1.89602  -0.00274  -0.02934  -0.01844  -0.05307   1.84295
    A6        1.88379  -0.00283  -0.03859   0.03490  -0.01066   1.87313
    A7        1.91637   0.00331   0.04776   0.00660   0.05526   1.97163
    A8        1.90890   0.00382   0.04219   0.04013   0.08136   1.99026
    A9        2.02133  -0.00535  -0.05524  -0.04369  -0.10581   1.91552
   A10        1.86339  -0.00068  -0.02541   0.02251  -0.00244   1.86095
   A11        1.90291   0.00141   0.02913  -0.00553   0.02284   1.92576
   A12        1.89574   0.00129   0.02368  -0.00333   0.01966   1.91540
   A13        1.89227   0.00184   0.01782   0.03534   0.05268   1.94495
   A14        1.90267   0.00263   0.02572   0.00881   0.03437   1.93704
   A15        2.00202  -0.00616  -0.06985  -0.05264  -0.12184   1.88018
   A16        1.89602  -0.00133  -0.02474   0.00884  -0.01590   1.88012
   A17        1.88225   0.00172   0.01646   0.02022   0.03727   1.91952
   A18        1.88938   0.00310   0.02185   0.03687   0.05821   1.94759
   A19        1.88416   0.00126   0.01894   0.00041   0.01916   1.90332
   A20        1.90937   0.00155   0.03802  -0.01490   0.02289   1.93226
   A21        2.00033  -0.00618  -0.07105  -0.04868  -0.11943   1.88089
   A22        1.88028   0.00512   0.05129  -0.01171   0.03819   1.91847
   A23        1.87027  -0.00421  -0.04199  -0.00466  -0.05309   1.81718
   A24        1.87934  -0.00246  -0.03530   0.02177  -0.01975   1.85959
   A25        1.90816   0.00391   0.05176   0.02361   0.07613   1.98429
   A26        1.90632   0.00351   0.05034   0.01253   0.06235   1.96867
   A27        2.01472  -0.00541  -0.06019  -0.04090  -0.10913   1.90559
    D1       -2.43866   0.00009   0.00074   0.01294   0.01341  -2.42524
    D2       -0.39219   0.00499   0.06915   0.00295   0.06829  -0.32390
    D3        1.81230  -0.00526  -0.05701  -0.04025  -0.09352   1.71878
    D4       -0.50246  -0.00006  -0.01054   0.02205   0.01082  -0.49164
    D5        1.54401   0.00485   0.05788   0.01206   0.06570   1.60970
    D6       -2.53468  -0.00541  -0.06828  -0.03115  -0.09612  -2.63080
    D7        2.05661  -0.00058  -0.00447  -0.02431  -0.02912   2.02749
    D8        0.00508  -0.00559  -0.07062  -0.04346  -0.10915  -0.10406
    D9       -2.17244   0.00495   0.06354  -0.00426   0.05512  -2.11732
   D10        0.11451  -0.00114  -0.00092  -0.02359  -0.02493   0.08957
   D11       -1.93702  -0.00615  -0.06706  -0.04274  -0.10496  -2.04198
   D12        2.16863   0.00439   0.06709  -0.00354   0.05931   2.22795
   D13        0.75794   0.00146   0.02381  -0.01324   0.01020   0.76814
   D14        2.79882   0.00398   0.04652   0.03762   0.08400   2.88282
   D15       -1.29146  -0.00191  -0.00538  -0.03393  -0.03969  -1.33116
   D16       -1.27451   0.00064   0.01277   0.01438   0.02614  -1.24837
   D17        0.76637   0.00316   0.03548   0.06524   0.09994   0.86631
   D18        2.95927  -0.00274  -0.01642  -0.00632  -0.02375   2.93552
   D19        2.77275   0.00232   0.02153   0.03645   0.05917   2.83192
   D20       -1.46956   0.00484   0.04424   0.08731   0.13297  -1.33659
[...]
 ! D20   D(8,3,4,9)            -95.6686         -DE/DX =    0.0                 !
 ! D21   D(8,3,4,10)            22.6536         -DE/DX =    0.0                 !
 ! D22   D(3,4,5,6)            -43.9103         -DE/DX =    0.0                 !
 ! D23   D(3,4,5,11)            73.4393         -DE/DX =    0.0                 !
 ! D24   D(3,4,5,12)          -166.0447         -DE/DX =    0.0                 !
 ! D25   D(9,4,5,6)           -166.0418         -DE/DX =    0.0                 !
 ! D26   D(9,4,5,11)           -48.6922         -DE/DX =    0.0                 !
 ! D27   D(9,4,5,12)            71.8238         -DE/DX =    0.0                 !
 ! D28   D(10,4,5,6)            75.3179         -DE/DX =    0.0                 !
 ! D29   D(10,4,5,11)         -167.3326         -DE/DX =    0.0                 !
 ! D30   D(10,4,5,12)          -46.8166         -DE/DX =    0.0                 !
 ! D31   D(4,5,6,2)             49.0523         -DE/DX =    0.0                 !
 ! D32   D(4,5,6,13)           166.568          -DE/DX =    0.0                 !
 ! D33   D(4,5,6,14)           -67.6974         -DE/DX =    0.0                 !
 ! D34   D(11,5,6,2)           -69.3284         -DE/DX =    0.0                 !
 ! D35   D(11,5,6,13)           48.1874         -DE/DX =    0.0                 !
 ! D36   D(11,5,6,14)          173.922          -DE/DX =    0.0                 !
 ! D37   D(12,5,6,2)           171.2474         -DE/DX =    0.0                 !
 ! D38   D(12,5,6,13)          -71.2368         -DE/DX =    0.0                 !
 ! D39   D(12,5,6,14)           54.4978         -DE/DX =    0.0                 !
 --------------------------------------------------------------------------------
 GradGradGradGradGradGradGradGradGradGradGradGradGradGradGradGradGradGrad

 Leave Link  103 at Mon Oct 14 01:16:33 2019, MaxMem= 10737418240 cpu:               1.0 elap:               0.1
 (Enter /apps/cent7/gaussian/g16-A.03/g16-haswell/g16/l9999.exe)

 ----------------------------------------------------------------------

 Electric dipole moment (input orientation):
 (Debye = 10**-18 statcoulomb cm , SI units = C m)
                  (au)            (Debye)         (10**-30 SI)
   Tot        0.162275D+01      0.412461D+01      0.137582D+02
   x         -0.269948D+00     -0.686139D+00     -0.228871D+01
   y         -0.115483D+01     -0.293528D+01     -0.979104D+01
   z         -0.110761D+01     -0.281528D+01     -0.939075D+01

 Dipole polarizability, Alpha (input orientation).
 (esu units = cm**3 , SI units = C**2 m**2 J**-1)
 Alpha(0;0):
               (au)            (10**-24 esu)      (10**-40 SI)
   iso        0.600245D+02      0.889471D+01      0.989670D+01
   aniso      0.130139D+02      0.192846D+01      0.214570D+01
   xx         0.528221D+02      0.782743D+01      0.870919D+01
   yx        -0.244480D+01     -0.362282D+00     -0.403093D+00
   yy         0.634768D+02      0.940629D+01      0.104659D+02
   zx        -0.218782D+00     -0.324202D-01     -0.360723D-01
   zy         0.339132D+01      0.502541D+00      0.559153D+00
   zz         0.637745D+02      0.945041D+01      0.105150D+02

 ----------------------------------------------------------------------

 Dipole orientation:
     8          0.75951663         -2.45559461         -5.83364941
    16         -0.73891603         -2.13468341         -3.41264000
     6          1.14543109          0.03469984         -1.32166110
     6          2.56300964         -1.53418880          0.67981170
     6          2.70125756         -4.26757994         -0.29314882
     6          0.06978985         -4.83955627         -1.32863236
     1          2.41048004          0.96208771         -2.66791909
     1         -0.12518538          1.45171592         -0.51465190
     1          4.44182684         -0.74598487          1.04556827
     1          1.52316771         -1.49330873          2.47285979
     1          4.07533963         -4.41640230         -1.83569186
     1          3.25936176         -5.59835241          1.19201717
     1         -0.06317116         -6.54429048         -2.48713265
     1         -1.35947592         -4.91685622          0.17235567

 Electric dipole moment (dipole orientation):
 (Debye = 10**-18 statcoulomb cm , SI units = C m)
                  (au)            (Debye)         (10**-30 SI)
   Tot        0.162275D+01      0.412461D+01      0.137582D+02
   x          0.000000D+00      0.000000D+00      0.000000D+00
   y          0.000000D+00      0.000000D+00      0.000000D+00
   z          0.162275D+01      0.412461D+01      0.137582D+02

 Dipole polarizability, Alpha (dipole orientation).
 (esu units = cm**3 , SI units = C**2 m**2 J**-1)
 Alpha(0;0):
               (au)            (10**-24 esu)      (10**-40 SI)
   iso        0.600245D+02      0.889471D+01      0.989670D+01
   aniso      0.130139D+02      0.192846D+01      0.214570D+01
   xx         0.536673D+02      0.795267D+01      0.884854D+01
   yx         0.994298D+00      0.147340D+00      0.163938D+00
   yy         0.604194D+02      0.895323D+01      0.996182D+01
   zx         0.416486D+01      0.617169D+00      0.686693D+00
   zy        -0.244850D+00     -0.362830D-01     -0.403703D-01
   zz         0.659867D+02      0.977822D+01      0.108797D+02

 ----------------------------------------------------------------------
 1\1\GINC-BROWN-A208\Freq\RB3LYP\6-31G(d)\C4H8O1S1\FINEJ\14-Oct-2019\0\
 \#P Geom=AllCheck Guess=TCheck SCRF=Check GenChk RB3LYP/6-31G(d) Freq\
 \Title Card Required\\0,1\O,0.8174151897,3.0769227525,1.1154618025\S,-
 0.163652526,2.1022850056,0.4937694245\C,0.7138045504,0.4422396545,0.38
 96096617\C,1.2170132221,0.2160526145,-1.0489228267\C,1.2728451105,1.58
 83819509,-1.73903102\C,-0.0269076792,2.2878825038,-1.3487739461\H,1.52
 52697178,0.5590866916,1.1137498874\H,0.0342006956,-0.3385108872,0.7436
 084837\H,2.1920379451,-0.2831946295,-1.0495947742\H,0.5194829643,-0.43
 55942042,-1.5896264675\H,2.1182676541,2.1731740689,-1.358880954\H,1.38
 30361186,1.5005527746,-2.8257459366\H,-0.0575999629,3.3596857597,-1.56
 06113774\H,-0.9058130002,1.8044359442,-1.7942119573\\Version=ES64L-G16
 RevA.03\State=1-A\HF=-630.6090166\RMSD=2.094e-09\RMSF=1.686e-06\ZeroPo
 int=0.1176377\Thermal=0.1176377\Dipole=-0.269948,-1.1548276,-1.1076147
 \DipoleDeriv=-0.5200862,-0.3803952,-0.3489837,0.0101827,-0.7515452,-0.
 3562074,0.0475427,-0.1937541,-0.6448719,0.457084,0.2306422,0.2427908,-
 0.0715203,0.8830105,0.4055316,-0.0370789,0.2698494,0.8217747,-0.010462
 2,0.1131716,-0.0043252,0.0637919,-0.0996434,0.0140726,0.0044192,-0.084
 0314,-0.0336273,0.1007064,0.101366,0.0647976,0.0165856,0.0291598,0.030
 7326,0.0018975,0.1145309,0.1255787,0.0926956,-0.0135655,-0.0726818,0.0
 190942,0.0766901,0.0138016,0.0479466,0.0251596,-0.007895,0.0244225,0.0
 10469,0.1048152,0.053126,0.0042255,-0.0046715,-0.0001509,0.0091807,-0.
 1257449,0.0059046,0.0214857,-0.0504916,0.0001832,0.0105914,-0.0316121,
 -0.021177,-0.0232035,-0.0133869,-0.0011383,-0.0525866,0.0608037,-0.047
 387,-0.0675845,0.0455717,0.0384072,0.0242484,0.0091949,-0.0853788,0.11
 06536,0.0255741,0.0896409,-0.0243112,-0.0158844,0.0213102,-0.0422589,0
 .0232545,-0.0403179,-0.1042253,-0.0631123,-0.0532595,-0.0398746,-0.039
 7443,-0.031076,-0.0659417,-0.045245,-0.0472602,-0.0419241,-0.0202086,-
 0.0529998,-0.0227321,-0.0040259,-0.0701579,-0.0282009,0.0572537,0.0414
 937,0.0174925,0.0793685,0.014945,0.0432287,-0.0318692,0.0523725,0.0000
 427,-0.1572888,0.0564624,0.0230419,0.0075901,0.0353692,-0.0633801,0.02
 6219,-0.0057986,0.0166468,0.0279612,-0.0741256,-0.0356259,-0.0259369,-
 0.077752,0.0221651,-0.0519142,-0.0484567,-0.022268,-0.036958\Polar=52.
 8221053,-2.4447979,63.4768091,-0.2187821,3.3913164,63.7745094\Quadrupo
 le=1.2112163,-0.6860155,-0.5252009,-1.2012229,-0.3297621,-3.7481192\PG
 =C01 [X(C4H8O1S1)]\NImag=0\\0.20247666,0.17621009,0.21793943,0.1174338
 6,0.12086024,0.11292421,-0.23041286,-0.15700165,-0.08716755,0.38473874
 ,-0.17470176,-0.20072312,-0.09144403,0.12904282,0.34263450,-0.10850100
 ,-0.10067955,-0.10586625,0.05879911,0.08913479,0.29081610,0.01150379,-
 0.02193149,-0.00525896,-0.07174128,0.03993576,-0.00325694,0.49996792,0
 .00770195,-0.01629726,-0.00520370,-0.00161926,-0.06373088,0.00050048,0
 .13324324,0.39578229,-0.00401932,-0.01141633,0.00039882,0.00944009,-0.
 00330344,-0.03950237,0.04673990,-0.03723118,0.49489459,0.00404748,-0.0
 0059563,0.00192536,-0.01632772,0.01484774,0.00562757,-0.08419480,-0.00
 311996,0.02623102,0.59585210,-0.00236805,-0.00197823,0.00041062,0.0122
 1712,-0.00859202,-0.01319704,-0.00012296,-0.07522292,-0.02336158,-0.01
 953914,0.51932180,0.00056154,0.00225505,0.00004442,0.00856447,-0.01503
 638,-0.00132128,0.02326098,-0.00915172,-0.16330778,0.04691562,0.049543
 84,0.44666533,-0.00281044,-0.00030051,0.00006189,-0.00050017,0.0006913
 3,0.01715082,-0.00263848,-0.00466662,0.00588375,-0.07767167,-0.0085397
 7,-0.00394017,0.51987211,-0.00120288,0.00093729,-0.00002088,0.00448119
 ,0.00020141,-0.00575519,-0.00259859,0.00255735,0.00917096,-0.01043898,
 -0.15963093,0.03741918,0.06648409,0.46228874,-0.00417804,-0.00177178,0
 .00410745,0.03036883,0.00054813,-0.03281444,0.01050349,0.02343075,-0.0
 2437691,-0.00048958,0.03679878,-0.09409477,0.00785075,0.03581205,0.607
 02935,0.00658942,0.00124477,-0.02910103,-0.05689883,-0.01778628,0.0402
 5509,0.00426728,0.00570979,-0.00959127,-0.00359517,0.01100823,-0.00220
 574,-0.16218054,0.03896952,0.02205693,0.50375542,-0.00383613,-0.000920
 76,-0.02152775,-0.00273771,-0.04736370,0.00786725,0.00481064,-0.006954
 31,0.01706713,0.03166230,-0.02698051,0.00205801,0.03796420,-0.09915793
 ,-0.01584681,0.03187906,0.60316719,-0.00054987,-0.00271421,-0.00760801
 ,-0.00246437,0.00630766,-0.09201090,-0.00062083,0.01265227,-0.00299790
 ,-0.00655296,0.00321138,0.00010595,0.01521520,-0.01335249,-0.07530411,
 0.06174233,-0.00341552,0.32464945,0.00393160,-0.00312882,0.00065062,-0
 .01434991,0.00316152,-0.00801386,-0.20284049,-0.02703004,-0.13664910,0
 .01118726,0.00210767,0.01012087,0.00012492,0.00029363,0.00019192,-0.00
 070895,0.00099847,0.00039053,0.21488340,-0.00452091,0.00560283,-0.0005
 2746,0.02631965,-0.00827935,0.01577704,-0.02529063,-0.04232396,-0.0148
 1600,-0.00272437,-0.00165788,-0.00441818,0.00024422,-0.00012011,-0.000
 18911,0.00055857,-0.00393058,-0.00060284,0.02421391,0.04897216,0.00118
 848,0.00020200,0.00042606,0.00009514,-0.00086683,-0.00029720,-0.134650
 36,-0.01877097,-0.16527726,-0.02123964,-0.00436869,-0.01691427,-0.0003
 6528,-0.00035459,-0.00035351,0.00049039,0.00029976,-0.00045089,0.14299
 015,0.02205117,0.17745920,-0.00054152,0.00332048,0.00092884,0.01035831
 ,0.00807472,-0.00344978,-0.15412453,-0.12304953,0.05136301,-0.00373632
 ,-0.00699124,0.00140259,-0.00088852,0.00209487,0.00125826,-0.00155397,
 0.00140492,-0.00128687,-0.01372130,-0.01874779,0.00926573,0.16273616,0
 .00283968,-0.00626019,-0.00209529,-0.01666598,-0.00985437,0.00488097,-
 0.12708735,-0.18590463,0.06347331,0.00451406,0.00725720,-0.00424082,0.
 00138912,-0.00112128,-0.00099852,0.00149675,-0.00135199,0.00083264,-0.
 00064331,-0.00006867,0.00051438,0.13349400,0.19638179,0.00122809,-0.00
 184622,0.00019313,-0.00302042,-0.00068489,-0.00131948,0.05423198,0.060
 75956,-0.07377702,0.01625558,0.02164245,-0.00861439,0.00169215,-0.0018
 9175,-0.00468273,0.00057736,0.00025667,-0.00035465,-0.01219324,-0.0162
 4446,0.00828220,-0.05865505,-0.06394923,0.08074531,0.00040988,0.000312
 82,0.00022798,0.00036125,-0.00192297,-0.00006900,-0.00704817,0.0033404
 8,0.00112626,-0.26282067,0.10617323,-0.00339259,0.00377509,-0.00262351
 ,-0.00022548,0.00076003,-0.00014483,0.00001347,0.00152315,-0.00019624,
 -0.00011347,-0.00023974,0.00037173,0.00070905,0.28065341,-0.00071089,-
 0.00029896,-0.00043019,0.00103308,-0.00099477,0.00116024,0.00254955,-0
 .00148618,0.00017728,0.10380327,-0.09973311,-0.00040679,0.02578457,-0.
 01175459,-0.00109393,-0.00056280,-0.00545562,0.00158360,0.00004509,0.0
 0065216,-0.00005834,0.00000787,-0.00032924,-0.00002195,-0.11516286,0.1
 0807649,-0.00161715,-0.00083967,-0.00046971,0.00404119,-0.00007283,-0.
 00239328,0.02674164,-0.01441476,-0.00265807,-0.00265856,-0.00047172,-0
 .04625627,-0.01508253,0.00586981,0.00058994,0.00085734,0.00327570,-0.0
 0227659,-0.00039172,-0.00020445,0.00170530,0.00055160,0.00007179,-0.00
 126559,0.00225578,-0.00028704,0.05177329,0.00005227,0.00021585,-0.0002
 0473,0.00003368,0.00001694,0.00064741,0.00740149,0.00714952,0.00737225
 ,-0.15927014,-0.09516176,-0.08261742,-0.00222346,-0.00154170,0.0000269
 3,0.00094048,0.00051313,0.00023722,0.00012857,0.00053161,0.00187216,0.
 00136296,0.00034011,-0.00041845,-0.01872523,-0.01827150,-0.01461973,0.
 16838198,0.00014616,0.00007974,-0.00007223,0.00005586,-0.00029286,-0.0
 0030980,-0.00219059,-0.00145680,-0.00040309,-0.09483204,-0.13924160,-0
 .07639460,-0.02125439,-0.01969787,-0.01373478,-0.00135836,0.00105577,-
 0.00051431,0.00036211,0.00060230,0.00026696,0.00052067,0.00101449,0.00
 028582,0.00924087,0.01012817,0.00791405,0.10692042,0.15098856,-0.00010
 544,-0.00089456,0.00032976,-0.00068769,0.00127789,-0.00137467,-0.01896
 655,-0.01676032,-0.01925927,-0.08195329,-0.07551586,-0.10914722,0.0120
 3749,0.01122737,0.00797408,0.00015361,-0.00055891,0.00009097,0.0031465
 3,-0.00181963,-0.00438341,-0.00034277,0.00045169,0.00148001,-0.0003432
 3,0.00035326,0.00001718,0.08679326,0.07931020,0.12373423,0.00240457,0.
 00113864,-0.00062048,-0.00209926,-0.00207919,-0.00199601,0.00018511,-0
 .00017068,0.00042726,0.00139574,0.00113478,0.00062190,-0.20388366,-0.1
 0739168,-0.06949596,-0.02517371,-0.01393365,-0.00951461,-0.00005649,-0
 .00014857,0.00017323,0.00002535,0.00006165,0.00010973,0.00084260,-0.00
 010919,0.00057073,0.00127449,0.00085930,-0.00027290,0.22435187,0.00011
 818,-0.00052712,-0.00003034,-0.00034652,0.00025158,0.00045547,0.000211
 91,0.00077252,-0.00052527,-0.02310419,-0.01840318,-0.01139670,-0.10885
 910,-0.12281830,-0.04876508,0.01469922,0.00938088,0.00671575,-0.000120
 65,0.00003105,0.00060357,0.00021357,0.00007290,0.00005493,0.00040165,0
 .00132454,-0.00078694,-0.00024387,-0.00487424,0.00387625,0.11513815,0.
 13602739,-0.00098424,-0.00046606,-0.00007023,0.00103981,0.00103155,0.0
 0091884,-0.00032372,-0.00008457,0.00067817,0.01241081,0.00806779,0.005
 84672,-0.07197210,-0.04944631,-0.08772816,0.00684092,0.00449353,0.0030
 7358,-0.00006728,0.00013352,-0.00017431,-0.00011696,-0.00016977,0.0000
 3385,-0.00001079,-0.00091784,0.00058461,0.00071118,0.00309175,-0.00062
 944,0.07708587,0.05203203,0.08737646,0.00233015,0.00124183,-0.00049245
 ,-0.00578347,-0.00074261,0.00281919,-0.00015207,0.00145789,0.00083279,
 -0.00071277,-0.00075805,-0.00042641,-0.05045685,0.00069055,0.02210454,
 -0.00339789,0.00215254,0.02805829,-0.00009583,-0.00015547,0.00037053,0
 .00021788,-0.00015360,-0.00015390,-0.00009542,-0.00013877,-0.00017977,
 0.00025689,0.00015036,0.00042394,0.00358390,-0.00134366,-0.02579206,0.
 05260368,-0.00053437,0.00019649,0.00045173,0.00330353,-0.00162814,-0.0
 0098033,-0.00053876,-0.00509725,0.00237827,-0.00403500,0.00367135,0.03
 004795,0.00081402,-0.04936526,-0.02464839,0.00129119,-0.00192700,-0.01
 610270,-0.00012554,0.00011576,0.00046320,-0.00053883,0.00031786,0.0014
 6083,0.00047063,0.00036142,-0.00034900,-0.00014683,0.00156855,-0.00063
 699,0.00246298,-0.00132318,-0.01727271,-0.00172805,0.05252803,-0.00028
 539,-0.00004674,0.00017605,0.00062062,0.00061531,0.00085745,0.00062648
 ,0.00186101,0.00020583,0.00096370,-0.00240839,-0.01117021,0.02224784,-
 0.02271902,-0.30860325,0.00072748,-0.00067903,-0.00513550,-0.00006253,
 -0.00003880,-0.00005927,0.00015305,-0.00009537,-0.00064215,-0.00023910
 ,0.00033141,-0.00011838,0.00039778,0.00002815,0.00100702,0.00077595,-0
 .00102323,-0.01042283,-0.02663471,0.02427257,0.33326135,-0.00070718,-0
 .00016133,-0.00043382,-0.00012229,-0.00233110,-0.00034525,-0.00048607,
 0.00094571,0.00120090,-0.00508933,0.00238271,0.00103710,0.00233405,0.0
 2601900,-0.00791820,-0.04951614,0.00318301,0.00023640,0.00004869,-0.00
 011066,-0.00016088,0.00000776,0.00003898,-0.00013822,0.00020525,0.0016
 1662,-0.00077833,0.00009658,0.00027883,0.00015498,0.00123638,-0.000567
 18,-0.00059434,0.00040433,-0.00029763,0.00037976,0.05042642,0.00098034
 ,0.00162972,-0.00025631,-0.00081625,-0.00229520,-0.00053618,-0.0002736
 7,0.00004987,-0.00108371,0.00286628,-0.00023135,-0.00058761,-0.0017857
 1,-0.00904371,0.00325478,0.00492787,-0.31573122,0.05212716,-0.00013190
 ,0.00024445,0.00015512,0.00000805,-0.00004789,0.00009769,-0.00009719,-
 0.00068086,0.00048642,-0.00009268,0.00029583,-0.00006436,0.00005058,0.
 00086355,0.00002634,0.00011507,-0.00007328,-0.00025447,-0.00640134,0.3
 3644359,-0.00055854,-0.00293101,0.00503914,0.00148402,0.02768261,-0.01
 037150,-0.00036654,0.00076509,-0.00436962,0.00304739,-0.00038452,-0.00
 183989,-0.00128730,-0.01120864,0.00299142,-0.00258241,0.05461381,-0.05
 224433,-0.00026753,0.00118847,-0.00004489,-0.00049469,0.00061612,-0.00
 007381,-0.00001947,-0.00053519,0.00077230,0.00009280,0.00043420,-0.000
 01929,-0.00020174,0.00079061,0.00021319,-0.00037242,0.00017143,-0.0000
 7082,0.00075326,-0.05642876,0.05564675,0.00072618,-0.00056505,0.002050
 48,0.00274383,0.00379307,0.00033264,-0.00009971,0.00010751,-0.00035754
 ,0.00093600,-0.00154277,0.00009725,-0.02285238,-0.01323551,-0.01205440
 ,-0.21328744,-0.09391596,-0.08490394,-0.00005463,0.00002668,0.00008383
 ,0.00009749,0.00000416,-0.00022466,0.00039856,0.00011598,0.00030950,0.
 00028945,0.00110079,-0.00003795,-0.00408690,0.00380249,0.00177290,0.00
 129747,-0.00039734,0.00032906,0.00116153,0.00065056,0.00077317,0.23273
 054,-0.00012139,0.00062013,-0.00011441,0.00273411,0.00066694,0.0016818
 6,-0.00071707,-0.00068783,-0.00012635,0.00069565,0.00142137,0.00030877
 ,0.01203454,0.00672519,0.00720391,-0.09207752,-0.10383022,-0.04672839,
 -0.00000213,0.00015985,-0.00013676,0.00018824,-0.00010601,0.00008056,-
 0.00016381,0.00019054,-0.00019135,-0.00022925,-0.00017004,-0.00024602,
 0.00298689,-0.00077839,-0.00051925,-0.00078802,0.00065464,0.00015659,-
 0.02459562,-0.01142350,-0.01477423,0.10005538,0.10655733,0.00038701,0.
 00028884,-0.00962484,-0.02111326,-0.01518953,-0.00532101,0.00133943,0.
 00164805,-0.00065121,-0.00048302,0.00003294,0.00000366,0.01050748,0.00
 524948,0.00526565,-0.09022101,-0.04790383,-0.08953707,0.00015462,-0.00
 028927,0.00008224,-0.00057697,0.00070810,-0.00000467,0.00008058,0.0001
 4549,-0.00000472,-0.00029067,0.00009768,0.00018004,0.00233706,-0.00200
 105,0.00029957,-0.00055756,0.00074415,0.00071471,0.00660666,0.00306388
 ,0.00437135,0.09182965,0.05340505,0.09422630\\0.00000306,-0.00000251,0
 .00000033,0.00000019,0.00000137,0.00000467,0.00000255,-0.00000264,-0.0
 0000104,-0.00000221,-0.00000127,-0.00000097,-0.00000012,0.00000190,-0.
 00000072,0.00000052,0.00000087,-0.00000100,0.00000153,-0.00000161,-0.0
 0000142,0.00000035,-0.00000023,-0.00000062,-0.00000129,-0.00000006,-0.
 00000286,-0.00000216,0.00000087,-0.00000086,-0.00000051,-0.00000010,-0
 .00000067,-0.00000241,0.00000078,-0.00000053,0.00000097,0.00000101,0.0
 0000289,-0.00000046,0.00000161,0.00000279\\\@


 IF YOU WISH TO UNDERSTAND THE FRAGRANCE OF THE ROSE, 
 OR THE TENACITY OF THE OAK; 
 IF YOU ARE NOT SATISFIED UNTIL YOU KNOW THE SECRET PATHS 
 BY WHICH THE SUNSHINE AND THE AIR ACHIEVE THESE WONDERS; 
 IF YOU WISH TO SEE THE PATTERN WHICH UNDERLIES ONE LARGE FIELD OF 
 HUMAN EXPERIENCE AND HUMAN MEASUREMENT, THEN TAKE UP CHEMISTRY.

                                         -- C. A. COULSON, 1973.
 Job cpu time:       0 days  0 hours  4 minutes 17.9 seconds.
 Elapsed time:       0 days  0 hours  0 minutes 11.2 seconds.
 File lengths (MBytes):  RWF=     27 Int=      0 D2E=      0 Chk=      2 Scr=      1
 Normal termination of Gaussian 16 at Mon Oct 14 01:16:33 2019.
real 74.38
user 1576.75
sys 22.32
Machine:
brown-a208
brown-a208
brown-a208
brown-a208
brown-a208
brown-a208
brown-a208
brown-a208
brown-a208
brown-a208
brown-a208
brown-a208
brown-a208
brown-a208
brown-a208
brown-a208
brown-a208
brown-a208
brown-a208
brown-a208
brown-a208
brown-a208
brown-a208
brown-a208
