Title Card Required                                                     
Freq      RB3LYP                                                      6-31G(d)            
Number of atoms                            I               15
Info1-9                                    I   N=           9
          40          40        1002           0           0         100
           6          18        -502
Full Title                                 C   N=           2
Title Card Required     
Route                                      C   N=           6
#P opt freq b3lyp/6-31g(d) geom=connectivity temperature=0.0
01          
Charge                                     I                1
Multiplicity                               I                1
Number of electrons                        I               56
Number of alpha electrons                  I               28
Number of beta electrons                   I               28
Number of basis functions                  I              112
Number of independent functions            I              112
Number of point charges in /Mol/           I                0
Number of translation vectors              I                0
Atomic numbers                             I   N=          15
           8          16           6           6           6           6
           1           1           1           1           1           1
           1           1           1
Nuclear charges                            R   N=          15
  8.00000000E+00  1.60000000E+01  6.00000000E+00  6.00000000E+00  6.00000000E+00
  6.00000000E+00  1.00000000E+00  1.00000000E+00  1.00000000E+00  1.00000000E+00
  1.00000000E+00  1.00000000E+00  1.00000000E+00  1.00000000E+00  1.00000000E+00
Current cartesian coordinates              R   N=          45
 -3.53594267E+00  1.03015544E-01  1.45782073E+00 -1.72997059E+00 -2.05497282E-01
 -1.02494365E+00  6.85101352E-01 -2.58402570E+00 -1.10974004E-01  3.21727879E+00
 -1.17752748E+00  2.04332385E-01  2.63529471E+00  1.57442842E+00  9.26394642E-01
  5.14797626E-01  2.44287926E+00 -8.43078182E-01 -3.81756433E-02 -3.43277719E+00
  1.63319893E+00  6.85177256E-01 -4.03814866E+00 -1.57843802E+00  4.36435958E+00
 -2.12813261E+00  1.63698690E+00  4.27273450E+00 -1.23749201E+00 -1.57368835E+00
  2.04154214E+00  1.72302318E+00  2.90777951E+00  4.28644194E+00  2.79806333E+00
  7.02508707E-01 -5.50292856E-01  4.12082163E+00 -2.73722785E-01  1.17008490E+00
  2.71077192E+00 -2.79123655E+00 -2.57963578E+00  4.13175597E-01  3.01309511E+00
Number of symbols in /Mol/                 I                0
Force Field                                I                0
Atom Types                                 C   N=          15
                                                            
                                                            
                                                            
Int Atom Types                             I   N=          15
           0           0           0           0           0           0
           0           0           0           0           0           0
           0           0           0
MM charges                                 R   N=          15
  0.00000000E+00  0.00000000E+00  0.00000000E+00  0.00000000E+00  0.00000000E+00
  0.00000000E+00  0.00000000E+00  0.00000000E+00  0.00000000E+00  0.00000000E+00
  0.00000000E+00  0.00000000E+00  0.00000000E+00  0.00000000E+00  0.00000000E+00
Integer atomic weights                     I   N=          15
          16          32          12          12          12          12
           1           1           1           1           1           1
           1           1           1
Real atomic weights                        R   N=          15
  1.59949146E+01  3.19720718E+01  1.20000000E+01  1.20000000E+01  1.20000000E+01
  1.20000000E+01  1.00782504E+00  1.00782504E+00  1.00782504E+00  1.00782504E+00
  1.00782504E+00  1.00782504E+00  1.00782504E+00  1.00782504E+00  1.00782504E+00
Atom fragment info                         I   N=          15
           0           0           0           0           0           0
           0           0           0           0           0           0
           0           0           0
Atom residue num                           I   N=          15
           0           0           0           0           0           0
           0           0           0           0           0           0
           0           0           0
Nuclear spins                              I   N=          15
           0           0           0           0           0           0
           1           1           1           1           1           1
           1           1           1
Nuclear ZEff                               R   N=          15
 -5.60000000E+00 -1.36000000E+01 -3.60000000E+00 -3.60000000E+00 -3.60000000E+00
 -3.60000000E+00 -1.00000000E+00 -1.00000000E+00 -1.00000000E+00 -1.00000000E+00
 -1.00000000E+00 -1.00000000E+00 -1.00000000E+00 -1.00000000E+00 -1.00000000E+00
Nuclear ZNuc                               R   N=          15
  8.00000000E+00  1.60000000E+01  6.00000000E+00  6.00000000E+00  6.00000000E+00
  6.00000000E+00  1.00000000E+00  1.00000000E+00  1.00000000E+00  1.00000000E+00
  1.00000000E+00  1.00000000E+00  1.00000000E+00  1.00000000E+00  1.00000000E+00
Nuclear QMom                               R   N=          15
  0.00000000E+00  0.00000000E+00  0.00000000E+00  0.00000000E+00  0.00000000E+00
  0.00000000E+00  0.00000000E+00  0.00000000E+00  0.00000000E+00  0.00000000E+00
  0.00000000E+00  0.00000000E+00  0.00000000E+00  0.00000000E+00  0.00000000E+00
Nuclear GFac                               R   N=          15
  0.00000000E+00  0.00000000E+00  0.00000000E+00  0.00000000E+00  0.00000000E+00
  0.00000000E+00  2.79284600E+00  2.79284600E+00  2.79284600E+00  2.79284600E+00
  2.79284600E+00  2.79284600E+00  2.79284600E+00  2.79284600E+00  2.79284600E+00
MicOpt                                     I   N=          15
          -1          -1          -1          -1          -1          -1
          -1          -1          -1          -1          -1          -1
          -1          -1          -1
Number of residues                         I                0
Number of secondary structures             I                0
Redundant internal dimensions              I   N=           4
          84          15          28          41
Redundant internal coordinate indices      I   N=         336
           1           2           0           0           1          15
           0           0           2           3           0           0
           2           6           0           0           3           4
           0           0           3           7           0           0
           3           8           0           0           4           5
           0           0           4           9           0           0
           4          10           0           0           5           6
           0           0           5          11           0           0
           5          12           0           0           6          13
           0           0           6          14           0           0
           2           1          15           0           1           2
           3           0           1           2           6           0
           3           2           6           0           2           3
           4           0           2           3           7           0
           2           3           8           0           4           3
           7           0           4           3           8           0
           7           3           8           0           3           4
           5           0           3           4           9           0
           3           4          10           0           5           4
           9           0           5           4          10           0
           9           4          10           0           4           5
           6           0           4           5          11           0
           4           5          12           0           6           5
          11           0           6           5          12           0
          11           5          12           0           2           6
           5           0           2           6          13           0
           2           6          14           0           5           6
          13           0           5           6          14           0
          13           6          14           0          15           1
           2           3          15           1           2           6
           1           2           3           4           1           2
           3           7           1           2           3           8
           6           2           3           4           6           2
           3           7           6           2           3           8
           1           2           6           5           1           2
           6          13           1           2           6          14
           3           2           6           5           3           2
           6          13           3           2           6          14
           2           3           4           5           2           3
           4           9           2           3           4          10
           7           3           4           5           7           3
           4           9           7           3           4          10
           8           3           4           5           8           3
           4           9           8           3           4          10
           3           4           5           6           3           4
           5          11           3           4           5          12
           9           4           5           6           9           4
           5          11           9           4           5          12
          10           4           5           6          10           4
           5          11          10           4           5          12
           4           5           6           2           4           5
           6          13           4           5           6          14
          11           5           6           2          11           5
           6          13          11           5           6          14
          12           5           6           2          12           5
           6          13          12           5           6          14
Redundant internal coordinates             R   N=          84
  3.08558491E+00  1.85191807E+00  3.51074215E+00  3.47648641E+00  2.91368803E+00
  2.07018065E+00  2.06589550E+00  2.90402146E+00  2.06686802E+00  2.06855995E+00
  2.89512501E+00  2.07376674E+00  2.06729159E+00  2.06738334E+00  2.07279736E+00
  1.97170293E+00  1.83474479E+00  1.83346936E+00  1.62914486E+00  1.87440421E+00
  1.83046980E+00  1.86708671E+00  1.99365421E+00  2.00050908E+00  1.88588510E+00
  1.88618416E+00  1.91273165E+00  1.91390727E+00  1.95488840E+00  1.92137833E+00
  1.87474413E+00  1.85363198E+00  1.94211832E+00  1.95402385E+00  1.93131603E+00
  1.91904659E+00  1.86475458E+00  1.85083395E+00  1.87553551E+00  1.82700868E+00
  2.04034616E+00  1.96238532E+00  1.89316336E+00  8.85977221E-01 -8.20455153E-01
 -1.89713374E+00  2.30127016E-01  2.23036470E+00 -3.70976962E-02  2.09016306E+00
 -2.19278456E+00  1.45755805E+00 -7.36917958E-01 -2.74747273E+00 -4.03630925E-01
 -2.59810693E+00  1.67452361E+00  4.72278009E-01  2.60699951E+00 -1.62232938E+00
 -1.54971619E+00  5.85005316E-01  2.63886174E+00  2.54388979E+00 -1.60457401E+00
  4.49282409E-01 -7.87072653E-01  1.31587581E+00 -2.88185630E+00 -2.89572583E+00
 -7.92777369E-01  1.29267583E+00  1.30283417E+00 -2.87740267E+00 -7.91949472E-01
  7.38161511E-01  2.82796956E+00 -1.24856105E+00 -1.37176101E+00  7.18047040E-01
  2.92470174E+00  2.85553408E+00 -1.33784318E+00  8.68811522E-01
ZRed-IntVec                                I   N=          84
           0           0           0           0           0           0
           0           0           0           0           0           0
           0           0           0           0           0           0
           0           0           0           0           0           0
           0           0           0           0           0           0
           0           0           0           0           0           0
           0           0           0           0           0           0
           0           0           0           0           0           0
           0           0           0           0           0           0
           0           0           0           0           0           0
           0           0           0           0           0           0
           0           0           0           0           0           0
           0           0           0           0           0           0
           0           0           0           0           0           0
ZRed-FPVec                                 R   N=          84
  0.00000000E+00  0.00000000E+00  0.00000000E+00  0.00000000E+00  0.00000000E+00
  0.00000000E+00  0.00000000E+00  0.00000000E+00  0.00000000E+00  0.00000000E+00
  0.00000000E+00  0.00000000E+00  0.00000000E+00  0.00000000E+00  0.00000000E+00
  0.00000000E+00  0.00000000E+00  0.00000000E+00  0.00000000E+00  0.00000000E+00
  0.00000000E+00  0.00000000E+00  0.00000000E+00  0.00000000E+00  0.00000000E+00
  0.00000000E+00  0.00000000E+00  0.00000000E+00  0.00000000E+00  0.00000000E+00
  0.00000000E+00  0.00000000E+00  0.00000000E+00  0.00000000E+00  0.00000000E+00
  0.00000000E+00  0.00000000E+00  0.00000000E+00  0.00000000E+00  0.00000000E+00
  0.00000000E+00  0.00000000E+00  0.00000000E+00  0.00000000E+00  0.00000000E+00
  0.00000000E+00  0.00000000E+00  0.00000000E+00  0.00000000E+00  0.00000000E+00
  0.00000000E+00  0.00000000E+00  0.00000000E+00  0.00000000E+00  0.00000000E+00
  0.00000000E+00  0.00000000E+00  0.00000000E+00  0.00000000E+00  0.00000000E+00
  0.00000000E+00  0.00000000E+00  0.00000000E+00  0.00000000E+00  0.00000000E+00
  0.00000000E+00  0.00000000E+00  0.00000000E+00  0.00000000E+00  0.00000000E+00
  0.00000000E+00  0.00000000E+00  0.00000000E+00  0.00000000E+00  0.00000000E+00
  0.00000000E+00  0.00000000E+00  0.00000000E+00  0.00000000E+00  0.00000000E+00
  0.00000000E+00  0.00000000E+00  0.00000000E+00  0.00000000E+00
ZRed-Constraint1                           R   N=          84
  3.08558491E+00  1.85191807E+00  3.51074215E+00  3.47648641E+00  2.91368803E+00
  2.07018065E+00  2.06589550E+00  2.90402146E+00  2.06686802E+00  2.06855995E+00
  2.89512501E+00  2.07376674E+00  2.06729159E+00  2.06738334E+00  2.07279736E+00
  1.97170293E+00  1.83474479E+00  1.83346936E+00  1.62914486E+00  1.87440421E+00
  1.83046980E+00  1.86708671E+00  1.99365421E+00  2.00050908E+00  1.88588510E+00
  1.88618416E+00  1.91273165E+00  1.91390727E+00  1.95488840E+00  1.92137833E+00
  1.87474413E+00  1.85363198E+00  1.94211832E+00  1.95402385E+00  1.93131603E+00
  1.91904659E+00  1.86475458E+00  1.85083395E+00  1.87553551E+00  1.82700868E+00
  2.04034616E+00  1.96238532E+00  1.89316336E+00  8.85977221E-01 -8.20455153E-01
 -1.89713374E+00  2.30127016E-01  2.23036470E+00 -3.70976962E-02  2.09016306E+00
 -2.19278456E+00  1.45755805E+00 -7.36917958E-01 -2.74747273E+00 -4.03630925E-01
 -2.59810693E+00  1.67452361E+00  4.72278009E-01  2.60699951E+00 -1.62232938E+00
 -1.54971619E+00  5.85005316E-01  2.63886174E+00  2.54388979E+00 -1.60457401E+00
  4.49282409E-01 -7.87072653E-01  1.31587581E+00 -2.88185630E+00 -2.89572583E+00
 -7.92777369E-01  1.29267583E+00  1.30283417E+00 -2.87740267E+00 -7.91949472E-01
  7.38161511E-01  2.82796956E+00 -1.24856105E+00 -1.37176101E+00  7.18047040E-01
  2.92470174E+00  2.85553408E+00 -1.33784318E+00  8.68811522E-01
ZRed-Constraint2                           R   N=          84
  3.02470702E+00  1.81413708E+00  3.44645006E+00  3.45249387E+00  2.91397368E+00
  2.05972388E+00  2.05980370E+00  2.93488367E+00  2.05971775E+00  2.05982648E+00
  2.92866934E+00  2.05980892E+00  2.05988362E+00  2.05996256E+00  2.05969746E+00
  2.09439511E+00  1.87240132E+00  1.87784054E+00  1.73182719E+00  1.75806061E+00
  1.93483326E+00  1.93484464E+00  1.85317798E+00  1.85307799E+00  2.09441821E+00
  1.89700115E+00  1.86436594E+00  1.86440303E+00  1.86869103E+00  1.86864065E+00
  2.09443823E+00  1.92875962E+00  1.86047370E+00  1.86046919E+00  1.85910420E+00
  1.85907105E+00  2.09433534E+00  1.81241145E+00  1.92582745E+00  1.92605020E+00
  1.83967770E+00  1.83971057E+00  2.09436533E+00  6.31058900E-01 -1.21811232E+00
 -2.43962825E+00 -4.83693259E-01  1.88773084E+00 -4.88517303E-01  1.46741769E+00
 -2.44434352E+00  2.06252944E+00  9.85185562E-02 -2.25651360E+00  1.15718562E-01
 -1.84829232E+00  2.07986083E+00  7.26444114E-01  2.73726675E+00 -1.28433897E+00
 -1.29139997E+00  7.19422661E-01  2.98100225E+00  2.74426578E+00 -1.52809689E+00
  7.33482703E-01 -7.09496968E-01  1.30387647E+00 -2.72282873E+00 -2.71751057E+00
 -7.04137134E-01  1.55234298E+00  1.29853388E+00 -2.97127799E+00 -7.14797880E-01
  3.07981016E-01  2.33356010E+00 -1.71785990E+00 -1.70625061E+00  3.19328474E-01
  2.55109378E+00  2.32218892E+00 -1.93541730E+00  2.96348007E-01
SymInf integers                            I   N=          26
           1           1           1           1           1           0
           0           0           0           0           0           0
           0           0           0           0           0           0
           0           0           0           0           0           0
           0           0
RotTr to input orientation                 R   N=          12
  3.53426612E-01 -5.81005439E-01 -7.33159129E-01 -1.28622974E-01  7.46114330E-01
 -6.53276004E-01  9.26577444E-01  3.25186232E-01  1.88966013E-01  8.23367727E-01
  3.12155975E+00 -3.69707260E-01
Number of contracted shells                I               43
Number of primitive shells                 I              108
Pure/Cartesian d shells                    I                1
Pure/Cartesian f shells                    I                0
Highest angular momentum                   I                2
Largest degree of contraction              I                6
Shell types                                I   N=          43
           0          -1          -1           2           0          -1
          -1          -1           2           0          -1          -1
           2           0          -1          -1           2           0
          -1          -1           2           0          -1          -1
           2           0           0           0           0           0
           0           0           0           0           0           0
           0           0           0           0           0           0
           0
Number of primitives per shell             I   N=          43
           6           3           1           1           6           6
           3           1           1           6           3           1
           1           6           3           1           1           6
           3           1           1           6           3           1
           1           3           1           3           1           3
           1           3           1           3           1           3
           1           3           1           3           1           3
           1
Shell to atom map                          I   N=          43
           1           1           1           1           2           2
           2           2           2           3           3           3
           3           4           4           4           4           5
           5           5           5           6           6           6
           6           7           7           8           8           9
           9          10          10          11          11          12
          12          13          13          14          14          15
          15
Primitive exponents                        R   N=         108
  5.48467166E+03  8.25234946E+02  1.88046958E+02  5.29645000E+01  1.68975704E+01
  5.79963534E+00  1.55396162E+01  3.59993359E+00  1.01376175E+00  2.70005823E-01
  8.00000000E-01  2.19171000E+04  3.30149000E+03  7.54146000E+02  2.12711000E+02
  6.79896000E+01  2.30515000E+01  4.23735000E+02  1.00710000E+02  3.21599000E+01
  1.18079000E+01  4.63110000E+00  1.87025000E+00  2.61584000E+00  9.22167000E-01
  3.41287000E-01  1.17167000E-01  6.50000000E-01  3.04752488E+03  4.57369518E+02
  1.03948685E+02  2.92101553E+01  9.28666296E+00  3.16392696E+00  7.86827235E+00
  1.88128854E+00  5.44249258E-01  1.68714478E-01  8.00000000E-01  3.04752488E+03
  4.57369518E+02  1.03948685E+02  2.92101553E+01  9.28666296E+00  3.16392696E+00
  7.86827235E+00  1.88128854E+00  5.44249258E-01  1.68714478E-01  8.00000000E-01
  3.04752488E+03  4.57369518E+02  1.03948685E+02  2.92101553E+01  9.28666296E+00
  3.16392696E+00  7.86827235E+00  1.88128854E+00  5.44249258E-01  1.68714478E-01
  8.00000000E-01  3.04752488E+03  4.57369518E+02  1.03948685E+02  2.92101553E+01
  9.28666296E+00  3.16392696E+00  7.86827235E+00  1.88128854E+00  5.44249258E-01
  1.68714478E-01  8.00000000E-01  1.87311370E+01  2.82539436E+00  6.40121692E-01
  1.61277759E-01  1.87311370E+01  2.82539436E+00  6.40121692E-01  1.61277759E-01
  1.87311370E+01  2.82539436E+00  6.40121692E-01  1.61277759E-01  1.87311370E+01
  2.82539436E+00  6.40121692E-01  1.61277759E-01  1.87311370E+01  2.82539436E+00
  6.40121692E-01  1.61277759E-01  1.87311370E+01  2.82539436E+00  6.40121692E-01
  1.61277759E-01  1.87311370E+01  2.82539436E+00  6.40121692E-01  1.61277759E-01
  1.87311370E+01  2.82539436E+00  6.40121692E-01  1.61277759E-01  1.87311370E+01
  2.82539436E+00  6.40121692E-01  1.61277759E-01
Contraction coefficients                   R   N=         108
  1.83107443E-03  1.39501722E-02  6.84450781E-02  2.32714336E-01  4.70192898E-01
  3.58520853E-01 -1.10777550E-01 -1.48026263E-01  1.13076702E+00  1.00000000E+00
  1.00000000E+00  1.86924085E-03  1.42303065E-02  6.96962317E-02  2.38487108E-01
  4.83307220E-01  3.38074154E-01 -2.37677050E-03 -3.16930067E-02 -1.13317024E-01
  5.60900118E-02  5.92255124E-01  4.55006095E-01 -2.50373114E-01  6.69567631E-02
  1.05450627E+00  1.00000000E+00  1.00000000E+00  1.83473713E-03  1.40373228E-02
  6.88426223E-02  2.32184443E-01  4.67941348E-01  3.62311985E-01 -1.19332420E-01
 -1.60854152E-01  1.14345644E+00  1.00000000E+00  1.00000000E+00  1.83473713E-03
  1.40373228E-02  6.88426223E-02  2.32184443E-01  4.67941348E-01  3.62311985E-01
 -1.19332420E-01 -1.60854152E-01  1.14345644E+00  1.00000000E+00  1.00000000E+00
  1.83473713E-03  1.40373228E-02  6.88426223E-02  2.32184443E-01  4.67941348E-01
  3.62311985E-01 -1.19332420E-01 -1.60854152E-01  1.14345644E+00  1.00000000E+00
  1.00000000E+00  1.83473713E-03  1.40373228E-02  6.88426223E-02  2.32184443E-01
  4.67941348E-01  3.62311985E-01 -1.19332420E-01 -1.60854152E-01  1.14345644E+00
  1.00000000E+00  1.00000000E+00  3.34946043E-02  2.34726953E-01  8.13757326E-01
  1.00000000E+00  3.34946043E-02  2.34726953E-01  8.13757326E-01  1.00000000E+00
  3.34946043E-02  2.34726953E-01  8.13757326E-01  1.00000000E+00  3.34946043E-02
  2.34726953E-01  8.13757326E-01  1.00000000E+00  3.34946043E-02  2.34726953E-01
  8.13757326E-01  1.00000000E+00  3.34946043E-02  2.34726953E-01  8.13757326E-01
  1.00000000E+00  3.34946043E-02  2.34726953E-01  8.13757326E-01  1.00000000E+00
  3.34946043E-02  2.34726953E-01  8.13757326E-01  1.00000000E+00  3.34946043E-02
  2.34726953E-01  8.13757326E-01  1.00000000E+00
P(S=P) Contraction coefficients            R   N=         108
  0.00000000E+00  0.00000000E+00  0.00000000E+00  0.00000000E+00  0.00000000E+00
  0.00000000E+00  7.08742682E-02  3.39752839E-01  7.27158577E-01  1.00000000E+00
  0.00000000E+00  0.00000000E+00  0.00000000E+00  0.00000000E+00  0.00000000E+00
  0.00000000E+00  0.00000000E+00  4.06100998E-03  3.06812999E-02  1.30451999E-01
  3.27204999E-01  4.52850998E-01  2.56041999E-01 -1.45104895E-02  3.10262776E-01
  7.54482456E-01  1.00000000E+00  0.00000000E+00  0.00000000E+00  0.00000000E+00
  0.00000000E+00  0.00000000E+00  0.00000000E+00  0.00000000E+00  6.89990666E-02
  3.16423961E-01  7.44308291E-01  1.00000000E+00  0.00000000E+00  0.00000000E+00
  0.00000000E+00  0.00000000E+00  0.00000000E+00  0.00000000E+00  0.00000000E+00
  6.89990666E-02  3.16423961E-01  7.44308291E-01  1.00000000E+00  0.00000000E+00
  0.00000000E+00  0.00000000E+00  0.00000000E+00  0.00000000E+00  0.00000000E+00
  0.00000000E+00  6.89990666E-02  3.16423961E-01  7.44308291E-01  1.00000000E+00
  0.00000000E+00  0.00000000E+00  0.00000000E+00  0.00000000E+00  0.00000000E+00
  0.00000000E+00  0.00000000E+00  6.89990666E-02  3.16423961E-01  7.44308291E-01
  1.00000000E+00  0.00000000E+00  0.00000000E+00  0.00000000E+00  0.00000000E+00
  0.00000000E+00  0.00000000E+00  0.00000000E+00  0.00000000E+00  0.00000000E+00
  0.00000000E+00  0.00000000E+00  0.00000000E+00  0.00000000E+00  0.00000000E+00
  0.00000000E+00  0.00000000E+00  0.00000000E+00  0.00000000E+00  0.00000000E+00
  0.00000000E+00  0.00000000E+00  0.00000000E+00  0.00000000E+00  0.00000000E+00
  0.00000000E+00  0.00000000E+00  0.00000000E+00  0.00000000E+00  0.00000000E+00
  0.00000000E+00  0.00000000E+00  0.00000000E+00  0.00000000E+00  0.00000000E+00
  0.00000000E+00  0.00000000E+00  0.00000000E+00
Coordinates of each shell                  R   N=         129
 -3.53594267E+00  1.03015544E-01  1.45782073E+00 -3.53594267E+00  1.03015544E-01
  1.45782073E+00 -3.53594267E+00  1.03015544E-01  1.45782073E+00 -3.53594267E+00
  1.03015544E-01  1.45782073E+00 -1.72997059E+00 -2.05497282E-01 -1.02494365E+00
 -1.72997059E+00 -2.05497282E-01 -1.02494365E+00 -1.72997059E+00 -2.05497282E-01
 -1.02494365E+00 -1.72997059E+00 -2.05497282E-01 -1.02494365E+00 -1.72997059E+00
 -2.05497282E-01 -1.02494365E+00  6.85101352E-01 -2.58402570E+00 -1.10974004E-01
  6.85101352E-01 -2.58402570E+00 -1.10974004E-01  6.85101352E-01 -2.58402570E+00
 -1.10974004E-01  6.85101352E-01 -2.58402570E+00 -1.10974004E-01  3.21727879E+00
 -1.17752748E+00  2.04332385E-01  3.21727879E+00 -1.17752748E+00  2.04332385E-01
  3.21727879E+00 -1.17752748E+00  2.04332385E-01  3.21727879E+00 -1.17752748E+00
  2.04332385E-01  2.63529471E+00  1.57442842E+00  9.26394642E-01  2.63529471E+00
  1.57442842E+00  9.26394642E-01  2.63529471E+00  1.57442842E+00  9.26394642E-01
  2.63529471E+00  1.57442842E+00  9.26394642E-01  5.14797626E-01  2.44287926E+00
 -8.43078182E-01  5.14797626E-01  2.44287926E+00 -8.43078182E-01  5.14797626E-01
  2.44287926E+00 -8.43078182E-01  5.14797626E-01  2.44287926E+00 -8.43078182E-01
 -3.81756433E-02 -3.43277719E+00  1.63319893E+00 -3.81756433E-02 -3.43277719E+00
  1.63319893E+00  6.85177256E-01 -4.03814866E+00 -1.57843802E+00  6.85177256E-01
 -4.03814866E+00 -1.57843802E+00  4.36435958E+00 -2.12813261E+00  1.63698690E+00
  4.36435958E+00 -2.12813261E+00  1.63698690E+00  4.27273450E+00 -1.23749201E+00
 -1.57368835E+00  4.27273450E+00 -1.23749201E+00 -1.57368835E+00  2.04154214E+00
  1.72302318E+00  2.90777951E+00  2.04154214E+00  1.72302318E+00  2.90777951E+00
  4.28644194E+00  2.79806333E+00  7.02508707E-01  4.28644194E+00  2.79806333E+00
  7.02508707E-01 -5.50292856E-01  4.12082163E+00 -2.73722785E-01 -5.50292856E-01
  4.12082163E+00 -2.73722785E-01  1.17008490E+00  2.71077192E+00 -2.79123655E+00
  1.17008490E+00  2.71077192E+00 -2.79123655E+00 -2.57963578E+00  4.13175597E-01
  3.01309511E+00 -2.57963578E+00  4.13175597E-01  3.01309511E+00
Num ILSW                                   I              100
ILSW                                       I   N=         100
           0           1           0           0           2           0
           0           0           0           0         402          -1
           5           0           0           0           2           0
           0           0           0           0           1           0
           1           0           0           0           0           0
           0           0      100000           0          -1           0
           0           0           0           0           0           0
           0           0           0           1           0           0
           0 -2000000000           1           0           0           0
           0           0           4          52           0           0
           0           0           5           0           0           0
           0           0           0          15           0           1
           0           0           0           0           0           0
           0           0           0           0           0           0
           0           0           0           0           0           0
           0           0           0           0           0           0
           0           0           0           0
Num RLSW                                   I               52
RLSW                                       R   N=          52
  8.00000000E-01  7.20000000E-01  1.00000000E+00  8.10000000E-01  2.00000000E-01
  0.00000000E+00  0.00000000E+00  1.00000000E+00  0.00000000E+00  0.00000000E+00
  0.00000000E+00  0.00000000E+00  1.00000000E+00  0.00000000E+00  0.00000000E+00
  0.00000000E+00  0.00000000E+00  1.00000000E+00  0.00000000E+00  0.00000000E+00
  0.00000000E+00  0.00000000E+00  1.00000000E+00  0.00000000E+00  0.00000000E+00
  0.00000000E+00  0.00000000E+00  1.00000000E+00  0.00000000E+00  0.00000000E+00
  0.00000000E+00  0.00000000E+00  1.00000000E+00  0.00000000E+00  0.00000000E+00
  0.00000000E+00  0.00000000E+00  0.00000000E+00  1.00000000E+00  1.00000000E+00
  0.00000000E+00  1.00000000E+00  0.00000000E+00  0.00000000E+00  0.00000000E+00
  0.00000000E+00  0.00000000E+00  0.00000000E+00  0.00000000E+00  0.00000000E+00