 Entering Gaussian System, Link 0=/apps/cent7/gaussian/g16-A.03/g16-haswell/g16/g16
 Initial command:
 /apps/cent7/gaussian/g16-A.03/g16-haswell/g16/l1.exe "/scratch/brown/finej/gaussian/Gau-48224.inp" -scrdir="/scratch/brown/finej/gaussian/"
 Entering Link 1 = /apps/cent7/gaussian/g16-A.03/g16-haswell/g16/l1.exe PID=     48225.
  
 Copyright (c) 1988,1990,1992,1993,1995,1998,2003,2009,2016,
            Gaussian, Inc.  All Rights Reserved.
  
 This is part of the Gaussian(R) 16 program.  It is based on
 the Gaussian(R) 09 system (copyright 2009, Gaussian, Inc.),
 the Gaussian(R) 03 system (copyright 2003, Gaussian, Inc.),
 the Gaussian(R) 98 system (copyright 1998, Gaussian, Inc.),
 the Gaussian(R) 94 system (copyright 1995, Gaussian, Inc.),
 the Gaussian 92(TM) system (copyright 1992, Gaussian, Inc.),
 the Gaussian 90(TM) system (copyright 1990, Gaussian, Inc.),
 the Gaussian 88(TM) system (copyright 1988, Gaussian, Inc.),
 the Gaussian 86(TM) system (copyright 1986, Carnegie Mellon
 University), and the Gaussian 82(TM) system (copyright 1983,
 Carnegie Mellon University). Gaussian is a federally registered
 trademark of Gaussian, Inc.
  
 This software contains proprietary and confidential information,
 including trade secrets, belonging to Gaussian, Inc.
  
 This software is provided under written license and may be
 used, copied, transmitted, or stored only in accord with that
 written license.
  
 The following legend is applicable only to US Government
 contracts under FAR:
  
                    RESTRICTED RIGHTS LEGEND
  
 Use, reproduction and disclosure by the US Government is
 subject to restrictions as set forth in subparagraphs (a)
 and (c) of the Commercial Computer Software - Restricted
 Rights clause in FAR 52.227-19.
  
 Gaussian, Inc.
 340 Quinnipiac St., Bldg. 40, Wallingford CT 06492
  
  
 ---------------------------------------------------------------
 Warning -- This program may not be used in any manner that
 competes with the business of Gaussian, Inc. or will provide
 assistance to any competitor of Gaussian, Inc.  The licensee
 of this program is prohibited from giving any competitor of
 Gaussian, Inc. access to this program.  By using this program,
 the user acknowledges that Gaussian, Inc. is engaged in the
 business of creating and licensing software in the field of
 computational chemistry and represents and warrants to the
 licensee that it is not a competitor of Gaussian, Inc. and that
 it will not use this program in any manner prohibited above.
 ---------------------------------------------------------------
  

 Cite this work as:
 Gaussian 16, Revision A.03,
 M. J. Frisch, G. W. Trucks, H. B. Schlegel, G. E. Scuseria, 
 M. A. Robb, J. R. Cheeseman, G. Scalmani, V. Barone, 
 G. A. Petersson, H. Nakatsuji, X. Li, M. Caricato, A. V. Marenich, 
 J. Bloino, B. G. Janesko, R. Gomperts, B. Mennucci, H. P. Hratchian, 
 J. V. Ortiz, A. F. Izmaylov, J. L. Sonnenberg, D. Williams-Young, 
 F. Ding, F. Lipparini, F. Egidi, J. Goings, B. Peng, A. Petrone, 
 T. Henderson, D. Ranasinghe, V. G. Zakrzewski, J. Gao, N. Rega, 
 G. Zheng, W. Liang, M. Hada, M. Ehara, K. Toyota, R. Fukuda, 
 J. Hasegawa, M. Ishida, T. Nakajima, Y. Honda, O. Kitao, H. Nakai, 
 T. Vreven, K. Throssell, J. A. Montgomery, Jr., J. E. Peralta, 
 F. Ogliaro, M. J. Bearpark, J. J. Heyd, E. N. Brothers, K. N. Kudin, 
 V. N. Staroverov, T. A. Keith, R. Kobayashi, J. Normand, 
 K. Raghavachari, A. P. Rendell, J. C. Burant, S. S. Iyengar, 
 J. Tomasi, M. Cossi, J. M. Millam, M. Klene, C. Adamo, R. Cammi, 
 J. W. Ochterski, R. L. Martin, K. Morokuma, O. Farkas, 
 J. B. Foresman, and D. J. Fox, Gaussian, Inc., Wallingford CT, 2016.
 
 ******************************************
 Gaussian 16:  ES64L-G16RevA.03 25-Dec-2016
                14-Oct-2019 
 ******************************************
 %chk=22_p.chk
 %nprocshared=24
 Will use up to   24 processors via shared memory.
 %mem=80GB
 --------------------------------------------------------------
 #P opt freq b3lyp/6-31g(d) geom=connectivity temperature=0.001
 --------------------------------------------------------------
 1/18=20,19=15,26=3,38=1,57=2,112=-1000/1,3;
 2/9=110,12=2,17=6,18=5,40=1/2;
 3/5=1,6=6,7=1,11=2,25=1,30=1,71=1,74=-5/1,2,3;
 4//1;
 5/5=2,38=5/2;
 6/7=2,8=2,9=2,10=2,28=1/1;
 7//1,2,3,16;
 1/18=20,19=15,26=3/3(2);
 2/9=110/2;
 99//99;
 2/9=110/2;
 3/5=1,6=6,7=1,11=2,25=1,30=1,71=1,74=-5/1,2,3;
 4/5=5,16=3,69=1/1;
 5/5=2,38=5/2;
 7//1,2,3,16;
 1/18=20,19=15,26=3/3(-5);
 2/9=110/2;
 6/7=2,8=2,9=2,10=2,19=2,28=1/1;
 99/9=1/99;
 Leave Link    1 at Mon Oct 14 01:21:16 2019, MaxMem= 10737418240 cpu:               0.9 elap:               0.0
 (Enter /apps/cent7/gaussian/g16-A.03/g16-haswell/g16/l101.exe)
 -------------------
 Title Card Required
 -------------------
 Symbolic Z-matrix:
 Charge =  1 Multiplicity = 1
 O                    -0.0951    2.9154    1.3701 
 S                    -0.3951    1.7832    0.2792 
 C                     0.8845    0.4973    0.467 
 C                     1.1733    0.1618   -1.0101 
 C                     1.2142    1.485    -1.8222 
 C                     0.0923    2.4454   -1.3523 
 H                     1.8051    0.9215    0.8677 
 H                     0.4643   -0.407     0.9072 
 H                     2.1748   -0.2668   -1.0462 
 H                     0.3215   -0.4117   -1.3757 
 H                     2.1595    1.9703   -1.5793 
 H                     0.9856    1.2234   -2.8554 
 H                     0.5721    3.4176   -1.2387 
 H                    -0.7176    2.318    -2.0705 
 H                     0.81152   3.14272   1.58913 
 
 ITRead=  0  0  0  0  0  0  0  0  0  0  0  0  0  0  0
 MicOpt= -1 -1 -1 -1 -1 -1 -1 -1 -1 -1 -1 -1 -1 -1 -1
 NAtoms=     15 NQM=       15 NQMF=       0 NMMI=      0 NMMIF=      0
                NMic=       0 NMicF=      0.
                    Isotopes and Nuclear Properties:
 (Nuclear quadrupole moments (NQMom) in fm**2, nuclear magnetic moments (NMagM)
  in nuclear magnetons)

  Atom         1           2           3           4           5           6           7           8           9          10
 IAtWgt=          16          32          12          12          12          12           1           1           1           1
 AtmWgt=  15.9949146  31.9720718  12.0000000  12.0000000  12.0000000  12.0000000   1.0078250   1.0078250   1.0078250   1.0078250
 NucSpn=           0           0           0           0           0           0           1           1           1           1
 AtZEff=  -0.0000000  -0.0000000  -0.0000000  -0.0000000  -0.0000000  -0.0000000  -0.0000000  -0.0000000  -0.0000000  -0.0000000
 NQMom=    0.0000000   0.0000000   0.0000000   0.0000000   0.0000000   0.0000000   0.0000000   0.0000000   0.0000000   0.0000000
 NMagM=    0.0000000   0.0000000   0.0000000   0.0000000   0.0000000   0.0000000   2.7928460   2.7928460   2.7928460   2.7928460
 AtZNuc=   8.0000000  16.0000000   6.0000000   6.0000000   6.0000000   6.0000000   1.0000000   1.0000000   1.0000000   1.0000000

  Atom        11          12          13          14          15
 IAtWgt=           1           1           1           1           1
 AtmWgt=   1.0078250   1.0078250   1.0078250   1.0078250   1.0078250
 NucSpn=           1           1           1           1           1
 AtZEff=  -0.0000000  -0.0000000  -0.0000000  -0.0000000  -0.0000000
 NQMom=    0.0000000   0.0000000   0.0000000   0.0000000   0.0000000
 NMagM=    2.7928460   2.7928460   2.7928460   2.7928460   2.7928460
 AtZNuc=   1.0000000   1.0000000   1.0000000   1.0000000   1.0000000
 Leave Link  101 at Mon Oct 14 01:21:16 2019, MaxMem= 10737418240 cpu:               8.6 elap:               0.4
 (Enter /apps/cent7/gaussian/g16-A.03/g16-haswell/g16/l103.exe)

 GradGradGradGradGradGradGradGradGradGradGradGradGradGradGradGradGradGrad
 Berny optimization.
 Initialization pass.
                           ----------------------------
                           !    Initial Parameters    !
                           ! (Angstroms and Degrees)  !
 --------------------------                            --------------------------
 ! Name  Definition              Value          Derivative Info.                !
 --------------------------------------------------------------------------------
 ! R1    R(1,2)                  1.6006         estimate D2E/DX2                !
 ! R2    R(1,15)                 0.96           estimate D2E/DX2                !
 ! R3    R(2,3)                  1.8238         estimate D2E/DX2                !
 ! R4    R(2,6)                  1.827          estimate D2E/DX2                !
 ! R5    R(3,4)                  1.542          estimate D2E/DX2                !
 ! R6    R(3,7)                  1.09           estimate D2E/DX2                !
 ! R7    R(3,8)                  1.09           estimate D2E/DX2                !
 ! R8    R(4,5)                  1.5531         estimate D2E/DX2                !
 ! R9    R(4,9)                  1.09           estimate D2E/DX2                !
 ! R10   R(4,10)                 1.09           estimate D2E/DX2                !
 ! R11   R(5,6)                  1.5498         estimate D2E/DX2                !
 ! R12   R(5,11)                 1.09           estimate D2E/DX2                !
 ! R13   R(5,12)                 1.09           estimate D2E/DX2                !
 ! R14   R(6,13)                 1.0901         estimate D2E/DX2                !
 ! R15   R(6,14)                 1.0899         estimate D2E/DX2                !
 ! A1    A(2,1,15)             120.0            estimate D2E/DX2                !
 ! A2    A(1,2,3)              107.2807         estimate D2E/DX2                !
 ! A3    A(1,2,6)              107.5923         estimate D2E/DX2                !
 ! A4    A(3,2,6)               99.2264         estimate D2E/DX2                !
 ! A5    A(2,3,4)              100.7295         estimate D2E/DX2                !
 ! A6    A(2,3,7)              110.8578         estimate D2E/DX2                !
 ! A7    A(2,3,8)              110.8584         estimate D2E/DX2                !
 ! A8    A(4,3,7)              106.1793         estimate D2E/DX2                !
 ! A9    A(4,3,8)              106.1735         estimate D2E/DX2                !
 ! A10   A(7,3,8)              120.0013         estimate D2E/DX2                !
 ! A11   A(3,4,5)              108.6902         estimate D2E/DX2                !
 ! A12   A(3,4,9)              106.8203         estimate D2E/DX2                !
 ! A13   A(3,4,10)             106.8224         estimate D2E/DX2                !
 ! A14   A(5,4,9)              107.0681         estimate D2E/DX2                !
 ! A15   A(5,4,10)             107.0652         estimate D2E/DX2                !
 ! A16   A(9,4,10)             120.0025         estimate D2E/DX2                !
 ! A17   A(4,5,6)              110.5098         estimate D2E/DX2                !
 ! A18   A(4,5,11)             106.5973         estimate D2E/DX2                !
 ! A19   A(4,5,12)             106.597          estimate D2E/DX2                !
 ! A20   A(6,5,11)             106.5188         estimate D2E/DX2                !
 ! A21   A(6,5,12)             106.5169         estimate D2E/DX2                !
 ! A22   A(11,5,12)            119.9966         estimate D2E/DX2                !
 ! A23   A(2,6,5)              103.8435         estimate D2E/DX2                !
 ! A24   A(2,6,13)             110.3418         estimate D2E/DX2                !
 ! A25   A(2,6,14)             110.3545         estimate D2E/DX2                !
 ! A26   A(5,6,13)             105.4058         estimate D2E/DX2                !
 ! A27   A(5,6,14)             105.4077         estimate D2E/DX2                !
 ! A28   A(13,6,14)            119.9983         estimate D2E/DX2                !
 ! D1    D(15,1,2,3)            36.157          estimate D2E/DX2                !
 ! D2    D(15,1,2,6)           -69.7927         estimate D2E/DX2                !
 ! D3    D(1,2,3,4)           -139.7804         estimate D2E/DX2                !
 ! D4    D(1,2,3,7)            -27.7136         estimate D2E/DX2                !
 ! D5    D(1,2,3,8)            108.159          estimate D2E/DX2                !
 ! D6    D(6,2,3,4)            -27.99           estimate D2E/DX2                !
 ! D7    D(6,2,3,7)             84.0768         estimate D2E/DX2                !
 ! D8    D(6,2,3,8)           -140.0506         estimate D2E/DX2                !
 ! D9    D(1,2,6,5)            118.1742         estimate D2E/DX2                !
 ! D10   D(1,2,6,13)             5.6447         estimate D2E/DX2                !
 ! D11   D(1,2,6,14)          -129.2887         estimate D2E/DX2                !
 ! D12   D(3,2,6,5)              6.6302         estimate D2E/DX2                !
 ! D13   D(3,2,6,13)          -105.8993         estimate D2E/DX2                !
 ! D14   D(3,2,6,14)           119.1672         estimate D2E/DX2                !
 ! D15   D(2,3,4,5)             41.6222         estimate D2E/DX2                !
 ! D16   D(2,3,4,9)            156.8338         estimate D2E/DX2                !
 ! D17   D(2,3,4,10)           -73.5872         estimate D2E/DX2                !
 ! D18   D(7,3,4,5)            -73.9918         estimate D2E/DX2                !
 ! D19   D(7,3,4,9)             41.2199         estimate D2E/DX2                !
 ! D20   D(7,3,4,10)           170.7988         estimate D2E/DX2                !
 ! D21   D(8,3,4,5)            157.2348         estimate D2E/DX2                !
 ! D22   D(8,3,4,9)            -87.5535         estimate D2E/DX2                !
 ! D23   D(8,3,4,10)            42.0255         estimate D2E/DX2                !
 ! D24   D(3,4,5,6)            -40.6512         estimate D2E/DX2                !
 ! D25   D(3,4,5,11)            74.7066         estimate D2E/DX2                !
 ! D26   D(3,4,5,12)          -156.0066         estimate D2E/DX2                !
 ! D27   D(9,4,5,6)           -155.7019         estimate D2E/DX2                !
 ! D28   D(9,4,5,11)           -40.3441         estimate D2E/DX2                !
 ! D29   D(9,4,5,12)            88.9427         estimate D2E/DX2                !
 ! D30   D(10,4,5,6)            74.4005         estimate D2E/DX2                !
 ! D31   D(10,4,5,11)         -170.2417         estimate D2E/DX2                !
 ! D32   D(10,4,5,12)          -40.9549         estimate D2E/DX2                !
 ! D33   D(4,5,6,2)             17.646          estimate D2E/DX2                !
 ! D34   D(4,5,6,13)           133.7031         estimate D2E/DX2                !
 ! D35   D(4,5,6,14)           -98.4261         estimate D2E/DX2                !
 ! D36   D(11,5,6,2)           -97.761          estimate D2E/DX2                !
 ! D37   D(11,5,6,13)           18.2962         estimate D2E/DX2                !
 ! D38   D(11,5,6,14)          146.1669         estimate D2E/DX2                !
 ! D39   D(12,5,6,2)           133.0516         estimate D2E/DX2                !
 ! D40   D(12,5,6,13)         -110.8912         estimate D2E/DX2                !
 ! D41   D(12,5,6,14)           16.9795         estimate D2E/DX2                !
 --------------------------------------------------------------------------------
 Trust Radius=3.00D-01 FncErr=1.00D-07 GrdErr=1.00D-06 EigMax=2.50D+02 EigMin=1.00D-04
 Number of steps in this run=     94 maximum allowed number of steps=    100.
 GradGradGradGradGradGradGradGradGradGradGradGradGradGradGradGradGradGrad

 Leave Link  103 at Mon Oct 14 01:21:16 2019, MaxMem= 10737418240 cpu:               0.3 elap:               0.0
 (Enter /apps/cent7/gaussian/g16-A.03/g16-haswell/g16/l202.exe)
                          Input orientation:                          
 ---------------------------------------------------------------------
 Center     Atomic      Atomic             Coordinates (Angstroms)
 Number     Number       Type             X           Y           Z
 ---------------------------------------------------------------------
      1          8           0       -0.095100    2.915400    1.370100
      2         16           0       -0.395100    1.783200    0.279200
      3          6           0        0.884500    0.497300    0.467000
      4          6           0        1.173300    0.161800   -1.010100
      5          6           0        1.214200    1.485000   -1.822200
      6          6           0        0.092300    2.445400   -1.352300
      7          1           0        1.805100    0.921500    0.867700
      8          1           0        0.464300   -0.407000    0.907200
      9          1           0        2.174800   -0.266800   -1.046200
     10          1           0        0.321500   -0.411700   -1.375700
     11          1           0        2.159500    1.970300   -1.579300
     12          1           0        0.985600    1.223400   -2.855400
     13          1           0        0.572100    3.417600   -1.238700
     14          1           0       -0.717600    2.318000   -2.070500
     15          1           0        0.811517    3.142718    1.589126
 ---------------------------------------------------------------------
                    Distance matrix (angstroms):
                    1          2          3          4          5
     1  O    0.000000
     2  S    1.600606   0.000000
     3  C    2.760872   1.823783   0.000000
     4  C    3.854414   2.598290   1.542008   0.000000
     5  C    3.735116   2.663579   2.514894   1.553074   0.000000
     6  C    2.769022   1.826981   2.780742   2.549606   1.549785
     7  H    2.799786   2.435106   1.089959   2.121897   2.811095
     8  H    3.400816   2.435144   1.090001   2.121851   3.404650
     9  H    4.595362   3.544513   2.130375   1.089956   2.143299
    10  H    4.333886   2.840739   2.130444   1.090013   2.143303
    11  H    3.830848   3.164650   2.825367   2.137113   1.090004
    12  H    4.678208   3.470652   3.402320   2.137138   1.090043
    13  H    2.739197   2.431205   3.396345   3.318725   2.118421
    14  H    3.547129   2.431277   3.510068   3.057638   2.118347
    15  H    0.960000   2.240563   2.874497   3.971491   3.814097
                    6          7          8          9         10
     6  C    0.000000
     7  H    3.191294   0.000000
     8  H    3.657856   1.887913   0.000000
     9  H    3.433152   2.282925   2.600238   0.000000
    10  H    2.866374   3.001889   2.287367   1.887932   0.000000
    11  H    2.133205   2.685775   3.835093   2.299793   3.015563
    12  H    2.133208   3.824160   4.133657   2.628326   2.303062
    13  H    1.090085   3.491092   4.386807   4.022500   3.839936
    14  H    1.089945   4.116703   4.205854   4.012027   3.002289
    15  H    3.107332   2.538006   3.631265   4.519768   4.654482
                   11         12         13         14         15
    11  H    0.000000
    12  H    1.887944   0.000000
    13  H    2.174977   2.756667   0.000000
    14  H    2.939367   2.171430   1.887945   0.000000
    15  H    3.637382   4.844368   2.851225   4.051077   0.000000
 Stoichiometry    C4H9OS(1+)
 Framework group  C1[X(C4H9OS)]
 Deg. of freedom    39
 Full point group                 C1      NOp   1
 Largest Abelian subgroup         C1      NOp   1
 Largest concise Abelian subgroup C1      NOp   1
                         Standard orientation:                         
 ---------------------------------------------------------------------
 Center     Atomic      Atomic             Coordinates (Angstroms)
 Number     Number       Type             X           Y           Z
 ---------------------------------------------------------------------
      1          8           0       -2.083607    0.032834    0.449044
      2         16           0       -0.802644   -0.040110   -0.507905
      3          6           0        0.269991   -1.373200    0.123372
      4          6           0        1.660659   -0.731120   -0.054300
      5          6           0        1.579530    0.758919    0.376094
      6          6           0        0.257680    1.396696   -0.121689
      7          1           0        0.132089   -1.507026    1.196258
      8          1           0        0.247290   -2.237033   -0.540991
      9          1           0        2.330342   -1.230355    0.645908
     10          1           0        1.880086   -0.744201   -1.121919
     11          1           0        1.536409    0.766504    1.465218
     12          1           0        2.387429    1.276779   -0.140932
     13          1           0       -0.140611    1.942527    0.733716
     14          1           0        0.519778    1.930819   -1.034924
     15          1           0       -1.988819   -0.126692    1.390940
 ---------------------------------------------------------------------
 Rotational constants (GHZ):           4.9878898           2.5459929           1.9857638
 Leave Link  202 at Mon Oct 14 01:21:16 2019, MaxMem= 10737418240 cpu:               0.3 elap:               0.0
 (Enter /apps/cent7/gaussian/g16-A.03/g16-haswell/g16/l301.exe)
 Standard basis: 6-31G(d) (6D, 7F)
 Ernie: Thresh=  0.10000D-02 Tol=  0.10000D-05 Strict=F.
 There are   112 symmetry adapted cartesian basis functions of A   symmetry.
 There are   112 symmetry adapted basis functions of A   symmetry.
   112 basis functions,   228 primitive gaussians,   112 cartesian basis functions
    28 alpha electrons       28 beta electrons
       nuclear repulsion energy       332.4867211711 Hartrees.
 IExCor=  402 DFT=T Ex+Corr=B3LYP ExCW=0 ScaHFX=  0.200000
 ScaDFX=  0.800000  0.720000  1.000000  0.810000 ScalE2=  1.000000  1.000000
 IRadAn=      5 IRanWt=     -1 IRanGd=            0 ICorTp=0 IEmpDi=  4
 NAtoms=   15 NActive=   15 NUniq=   15 SFac= 1.00D+00 NAtFMM=   60 NAOKFM=F Big=F
 Integral buffers will be    131072 words long.
 Raffenetti 2 integral format.
 Two-electron integral symmetry is turned on.
 Leave Link  301 at Mon Oct 14 01:21:16 2019, MaxMem= 10737418240 cpu:               1.3 elap:               0.1
 (Enter /apps/cent7/gaussian/g16-A.03/g16-haswell/g16/l302.exe)
 NPDir=0 NMtPBC=     1 NCelOv=     1 NCel=       1 NClECP=     1 NCelD=      1
         NCelK=      1 NCelE2=     1 NClLst=     1 CellRange=     0.0.
 One-electron integrals computed using PRISM.
 One-electron integral symmetry used in STVInt
 NBasis=   112 RedAO= T EigKep=  3.65D-03  NBF=   112
 NBsUse=   112 1.00D-06 EigRej= -1.00D+00 NBFU=   112
 Precomputing XC quadrature grid using
 IXCGrd= 4 IRadAn=           5 IRanWt=          -1 IRanGd=           0 AccXCQ= 0.00D+00.
 Generated NRdTot=       0 NPtTot=           0 NUsed=           0 NTot=          32
 NSgBfM=   112   112   112   112   112 MxSgAt=    15 MxSgA2=    15.
 Leave Link  302 at Mon Oct 14 01:21:17 2019, MaxMem= 10737418240 cpu:               3.1 elap:               0.2
 (Enter /apps/cent7/gaussian/g16-A.03/g16-haswell/g16/l303.exe)
 DipDrv:  MaxL=1.
 Leave Link  303 at Mon Oct 14 01:21:17 2019, MaxMem= 10737418240 cpu:               0.7 elap:               0.1
 (Enter /apps/cent7/gaussian/g16-A.03/g16-haswell/g16/l401.exe)
 ExpMin= 1.17D-01 ExpMax= 2.19D+04 ExpMxC= 3.30D+03 IAcc=3 IRadAn=         5 AccDes= 0.00D+00
 Harris functional with IExCor=  402 and IRadAn=       5 diagonalized for initial guess.
 HarFok:  IExCor=  402 AccDes= 0.00D+00 IRadAn=         5 IDoV= 1 UseB2=F ITyADJ=14
 ICtDFT=  3500011 ScaDFX=  1.000000  1.000000  1.000000  1.000000
 FoFCou: FMM=F IPFlag=           0 FMFlag=      100000 FMFlg1=           0
         NFxFlg=           0 DoJE=T BraDBF=F KetDBF=T FulRan=T
         wScrn=  0.000000 ICntrl=       500 IOpCl=  0 I1Cent=   200000004 NGrid=           0
         NMat0=    1 NMatS0=      1 NMatT0=    0 NMatD0=    1 NMtDS0=    0 NMtDT0=    0
 Petite list used in FoFCou.
 Harris En= -631.006807489568    
 JPrj=0 DoOrth=F DoCkMO=F.
 Leave Link  401 at Mon Oct 14 01:21:17 2019, MaxMem= 10737418240 cpu:               5.4 elap:               0.3
 (Enter /apps/cent7/gaussian/g16-A.03/g16-haswell/g16/l502.exe)
 Integral symmetry usage will be decided dynamically.
 Closed shell SCF:
 Using DIIS extrapolation, IDIIS=  1040.
 NGot= 10737418240 LenX= 10737389000 LenY= 10737376015
 Requested convergence on RMS density matrix=1.00D-08 within 128 cycles.
 Requested convergence on MAX density matrix=1.00D-06.
 Requested convergence on             energy=1.00D-06.
 No special actions if energy rises.
 Fock matrices will be formed incrementally for  20 cycles.
 Integral accuracy reduced to 1.0D-05 until final iterations.

 Cycle   1  Pass 0  IDiag  1:
 FoFJK:  IHMeth= 1 ICntrl=       0 DoSepK=F KAlg= 0 I1Cent=           0 FoldK=F
 IRaf= 990000000 NMat=       1 IRICut=       1 DoRegI=T DoRafI=F ISym2E= 0 IDoP0=0 IntGTp=1.
 FoFCou: FMM=F IPFlag=           0 FMFlag=      100000 FMFlg1=           0
         NFxFlg=           0 DoJE=F BraDBF=F KetDBF=F FulRan=T
         wScrn=  0.000000 ICntrl=         0 IOpCl=  0 I1Cent=           0 NGrid=           0
         NMat0=    1 NMatS0=      1 NMatT0=    0 NMatD0=    1 NMtDS0=    0 NMtDT0=    0
 Symmetry not used in FoFCou.
 E= -630.689488045561    
 DIIS: error= 3.12D-02 at cycle   1 NSaved=   1.
 NSaved= 1 IEnMin= 1 EnMin= -630.689488045561     IErMin= 1 ErrMin= 3.12D-02
 ErrMax= 3.12D-02  0.00D+00 EMaxC= 1.00D-01 BMatC= 2.56D-01 BMatP= 2.56D-01
 IDIUse=3 WtCom= 6.88D-01 WtEn= 3.12D-01
 Coeff-Com:  0.100D+01
 Coeff-En:   0.100D+01
 Coeff:      0.100D+01
 Gap=     0.307 Goal=   None    Shift=    0.000
 GapD=    0.307 DampG=1.000 DampE=0.500 DampFc=0.5000 IDamp=-1.
 Damping current iteration by 5.00D-01
 RMSDP=1.05D-02 MaxDP=3.33D-01              OVMax= 2.00D-01

 Cycle   2  Pass 0  IDiag  1:
 RMSU=  5.26D-03    CP:  9.96D-01
 E= -630.781792610865     Delta-E=       -0.092304565304 Rises=F Damp=T
 DIIS: error= 8.59D-03 at cycle   2 NSaved=   2.
 NSaved= 2 IEnMin= 2 EnMin= -630.781792610865     IErMin= 2 ErrMin= 8.59D-03
 ErrMax= 8.59D-03  0.00D+00 EMaxC= 1.00D-01 BMatC= 1.58D-02 BMatP= 2.56D-01
 IDIUse=3 WtCom= 9.14D-01 WtEn= 8.59D-02
 Coeff-Com:  0.138D+00 0.862D+00
 Coeff-En:   0.253D+00 0.747D+00
 Coeff:      0.148D+00 0.852D+00
 Gap=     0.291 Goal=   None    Shift=    0.000
 RMSDP=2.10D-03 MaxDP=7.29D-02 DE=-9.23D-02 OVMax= 1.36D-01

 Cycle   3  Pass 0  IDiag  1:
 RMSU=  1.75D-03    CP:  9.94D-01  7.80D-01
 E= -630.934549843593     Delta-E=       -0.152757232728 Rises=F Damp=F
 DIIS: error= 5.04D-03 at cycle   3 NSaved=   3.
 NSaved= 3 IEnMin= 3 EnMin= -630.934549843593     IErMin= 3 ErrMin= 5.04D-03
 ErrMax= 5.04D-03  0.00D+00 EMaxC= 1.00D-01 BMatC= 3.49D-03 BMatP= 1.58D-02
 IDIUse=3 WtCom= 9.50D-01 WtEn= 5.04D-02
 Coeff-Com:  0.197D-01 0.298D+00 0.682D+00
 Coeff-En:   0.000D+00 0.000D+00 0.100D+01
 Coeff:      0.187D-01 0.283D+00 0.698D+00
 Gap=     0.269 Goal=   None    Shift=    0.000
 RMSDP=8.21D-04 MaxDP=1.79D-02 DE=-1.53D-01 OVMax= 1.98D-02

 Cycle   4  Pass 0  IDiag  1:
 RMSU=  6.72D-04    CP:  9.96D-01  7.88D-01  7.33D-01
 E= -630.936196125049     Delta-E=       -0.001646281456 Rises=F Damp=F
 DIIS: error= 2.63D-03 at cycle   4 NSaved=   4.
 NSaved= 4 IEnMin= 4 EnMin= -630.936196125049     IErMin= 4 ErrMin= 2.63D-03
 ErrMax= 2.63D-03  0.00D+00 EMaxC= 1.00D-01 BMatC= 1.74D-03 BMatP= 3.49D-03
 IDIUse=3 WtCom= 9.74D-01 WtEn= 2.63D-02
 Coeff-Com: -0.443D-02 0.663D-01 0.424D+00 0.514D+00
 Coeff-En:   0.000D+00 0.000D+00 0.330D+00 0.670D+00
 Coeff:     -0.432D-02 0.645D-01 0.422D+00 0.518D+00
 Gap=     0.267 Goal=   None    Shift=    0.000
 RMSDP=4.12D-04 MaxDP=8.52D-03 DE=-1.65D-03 OVMax= 9.31D-03

 Cycle   5  Pass 0  IDiag  1:
 RMSU=  2.23D-04    CP:  9.95D-01  8.04D-01  8.12D-01  5.47D-01
 E= -630.937639600076     Delta-E=       -0.001443475027 Rises=F Damp=F
 DIIS: error= 7.08D-04 at cycle   5 NSaved=   5.
 NSaved= 5 IEnMin= 5 EnMin= -630.937639600076     IErMin= 5 ErrMin= 7.08D-04
 ErrMax= 7.08D-04  0.00D+00 EMaxC= 1.00D-01 BMatC= 8.65D-05 BMatP= 1.74D-03
 IDIUse=3 WtCom= 9.93D-01 WtEn= 7.08D-03
 Coeff-Com: -0.389D-02 0.554D-02 0.138D+00 0.253D+00 0.608D+00
 Coeff-En:   0.000D+00 0.000D+00 0.000D+00 0.000D+00 0.100D+01
 Coeff:     -0.386D-02 0.551D-02 0.137D+00 0.251D+00 0.610D+00
 Gap=     0.267 Goal=   None    Shift=    0.000
 RMSDP=1.02D-04 MaxDP=1.97D-03 DE=-1.44D-03 OVMax= 2.29D-03

 Cycle   6  Pass 0  IDiag  1:
 RMSU=  3.83D-05    CP:  9.95D-01  7.99D-01  8.27D-01  5.94D-01  6.42D-01
 E= -630.937718252042     Delta-E=       -0.000078651965 Rises=F Damp=F
 DIIS: error= 8.58D-05 at cycle   6 NSaved=   6.
 NSaved= 6 IEnMin= 6 EnMin= -630.937718252042     IErMin= 6 ErrMin= 8.58D-05
 ErrMax= 8.58D-05  0.00D+00 EMaxC= 1.00D-01 BMatC= 1.41D-06 BMatP= 8.65D-05
 IDIUse=1 WtCom= 1.00D+00 WtEn= 0.00D+00
 Coeff-Com: -0.132D-02-0.436D-03 0.372D-01 0.769D-01 0.223D+00 0.665D+00
 Coeff:     -0.132D-02-0.436D-03 0.372D-01 0.769D-01 0.223D+00 0.665D+00
 Gap=     0.267 Goal=   None    Shift=    0.000
 RMSDP=1.32D-05 MaxDP=2.37D-04 DE=-7.87D-05 OVMax= 3.16D-04

 Cycle   7  Pass 0  IDiag  1:
 RMSU=  1.01D-05    CP:  9.95D-01  7.99D-01  8.28D-01  5.96D-01  6.61D-01
                    CP:  8.34D-01
 E= -630.937719496237     Delta-E=       -0.000001244195 Rises=F Damp=F
 DIIS: error= 3.03D-05 at cycle   7 NSaved=   7.
 NSaved= 7 IEnMin= 7 EnMin= -630.937719496237     IErMin= 7 ErrMin= 3.03D-05
 ErrMax= 3.03D-05  0.00D+00 EMaxC= 1.00D-01 BMatC= 1.73D-07 BMatP= 1.41D-06
 IDIUse=1 WtCom= 1.00D+00 WtEn= 0.00D+00
 Coeff-Com: -0.166D-03-0.554D-03 0.236D-02 0.779D-02 0.337D-01 0.282D+00
 Coeff-Com:  0.674D+00
 Coeff:     -0.166D-03-0.554D-03 0.236D-02 0.779D-02 0.337D-01 0.282D+00
 Coeff:      0.674D+00
 Gap=     0.267 Goal=   None    Shift=    0.000
 RMSDP=4.47D-06 MaxDP=8.18D-05 DE=-1.24D-06 OVMax= 1.21D-04

 Initial convergence to 1.0D-05 achieved.  Increase integral accuracy.
 Cycle   8  Pass 1  IDiag  1:
 E= -630.937726521164     Delta-E=       -0.000007024927 Rises=F Damp=F
 DIIS: error= 8.20D-06 at cycle   1 NSaved=   1.
 NSaved= 1 IEnMin= 1 EnMin= -630.937726521164     IErMin= 1 ErrMin= 8.20D-06
 ErrMax= 8.20D-06  0.00D+00 EMaxC= 1.00D-01 BMatC= 1.87D-08 BMatP= 1.87D-08
 IDIUse=1 WtCom= 1.00D+00 WtEn= 0.00D+00
 Coeff-Com:  0.100D+01
 Coeff:      0.100D+01
 Gap=     0.267 Goal=   None    Shift=    0.000
 RMSDP=4.47D-06 MaxDP=8.18D-05 DE=-7.02D-06 OVMax= 5.08D-05

 Cycle   9  Pass 1  IDiag  1:
 RMSU=  3.09D-06    CP:  1.00D+00
 E= -630.937726525550     Delta-E=       -0.000000004386 Rises=F Damp=F
 DIIS: error= 1.01D-05 at cycle   2 NSaved=   2.
 NSaved= 2 IEnMin= 2 EnMin= -630.937726525550     IErMin= 1 ErrMin= 8.20D-06
 ErrMax= 1.01D-05  0.00D+00 EMaxC= 1.00D-01 BMatC= 1.58D-08 BMatP= 1.87D-08
 IDIUse=1 WtCom= 1.00D+00 WtEn= 0.00D+00
 Coeff-Com:  0.476D+00 0.524D+00
 Coeff:      0.476D+00 0.524D+00
 Gap=     0.267 Goal=   None    Shift=    0.000
 RMSDP=1.23D-06 MaxDP=2.71D-05 DE=-4.39D-09 OVMax= 2.83D-05

 Cycle  10  Pass 1  IDiag  1:
 RMSU=  1.01D-06    CP:  1.00D+00  7.72D-01
 E= -630.937726540447     Delta-E=       -0.000000014897 Rises=F Damp=F
 DIIS: error= 2.45D-06 at cycle   3 NSaved=   3.
 NSaved= 3 IEnMin= 3 EnMin= -630.937726540447     IErMin= 3 ErrMin= 2.45D-06
 ErrMax= 2.45D-06  0.00D+00 EMaxC= 1.00D-01 BMatC= 7.49D-10 BMatP= 1.58D-08
 IDIUse=1 WtCom= 1.00D+00 WtEn= 0.00D+00
 Coeff-Com:  0.338D-01 0.184D+00 0.783D+00
 Coeff:      0.338D-01 0.184D+00 0.783D+00
 Gap=     0.267 Goal=   None    Shift=    0.000
 RMSDP=2.87D-07 MaxDP=6.40D-06 DE=-1.49D-08 OVMax= 6.82D-06

 Cycle  11  Pass 1  IDiag  1:
 RMSU=  2.28D-07    CP:  1.00D+00  8.07D-01  8.64D-01
 E= -630.937726541071     Delta-E=       -0.000000000624 Rises=F Damp=F
 DIIS: error= 6.63D-07 at cycle   4 NSaved=   4.
 NSaved= 4 IEnMin= 4 EnMin= -630.937726541071     IErMin= 4 ErrMin= 6.63D-07
 ErrMax= 6.63D-07  0.00D+00 EMaxC= 1.00D-01 BMatC= 1.09D-10 BMatP= 7.49D-10
 IDIUse=1 WtCom= 1.00D+00 WtEn= 0.00D+00
 Coeff-Com: -0.558D-02 0.700D-01 0.406D+00 0.529D+00
 Coeff:     -0.558D-02 0.700D-01 0.406D+00 0.529D+00
 Gap=     0.267 Goal=   None    Shift=    0.000
 RMSDP=1.23D-07 MaxDP=2.46D-06 DE=-6.24D-10 OVMax= 2.49D-06

 Cycle  12  Pass 1  IDiag  1:
 RMSU=  5.95D-08    CP:  1.00D+00  8.17D-01  8.84D-01  5.62D-01
 E= -630.937726541161     Delta-E=       -0.000000000090 Rises=F Damp=F
 DIIS: error= 2.39D-07 at cycle   5 NSaved=   5.
 NSaved= 5 IEnMin= 5 EnMin= -630.937726541161     IErMin= 5 ErrMin= 2.39D-07
 ErrMax= 2.39D-07  0.00D+00 EMaxC= 1.00D-01 BMatC= 1.37D-11 BMatP= 1.09D-10
 IDIUse=1 WtCom= 1.00D+00 WtEn= 0.00D+00
 Coeff-Com: -0.616D-02 0.264D-01 0.176D+00 0.320D+00 0.484D+00
 Coeff:     -0.616D-02 0.264D-01 0.176D+00 0.320D+00 0.484D+00
 Gap=     0.267 Goal=   None    Shift=    0.000
 RMSDP=3.05D-08 MaxDP=7.52D-07 DE=-8.98D-11 OVMax= 6.83D-07

 Cycle  13  Pass 1  IDiag  1:
 RMSU=  1.65D-08    CP:  1.00D+00  8.18D-01  8.84D-01  5.80D-01  5.79D-01
 E= -630.937726541174     Delta-E=       -0.000000000014 Rises=F Damp=F
 DIIS: error= 2.84D-08 at cycle   6 NSaved=   6.
 NSaved= 6 IEnMin= 6 EnMin= -630.937726541174     IErMin= 6 ErrMin= 2.84D-08
 ErrMax= 2.84D-08  0.00D+00 EMaxC= 1.00D-01 BMatC= 2.17D-13 BMatP= 1.37D-11
 IDIUse=1 WtCom= 1.00D+00 WtEn= 0.00D+00
 Coeff-Com: -0.198D-02 0.493D-02 0.375D-01 0.884D-01 0.171D+00 0.700D+00
 Coeff:     -0.198D-02 0.493D-02 0.375D-01 0.884D-01 0.171D+00 0.700D+00
 Gap=     0.267 Goal=   None    Shift=    0.000
 RMSDP=5.84D-09 MaxDP=8.01D-08 DE=-1.36D-11 OVMax= 1.11D-07

 SCF Done:  E(RB3LYP) =  -630.937726541     A.U. after   13 cycles
            NFock= 13  Conv=0.58D-08     -V/T= 2.0054
 KE= 6.275695339119D+02 PE=-2.139847505569D+03 EE= 5.488535239450D+02
 Leave Link  502 at Mon Oct 14 01:21:19 2019, MaxMem= 10737418240 cpu:              41.5 elap:               1.8
 (Enter /apps/cent7/gaussian/g16-A.03/g16-haswell/g16/l601.exe)
 Copying SCF densities to generalized density rwf, IOpCl= 0 IROHF=0.

 **********************************************************************

            Population analysis using the SCF density.

 **********************************************************************

 Orbital symmetries:
       Occupied  (A) (A) (A) (A) (A) (A) (A) (A) (A) (A) (A) (A)
                 (A) (A) (A) (A) (A) (A) (A) (A) (A) (A) (A) (A)
                 (A) (A) (A) (A)
       Virtual   (A) (A) (A) (A) (A) (A) (A) (A) (A) (A) (A) (A)
                 (A) (A) (A) (A) (A) (A) (A) (A) (A) (A) (A) (A)
                 (A) (A) (A) (A) (A) (A) (A) (A) (A) (A) (A) (A)
                 (A) (A) (A) (A) (A) (A) (A) (A) (A) (A) (A) (A)
                 (A) (A) (A) (A) (A) (A) (A) (A) (A) (A) (A) (A)
                 (A) (A) (A) (A) (A) (A) (A) (A) (A) (A) (A) (A)
                 (A) (A) (A) (A) (A) (A) (A) (A) (A) (A) (A) (A)
 The electronic state is 1-A.
 Alpha  occ. eigenvalues --  -89.21008 -19.40667 -10.42270 -10.41587 -10.37902
 Alpha  occ. eigenvalues --  -10.37500  -8.26165  -6.22800  -6.22276  -6.21713
 Alpha  occ. eigenvalues --   -1.28795  -1.06503  -0.94635  -0.94315  -0.82910
 Alpha  occ. eigenvalues --   -0.76950  -0.74907  -0.70824  -0.66072  -0.64107
 Alpha  occ. eigenvalues --   -0.63237  -0.62121  -0.58037  -0.55300  -0.53790
 Alpha  occ. eigenvalues --   -0.53279  -0.51762  -0.49505
 Alpha virt. eigenvalues --   -0.22833  -0.16380  -0.13952  -0.12493  -0.08234
 Alpha virt. eigenvalues --   -0.06247  -0.04108  -0.02342  -0.01078  -0.00151
 Alpha virt. eigenvalues --    0.01051   0.02362   0.03786   0.05305   0.07564
 Alpha virt. eigenvalues --    0.14786   0.18469   0.19537   0.23429   0.28483
 Alpha virt. eigenvalues --    0.30954   0.35286   0.35817   0.38710   0.40467
 Alpha virt. eigenvalues --    0.42682   0.46472   0.47945   0.51330   0.55845
 Alpha virt. eigenvalues --    0.57298   0.60360   0.65467   0.66256   0.67603
 Alpha virt. eigenvalues --    0.68242   0.69176   0.70128   0.72295   0.73897
 Alpha virt. eigenvalues --    0.74238   0.77115   0.78755   0.80511   0.84679
 Alpha virt. eigenvalues --    0.88718   0.94069   0.96207   1.02836   1.11394
 Alpha virt. eigenvalues --    1.20007   1.23231   1.27714   1.44129   1.49454
 Alpha virt. eigenvalues --    1.54022   1.57077   1.58454   1.65976   1.70268
 Alpha virt. eigenvalues --    1.71970   1.76549   1.82826   1.83089   1.86025
 Alpha virt. eigenvalues --    1.88648   1.95111   1.99114   2.00902   2.04703
 Alpha virt. eigenvalues --    2.09169   2.14650   2.20170   2.22600   2.34495
 Alpha virt. eigenvalues --    2.37126   2.38654   2.53817   3.53885   3.72436
 Alpha virt. eigenvalues --    3.95820   4.01957   4.24478   4.32960
          Condensed to atoms (all electrons):
               1          2          3          4          5          6
     1  O    8.214162   0.196043  -0.018316   0.001230   0.001736  -0.025830
     2  S    0.196043  14.682186   0.244652  -0.059216  -0.057973   0.212945
     3  C   -0.018316   0.244652   5.416521   0.300499  -0.060166  -0.045392
     4  C    0.001230  -0.059216   0.300499   5.148009   0.354548  -0.046638
     5  C    0.001736  -0.057973  -0.060166   0.354548   5.109214   0.296366
     6  C   -0.025830   0.212945  -0.045392  -0.046638   0.296366   5.465710
     7  H   -0.002414  -0.026088   0.356375  -0.030211   0.000992  -0.002558
     8  H    0.001053  -0.028219   0.369657  -0.028765   0.004110   0.002670
     9  H   -0.000049   0.004862  -0.029618   0.378259  -0.031271   0.005227
    10  H   -0.000034   0.004197  -0.050163   0.385313  -0.040720  -0.002501
    11  H    0.000058   0.003867  -0.000645  -0.042129   0.389825  -0.046763
    12  H   -0.000030   0.003969   0.005105  -0.032263   0.384517  -0.034977
    13  H   -0.000747  -0.025428   0.001015   0.004516  -0.024901   0.362981
    14  H    0.001170  -0.023291   0.002397   0.000095  -0.032580   0.366825
    15  H    0.237845  -0.007655  -0.005469   0.000220   0.000329  -0.003078
               7          8          9         10         11         12
     1  O   -0.002414   0.001053  -0.000049  -0.000034   0.000058  -0.000030
     2  S   -0.026088  -0.028219   0.004862   0.004197   0.003867   0.003969
     3  C    0.356375   0.369657  -0.029618  -0.050163  -0.000645   0.005105
     4  C   -0.030211  -0.028765   0.378259   0.385313  -0.042129  -0.032263
     5  C    0.000992   0.004110  -0.031271  -0.040720   0.389825   0.384517
     6  C   -0.002558   0.002670   0.005227  -0.002501  -0.046763  -0.034977
     7  H    0.474397  -0.010864  -0.007593   0.004681   0.003151  -0.000183
     8  H   -0.010864   0.421312  -0.000515  -0.004299  -0.000067  -0.000134
     9  H   -0.007593  -0.000515   0.465741  -0.011388  -0.005695  -0.000242
    10  H    0.004681  -0.004299  -0.011388   0.511582   0.004813  -0.005624
    11  H    0.003151  -0.000067  -0.005695   0.004813   0.518780  -0.012370
    12  H   -0.000183  -0.000134  -0.000242  -0.005624  -0.012370   0.474477
    13  H    0.000204  -0.000051  -0.000207  -0.000033  -0.007291   0.000584
    14  H   -0.000018  -0.000045  -0.000084   0.001122   0.003743  -0.006912
    15  H    0.004932  -0.000090  -0.000033   0.000012   0.000026  -0.000009
              13         14         15
     1  O   -0.000747   0.001170   0.237845
     2  S   -0.025428  -0.023291  -0.007655
     3  C    0.001015   0.002397  -0.005469
     4  C    0.004516   0.000095   0.000220
     5  C   -0.024901  -0.032580   0.000329
     6  C    0.362981   0.366825  -0.003078
     7  H    0.000204  -0.000018   0.004932
     8  H   -0.000051  -0.000045  -0.000090
     9  H   -0.000207  -0.000084  -0.000033
    10  H   -0.000033   0.001122   0.000012
    11  H   -0.007291   0.003743   0.000026
    12  H    0.000584  -0.006912  -0.000009
    13  H    0.435568  -0.007885   0.001410
    14  H   -0.007885   0.431041  -0.000049
    15  H    0.001410  -0.000049   0.306569
 Mulliken charges:
               1
     1  O   -0.605879
     2  S    0.875148
     3  C   -0.486453
     4  C   -0.333467
     5  C   -0.294025
     6  C   -0.504987
     7  H    0.235198
     8  H    0.274246
     9  H    0.232608
    10  H    0.203043
    11  H    0.190699
    12  H    0.224092
    13  H    0.260263
    14  H    0.264473
    15  H    0.465040
 Sum of Mulliken charges =   1.00000
 Mulliken charges with hydrogens summed into heavy atoms:
               1
     1  O   -0.140839
     2  S    0.875148
     3  C    0.022991
     4  C    0.102184
     5  C    0.120766
     6  C    0.019749
 Electronic spatial extent (au):  <R**2>=            662.6116
 Charge=              1.0000 electrons
 Dipole moment (field-independent basis, Debye):
    X=              0.9585    Y=             -0.3279    Z=              1.5051  Tot=              1.8143
 Quadrupole moment (field-independent basis, Debye-Ang):
   XX=            -36.9990   YY=            -34.3519   ZZ=            -34.8849
   XY=              0.5261   XZ=             -3.8501   YZ=             -0.9513
 Traceless Quadrupole moment (field-independent basis, Debye-Ang):
   XX=             -1.5871   YY=              1.0601   ZZ=              0.5270
   XY=              0.5261   XZ=             -3.8501   YZ=             -0.9513
 Octapole moment (field-independent basis, Debye-Ang**2):
  XXX=             -1.9203  YYY=             -1.1876  ZZZ=              9.2881  XYY=              0.9202
  XXY=             -0.9700  XXZ=              7.6994  XZZ=             -8.1718  YZZ=             -0.3258
  YYZ=             -1.3267  XYZ=             -1.4664
 Hexadecapole moment (field-independent basis, Debye-Ang**3):
 XXXX=           -452.4214 YYYY=           -237.2964 ZZZZ=            -89.3918 XXXY=              3.6373
 XXXZ=            -19.3465 YYYX=             -0.0222 YYYZ=              1.8342 ZZZX=            -18.8958
 ZZZY=             -2.9505 XXYY=           -115.9664 XXZZ=            -74.6974 YYZZ=            -52.0175
 XXYZ=             -7.1912 YYXZ=             -3.2728 ZZXY=              0.2244
 N-N= 3.324867211711D+02 E-N=-2.139847509390D+03  KE= 6.275695339119D+02
 No NMR shielding tensors so no spin-rotation constants.
 Leave Link  601 at Mon Oct 14 01:21:19 2019, MaxMem= 10737418240 cpu:               2.1 elap:               0.1
 (Enter /apps/cent7/gaussian/g16-A.03/g16-haswell/g16/l701.exe)
 ... and contract with generalized density number  0.
 Compute integral first derivatives.
 Leave Link  701 at Mon Oct 14 01:21:19 2019, MaxMem= 10737418240 cpu:               2.4 elap:               0.1
 (Enter /apps/cent7/gaussian/g16-A.03/g16-haswell/g16/l702.exe)
 L702 exits ... SP integral derivatives will be done elsewhere.
 Leave Link  702 at Mon Oct 14 01:21:19 2019, MaxMem= 10737418240 cpu:               0.4 elap:               0.0
 (Enter /apps/cent7/gaussian/g16-A.03/g16-haswell/g16/l703.exe)
 Integral derivatives from FoFJK, PRISM(SPDF).
 Compute integral first derivatives, UseDBF=F ICtDFT=           0.
 Calling FoFJK, ICntrl=      2127 FMM=F ISym2X=0 I1Cent= 0 IOpClX= 0 NMat=1 NMatS=1 NMatT=0.
 FoFJK:  IHMeth= 1 ICntrl=    2127 DoSepK=F KAlg= 0 I1Cent=           0 FoldK=F
 IRaf=         0 NMat=       1 IRICut=       1 DoRegI=T DoRafI=F ISym2E= 0 IDoP0=0 IntGTp=1.
 FoFCou: FMM=F IPFlag=           0 FMFlag=      100000 FMFlg1=         800
         NFxFlg=           0 DoJE=F BraDBF=F KetDBF=F FulRan=T
         wScrn=  0.000000 ICntrl=      2127 IOpCl=  0 I1Cent=           0 NGrid=           0
         NMat0=    1 NMatS0=      1 NMatT0=    0 NMatD0=    1 NMtDS0=    0 NMtDT0=    0
 Symmetry not used in FoFCou.
 Leave Link  703 at Mon Oct 14 01:21:20 2019, MaxMem= 10737418240 cpu:              12.0 elap:               0.5
 (Enter /apps/cent7/gaussian/g16-A.03/g16-haswell/g16/l716.exe)
 Dipole        = 3.77110495D-01-1.28987545D-01 5.92170692D-01
 ***** Axes restored to original set *****
 -------------------------------------------------------------------
 Center     Atomic                   Forces (Hartrees/Bohr)
 Number     Number              X              Y              Z
 -------------------------------------------------------------------
      1        8          -0.024601532    0.009674353    0.011896254
      2       16          -0.014291147   -0.000705116    0.010112032
      3        6           0.005037553   -0.000607258   -0.034181112
      4        6          -0.006593532    0.023488441   -0.000416500
      5        6          -0.005410477   -0.011759057    0.014891705
      6        6           0.028541915   -0.024903311   -0.004994349
      7        1          -0.003899724   -0.001193863    0.015875893
      8        1           0.002442646    0.007410818    0.016877284
      9        1          -0.006792066   -0.016799223   -0.006714006
     10        1           0.009936344   -0.015885840   -0.005507958
     11        1           0.006131260   -0.000400735   -0.017524905
     12        1           0.018328817    0.007179688   -0.005832977
     13        1          -0.018398611    0.009114693   -0.000868904
     14        1          -0.010336895    0.015714171    0.009366412
     15        1           0.019905450   -0.000327761   -0.002978871
 -------------------------------------------------------------------
 Cartesian Forces:  Max     0.034181112 RMS     0.013491210
 Leave Link  716 at Mon Oct 14 01:21:20 2019, MaxMem= 10737418240 cpu:               0.7 elap:               0.0
 (Enter /apps/cent7/gaussian/g16-A.03/g16-haswell/g16/l103.exe)

 GradGradGradGradGradGradGradGradGradGradGradGradGradGradGradGradGradGrad
 Berny optimization.
 FormGI is forming the generalized inverse of G from B-inverse, IUseBI=4.
 Internal  Forces:  Max     0.018041358 RMS     0.007381263
 Search for a local minimum.
 Step number   1 out of a maximum of   94
 All quantities printed in internal units (Hartrees-Bohrs-Radians)
 RMS Force = .73813D-02 SwitMx=.10000D-02 MixMth= 1
 Mixed Optimization -- RFO/linear search
 Second derivative matrix not updated -- first step.
 ITU=  0
     Eigenvalues ---    0.00260   0.00428   0.02448   0.02611   0.02611
     Eigenvalues ---    0.04676   0.05056   0.05312   0.05534   0.05634
     Eigenvalues ---    0.05897   0.06459   0.06540   0.07020   0.07192
     Eigenvalues ---    0.07331   0.07470   0.08929   0.09388   0.11403
     Eigenvalues ---    0.12230   0.16000   0.20104   0.20600   0.23691
     Eigenvalues ---    0.23915   0.26635   0.27103   0.27581   0.34803
     Eigenvalues ---    0.34808   0.34811   0.34812   0.34813   0.34817
     Eigenvalues ---    0.34818   0.34819   0.51101   0.55473
 RFO step:  Lambda=-3.37203634D-02 EMin= 2.60323748D-03
 Linear search not attempted -- first point.
 Maximum step size (   0.300) exceeded in Quadratic search.
    -- Step size scaled by   0.827
 Iteration  1 RMS(Cart)=  0.05408535 RMS(Int)=  0.00272672
 Iteration  2 RMS(Cart)=  0.00218663 RMS(Int)=  0.00178232
 Iteration  3 RMS(Cart)=  0.00000446 RMS(Int)=  0.00178232
 Iteration  4 RMS(Cart)=  0.00000002 RMS(Int)=  0.00178232
 ITry= 1 IFail=0 DXMaxC= 1.60D-01 DCOld= 1.00D+10 DXMaxT= 3.00D-01 DXLimC= 3.00D+00 Rises=F
 Variable       Old X    -DE/DX   Delta X   Delta X   Delta X     New X
                                 (Linear)    (Quad)   (Total)
    R1        3.02471   0.01181   0.00000   0.01793   0.01793   3.04264
    R2        1.81414   0.01804   0.00000   0.02536   0.02536   1.83949
    R3        3.44645   0.00349   0.00000   0.00965   0.00983   3.45628
    R4        3.45249   0.00468   0.00000   0.01741   0.01740   3.46989
    R5        2.91397   0.01330   0.00000   0.03472   0.03466   2.94864
    R6        2.05972   0.00208   0.00000   0.00450   0.00450   2.06423
    R7        2.05980  -0.00027   0.00000  -0.00060  -0.00060   2.05921
    R8        2.93488   0.00349   0.00000   0.00549   0.00550   2.94039
    R9        2.05972   0.00059   0.00000   0.00127   0.00127   2.06099
   R10        2.05983   0.00244   0.00000   0.00529   0.00529   2.06511
   R11        2.92867   0.01687   0.00000   0.04608   0.04593   2.97460
   R12        2.05981   0.00123   0.00000   0.00267   0.00267   2.06248
   R13        2.05988  -0.00004   0.00000  -0.00008  -0.00008   2.05980
   R14        2.05996  -0.00006   0.00000  -0.00013  -0.00013   2.05983
   R15        2.05970  -0.00033   0.00000  -0.00071  -0.00071   2.05899
    A1        2.09440  -0.01582   0.00000  -0.06754  -0.06754   2.02686
    A2        1.87240   0.00504   0.00000   0.01951   0.01939   1.89179
    A3        1.87784   0.00188   0.00000   0.00409   0.00432   1.88216
    A4        1.73183  -0.01104   0.00000  -0.05213  -0.05186   1.67997
    A5        1.75806   0.01081   0.00000   0.04312   0.04268   1.80074
    A6        1.93483  -0.00304   0.00000  -0.02708  -0.03051   1.90433
    A7        1.93484  -0.00919   0.00000  -0.04803  -0.05165   1.88319
    A8        1.85318   0.00642   0.00000   0.06557   0.06535   1.91853
    A9        1.85308   0.00755   0.00000   0.07263   0.07296   1.92604
   A10        2.09442  -0.00732   0.00000  -0.07056  -0.07650   2.01791
   A11        1.89700  -0.00531   0.00000  -0.02312  -0.02300   1.87400
   A12        1.86437   0.00478   0.00000   0.02370   0.02407   1.88843
   A13        1.86440   0.00301   0.00000   0.03300   0.03277   1.89717
   A14        1.86869   0.00252   0.00000   0.02786   0.02778   1.89647
   A15        1.86864   0.00651   0.00000   0.03820   0.03840   1.90704
   A16        2.09444  -0.01167   0.00000  -0.09772  -0.09750   1.99693
   A17        1.92876  -0.00817   0.00000  -0.03201  -0.03163   1.89713
   A18        1.86047   0.00622   0.00000   0.03084   0.03118   1.89165
   A19        1.86047   0.00284   0.00000   0.02857   0.02867   1.88914
   A20        1.85910   0.00322   0.00000   0.02999   0.02996   1.88906
   A21        1.85907   0.00718   0.00000   0.03968   0.04009   1.89916
   A22        2.09434  -0.01209   0.00000  -0.09869  -0.09857   1.99577
   A23        1.81241   0.01158   0.00000   0.04808   0.04762   1.86003
   A24        1.92583  -0.00790   0.00000  -0.03923  -0.04415   1.88167
   A25        1.92605  -0.00808   0.00000  -0.05941  -0.06379   1.86226
   A26        1.83968   0.00842   0.00000   0.08153   0.08112   1.92080
   A27        1.83971   0.00974   0.00000   0.08660   0.08694   1.92665
   A28        2.09437  -0.00826   0.00000  -0.08016  -0.08903   2.00533
    D1        0.63106  -0.00327   0.00000  -0.00362  -0.00352   0.62754
    D2       -1.21811   0.00629   0.00000   0.04531   0.04521  -1.17290
    D3       -2.43963  -0.00049   0.00000  -0.00424  -0.00445  -2.44408
    D4       -0.48369   0.01094   0.00000   0.08110   0.07886  -0.40484
    D5        1.88773  -0.01099   0.00000  -0.09002  -0.08729   1.80044
    D6       -0.48852  -0.00135   0.00000  -0.01479  -0.01518  -0.50370
    D7        1.46742   0.01008   0.00000   0.07054   0.06812   1.53554
    D8       -2.44434  -0.01185   0.00000  -0.10057  -0.09803  -2.54237
    D9        2.06253   0.00049   0.00000   0.00273   0.00292   2.06545
   D10        0.09852  -0.01167   0.00000  -0.09845  -0.09472   0.00380
   D11       -2.25651   0.01410   0.00000   0.10126   0.09748  -2.15903
   D12        0.11572  -0.00110   0.00000   0.00133   0.00132   0.11704
   D13       -1.84829  -0.01326   0.00000  -0.09986  -0.09632  -1.94462
   D14        2.07986   0.01251   0.00000   0.09986   0.09588   2.17574
   D15        0.72644   0.00528   0.00000   0.03117   0.03156   0.75801
   D16        2.73727   0.00806   0.00000   0.06446   0.06475   2.80201
   D17       -1.28434  -0.00125   0.00000  -0.01896  -0.01873  -1.30307
   D18       -1.29140   0.00191   0.00000   0.02023   0.02024  -1.27116
   D19        0.71942   0.00469   0.00000   0.05351   0.05343   0.77285
   D20        2.98100  -0.00462   0.00000  -0.02991  -0.03005   2.95095
   D21        2.74427   0.00228   0.00000   0.02158   0.02185   2.76612
   D22       -1.52810   0.00506   0.00000   0.05486   0.05504  -1.47306
   D23        0.73348  -0.00424   0.00000  -0.02856  -0.02844   0.70504
   D24       -0.70950   0.00204   0.00000   0.00170   0.00214  -0.70736
   D25        1.30388   0.00515   0.00000   0.03804   0.03823   1.34210
   D26       -2.72283  -0.00388   0.00000  -0.04483  -0.04463  -2.76746
   D27       -2.71751  -0.00220   0.00000  -0.02886  -0.02859  -2.74610
   D28       -0.70414   0.00091   0.00000   0.00748   0.00750  -0.69664
   D29        1.55234  -0.00812   0.00000  -0.07539  -0.07536   1.47698
   D30        1.29853   0.00628   0.00000   0.04846   0.04877   1.34731
   D31       -2.97128   0.00939   0.00000   0.08480   0.08486  -2.88641
   D32       -0.71480   0.00036   0.00000   0.00193   0.00201  -0.71279
   D33        0.30798   0.00236   0.00000   0.00768   0.00784   0.31582
   D34        2.33356   0.00195   0.00000   0.01783   0.01800   2.35156
   D35       -1.71786   0.00244   0.00000   0.01793   0.01789  -1.69997
   D36       -1.70625  -0.00264   0.00000  -0.02921  -0.02904  -1.73529
   D37        0.31933  -0.00305   0.00000  -0.01906  -0.01888   0.30045
   D38        2.55109  -0.00256   0.00000  -0.01895  -0.01899   2.53210
   D39        2.32219   0.00556   0.00000   0.04726   0.04737   2.36956
   D40       -1.93542   0.00515   0.00000   0.05741   0.05754  -1.87788
   D41        0.29635   0.00564   0.00000   0.05751   0.05742   0.35377
         Item               Value     Threshold  Converged?
 Maximum Force            0.018041     0.000450     NO 
 RMS     Force            0.007381     0.000300     NO 
 Maximum Displacement     0.159984     0.001800     NO 
 RMS     Displacement     0.054300     0.001200     NO 
 Predicted change in Energy=-1.945806D-02
 Lowest energy point so far.  Saving SCF results.
 GradGradGradGradGradGradGradGradGradGradGradGradGradGradGradGradGradGrad

 Leave Link  103 at Mon Oct 14 01:21:20 2019, MaxMem= 10737418240 cpu:               0.8 elap:               0.1
 (Enter /apps/cent7/gaussian/g16-A.03/g16-haswell/g16/l202.exe)
                          Input orientation:                          
 ---------------------------------------------------------------------
 Center     Atomic      Atomic             Coordinates (Angstroms)
 Number     Number       Type             X           Y           Z
 ---------------------------------------------------------------------
      1          8           0       -0.122105    2.936310    1.396031
      2         16           0       -0.416908    1.790335    0.304136
      3          6           0        0.882303    0.510771    0.445371
      4          6           0        1.179663    0.140290   -1.040905
      5          6           0        1.247486    1.469780   -1.846478
      6          6           0        0.107587    2.427814   -1.336020
      7          1           0        1.770261    0.951809    0.903876
      8          1           0        0.455583   -0.343213    0.970765
      9          1           0        2.156389   -0.343179   -1.082584
     10          1           0        0.356874   -0.470150   -1.421186
     11          1           0        2.208971    1.945465   -1.645324
     12          1           0        1.070260    1.241310   -2.897426
     13          1           0        0.501443    3.433971   -1.192290
     14          1           0       -0.762187    2.364663   -1.989220
     15          1           0        0.815295    3.140143    1.561182
 ---------------------------------------------------------------------
                    Distance matrix (angstroms):
                    1          2          3          4          5
     1  O    0.000000
     2  S    1.610094   0.000000
     3  C    2.792102   1.828984   0.000000
     4  C    3.930774   2.660982   1.560352   0.000000
     5  C    3.813182   2.738267   2.511101   1.555985   0.000000
     6  C    2.788445   1.836188   2.729211   2.543463   1.574092
     7  H    2.785949   2.417959   1.092342   2.188502   2.847110
     8  H    3.357059   2.399512   1.089686   2.192005   3.442515
     9  H    4.700013   3.618941   2.164988   1.090629   2.167131
    10  H    4.446359   2.947078   2.173090   1.092810   2.176556
    11  H    3.957970   3.274095   2.861713   2.164129   1.091417
    12  H    4.767445   3.572548   3.426852   2.161223   1.090000
    13  H    2.708484   2.405036   3.372253   3.366190   2.200588
    14  H    3.492336   2.389258   3.473974   3.101276   2.204535
    15  H    0.973418   2.218214   2.857118   3.987824   3.819561
                    6          7          8          9         10
     6  C    0.000000
     7  H    3.155980   0.000000
     8  H    3.622284   1.846600   0.000000
     9  H    3.455462   2.402522   2.666268   0.000000
    10  H    2.909913   3.070105   2.397351   1.835491   0.000000
    11  H    2.178105   2.770964   3.893115   2.357400   3.052163
    12  H    2.184610   3.876044   4.225097   2.642713   2.370085
    13  H    1.090015   3.487828   4.352933   4.125257   3.913497
    14  H    1.089571   4.096273   4.192501   4.083195   3.100181
    15  H    3.066275   2.476453   3.551303   4.574010   4.705198
                   11         12         13         14         15
    11  H    0.000000
    12  H    1.833100   0.000000
    13  H    2.310095   2.835278   0.000000
    14  H    3.020226   2.333371   1.837193   0.000000
    15  H    3.694762   4.852810   2.786835   3.961713   0.000000
 Stoichiometry    C4H9OS(1+)
 Framework group  C1[X(C4H9OS)]
 Deg. of freedom    39
 Full point group                 C1      NOp   1
 RotChk:  IX=0 Diff= 2.22D-02
 Largest Abelian subgroup         C1      NOp   1
 Largest concise Abelian subgroup C1      NOp   1
                         Standard orientation:                         
 ---------------------------------------------------------------------
 Center     Atomic      Atomic             Coordinates (Angstroms)
 Number     Number       Type             X           Y           Z
 ---------------------------------------------------------------------
      1          8           0       -2.115314    0.039569    0.461213
      2         16           0       -0.833082   -0.053161   -0.508162
      3          6           0        0.287655   -1.345357    0.139417
      4          6           0        1.703986   -0.724397   -0.068217
      5          6           0        1.626990    0.765940    0.372305
      6          6           0        0.262841    1.370503   -0.129061
      7          1           0        0.094848   -1.484447    1.205574
      8          1           0        0.168560   -2.233441   -0.480697
      9          1           0        2.403777   -1.245889    0.585855
     10          1           0        1.955941   -0.773852   -1.130435
     11          1           0        1.636808    0.803416    1.463034
     12          1           0        2.446317    1.305037   -0.103276
     13          1           0       -0.205118    1.948591    0.667784
     14          1           0        0.408042    1.911418   -1.063669
     15          1           0       -1.946184   -0.096933    1.410056
 ---------------------------------------------------------------------
 Rotational constants (GHZ):           5.0620569           2.4407909           1.9344670
 Leave Link  202 at Mon Oct 14 01:21:20 2019, MaxMem= 10737418240 cpu:               0.2 elap:               0.0
 (Enter /apps/cent7/gaussian/g16-A.03/g16-haswell/g16/l301.exe)
 Standard basis: 6-31G(d) (6D, 7F)
 Ernie: Thresh=  0.10000D-02 Tol=  0.10000D-05 Strict=F.
 There are   112 symmetry adapted cartesian basis functions of A   symmetry.
 There are   112 symmetry adapted basis functions of A   symmetry.
   112 basis functions,   228 primitive gaussians,   112 cartesian basis functions
    28 alpha electrons       28 beta electrons
       nuclear repulsion energy       329.6705033659 Hartrees.
 IExCor=  402 DFT=T Ex+Corr=B3LYP ExCW=0 ScaHFX=  0.200000
 ScaDFX=  0.800000  0.720000  1.000000  0.810000 ScalE2=  1.000000  1.000000
 IRadAn=      5 IRanWt=     -1 IRanGd=            0 ICorTp=0 IEmpDi=  4
 NAtoms=   15 NActive=   15 NUniq=   15 SFac= 1.00D+00 NAtFMM=   60 NAOKFM=F Big=F
 Integral buffers will be    131072 words long.
 Raffenetti 2 integral format.
 Two-electron integral symmetry is turned on.
 Leave Link  301 at Mon Oct 14 01:21:20 2019, MaxMem= 10737418240 cpu:               1.9 elap:               0.1
 (Enter /apps/cent7/gaussian/g16-A.03/g16-haswell/g16/l302.exe)
 NPDir=0 NMtPBC=     1 NCelOv=     1 NCel=       1 NClECP=     1 NCelD=      1
         NCelK=      1 NCelE2=     1 NClLst=     1 CellRange=     0.0.
 One-electron integrals computed using PRISM.
 One-electron integral symmetry used in STVInt
 NBasis=   112 RedAO= T EigKep=  3.84D-03  NBF=   112
 NBsUse=   112 1.00D-06 EigRej= -1.00D+00 NBFU=   112
 Precomputing XC quadrature grid using
 IXCGrd= 4 IRadAn=           5 IRanWt=          -1 IRanGd=           0 AccXCQ= 0.00D+00.
 Generated NRdTot=       0 NPtTot=           0 NUsed=           0 NTot=          32
 NSgBfM=   112   112   112   112   112 MxSgAt=    15 MxSgA2=    15.
 Leave Link  302 at Mon Oct 14 01:21:20 2019, MaxMem= 10737418240 cpu:               2.8 elap:               0.1
 (Enter /apps/cent7/gaussian/g16-A.03/g16-haswell/g16/l303.exe)
 DipDrv:  MaxL=1.
 Leave Link  303 at Mon Oct 14 01:21:20 2019, MaxMem= 10737418240 cpu:               0.5 elap:               0.0
 (Enter /apps/cent7/gaussian/g16-A.03/g16-haswell/g16/l401.exe)
 Initial guess from the checkpoint file:  "22_p.chk"
 B after Tr=    -0.000000    0.000000    0.000000
         Rot=    0.999977    0.005467   -0.003930   -0.001115 Ang=   0.78 deg.
 Guess basis will be translated and rotated to current coordinates.
 JPrj=2 DoOrth=T DoCkMO=T.
 Generating alternative initial guess.
 ExpMin= 1.17D-01 ExpMax= 2.19D+04 ExpMxC= 3.30D+03 IAcc=2 IRadAn=         4 AccDes= 0.00D+00
 Harris functional with IExCor=  402 and IRadAn=       4 diagonalized for initial guess.
 HarFok:  IExCor=  402 AccDes= 0.00D+00 IRadAn=         4 IDoV= 1 UseB2=F ITyADJ=14
 ICtDFT=  3500011 ScaDFX=  1.000000  1.000000  1.000000  1.000000
 FoFCou: FMM=F IPFlag=           0 FMFlag=      100000 FMFlg1=           0
         NFxFlg=           0 DoJE=T BraDBF=F KetDBF=T FulRan=T
         wScrn=  0.000000 ICntrl=       500 IOpCl=  0 I1Cent=   200000004 NGrid=           0
         NMat0=    1 NMatS0=      1 NMatT0=    0 NMatD0=    1 NMtDS0=    0 NMtDT0=    0
 Petite list used in FoFCou.
 Harris En= -631.019824685716    
 Leave Link  401 at Mon Oct 14 01:21:20 2019, MaxMem= 10737418240 cpu:               5.9 elap:               0.3
 (Enter /apps/cent7/gaussian/g16-A.03/g16-haswell/g16/l502.exe)
 Integral symmetry usage will be decided dynamically.
 Closed shell SCF:
 Using DIIS extrapolation, IDIIS=  1040.
 NGot= 10737418240 LenX= 10737389000 LenY= 10737376015
 Requested convergence on RMS density matrix=1.00D-08 within 128 cycles.
 Requested convergence on MAX density matrix=1.00D-06.
 Requested convergence on             energy=1.00D-06.
 No special actions if energy rises.
 Fock matrices will be formed incrementally for  20 cycles.
 Integral accuracy reduced to 1.0D-05 until final iterations.

 Cycle   1  Pass 0  IDiag  1:
 FoFJK:  IHMeth= 1 ICntrl=       0 DoSepK=F KAlg= 0 I1Cent=           0 FoldK=F
 IRaf= 990000000 NMat=       1 IRICut=       1 DoRegI=T DoRafI=F ISym2E= 0 IDoP0=0 IntGTp=1.
 FoFCou: FMM=F IPFlag=           0 FMFlag=      100000 FMFlg1=           0
         NFxFlg=           0 DoJE=F BraDBF=F KetDBF=F FulRan=T
         wScrn=  0.000000 ICntrl=         0 IOpCl=  0 I1Cent=           0 NGrid=           0
         NMat0=    1 NMatS0=      1 NMatT0=    0 NMatD0=    1 NMtDS0=    0 NMtDT0=    0
 Symmetry not used in FoFCou.
 E= -630.953461563909    
 DIIS: error= 2.86D-03 at cycle   1 NSaved=   1.
 NSaved= 1 IEnMin= 1 EnMin= -630.953461563909     IErMin= 1 ErrMin= 2.86D-03
 ErrMax= 2.86D-03  0.00D+00 EMaxC= 1.00D-01 BMatC= 2.41D-03 BMatP= 2.41D-03
 IDIUse=3 WtCom= 9.71D-01 WtEn= 2.86D-02
 Coeff-Com:  0.100D+01
 Coeff-En:   0.100D+01
 Coeff:      0.100D+01
 Gap=     1.624 Goal=   None    Shift=    0.000
 GapD=    1.624 DampG=2.000 DampE=1.000 DampFc=2.0000 IDamp=-1.
 RMSDP=8.08D-04 MaxDP=1.12D-02              OVMax= 1.47D-02

 Cycle   2  Pass 0  IDiag  1:
 RMSU=  8.08D-04    CP:  1.00D+00
 E= -630.956742703104     Delta-E=       -0.003281139194 Rises=F Damp=F
 DIIS: error= 1.00D-03 at cycle   2 NSaved=   2.
 NSaved= 2 IEnMin= 2 EnMin= -630.956742703104     IErMin= 2 ErrMin= 1.00D-03
 ErrMax= 1.00D-03  0.00D+00 EMaxC= 1.00D-01 BMatC= 2.23D-04 BMatP= 2.41D-03
 IDIUse=3 WtCom= 9.90D-01 WtEn= 1.00D-02
 Coeff-Com:  0.143D+00 0.857D+00
 Coeff-En:   0.000D+00 0.100D+01
 Coeff:      0.142D+00 0.858D+00
 Gap=     0.277 Goal=   None    Shift=    0.000
 RMSDP=2.40D-04 MaxDP=5.10D-03 DE=-3.28D-03 OVMax= 4.69D-03

 Cycle   3  Pass 0  IDiag  1:
 RMSU=  2.27D-04    CP:  1.00D+00  9.06D-01
 E= -630.956828611540     Delta-E=       -0.000085908436 Rises=F Damp=F
 DIIS: error= 8.26D-04 at cycle   3 NSaved=   3.
 NSaved= 3 IEnMin= 3 EnMin= -630.956828611540     IErMin= 3 ErrMin= 8.26D-04
 ErrMax= 8.26D-04  0.00D+00 EMaxC= 1.00D-01 BMatC= 1.48D-04 BMatP= 2.23D-04
 IDIUse=3 WtCom= 9.92D-01 WtEn= 8.26D-03
 Coeff-Com:  0.572D-02 0.446D+00 0.548D+00
 Coeff-En:   0.000D+00 0.372D+00 0.628D+00
 Coeff:      0.567D-02 0.445D+00 0.549D+00
 Gap=     0.276 Goal=   None    Shift=    0.000
 RMSDP=1.17D-04 MaxDP=3.35D-03 DE=-8.59D-05 OVMax= 2.62D-03

 Cycle   4  Pass 0  IDiag  1:
 RMSU=  6.16D-05    CP:  1.00D+00  9.59D-01  6.03D-01
 E= -630.956962690475     Delta-E=       -0.000134078935 Rises=F Damp=F
 DIIS: error= 1.61D-04 at cycle   4 NSaved=   4.
 NSaved= 4 IEnMin= 4 EnMin= -630.956962690475     IErMin= 4 ErrMin= 1.61D-04
 ErrMax= 1.61D-04  0.00D+00 EMaxC= 1.00D-01 BMatC= 5.92D-06 BMatP= 1.48D-04
 IDIUse=3 WtCom= 9.98D-01 WtEn= 1.61D-03
 Coeff-Com: -0.107D-01 0.115D+00 0.232D+00 0.664D+00
 Coeff-En:   0.000D+00 0.000D+00 0.000D+00 0.100D+01
 Coeff:     -0.106D-01 0.114D+00 0.231D+00 0.665D+00
 Gap=     0.276 Goal=   None    Shift=    0.000
 RMSDP=2.39D-05 MaxDP=7.17D-04 DE=-1.34D-04 OVMax= 4.97D-04

 Cycle   5  Pass 0  IDiag  1:
 RMSU=  1.64D-05    CP:  1.00D+00  9.64D-01  6.41D-01  7.65D-01
 E= -630.956967458349     Delta-E=       -0.000004767874 Rises=F Damp=F
 DIIS: error= 4.62D-05 at cycle   5 NSaved=   5.
 NSaved= 5 IEnMin= 5 EnMin= -630.956967458349     IErMin= 5 ErrMin= 4.62D-05
 ErrMax= 4.62D-05  0.00D+00 EMaxC= 1.00D-01 BMatC= 5.80D-07 BMatP= 5.92D-06
 IDIUse=1 WtCom= 1.00D+00 WtEn= 0.00D+00
 Coeff-Com: -0.596D-02 0.506D-01 0.112D+00 0.374D+00 0.469D+00
 Coeff:     -0.596D-02 0.506D-01 0.112D+00 0.374D+00 0.469D+00
 Gap=     0.276 Goal=   None    Shift=    0.000
 RMSDP=8.07D-06 MaxDP=1.75D-04 DE=-4.77D-06 OVMax= 1.74D-04

 Initial convergence to 1.0D-05 achieved.  Increase integral accuracy.
 Cycle   6  Pass 1  IDiag  1:
 E= -630.956969505888     Delta-E=       -0.000002047540 Rises=F Damp=F
 DIIS: error= 1.49D-05 at cycle   1 NSaved=   1.
 NSaved= 1 IEnMin= 1 EnMin= -630.956969505888     IErMin= 1 ErrMin= 1.49D-05
 ErrMax= 1.49D-05  0.00D+00 EMaxC= 1.00D-01 BMatC= 4.91D-08 BMatP= 4.91D-08
 IDIUse=1 WtCom= 1.00D+00 WtEn= 0.00D+00
 Coeff-Com:  0.100D+01
 Coeff:      0.100D+01
 Gap=     0.276 Goal=   None    Shift=    0.000
 RMSDP=8.07D-06 MaxDP=1.75D-04 DE=-2.05D-06 OVMax= 1.08D-04

 Cycle   7  Pass 1  IDiag  1:
 RMSU=  5.02D-06    CP:  1.00D+00
 E= -630.956969446374     Delta-E=        0.000000059515 Rises=F Damp=F
 DIIS: error= 2.51D-05 at cycle   2 NSaved=   2.
 NSaved= 2 IEnMin= 1 EnMin= -630.956969505888     IErMin= 1 ErrMin= 1.49D-05
 ErrMax= 2.51D-05  0.00D+00 EMaxC= 1.00D-01 BMatC= 1.27D-07 BMatP= 4.91D-08
 IDIUse=1 WtCom= 1.00D+00 WtEn= 0.00D+00
 Coeff-Com:  0.622D+00 0.378D+00
 Coeff:      0.622D+00 0.378D+00
 Gap=     0.276 Goal=   None    Shift=    0.000
 RMSDP=2.94D-06 MaxDP=7.46D-05 DE= 5.95D-08 OVMax= 7.35D-05

 Cycle   8  Pass 1  IDiag  1:
 RMSU=  1.45D-06    CP:  1.00D+00  4.91D-01
 E= -630.956969550284     Delta-E=       -0.000000103911 Rises=F Damp=F
 DIIS: error= 1.93D-06 at cycle   3 NSaved=   3.
 NSaved= 3 IEnMin= 3 EnMin= -630.956969550284     IErMin= 3 ErrMin= 1.93D-06
 ErrMax= 1.93D-06  0.00D+00 EMaxC= 1.00D-01 BMatC= 1.11D-09 BMatP= 4.91D-08
 IDIUse=1 WtCom= 1.00D+00 WtEn= 0.00D+00
 Coeff-Com:  0.129D+00 0.123D+00 0.748D+00
 Coeff:      0.129D+00 0.123D+00 0.748D+00
 Gap=     0.276 Goal=   None    Shift=    0.000
 RMSDP=4.38D-07 MaxDP=1.21D-05 DE=-1.04D-07 OVMax= 9.72D-06

 Cycle   9  Pass 1  IDiag  1:
 RMSU=  4.06D-07    CP:  1.00D+00  5.14D-01  9.22D-01
 E= -630.956969551053     Delta-E=       -0.000000000769 Rises=F Damp=F
 DIIS: error= 8.66D-07 at cycle   4 NSaved=   4.
 NSaved= 4 IEnMin= 4 EnMin= -630.956969551053     IErMin= 4 ErrMin= 8.66D-07
 ErrMax= 8.66D-07  0.00D+00 EMaxC= 1.00D-01 BMatC= 2.41D-10 BMatP= 1.11D-09
 IDIUse=1 WtCom= 1.00D+00 WtEn= 0.00D+00
 Coeff-Com:  0.199D-02 0.237D-01 0.374D+00 0.601D+00
 Coeff:      0.199D-02 0.237D-01 0.374D+00 0.601D+00
 Gap=     0.276 Goal=   None    Shift=    0.000
 RMSDP=1.79D-07 MaxDP=6.22D-06 DE=-7.69D-10 OVMax= 3.76D-06

 Cycle  10  Pass 1  IDiag  1:
 RMSU=  1.08D-07    CP:  1.00D+00  5.24D-01  9.45D-01  6.86D-01
 E= -630.956969551292     Delta-E=       -0.000000000240 Rises=F Damp=F
 DIIS: error= 2.98D-07 at cycle   5 NSaved=   5.
 NSaved= 5 IEnMin= 5 EnMin= -630.956969551292     IErMin= 5 ErrMin= 2.98D-07
 ErrMax= 2.98D-07  0.00D+00 EMaxC= 1.00D-01 BMatC= 1.49D-11 BMatP= 2.41D-10
 IDIUse=1 WtCom= 1.00D+00 WtEn= 0.00D+00
 Coeff-Com: -0.860D-02 0.247D-02 0.131D+00 0.287D+00 0.588D+00
 Coeff:     -0.860D-02 0.247D-02 0.131D+00 0.287D+00 0.588D+00
 Gap=     0.276 Goal=   None    Shift=    0.000
 RMSDP=4.24D-08 MaxDP=1.27D-06 DE=-2.40D-10 OVMax= 8.99D-07

 Cycle  11  Pass 1  IDiag  1:
 RMSU=  2.33D-08    CP:  1.00D+00  5.22D-01  9.55D-01  7.02D-01  7.25D-01
 E= -630.956969551306     Delta-E=       -0.000000000014 Rises=F Damp=F
 DIIS: error= 2.71D-08 at cycle   6 NSaved=   6.
 NSaved= 6 IEnMin= 6 EnMin= -630.956969551306     IErMin= 6 ErrMin= 2.71D-08
 ErrMax= 2.71D-08  0.00D+00 EMaxC= 1.00D-01 BMatC= 1.86D-13 BMatP= 1.49D-11
 IDIUse=1 WtCom= 1.00D+00 WtEn= 0.00D+00
 Coeff-Com: -0.232D-02-0.131D-03 0.191D-01 0.493D-01 0.139D+00 0.795D+00
 Coeff:     -0.232D-02-0.131D-03 0.191D-01 0.493D-01 0.139D+00 0.795D+00
 Gap=     0.276 Goal=   None    Shift=    0.000
 RMSDP=7.35D-09 MaxDP=1.37D-07 DE=-1.38D-11 OVMax= 2.27D-07

 SCF Done:  E(RB3LYP) =  -630.956969551     A.U. after   11 cycles
            NFock= 11  Conv=0.74D-08     -V/T= 2.0056
 KE= 6.274219634463D+02 PE=-2.134183298208D+03 EE= 5.461338618447D+02
 Leave Link  502 at Mon Oct 14 01:21:22 2019, MaxMem= 10737418240 cpu:              37.8 elap:               1.6
 (Enter /apps/cent7/gaussian/g16-A.03/g16-haswell/g16/l701.exe)
 ... and contract with generalized density number  0.
 Compute integral first derivatives.
 Leave Link  701 at Mon Oct 14 01:21:22 2019, MaxMem= 10737418240 cpu:               2.3 elap:               0.1
 (Enter /apps/cent7/gaussian/g16-A.03/g16-haswell/g16/l702.exe)
 L702 exits ... SP integral derivatives will be done elsewhere.
 Leave Link  702 at Mon Oct 14 01:21:22 2019, MaxMem= 10737418240 cpu:               0.5 elap:               0.0
 (Enter /apps/cent7/gaussian/g16-A.03/g16-haswell/g16/l703.exe)
 Integral derivatives from FoFJK, PRISM(SPDF).
 Compute integral first derivatives, UseDBF=F ICtDFT=           0.
 Calling FoFJK, ICntrl=      2127 FMM=F ISym2X=0 I1Cent= 0 IOpClX= 0 NMat=1 NMatS=1 NMatT=0.
 FoFJK:  IHMeth= 1 ICntrl=    2127 DoSepK=F KAlg= 0 I1Cent=           0 FoldK=F
 IRaf=         0 NMat=       1 IRICut=       1 DoRegI=T DoRafI=F ISym2E= 0 IDoP0=0 IntGTp=1.
 FoFCou: FMM=F IPFlag=           0 FMFlag=      100000 FMFlg1=         800
         NFxFlg=           0 DoJE=F BraDBF=F KetDBF=F FulRan=T
         wScrn=  0.000000 ICntrl=      2127 IOpCl=  0 I1Cent=           0 NGrid=           0
         NMat0=    1 NMatS0=      1 NMatT0=    0 NMatD0=    1 NMtDS0=    0 NMtDT0=    0
 Symmetry not used in FoFCou.
 Leave Link  703 at Mon Oct 14 01:21:23 2019, MaxMem= 10737418240 cpu:              11.4 elap:               0.5
 (Enter /apps/cent7/gaussian/g16-A.03/g16-haswell/g16/l716.exe)
 Dipole        = 3.87413647D-01-1.16191722D-01 5.78823449D-01
 ***** Axes restored to original set *****
 -------------------------------------------------------------------
 Center     Atomic                   Forces (Hartrees/Bohr)
 Number     Number              X              Y              Z
 -------------------------------------------------------------------
      1        8          -0.005508376    0.005867657    0.008868331
      2       16          -0.008306493   -0.004171875   -0.000934139
      3        6           0.001943176   -0.005671334   -0.023255624
      4        6          -0.005069839    0.021783636    0.007585508
      5        6          -0.013629302   -0.004048082    0.015967749
      6        6           0.022166629   -0.017463138   -0.006494878
      7        1          -0.001355548   -0.001820756    0.007320064
      8        1           0.003901889    0.002634543    0.009100044
      9        1          -0.004087045   -0.009692182   -0.002085481
     10        1           0.005890892   -0.007511562   -0.001542556
     11        1           0.001956215    0.000678985   -0.008995497
     12        1           0.008224298    0.005756731   -0.003125461
     13        1          -0.009139403    0.005393256   -0.002285998
     14        1          -0.003482132    0.007917100    0.002244010
     15        1           0.006495037    0.000347022   -0.002366073
 -------------------------------------------------------------------
 Cartesian Forces:  Max     0.023255624 RMS     0.008786855
 Leave Link  716 at Mon Oct 14 01:21:23 2019, MaxMem= 10737418240 cpu:               0.7 elap:               0.0
 (Enter /apps/cent7/gaussian/g16-A.03/g16-haswell/g16/l103.exe)

 GradGradGradGradGradGradGradGradGradGradGradGradGradGradGradGradGradGrad
 Berny optimization.
 Using GEDIIS/GDIIS optimizer.
 FormGI is forming the generalized inverse of G from B-inverse, IUseBI=4.
 Internal  Forces:  Max     0.009013297 RMS     0.003156514
 Search for a local minimum.
 Step number   2 out of a maximum of   94
 All quantities printed in internal units (Hartrees-Bohrs-Radians)
 RMS Force = .31565D-02 SwitMx=.10000D-02 MixMth= 1
 Mixed Optimization -- RFO/linear search
 Update second derivatives using D2CorX and points    1    2
 DE= -1.92D-02 DEPred=-1.95D-02 R= 9.89D-01
 TightC=F SS=  1.41D+00  RLast= 4.52D-01 DXNew= 5.0454D-01 1.3572D+00
 Trust test= 9.89D-01 RLast= 4.52D-01 DXMaxT set to 5.05D-01
 ITU=  1  0
 Use linear search instead of GDIIS.
     Eigenvalues ---    0.00262   0.00441   0.02368   0.02499   0.02602
     Eigenvalues ---    0.04469   0.04855   0.05069   0.05212   0.05527
     Eigenvalues ---    0.05740   0.05846   0.05948   0.07026   0.07271
     Eigenvalues ---    0.07791   0.08231   0.09120   0.09395   0.11467
     Eigenvalues ---    0.12016   0.15874   0.20427   0.20672   0.23726
     Eigenvalues ---    0.23859   0.26651   0.27099   0.31781   0.34791
     Eigenvalues ---    0.34807   0.34809   0.34812   0.34814   0.34817
     Eigenvalues ---    0.34818   0.34949   0.50640   0.55255
 RFO step:  Lambda=-5.97499978D-03 EMin= 2.61722692D-03
 Quartic linear search produced a step of  0.61735.
 Iteration  1 RMS(Cart)=  0.04722177 RMS(Int)=  0.00268303
 Iteration  2 RMS(Cart)=  0.00203648 RMS(Int)=  0.00170921
 Iteration  3 RMS(Cart)=  0.00000188 RMS(Int)=  0.00170921
 Iteration  4 RMS(Cart)=  0.00000000 RMS(Int)=  0.00170921
 ITry= 1 IFail=0 DXMaxC= 1.83D-01 DCOld= 1.00D+10 DXMaxT= 5.05D-01 DXLimC= 3.00D+00 Rises=F
 Variable       Old X    -DE/DX   Delta X   Delta X   Delta X     New X
                                 (Linear)    (Quad)   (Total)
    R1        3.04264   0.00901   0.01107   0.01670   0.02777   3.07040
    R2        1.83949   0.00593   0.01565   0.00122   0.01688   1.85637
    R3        3.45628   0.00207   0.00607   0.01238   0.01865   3.47493
    R4        3.46989   0.00335   0.01074   0.01683   0.02763   3.49752
    R5        2.94864  -0.00505   0.02140  -0.05430  -0.03300   2.91564
    R6        2.06423   0.00124   0.00278   0.00269   0.00547   2.06970
    R7        2.05921   0.00079  -0.00037   0.00396   0.00359   2.06280
    R8        2.94039  -0.00043   0.00340  -0.01257  -0.00922   2.93116
    R9        2.06099   0.00072   0.00079   0.00241   0.00320   2.06419
   R10        2.06511   0.00030   0.00326  -0.00204   0.00123   2.06634
   R11        2.97460  -0.00641   0.02836  -0.06859  -0.04038   2.93422
   R12        2.06248   0.00036   0.00165  -0.00008   0.00157   2.06405
   R13        2.05980   0.00047  -0.00005   0.00217   0.00212   2.06192
   R14        2.05983   0.00137  -0.00008   0.00627   0.00619   2.06602
   R15        2.05899   0.00098  -0.00044   0.00485   0.00441   2.06340
    A1        2.02686  -0.00569  -0.04169  -0.00702  -0.04872   1.97814
    A2        1.89179   0.00068   0.01197  -0.02326  -0.01202   1.87977
    A3        1.88216  -0.00017   0.00267  -0.01505  -0.01291   1.86925
    A4        1.67997  -0.00307  -0.03201   0.00221  -0.02933   1.65064
    A5        1.80074   0.00052   0.02635  -0.01587   0.01004   1.81078
    A6        1.90433  -0.00070  -0.01883  -0.00178  -0.02345   1.88088
    A7        1.88319  -0.00175  -0.03189   0.02563  -0.01051   1.87269
    A8        1.91853   0.00305   0.04035   0.00370   0.04394   1.96247
    A9        1.92604   0.00495   0.04504   0.03912   0.08365   2.00968
   A10        2.01791  -0.00558  -0.04723  -0.04738  -0.10007   1.91785
   A11        1.87400   0.00070  -0.01420   0.01590   0.00168   1.87568
   A12        1.88843  -0.00025   0.01486  -0.00853   0.00570   1.89413
   A13        1.89717   0.00121   0.02023   0.00153   0.02068   1.91785
   A14        1.89647   0.00213   0.01715   0.03424   0.05109   1.94755
   A15        1.90704   0.00203   0.02371   0.01511   0.03845   1.94549
   A16        1.99693  -0.00551  -0.06019  -0.05449  -0.11425   1.88268
   A17        1.89713  -0.00025  -0.01952   0.00904  -0.01026   1.88688
   A18        1.89165   0.00189   0.01925   0.02518   0.04455   1.93621
   A19        1.88914   0.00266   0.01770   0.03265   0.05011   1.93925
   A20        1.88906   0.00111   0.01849   0.00038   0.01832   1.90738
   A21        1.89916   0.00020   0.02475  -0.01639   0.00820   1.90737
   A22        1.99577  -0.00544  -0.06085  -0.04848  -0.10924   1.88652
   A23        1.86003   0.00152   0.02940  -0.01194   0.01672   1.87675
   A24        1.88167  -0.00186  -0.02726   0.00977  -0.02259   1.85909
   A25        1.86226  -0.00249  -0.03938   0.01226  -0.03088   1.83139
   A26        1.92080   0.00442   0.05008   0.02864   0.07808   1.99888
   A27        1.92665   0.00449   0.05367   0.01108   0.06472   1.99137
   A28        2.00533  -0.00598  -0.05496  -0.04836  -0.11128   1.89405
    D1        0.62754  -0.00015  -0.00218   0.04119   0.03932   0.66685
    D2       -1.17290   0.00311   0.02791   0.05446   0.08208  -1.09082
    D3       -2.44408   0.00096  -0.00275   0.04231   0.03916  -2.40492
    D4       -0.40484   0.00441   0.04868   0.03772   0.08406  -0.32078
    D5        1.80044  -0.00417  -0.05389  -0.00533  -0.05676   1.74368
    D6       -0.50370  -0.00028  -0.00937   0.02117   0.01137  -0.49232
    D7        1.53554   0.00318   0.04206   0.01658   0.05627   1.59181
    D8       -2.54237  -0.00540  -0.06052  -0.02646  -0.08454  -2.62691
    D9        2.06545  -0.00072   0.00181  -0.05557  -0.05355   2.01190
   D10        0.00380  -0.00573  -0.05848  -0.08773  -0.14237  -0.13857
   D11       -2.15903   0.00398   0.06018  -0.04262   0.01404  -2.14500
   D12        0.11704  -0.00023   0.00082  -0.02764  -0.02687   0.09017
   D13       -1.94462  -0.00523  -0.05947  -0.05980  -0.11568  -2.06030
   D14        2.17574   0.00448   0.05919  -0.01469   0.04072   2.21646
   D15        0.75801   0.00105   0.01949  -0.00696   0.01248   0.77049
   D16        2.80201   0.00380   0.03997   0.03722   0.07704   2.87906
   D17       -1.30307  -0.00238  -0.01156  -0.03442  -0.04624  -1.34931
   D18       -1.27116   0.00024   0.01250   0.00171   0.01420  -1.25696
   D19        0.77285   0.00299   0.03298   0.04590   0.07876   0.85161
   D20        2.95095  -0.00319  -0.01855  -0.02574  -0.04452   2.90643
   D21        2.76612   0.00145   0.01349   0.03119   0.04531   2.81143
   D22       -1.47306   0.00419   0.03398   0.07537   0.10987  -1.36319
[...]
 GradGradGradGradGradGradGradGradGradGradGradGradGradGradGradGradGradGrad

 Leave Link  103 at Mon Oct 14 01:22:14 2019, MaxMem= 10737418240 cpu:               0.4 elap:               0.0
 (Enter /apps/cent7/gaussian/g16-A.03/g16-haswell/g16/l9999.exe)

 ----------------------------------------------------------------------

 Electric dipole moment (input orientation):
 (Debye = 10**-18 statcoulomb cm , SI units = C m)
                  (au)            (Debye)         (10**-30 SI)
   Tot        0.643275D+00      0.163504D+01      0.545391D+01
   x          0.372574D+00      0.946988D+00      0.315881D+01
   y         -0.254674D+00     -0.647316D+00     -0.215921D+01
   z         -0.458402D+00     -0.116514D+01     -0.388649D+01

 Dipole polarizability, Alpha (input orientation).
 (esu units = cm**3 , SI units = C**2 m**2 J**-1)
 Alpha(0;0):
               (au)            (10**-24 esu)      (10**-40 SI)
   iso        0.573830D+02      0.850329D+01      0.946118D+01
   aniso      0.107622D+02      0.159479D+01      0.177445D+01
   xx         0.519788D+02      0.770246D+01      0.857014D+01
   yx        -0.288335D+01     -0.427268D+00     -0.475400D+00
   yy         0.595109D+02      0.881860D+01      0.981202D+01
   zx        -0.156230D+01     -0.231509D+00     -0.257589D+00
   zy         0.237055D+01      0.351279D+00      0.390851D+00
   zz         0.606594D+02      0.898880D+01      0.100014D+02

 ----------------------------------------------------------------------

 Dipole orientation:
     8          2.90741912         -4.36236836         -3.47179589
    16          0.40143508         -2.87944132         -2.45110709
     6          1.60357636         -0.54854527         -0.11720684
     6          0.79702313         -1.46838186          2.52721190
     6          0.52152039         -4.35769295          2.43067018
     6         -0.93650998         -4.94955127          0.00052615
     1          3.65194100         -0.50710978         -0.41407936
     1          0.84100053          1.29395319         -0.65720847
     1          2.19636370         -0.87010680          3.92573124
     1         -1.00719092         -0.59962350          3.04587442
     1          2.37376760         -5.29017773          2.41798576
     1         -0.50716907         -5.09120757          4.06696136
     1         -0.83356465         -6.89086261         -0.70288441
     1         -2.93140180         -4.39966424          0.12102415
     1          3.97702769         -5.00160009         -2.10178829

 Electric dipole moment (dipole orientation):
 (Debye = 10**-18 statcoulomb cm , SI units = C m)
                  (au)            (Debye)         (10**-30 SI)
   Tot        0.643275D+00      0.163504D+01      0.545391D+01
   x          0.000000D+00      0.000000D+00      0.000000D+00
   y          0.000000D+00      0.000000D+00      0.000000D+00
   z          0.643275D+00      0.163504D+01      0.545391D+01

 Dipole polarizability, Alpha (dipole orientation).
 (esu units = cm**3 , SI units = C**2 m**2 J**-1)
 Alpha(0;0):
               (au)            (10**-24 esu)      (10**-40 SI)
   iso        0.573830D+02      0.850329D+01      0.946118D+01
   aniso      0.107622D+02      0.159479D+01      0.177445D+01
   xx         0.533173D+02      0.790081D+01      0.879083D+01
   yx         0.173448D+01      0.257024D+00      0.285977D+00
   yy         0.573149D+02      0.849319D+01      0.944994D+01
   zx        -0.368626D+01     -0.546248D+00     -0.607783D+00
   zy         0.228019D+01      0.337889D+00      0.375952D+00
   zz         0.615170D+02      0.911587D+01      0.101428D+02

 ----------------------------------------------------------------------
 1\1\GINC-BROWN-A208\Freq\RB3LYP\6-31G(d)\C4H9O1S1(1+)\FINEJ\14-Oct-201
 9\0\\#P Geom=AllCheck Guess=TCheck SCRF=Check GenChk RB3LYP/6-31G(d) F
 req\\Title Card Required\\1,1\O,0.4821889873,3.0305377071,1.2863675571
 \S,-0.3764079363,1.926236821,0.4440873169\C,0.68530557,0.4018816808,0.
 4207573192\C,1.2177566396,0.2329328138,-1.0163495259\C,1.2756450221,1.
 622665599,-1.6697005953\C,-0.0476665446,2.3130173617,-1.3241724988\H,1
 .463013451,0.5892862172,1.1691914422\H,0.0647613582,-0.4247911116,0.77
 66751185\H,2.1994565148,-0.2485341839,-0.9895002496\H,0.5474293663,-0.
 4212115894,-1.582902043\H,2.1260041546,2.2048458517,-1.2925792193\H,1.
 3913888598,1.5596095823,-2.7556949108\H,-0.0819050448,3.4009563567,-1.
 4340772347\H,-0.898573333,1.8820759736,-1.8658242197\H,1.4025195749,3.
 1266093901,0.9636481731\\Version=ES64L-G16RevA.03\State=1-A\HF=-630.96
 67009\RMSD=4.349e-09\RMSF=6.076e-06\ZeroPoint=0.1293438\Thermal=0.1293
 438\Dipole=0.3725737,-0.2546738,-0.458402\DipoleDeriv=-0.4378579,-0.35
 68657,-0.4005186,-0.0118534,-0.6467617,-0.1914575,-0.0358455,-0.040414
 9,-0.4895635,0.6958617,0.3312497,0.2479353,0.1110649,0.8030748,0.25257
 23,0.0669666,0.1588076,0.6707305,0.0367881,-0.0708228,-0.0268143,-0.13
 08525,0.130925,0.0746423,-0.0227592,0.0195393,-0.0366107,-0.0005037,0.
 1302148,0.0563357,0.0318038,-0.0034483,0.0107665,-0.0425747,0.0953267,
 0.1479693,0.1415456,0.0031332,-0.0398293,0.024149,0.0908907,0.0217795,
 0.0992314,0.032918,-0.1337881,-0.016542,-0.0477811,-0.0084592,0.029799
 7,-0.0825981,0.0063399,-0.0990336,-0.0207925,0.2078068,0.0450625,0.014
 2302,-0.0238889,0.0009158,0.0128012,-0.0653916,0.0074624,-0.0611082,0.
 0478776,0.0628006,0.0095927,0.0355605,-0.0046506,0.059016,0.0028495,0.
 0236831,-0.0119854,0.0682421,0.0214519,0.044193,0.0005249,0.0375264,0.
 0565247,0.0003358,0.0114888,-0.022929,0.0553848,0.0076628,-0.0788489,-
 0.0410276,-0.0338554,0.0305046,-0.006195,-0.0098178,-0.0249657,0.00103
 35,-0.0277055,-0.0352826,-0.0319824,-0.047244,-0.0343496,-0.02631,-0.0
 918058,-0.0587637,0.0475673,0.0721427,0.0078808,0.0401153,0.0080282,0.
 0827061,-0.0167139,0.0105876,0.0085016,0.0134105,0.0900872,0.0122129,0
 .0373986,0.0175223,0.0518399,-0.0230786,0.0182959,-0.0177159,0.0537274
 ,0.0392142,-0.0184653,0.0454386,-0.0476725,0.0849147,-0.0188988,0.0058
 072,-0.0152933,0.0369729,0.2699919,0.0553592,0.1092114,0.0153183,0.363
 9602,-0.0212403,0.0583136,-0.0411245,0.3092396\Polar=51.9787763,-2.883
 3475,59.5108944,-1.5623003,2.3705493,60.6594321\Quadrupole=-0.2319746,
 0.6863613,-0.4543868,0.6366312,1.2418142,-1.1771431\PG=C01 [X(C4H9O1S1
 )]\NImag=0\\0.52169100,0.11605409,0.16066019,-0.09689396,0.08822912,0.
 17808889,-0.12688650,-0.05077397,-0.01260803,0.30150449,-0.10646040,-0
 .12468657,-0.05179199,0.06558747,0.28687147,-0.07640144,-0.07852781,-0
 .08785358,0.02295717,0.06181735,0.26991502,0.00588259,-0.01697910,-0.0
 0614153,-0.06985098,0.03091267,-0.00241204,0.46889239,0.01082322,-0.01
 375217,-0.00407476,-0.00664281,-0.05797123,-0.00292497,0.15010902,0.41
 744004,0.00430356,-0.01192964,-0.00056303,-0.00314441,0.00068268,-0.04
 210859,0.04903392,-0.03651188,0.49831443,0.00095266,-0.00000697,0.0017
 7896,-0.01971832,0.02191489,0.00870295,-0.07968989,-0.00715460,0.02247
 800,0.60429036,-0.00003198,-0.00373318,0.00001247,0.01190726,-0.010810
 70,-0.01220949,-0.00357161,-0.07511973,-0.01543196,-0.01853371,0.52594
 490,0.00072404,0.00269397,-0.00076006,0.01072267,-0.01674349,0.0000255
 9,0.02045849,-0.00655916,-0.15894167,0.05771325,0.05247083,0.44934699,
 -0.00185610,-0.00012384,-0.00048028,-0.00414170,-0.00183061,0.01946849
 ,-0.00515687,-0.00379884,0.00699664,-0.07803408,-0.00926284,-0.0060909
 8,0.51841763,0.00056173,0.00021253,-0.00022522,0.00148899,0.00069217,-
 0.00492661,-0.00276812,0.00119563,0.00783177,-0.01245887,-0.16133722,0
 .03724116,0.07180633,0.45756783,-0.00186160,0.00026530,0.00173372,0.03
 094576,0.00350915,-0.03522249,0.01238507,0.02354428,-0.02365721,-0.000
 89310,0.03282501,-0.09191196,0.01012540,0.02711772,0.60990690,0.002020
 32,-0.00176579,-0.02464299,-0.05620116,-0.01716144,0.03661268,0.007069
 45,0.00322590,-0.01015534,-0.00448688,0.01167372,-0.00000710,-0.159972
 28,0.03327377,0.01244891,0.49393190,-0.00031700,-0.00028286,-0.0226365
 1,-0.00841149,-0.05276738,0.01231728,0.00536240,-0.00799504,0.01452605
 ,0.03118544,-0.02533748,0.00243038,0.03328703,-0.09700646,-0.01159298,
 0.02584987,0.60225957,0.00246957,0.00105054,-0.01123644,-0.00147991,0.
 00187983,-0.07559431,-0.00342162,0.01655551,-0.00133579,-0.00452016,0.
 00063116,-0.00138179,0.00865002,-0.00994542,-0.06889775,0.08321459,0.0
 2371544,0.32194373,0.00385107,-0.00346055,-0.00028251,-0.01718587,0.00
 285072,-0.00897717,-0.18763549,-0.03796948,-0.13369970,0.01170573,0.00
 283762,0.00975946,0.00023405,0.00028753,0.00011222,-0.00054801,0.00082
 691,0.00037217,0.19965299,-0.00242527,0.00496960,0.00052408,0.02618254
 ,-0.00816376,0.01583177,-0.03927617,-0.04950646,-0.02938092,-0.0014870
 1,-0.00195221,-0.00366200,0.00038072,0.00005147,-0.00016844,0.00039883
 ,-0.00358304,-0.00096751,0.03640432,0.05857616,0.00051301,-0.00024053,
 0.00034573,0.00133087,0.00000542,-0.00006568,-0.13415677,-0.03300110,-
 0.17120209,-0.01943931,-0.00674137,-0.01668172,-0.00054076,-0.00009976
 ,0.00024824,0.00058863,0.00039782,-0.00065540,0.14151536,0.03592083,0.
 18241327,-0.00040716,0.00442810,0.00138316,0.01086952,0.01392791,-0.00
 513544,-0.14058737,-0.12563621,0.04983784,-0.00279986,-0.00761831,0.00
 206342,-0.00115892,0.00209297,0.00151384,-0.00226256,0.00192842,-0.000
 99190,-0.01172702,-0.01932968,0.00810232,0.14736524,0.00173150,-0.0042
 9353,-0.00134808,-0.01157704,-0.01611693,0.00508137,-0.12377897,-0.207
 08868,0.06775367,0.00290080,0.00860468,-0.00288296,0.00120023,-0.00104
 513,-0.00152361,0.00163850,-0.00126902,0.00024990,-0.00250046,-0.00114
 799,0.00133726,0.12931978,0.22138582,0.00085264,-0.00293787,-0.0003720
 1,-0.00327837,0.00050296,-0.00077167,0.05313488,0.06665938,-0.07499700
 ,0.01358120,0.02174720,-0.00707919,0.00159886,-0.00151707,-0.00474238,
 0.00093436,0.00058783,-0.00079461,-0.01174640,-0.01740618,0.00785253,-
 0.05493151,-0.07017370,0.08097339,-0.00009000,-0.00005241,-0.00002876,
 0.00128846,-0.00216808,0.00024512,-0.00855292,0.00397396,0.00167773,-0
 .27357797,0.10781792,-0.00858976,0.00443318,-0.00227546,-0.00037146,0.
 00105512,-0.00076017,-0.00004864,0.00130067,-0.00023276,-0.00033554,-0
 .00019049,0.00024794,0.00058375,0.29002532,-0.00023745,-0.00008821,-0.
 00035889,0.00046261,-0.00141068,0.00072337,0.00196781,-0.00161656,0.00
 013503,0.10458193,-0.09731575,0.00209533,0.02534478,-0.01165604,-0.000
 17773,-0.00014177,-0.00518833,0.00153213,0.00000887,0.00084252,0.00001
 509,0.00003097,-0.00033006,0.00000912,-0.11521772,0.10549749,-0.000381
 15,-0.00115758,-0.00013139,0.00433818,-0.00195054,-0.00297797,0.026318
 64,-0.01277280,-0.00198048,-0.00877983,0.00282703,-0.04698853,-0.01446
 632,0.00532094,0.00011370,0.00087437,0.00328474,-0.00276963,-0.0002198
 9,-0.00054287,0.00165135,0.00026110,0.00035879,-0.00090299,0.00758981,
 -0.00298471,0.05264316,0.00001276,0.00048536,-0.00010882,0.00026600,-0
 .00002603,0.00067046,0.00801367,0.00834331,0.00907893,-0.15608663,-0.0
 9666084,-0.08756112,-0.00168182,-0.00088506,0.00061223,0.00089848,0.00
 028326,0.00033053,-0.00013928,0.00043736,0.00224330,0.00104352,0.00031
 446,-0.00049384,-0.01702002,-0.01842616,-0.01538594,0.16307719,0.00012
 626,0.00008196,0.00000641,0.00002312,-0.00071125,-0.00048342,-0.000722
 65,-0.00058426,0.00002150,-0.09630848,-0.14478844,-0.08376721,-0.02004
 219,-0.01935547,-0.01373495,-0.00080613,0.00107050,-0.00057276,0.00002
 276,0.00093065,0.00076388,0.00049029,0.00075228,0.00041937,0.00845031,
 0.01011481,0.00809540,0.10675303,0.15581977,0.00012171,-0.00094683,0.0
 0021602,-0.00111397,0.00062887,-0.00149030,-0.01742888,-0.01670007,-0.
 02027553,-0.08608408,-0.08216374,-0.11935475,0.01164357,0.01086266,0.0
 0858324,0.00031513,-0.00041597,-0.00000418,0.00312210,-0.00145848,-0.0
 0410821,-0.00050447,0.00007439,0.00133135,-0.00051894,0.00000916,0.000
 17081,0.09011778,0.08634579,0.13446896,0.00159389,0.00069662,-0.000105
 96,-0.00171322,-0.00124967,-0.00181523,0.00025453,-0.00000182,0.000342
 76,0.00187639,0.00089206,0.00092405,-0.20414819,-0.10606879,-0.0700989
 9,-0.02336743,-0.01316413,-0.01033152,-0.00005339,-0.00023344,0.000204
 05,0.00003752,0.00002377,0.00014241,0.00080370,-0.00003625,0.00049022,
 0.00124658,0.00092975,-0.00023062,0.22283240,0.00006004,-0.00010179,-0
 .00018962,-0.00040286,-0.00013641,0.00066292,0.00032071,0.00067415,-0.
 00059157,-0.02287392,-0.01852257,-0.01252667,-0.10699516,-0.12165125,-
 0.04928809,0.01571673,0.00937091,0.00732866,-0.00016918,0.00009883,0.0
 0068525,0.00016316,0.00005405,0.00011155,0.00018963,0.00130779,-0.0006
 0848,-0.00015127,-0.00463548,0.00412583,0.11320961,0.13407066,-0.00000
 227,-0.00030349,-0.00000343,-0.00001020,0.00028996,0.00069915,-0.00018
 216,-0.00025517,0.00097964,0.01157340,0.00743441,0.00502260,-0.0691554
 5,-0.04762803,-0.08588981,0.00747889,0.00458225,0.00213761,-0.00010663
 ,0.00009673,-0.00008800,-0.00010649,-0.00002967,0.00005822,-0.00007154
 ,-0.00087367,0.00066880,0.00042121,0.00247044,-0.00040232,0.07570605,0
 .05235986,0.08657294,0.00130836,0.00044760,0.00016634,-0.00540757,-0.0
 0055403,0.00464089,-0.00043322,0.00207544,0.00072995,-0.00046548,-0.00
 072482,-0.00086539,-0.05026899,0.00094682,0.02427743,-0.00386369,0.001
 98435,0.02648270,-0.00008329,-0.00018672,0.00038720,0.00027712,-0.0001
 7110,-0.00013438,-0.00005310,-0.00009858,-0.00023777,0.00024075,0.0000
 2396,0.00048699,0.00315674,-0.00201726,-0.02638709,0.05458512,-0.00006
 447,0.00050679,0.00001078,0.00278230,-0.00168141,-0.00122032,-0.000558
 13,-0.00564076,0.00282332,-0.00415538,0.00284664,0.02977538,0.00112119
 ,-0.04738281,-0.02008200,0.00229215,-0.00201186,-0.01503282,-0.0000951
 3,0.00010977,0.00027298,-0.00057616,0.00044383,0.00139218,0.00038653,0
 .00033455,-0.00021054,-0.00022941,0.00147071,-0.00039946,0.00173724,-0
 .00118245,-0.01752244,-0.00174177,0.05150751,0.00031250,0.00013602,0.0
 0024726,-0.00077194,-0.00031317,0.00203912,0.00011292,0.00201964,0.000
 49377,0.00102914,-0.00085084,-0.00993899,0.02632633,-0.01788541,-0.319
 94542,0.00180525,-0.00089049,-0.00566031,-0.00004879,-0.00006700,0.000
 00329,0.00009274,-0.00015849,-0.00040861,-0.00010010,0.00017650,-0.000
 09147,0.00017277,-0.00020646,0.00096362,0.00056798,-0.00104382,-0.0100
 3827,-0.02970650,0.01891323,0.34142706,0.00010716,-0.00008955,-0.00078
 967,-0.00126285,-0.00513770,-0.00111288,-0.00075726,0.00126457,0.00131
 662,-0.00519534,0.00211541,0.00119981,0.00395275,0.02549870,-0.0059122
 5,-0.04859870,0.00526691,0.00260769,0.00001327,-0.00016906,-0.00019636
 ,0.00005477,-0.00001911,-0.00012198,0.00032728,0.00148328,-0.00078091,
 0.00003286,0.00020022,0.00009393,0.00121026,-0.00073030,-0.00072580,0.
 00013728,-0.00009462,0.00035465,0.04919623,0.00032562,0.00097813,-0.00
 089324,-0.00071296,-0.00302325,0.00166188,-0.00037616,-0.00021092,-0.0
 0140934,0.00225899,-0.00006712,-0.00056724,-0.00132939,-0.00666262,0.0
 0128841,0.00565309,-0.32627191,0.02683927,-0.00017797,0.00034760,0.000
 14142,0.00003071,-0.00003816,0.00008823,-0.00019500,-0.00044344,0.0003
 1965,-0.00007682,0.00019142,-0.00003447,-0.00003175,0.00095047,0.00017
 573,0.00025221,-0.00019054,-0.00007333,-0.00642196,0.34473296,-0.00048
 391,-0.00152931,0.00525982,0.00220356,0.02934486,-0.01225933,0.0001628
 2,0.00085684,-0.00391708,0.00302965,0.00002312,-0.00195547,-0.00193553
 ,-0.00962763,0.00281460,-0.00188114,0.02559487,-0.04494635,-0.00020126
 ,0.00105241,-0.00003727,-0.00072359,0.00061536,-0.00014395,-0.00010502
 ,-0.00050078,0.00079432,0.00000800,0.00040956,0.00001453,-0.00007444,0
 .00069262,0.00015532,-0.00018753,0.00011440,-0.00010303,0.00059005,-0.
 02944459,0.05065042,0.00153307,0.00036739,0.00491565,0.00549283,0.0052
 2785,-0.00003855,-0.00052760,0.00014289,-0.00014924,0.00121622,-0.0010
 8874,0.00005654,-0.02195957,-0.01150043,-0.01277731,-0.20819703,-0.085
 65417,-0.10357511,-0.00010342,0.00008184,0.00005061,0.00023890,-0.0001
 3292,-0.00021379,0.00021670,0.00006573,0.00026569,0.00020032,0.0008893
 1,-0.00014383,-0.00351783,0.00372233,0.00125964,0.00127058,-0.00059914
 ,-0.00001340,0.00090753,0.00054363,0.00049048,0.22374095,0.00039761,0.
 00079271,0.00123798,0.00465216,0.00177563,0.00370163,-0.00117479,-0.00
 097618,0.00007032,0.00054313,0.00135060,0.00033212,0.01103205,0.006207
 39,0.00838789,-0.08186943,-0.09251541,-0.05427745,0.00002593,0.0001769
 1,-0.00013612,0.00034390,-0.00021974,0.00005648,-0.00016317,0.00006246
 ,-0.00023337,-0.00011879,-0.00038836,-0.00023022,0.00262656,-0.0008461
 6,-0.00049240,-0.00072786,0.00084420,0.00006827,-0.02377772,-0.0104385
 6,-0.01762670,0.08816747,0.09444817,0.00012730,0.00005353,-0.00826451,
 -0.02035014,-0.01267229,-0.01534287,0.00157135,0.00132492,-0.00116125,
 -0.00022784,-0.00004696,0.00010790,0.00921339,0.00459238,0.00600809,-0
 .10632733,-0.05334851,-0.11109556,0.00008711,-0.00019875,0.00002854,-0
 .00067571,0.00046583,0.00008030,0.00007553,0.00012371,-0.00001370,-0.0
 0024413,0.00004042,0.00020373,0.00248280,-0.00182230,0.00062705,-0.000
 04661,0.00042813,0.00091792,0.00386573,0.00156267,0.00449567,0.1093598
 9,0.05872310,0.12335838,-0.40971313,-0.04922695,0.13383841,-0.01705314
 ,-0.00583355,0.00259499,0.00307897,0.00124545,0.00135276,0.00001310,0.
 00024885,-0.00050739,0.00134092,-0.00000013,-0.00050616,0.00252247,0.0
 0233235,0.00024158,0.00071800,-0.00054551,-0.00026662,-0.00075320,0.00
 080260,0.00009220,0.00003406,0.00021194,0.00011379,-0.00010437,-0.0000
 2956,0.00012356,-0.00021195,-0.00004228,0.00030846,-0.00040060,-0.0002
 0519,-0.00013355,-0.00012523,0.00025777,-0.00089215,-0.00051163,0.0000
 4295,0.00108865,0.42116572,-0.02054350,-0.02126360,-0.00850254,-0.0345
 6533,-0.01185971,-0.00150496,0.00053309,0.00115220,0.00141096,-0.00040
 626,0.00023757,-0.00033044,-0.00078946,0.00016997,-0.00036997,0.002021
 98,0.00152783,0.00101352,0.00110811,-0.00175004,0.00067893,0.00040415,
 0.00030857,0.00046051,-0.00000151,-0.00011054,0.00025434,-0.00004240,0
 .00003117,0.00030255,0.00067025,0.00054926,-0.00030450,0.00049175,0.00
 002584,0.00017535,0.00061093,0.00014594,0.00002497,-0.00023304,-0.0002
 7367,0.00077412,0.05074126,0.03110920,0.16659997,0.00514460,-0.0767070
 0,-0.02974121,-0.01518961,0.00100791,0.00056493,0.00183933,0.00035190,
 0.00005777,-0.00052687,0.00049105,-0.00135340,-0.00111148,0.00085853,-
 0.00125891,0.00144780,0.00029078,0.00031392,0.00042633,0.00029540,-0.0
 0018531,0.00017993,-0.00008339,-0.00000218,0.00007633,-0.00018599,0.00
 013866,0.00019202,-0.00031696,0.00179643,0.00010385,-0.00049950,0.0003
 9377,0.00073719,0.00009404,-0.00038865,0.00034495,-0.00082221,0.000512
 74,0.00041847,0.00005031,-0.13744854,0.00591716,0.07517514\\0.00001026
 ,-0.00000524,0.00000430,-0.00000579,-0.00001941,0.00000666,-0.00000439
 ,0.00002243,0.00000477,-0.00000009,-0.00000575,-0.00000114,-0.00000744
 ,0.00000470,0.00000323,0.00000698,-0.00000372,-0.00001008,0.00000732,-
 0.00000218,-0.00000197,0.00000038,0.00000189,-0.00000040,0.00000085,0.
 00000310,-0.00000467,-0.00000185,-0.00000069,0.00000088,-0.00000042,0.
 00000117,-0.00000275,-0.00000284,-0.00000226,-0.00000096,-0.00000035,-
 0.00000019,-0.00000063,-0.00000340,-0.00000013,0.00000596,0.00000078,0
 .00000628,-0.00000318\\\@


 THE UNDERLYING PHYSICAL LAWS NECESSARY FOR THE 
 MATHEMATICAL THEORY OF A LARGE PART OF PHYSICS AND THE
 WHOLE OF CHEMISTRY ARE THUS COMPLETELY KNOWN, AND THE
 DIFFICULTY IS ONLY THAT THE EXACT APPLICATION OF THESE
 LAWS LEADS TO EQUATIONS MUCH TOO COMPLICATED 
 TO BE SOLUBLE.

                                        -- P. A. M. DIRAC, 1929
 Job cpu time:       0 days  0 hours  4 minutes 37.4 seconds.
 Elapsed time:       0 days  0 hours  0 minutes 12.1 seconds.
 File lengths (MBytes):  RWF=     29 Int=      0 D2E=      0 Chk=      2 Scr=      1
 Normal termination of Gaussian 16 at Mon Oct 14 01:22:14 2019.
real 57.85
user 1229.56
sys 17.30
Machine:
brown-a208
brown-a208
brown-a208
brown-a208
brown-a208
brown-a208
brown-a208
brown-a208
brown-a208
brown-a208
brown-a208
brown-a208
brown-a208
brown-a208
brown-a208
brown-a208
brown-a208
brown-a208
brown-a208
brown-a208
brown-a208
brown-a208
brown-a208
brown-a208
