Title Card Required                                                     
Freq      RB3LYP                                                      6-31G(d)            
Number of atoms                            I               15
Info1-9                                    I   N=           9
          40          40        1002           0           0         100
           6          18        -502
Full Title                                 C   N=           2
Title Card Required     
Route                                      C   N=           6
#P opt freq b3lyp/6-31g(d) geom=connectivity temperature=0.0
01          
Charge                                     I                0
Multiplicity                               I                1
Number of electrons                        I               64
Number of alpha electrons                  I               32
Number of beta electrons                   I               32
Number of basis functions                  I              125
Number of independent functions            I              125
Number of point charges in /Mol/           I                0
Number of translation vectors              I                0
Atomic numbers                             I   N=          15
           8          16           6           6           6           6
           8           1           1           1           1           1
           1           1           1
Nuclear charges                            R   N=          15
  8.00000000E+00  1.60000000E+01  6.00000000E+00  6.00000000E+00  6.00000000E+00
  6.00000000E+00  8.00000000E+00  1.00000000E+00  1.00000000E+00  1.00000000E+00
  1.00000000E+00  1.00000000E+00  1.00000000E+00  1.00000000E+00  1.00000000E+00
Current cartesian coordinates              R   N=          45
 -2.87060514E+00  6.45857365E-01 -2.32998687E+00 -1.49348697E+00  2.95445662E-06
 -5.67155698E-06  8.51657426E-01  2.47923017E+00  6.97128756E-01  3.37359136E+00
  1.43457330E+00 -2.69788830E-01  3.37362692E+00 -1.43455966E+00  2.69779793E-01
  8.51607511E-01 -2.47932644E+00 -6.96869182E-01 -2.87104466E+00 -6.45764410E-01
  2.32972777E+00  2.18695298E-01  4.20881877E+00 -2.32159876E-01  8.38162765E-01
  2.73278470E+00  2.74727909E+00  3.53728266E+00  1.76380821E+00 -2.30897167E+00
  4.96885543E+00  2.38253756E+00  6.43741214E-01  4.96880749E+00 -2.38254278E+00
 -6.43872890E-01  3.53750493E+00 -1.76373976E+00  2.30895656E+00  8.37989232E-01
 -2.73312348E+00 -2.74698208E+00  2.18792777E-01 -4.20883834E+00  2.32669951E-01
Number of symbols in /Mol/                 I                0
Force Field                                I                0
Atom Types                                 C   N=          15
                                                            
                                                            
                                                            
Int Atom Types                             I   N=          15
           0           0           0           0           0           0
           0           0           0           0           0           0
           0           0           0
MM charges                                 R   N=          15
  0.00000000E+00  0.00000000E+00  0.00000000E+00  0.00000000E+00  0.00000000E+00
  0.00000000E+00  0.00000000E+00  0.00000000E+00  0.00000000E+00  0.00000000E+00
  0.00000000E+00  0.00000000E+00  0.00000000E+00  0.00000000E+00  0.00000000E+00
Integer atomic weights                     I   N=          15
          16          32          12          12          12          12
          16           1           1           1           1           1
           1           1           1
Real atomic weights                        R   N=          15
  1.59949146E+01  3.19720718E+01  1.20000000E+01  1.20000000E+01  1.20000000E+01
  1.20000000E+01  1.59949146E+01  1.00782504E+00  1.00782504E+00  1.00782504E+00
  1.00782504E+00  1.00782504E+00  1.00782504E+00  1.00782504E+00  1.00782504E+00
Atom fragment info                         I   N=          15
           0           0           0           0           0           0
           0           0           0           0           0           0
           0           0           0
Atom residue num                           I   N=          15
           0           0           0           0           0           0
           0           0           0           0           0           0
           0           0           0
Nuclear spins                              I   N=          15
           0           0           0           0           0           0
           0           1           1           1           1           1
           1           1           1
Nuclear ZEff                               R   N=          15
 -5.60000000E+00 -1.36000000E+01 -3.60000000E+00 -3.60000000E+00 -3.60000000E+00
 -3.60000000E+00 -5.60000000E+00 -1.00000000E+00 -1.00000000E+00 -1.00000000E+00
 -1.00000000E+00 -1.00000000E+00 -1.00000000E+00 -1.00000000E+00 -1.00000000E+00
Nuclear ZNuc                               R   N=          15
  8.00000000E+00  1.60000000E+01  6.00000000E+00  6.00000000E+00  6.00000000E+00
  6.00000000E+00  8.00000000E+00  1.00000000E+00  1.00000000E+00  1.00000000E+00
  1.00000000E+00  1.00000000E+00  1.00000000E+00  1.00000000E+00  1.00000000E+00
Nuclear QMom                               R   N=          15
  0.00000000E+00  0.00000000E+00  0.00000000E+00  0.00000000E+00  0.00000000E+00
  0.00000000E+00  0.00000000E+00  0.00000000E+00  0.00000000E+00  0.00000000E+00
  0.00000000E+00  0.00000000E+00  0.00000000E+00  0.00000000E+00  0.00000000E+00
Nuclear GFac                               R   N=          15
  0.00000000E+00  0.00000000E+00  0.00000000E+00  0.00000000E+00  0.00000000E+00
  0.00000000E+00  0.00000000E+00  2.79284600E+00  2.79284600E+00  2.79284600E+00
  2.79284600E+00  2.79284600E+00  2.79284600E+00  2.79284600E+00  2.79284600E+00
MicOpt                                     I   N=          15
          -1          -1          -1          -1          -1          -1
          -1          -1          -1          -1          -1          -1
          -1          -1          -1
Number of residues                         I                0
Number of secondary structures             I                0
Redundant internal dimensions              I   N=           4
          90          15          30          45
Redundant internal coordinate indices      I   N=         360
           1           2           0           0           2           3
           0           0           2           6           0           0
           2           7           0           0           3           4
           0           0           3           8           0           0
           3           9           0           0           4           5
           0           0           4          10           0           0
           4          11           0           0           5           6
           0           0           5          12           0           0
           5          13           0           0           6          14
           0           0           6          15           0           0
           1           2           3           0           1           2
           6           0           1           2           7           0
           3           2           6           0           3           2
           7           0           6           2           7           0
           2           3           4           0           2           3
           8           0           2           3           9           0
           4           3           8           0           4           3
           9           0           8           3           9           0
           3           4           5           0           3           4
          10           0           3           4          11           0
           5           4          10           0           5           4
          11           0          10           4          11           0
           4           5           6           0           4           5
          12           0           4           5          13           0
           6           5          12           0           6           5
          13           0          12           5          13           0
           2           6           5           0           2           6
          14           0           2           6          15           0
           5           6          14           0           5           6
          15           0          14           6          15           0
           1           2           3           4           1           2
           3           8           1           2           3           9
           6           2           3           4           6           2
           3           8           6           2           3           9
           7           2           3           4           7           2
           3           8           7           2           3           9
           1           2           6           5           1           2
           6          14           1           2           6          15
           3           2           6           5           3           2
           6          14           3           2           6          15
           7           2           6           5           7           2
           6          14           7           2           6          15
           2           3           4           5           2           3
           4          10           2           3           4          11
           8           3           4           5           8           3
           4          10           8           3           4          11
           9           3           4           5           9           3
           4          10           9           3           4          11
           3           4           5           6           3           4
           5          12           3           4           5          13
          10           4           5           6          10           4
           5          12          10           4           5          13
          11           4           5           6          11           4
           5          12          11           4           5          13
           4           5           6           2           4           5
           6          14           4           5           6          15
          12           5           6           2          12           5
           6          14          12           5           6          15
          13           5           6           2          13           5
           6          14          13           5           6          15
Redundant internal coordinates             R   N=          90
  2.78251591E+00  3.48314028E+00  3.48312519E+00  2.78250581E+00  2.89592616E+00
  2.06293363E+00  2.06581422E+00  2.91942772E+00  2.07206591E+00  2.06834253E+00
  2.89595059E+00  2.06834095E+00  2.07206599E+00  2.06580766E+00  2.06293696E+00
  1.91304192E+00  1.90805846E+00  2.10592707E+00  1.66432393E+00  1.90809748E+00
  1.91307848E+00  1.83666228E+00  1.87551382E+00  1.85624941E+00  2.00340190E+00
  1.96202198E+00  1.91999424E+00  1.86797106E+00  1.91778693E+00  1.93785279E+00
  1.91563066E+00  1.94849857E+00  1.87644267E+00  1.86800322E+00  1.94851695E+00
  1.91560450E+00  1.93783709E+00  1.91777542E+00  1.87644439E+00  1.83667600E+00
  1.85621634E+00  1.87557902E+00  1.96202112E+00  2.00336035E+00  1.91999545E+00
 -1.73320697E+00  4.09373391E-01  2.46503887E+00  2.34138697E-01  2.37671906E+00
 -1.85080077E+00  2.20571603E+00 -1.93488891E+00  1.20776559E-01  2.20544511E+00
  1.20515706E-01 -1.93516672E+00  2.33917362E-01 -1.85101204E+00  2.37649084E+00
 -1.73348005E+00  2.46477586E+00  4.09093427E-01 -6.40973912E-01  1.43811626E+00
 -2.77150490E+00 -2.69907856E+00 -6.19988388E-01  1.45357576E+00  1.37212921E+00
 -2.83196593E+00 -7.58401780E-01  8.51189321E-01  2.97504705E+00 -1.22928400E+00
 -1.22929347E+00  8.94564258E-01  2.97341852E+00  2.97503423E+00 -1.18429335E+00
  8.94560913E-01 -6.40820746E-01  1.37225061E+00 -2.69899192E+00 -2.77138563E+00
 -7.58314267E-01  1.45362850E+00  1.43825053E+00 -2.83186341E+00 -6.19920645E-01
ZRed-IntVec                                I   N=          90
           0           0           0           0           0           0
           0           0           0           0           0           0
           0           0           0           0           0           0
           0           0           0           0           0           0
           0           0           0           0           0           0
           0           0           0           0           0           0
           0           0           0           0           0           0
           0           0           0           0           0           0
           0           0           0           0           0           0
           0           0           0           0           0           0
           0           0           0           0           0           0
           0           0           0           0           0           0
           0           0           0           0           0           0
           0           0           0           0           0           0
           0           0           0           0           0           0
ZRed-FPVec                                 R   N=          90
  0.00000000E+00  0.00000000E+00  0.00000000E+00  0.00000000E+00  0.00000000E+00
  0.00000000E+00  0.00000000E+00  0.00000000E+00  0.00000000E+00  0.00000000E+00
  0.00000000E+00  0.00000000E+00  0.00000000E+00  0.00000000E+00  0.00000000E+00
  0.00000000E+00  0.00000000E+00  0.00000000E+00  0.00000000E+00  0.00000000E+00
  0.00000000E+00  0.00000000E+00  0.00000000E+00  0.00000000E+00  0.00000000E+00
  0.00000000E+00  0.00000000E+00  0.00000000E+00  0.00000000E+00  0.00000000E+00
  0.00000000E+00  0.00000000E+00  0.00000000E+00  0.00000000E+00  0.00000000E+00
  0.00000000E+00  0.00000000E+00  0.00000000E+00  0.00000000E+00  0.00000000E+00
  0.00000000E+00  0.00000000E+00  0.00000000E+00  0.00000000E+00  0.00000000E+00
  0.00000000E+00  0.00000000E+00  0.00000000E+00  0.00000000E+00  0.00000000E+00
  0.00000000E+00  0.00000000E+00  0.00000000E+00  0.00000000E+00  0.00000000E+00
  0.00000000E+00  0.00000000E+00  0.00000000E+00  0.00000000E+00  0.00000000E+00
  0.00000000E+00  0.00000000E+00  0.00000000E+00  0.00000000E+00  0.00000000E+00
  0.00000000E+00  0.00000000E+00  0.00000000E+00  0.00000000E+00  0.00000000E+00
  0.00000000E+00  0.00000000E+00  0.00000000E+00  0.00000000E+00  0.00000000E+00
  0.00000000E+00  0.00000000E+00  0.00000000E+00  0.00000000E+00  0.00000000E+00
  0.00000000E+00  0.00000000E+00  0.00000000E+00  0.00000000E+00  0.00000000E+00
  0.00000000E+00  0.00000000E+00  0.00000000E+00  0.00000000E+00  0.00000000E+00
ZRed-Constraint1                           R   N=          90
  2.78251591E+00  3.48314028E+00  3.48312519E+00  2.78250581E+00  2.89592616E+00
  2.06293363E+00  2.06581422E+00  2.91942772E+00  2.07206591E+00  2.06834253E+00
  2.89595059E+00  2.06834095E+00  2.07206599E+00  2.06580766E+00  2.06293696E+00
  1.91304192E+00  1.90805846E+00  2.10592707E+00  1.66432393E+00  1.90809748E+00
  1.91307848E+00  1.83666228E+00  1.87551382E+00  1.85624941E+00  2.00340190E+00
  1.96202198E+00  1.91999424E+00  1.86797106E+00  1.91778693E+00  1.93785279E+00
  1.91563066E+00  1.94849857E+00  1.87644267E+00  1.86800322E+00  1.94851695E+00
  1.91560450E+00  1.93783709E+00  1.91777542E+00  1.87644439E+00  1.83667600E+00
  1.85621634E+00  1.87557902E+00  1.96202112E+00  2.00336035E+00  1.91999545E+00
 -1.73320697E+00  4.09373391E-01  2.46503887E+00  2.34138697E-01  2.37671906E+00
 -1.85080077E+00  2.20571603E+00 -1.93488891E+00  1.20776559E-01  2.20544511E+00
  1.20515706E-01 -1.93516672E+00  2.33917362E-01 -1.85101204E+00  2.37649084E+00
 -1.73348005E+00  2.46477586E+00  4.09093427E-01 -6.40973912E-01  1.43811626E+00
 -2.77150490E+00 -2.69907856E+00 -6.19988388E-01  1.45357576E+00  1.37212921E+00
 -2.83196593E+00 -7.58401780E-01  8.51189321E-01  2.97504705E+00 -1.22928400E+00
 -1.22929347E+00  8.94564258E-01  2.97341852E+00  2.97503423E+00 -1.18429335E+00
  8.94560913E-01 -6.40820746E-01  1.37225061E+00 -2.69899192E+00 -2.77138563E+00
 -7.58314267E-01  1.45362850E+00  1.43825053E+00 -2.83186341E+00 -6.19920645E-01
ZRed-Constraint2                           R   N=          90
  3.02654866E+00  3.45255895E+00  3.45123861E+00  3.02650466E+00  2.92266439E+00
  2.05980395E+00  2.05982350E+00  2.93902517E+00  2.05977288E+00  2.05983429E+00
  2.91831001E+00  2.05986206E+00  2.05973054E+00  2.05983182E+00  2.05990263E+00
  1.94227369E+00  1.93124216E+00  1.95113554E+00  1.76115981E+00  1.93120810E+00
  1.93868580E+00  1.78603343E+00  1.93033472E+00  1.93026579E+00  1.84615464E+00
  1.84613338E+00  2.09451190E+00  1.91275054E+00  1.86159144E+00  1.86151466E+00
  1.86481352E+00  1.86487765E+00  2.09434293E+00  1.90857350E+00  1.86617603E+00
  1.86607947E+00  1.86193824E+00  1.86203050E+00  2.09446824E+00  1.77072712E+00
  1.93294320E+00  1.93284402E+00  1.84997161E+00  1.84988457E+00  2.09434046E+00
 -1.91169770E+00  4.83545890E-02  2.41148641E+00  1.37701830E-01  2.09775412E+00
 -1.82229937E+00  2.19104080E+00 -2.13209222E+00  2.31039603E-01  2.33061227E+00
  3.72790144E-01 -1.99488651E+00  2.73144353E-01 -1.68467777E+00  2.23083088E+00
 -1.77471742E+00  2.55064576E+00  1.82969108E-01 -5.21376390E-01  1.49127230E+00
 -2.53405921E+00 -2.54334433E+00 -5.30695634E-01  1.72715816E+00  1.50050720E+00
 -2.77002941E+00 -5.12175613E-01  7.87694423E-01  2.79732575E+00 -1.22199380E+00
 -1.22289835E+00  7.86732982E-01  3.05059873E+00  2.79823140E+00 -1.47532258E+00
  7.88543172E-01 -6.15780838E-01  1.40408897E+00 -2.63550977E+00 -2.62812900E+00
 -6.08259198E-01  1.63532738E+00  1.39650318E+00 -2.86681233E+00 -6.23225751E-01
SymInf integers                            I   N=          26
           1           1           1           1           1           0
           0           0           0           0           0           0
           0           0           0           0           0           0
           0           0           0           0           0           0
           0           0
RotTr to input orientation                 R   N=          12
  7.29735419E-01  6.39916670E-01  2.40817096E-01  4.83387919E-01 -7.31946984E-01
  4.80197598E-01  4.83551795E-01 -2.34009120E-01 -8.43455626E-01  1.48978078E+00
 -3.28605898E-02  1.31598645E+00
Number of contracted shells                I               45
Number of primitive shells                 I              115
Pure/Cartesian d shells                    I                1
Pure/Cartesian f shells                    I                0
Highest angular momentum                   I                2
Largest degree of contraction              I                6
Shell types                                I   N=          45
           0          -1          -1           2           0          -1
          -1          -1           2           0          -1          -1
           2           0          -1          -1           2           0
          -1          -1           2           0          -1          -1
           2           0          -1          -1           2           0
           0           0           0           0           0           0
           0           0           0           0           0           0
           0           0           0
Number of primitives per shell             I   N=          45
           6           3           1           1           6           6
           3           1           1           6           3           1
           1           6           3           1           1           6
           3           1           1           6           3           1
           1           6           3           1           1           3
           1           3           1           3           1           3
           1           3           1           3           1           3
           1           3           1
Shell to atom map                          I   N=          45
           1           1           1           1           2           2
           2           2           2           3           3           3
           3           4           4           4           4           5
           5           5           5           6           6           6
           6           7           7           7           7           8
           8           9           9          10          10          11
          11          12          12          13          13          14
          14          15          15
Primitive exponents                        R   N=         115
  5.48467166E+03  8.25234946E+02  1.88046958E+02  5.29645000E+01  1.68975704E+01
  5.79963534E+00  1.55396162E+01  3.59993359E+00  1.01376175E+00  2.70005823E-01
  8.00000000E-01  2.19171000E+04  3.30149000E+03  7.54146000E+02  2.12711000E+02
  6.79896000E+01  2.30515000E+01  4.23735000E+02  1.00710000E+02  3.21599000E+01
  1.18079000E+01  4.63110000E+00  1.87025000E+00  2.61584000E+00  9.22167000E-01
  3.41287000E-01  1.17167000E-01  6.50000000E-01  3.04752488E+03  4.57369518E+02
  1.03948685E+02  2.92101553E+01  9.28666296E+00  3.16392696E+00  7.86827235E+00
  1.88128854E+00  5.44249258E-01  1.68714478E-01  8.00000000E-01  3.04752488E+03
  4.57369518E+02  1.03948685E+02  2.92101553E+01  9.28666296E+00  3.16392696E+00
  7.86827235E+00  1.88128854E+00  5.44249258E-01  1.68714478E-01  8.00000000E-01
  3.04752488E+03  4.57369518E+02  1.03948685E+02  2.92101553E+01  9.28666296E+00
  3.16392696E+00  7.86827235E+00  1.88128854E+00  5.44249258E-01  1.68714478E-01
  8.00000000E-01  3.04752488E+03  4.57369518E+02  1.03948685E+02  2.92101553E+01
  9.28666296E+00  3.16392696E+00  7.86827235E+00  1.88128854E+00  5.44249258E-01
  1.68714478E-01  8.00000000E-01  5.48467166E+03  8.25234946E+02  1.88046958E+02
  5.29645000E+01  1.68975704E+01  5.79963534E+00  1.55396162E+01  3.59993359E+00
  1.01376175E+00  2.70005823E-01  8.00000000E-01  1.87311370E+01  2.82539436E+00
  6.40121692E-01  1.61277759E-01  1.87311370E+01  2.82539436E+00  6.40121692E-01
  1.61277759E-01  1.87311370E+01  2.82539436E+00  6.40121692E-01  1.61277759E-01
  1.87311370E+01  2.82539436E+00  6.40121692E-01  1.61277759E-01  1.87311370E+01
  2.82539436E+00  6.40121692E-01  1.61277759E-01  1.87311370E+01  2.82539436E+00
  6.40121692E-01  1.61277759E-01  1.87311370E+01  2.82539436E+00  6.40121692E-01
  1.61277759E-01  1.87311370E+01  2.82539436E+00  6.40121692E-01  1.61277759E-01
Contraction coefficients                   R   N=         115
  1.83107443E-03  1.39501722E-02  6.84450781E-02  2.32714336E-01  4.70192898E-01
  3.58520853E-01 -1.10777550E-01 -1.48026263E-01  1.13076702E+00  1.00000000E+00
  1.00000000E+00  1.86924085E-03  1.42303065E-02  6.96962317E-02  2.38487108E-01
  4.83307220E-01  3.38074154E-01 -2.37677050E-03 -3.16930067E-02 -1.13317024E-01
  5.60900118E-02  5.92255124E-01  4.55006095E-01 -2.50373114E-01  6.69567631E-02
  1.05450627E+00  1.00000000E+00  1.00000000E+00  1.83473713E-03  1.40373228E-02
  6.88426223E-02  2.32184443E-01  4.67941348E-01  3.62311985E-01 -1.19332420E-01
 -1.60854152E-01  1.14345644E+00  1.00000000E+00  1.00000000E+00  1.83473713E-03
  1.40373228E-02  6.88426223E-02  2.32184443E-01  4.67941348E-01  3.62311985E-01
 -1.19332420E-01 -1.60854152E-01  1.14345644E+00  1.00000000E+00  1.00000000E+00
  1.83473713E-03  1.40373228E-02  6.88426223E-02  2.32184443E-01  4.67941348E-01
  3.62311985E-01 -1.19332420E-01 -1.60854152E-01  1.14345644E+00  1.00000000E+00
  1.00000000E+00  1.83473713E-03  1.40373228E-02  6.88426223E-02  2.32184443E-01
  4.67941348E-01  3.62311985E-01 -1.19332420E-01 -1.60854152E-01  1.14345644E+00
  1.00000000E+00  1.00000000E+00  1.83107443E-03  1.39501722E-02  6.84450781E-02
  2.32714336E-01  4.70192898E-01  3.58520853E-01 -1.10777550E-01 -1.48026263E-01
  1.13076702E+00  1.00000000E+00  1.00000000E+00  3.34946043E-02  2.34726953E-01
  8.13757326E-01  1.00000000E+00  3.34946043E-02  2.34726953E-01  8.13757326E-01
  1.00000000E+00  3.34946043E-02  2.34726953E-01  8.13757326E-01  1.00000000E+00
  3.34946043E-02  2.34726953E-01  8.13757326E-01  1.00000000E+00  3.34946043E-02
  2.34726953E-01  8.13757326E-01  1.00000000E+00  3.34946043E-02  2.34726953E-01
  8.13757326E-01  1.00000000E+00  3.34946043E-02  2.34726953E-01  8.13757326E-01
  1.00000000E+00  3.34946043E-02  2.34726953E-01  8.13757326E-01  1.00000000E+00
P(S=P) Contraction coefficients            R   N=         115
  0.00000000E+00  0.00000000E+00  0.00000000E+00  0.00000000E+00  0.00000000E+00
  0.00000000E+00  7.08742682E-02  3.39752839E-01  7.27158577E-01  1.00000000E+00
  0.00000000E+00  0.00000000E+00  0.00000000E+00  0.00000000E+00  0.00000000E+00
  0.00000000E+00  0.00000000E+00  4.06100998E-03  3.06812999E-02  1.30451999E-01
  3.27204999E-01  4.52850998E-01  2.56041999E-01 -1.45104895E-02  3.10262776E-01
  7.54482456E-01  1.00000000E+00  0.00000000E+00  0.00000000E+00  0.00000000E+00
  0.00000000E+00  0.00000000E+00  0.00000000E+00  0.00000000E+00  6.89990666E-02
  3.16423961E-01  7.44308291E-01  1.00000000E+00  0.00000000E+00  0.00000000E+00
  0.00000000E+00  0.00000000E+00  0.00000000E+00  0.00000000E+00  0.00000000E+00
  6.89990666E-02  3.16423961E-01  7.44308291E-01  1.00000000E+00  0.00000000E+00
  0.00000000E+00  0.00000000E+00  0.00000000E+00  0.00000000E+00  0.00000000E+00
  0.00000000E+00  6.89990666E-02  3.16423961E-01  7.44308291E-01  1.00000000E+00
  0.00000000E+00  0.00000000E+00  0.00000000E+00  0.00000000E+00  0.00000000E+00
  0.00000000E+00  0.00000000E+00  6.89990666E-02  3.16423961E-01  7.44308291E-01
  1.00000000E+00  0.00000000E+00  0.00000000E+00  0.00000000E+00  0.00000000E+00
  0.00000000E+00  0.00000000E+00  0.00000000E+00  7.08742682E-02  3.39752839E-01
  7.27158577E-01  1.00000000E+00  0.00000000E+00  0.00000000E+00  0.00000000E+00
  0.00000000E+00  0.00000000E+00  0.00000000E+00  0.00000000E+00  0.00000000E+00
  0.00000000E+00  0.00000000E+00  0.00000000E+00  0.00000000E+00  0.00000000E+00
  0.00000000E+00  0.00000000E+00  0.00000000E+00  0.00000000E+00  0.00000000E+00
  0.00000000E+00  0.00000000E+00  0.00000000E+00  0.00000000E+00  0.00000000E+00
  0.00000000E+00  0.00000000E+00  0.00000000E+00  0.00000000E+00  0.00000000E+00
  0.00000000E+00  0.00000000E+00  0.00000000E+00  0.00000000E+00  0.00000000E+00
Coordinates of each shell                  R   N=         135
 -2.87060514E+00  6.45857365E-01 -2.32998687E+00 -2.87060514E+00  6.45857365E-01
 -2.32998687E+00 -2.87060514E+00  6.45857365E-01 -2.32998687E+00 -2.87060514E+00
  6.45857365E-01 -2.32998687E+00 -1.49348697E+00  2.95445662E-06 -5.67155698E-06
 -1.49348697E+00  2.95445662E-06 -5.67155698E-06 -1.49348697E+00  2.95445662E-06
 -5.67155698E-06 -1.49348697E+00  2.95445662E-06 -5.67155698E-06 -1.49348697E+00
  2.95445662E-06 -5.67155698E-06  8.51657426E-01  2.47923017E+00  6.97128756E-01
  8.51657426E-01  2.47923017E+00  6.97128756E-01  8.51657426E-01  2.47923017E+00
  6.97128756E-01  8.51657426E-01  2.47923017E+00  6.97128756E-01  3.37359136E+00
  1.43457330E+00 -2.69788830E-01  3.37359136E+00  1.43457330E+00 -2.69788830E-01
  3.37359136E+00  1.43457330E+00 -2.69788830E-01  3.37359136E+00  1.43457330E+00
 -2.69788830E-01  3.37362692E+00 -1.43455966E+00  2.69779793E-01  3.37362692E+00
 -1.43455966E+00  2.69779793E-01  3.37362692E+00 -1.43455966E+00  2.69779793E-01
  3.37362692E+00 -1.43455966E+00  2.69779793E-01  8.51607511E-01 -2.47932644E+00
 -6.96869182E-01  8.51607511E-01 -2.47932644E+00 -6.96869182E-01  8.51607511E-01
 -2.47932644E+00 -6.96869182E-01  8.51607511E-01 -2.47932644E+00 -6.96869182E-01
 -2.87104466E+00 -6.45764410E-01  2.32972777E+00 -2.87104466E+00 -6.45764410E-01
  2.32972777E+00 -2.87104466E+00 -6.45764410E-01  2.32972777E+00 -2.87104466E+00
 -6.45764410E-01  2.32972777E+00  2.18695298E-01  4.20881877E+00 -2.32159876E-01
  2.18695298E-01  4.20881877E+00 -2.32159876E-01  8.38162765E-01  2.73278470E+00
  2.74727909E+00  8.38162765E-01  2.73278470E+00  2.74727909E+00  3.53728266E+00
  1.76380821E+00 -2.30897167E+00  3.53728266E+00  1.76380821E+00 -2.30897167E+00
  4.96885543E+00  2.38253756E+00  6.43741214E-01  4.96885543E+00  2.38253756E+00
  6.43741214E-01  4.96880749E+00 -2.38254278E+00 -6.43872890E-01  4.96880749E+00
 -2.38254278E+00 -6.43872890E-01  3.53750493E+00 -1.76373976E+00  2.30895656E+00
  3.53750493E+00 -1.76373976E+00  2.30895656E+00  8.37989232E-01 -2.73312348E+00
 -2.74698208E+00  8.37989232E-01 -2.73312348E+00 -2.74698208E+00  2.18792777E-01
 -4.20883834E+00  2.32669951E-01  2.18792777E-01 -4.20883834E+00  2.32669951E-01
Num ILSW                                   I              100
ILSW                                       I   N=         100
           0           1           0           0           2           0
           0           0           0           0         402          -1
           5           0           0           0           2           0
           0           0           0           0           1           0
           1           0           0           0           0           0
           0           0      100000           0          -1           0
           0           0           0           0           0           0
           0           0           0           1           0           0
           0 -2000000000           1           0           0           0
           0           0           4          52           0           0
           0           0           5           0           0           0
           0           0           0          15           0           1