 Entering Gaussian System, Link 0=/apps/cent7/gaussian/g16-A.03/g16-haswell/g16/g16
 Initial command:
 /apps/cent7/gaussian/g16-A.03/g16-haswell/g16/l1.exe "/scratch/brown/finej/gaussian/Gau-237504.inp" -scrdir="/scratch/brown/finej/gaussian/"
 Entering Link 1 = /apps/cent7/gaussian/g16-A.03/g16-haswell/g16/l1.exe PID=    237505.
  
 Copyright (c) 1988,1990,1992,1993,1995,1998,2003,2009,2016,
            Gaussian, Inc.  All Rights Reserved.
  
 This is part of the Gaussian(R) 16 program.  It is based on
 the Gaussian(R) 09 system (copyright 2009, Gaussian, Inc.),
 the Gaussian(R) 03 system (copyright 2003, Gaussian, Inc.),
 the Gaussian(R) 98 system (copyright 1998, Gaussian, Inc.),
 the Gaussian(R) 94 system (copyright 1995, Gaussian, Inc.),
 the Gaussian 92(TM) system (copyright 1992, Gaussian, Inc.),
 the Gaussian 90(TM) system (copyright 1990, Gaussian, Inc.),
 the Gaussian 88(TM) system (copyright 1988, Gaussian, Inc.),
 the Gaussian 86(TM) system (copyright 1986, Carnegie Mellon
 University), and the Gaussian 82(TM) system (copyright 1983,
 Carnegie Mellon University). Gaussian is a federally registered
 trademark of Gaussian, Inc.
  
 This software contains proprietary and confidential information,
 including trade secrets, belonging to Gaussian, Inc.
  
 This software is provided under written license and may be
 used, copied, transmitted, or stored only in accord with that
 written license.
  
 The following legend is applicable only to US Government
 contracts under FAR:
  
                    RESTRICTED RIGHTS LEGEND
  
 Use, reproduction and disclosure by the US Government is
 subject to restrictions as set forth in subparagraphs (a)
 and (c) of the Commercial Computer Software - Restricted
 Rights clause in FAR 52.227-19.
  
 Gaussian, Inc.
 340 Quinnipiac St., Bldg. 40, Wallingford CT 06492
  
  
 ---------------------------------------------------------------
 Warning -- This program may not be used in any manner that
 competes with the business of Gaussian, Inc. or will provide
 assistance to any competitor of Gaussian, Inc.  The licensee
 of this program is prohibited from giving any competitor of
 Gaussian, Inc. access to this program.  By using this program,
 the user acknowledges that Gaussian, Inc. is engaged in the
 business of creating and licensing software in the field of
 computational chemistry and represents and warrants to the
 licensee that it is not a competitor of Gaussian, Inc. and that
 it will not use this program in any manner prohibited above.
 ---------------------------------------------------------------
  

 Cite this work as:
 Gaussian 16, Revision A.03,
 M. J. Frisch, G. W. Trucks, H. B. Schlegel, G. E. Scuseria, 
 M. A. Robb, J. R. Cheeseman, G. Scalmani, V. Barone, 
 G. A. Petersson, H. Nakatsuji, X. Li, M. Caricato, A. V. Marenich, 
 J. Bloino, B. G. Janesko, R. Gomperts, B. Mennucci, H. P. Hratchian, 
 J. V. Ortiz, A. F. Izmaylov, J. L. Sonnenberg, D. Williams-Young, 
 F. Ding, F. Lipparini, F. Egidi, J. Goings, B. Peng, A. Petrone, 
 T. Henderson, D. Ranasinghe, V. G. Zakrzewski, J. Gao, N. Rega, 
 G. Zheng, W. Liang, M. Hada, M. Ehara, K. Toyota, R. Fukuda, 
 J. Hasegawa, M. Ishida, T. Nakajima, Y. Honda, O. Kitao, H. Nakai, 
 T. Vreven, K. Throssell, J. A. Montgomery, Jr., J. E. Peralta, 
 F. Ogliaro, M. J. Bearpark, J. J. Heyd, E. N. Brothers, K. N. Kudin, 
 V. N. Staroverov, T. A. Keith, R. Kobayashi, J. Normand, 
 K. Raghavachari, A. P. Rendell, J. C. Burant, S. S. Iyengar, 
 J. Tomasi, M. Cossi, J. M. Millam, M. Klene, C. Adamo, R. Cammi, 
 J. W. Ochterski, R. L. Martin, K. Morokuma, O. Farkas, 
 J. B. Foresman, and D. J. Fox, Gaussian, Inc., Wallingford CT, 2016.
 
 ******************************************
 Gaussian 16:  ES64L-G16RevA.03 25-Dec-2016
                14-Oct-2019 
 ******************************************
 %chk=23.chk
 %nprocshared=24
 Will use up to   24 processors via shared memory.
 %mem=80GB
 --------------------------------------------------------------
 #P opt freq b3lyp/6-31g(d) geom=connectivity temperature=0.001
 --------------------------------------------------------------
 1/18=20,19=15,26=3,38=1,57=2,112=-1000/1,3;
 2/9=110,12=2,17=6,18=5,40=1/2;
 3/5=1,6=6,7=1,11=2,25=1,30=1,71=1,74=-5/1,2,3;
 4//1;
 5/5=2,38=5/2;
 6/7=2,8=2,9=2,10=2,28=1/1;
 7//1,2,3,16;
 1/18=20,19=15,26=3/3(2);
 2/9=110/2;
 99//99;
 2/9=110/2;
 3/5=1,6=6,7=1,11=2,25=1,30=1,71=1,74=-5/1,2,3;
 4/5=5,16=3,69=1/1;
 5/5=2,38=5/2;
 7//1,2,3,16;
 1/18=20,19=15,26=3/3(-5);
 2/9=110/2;
 6/7=2,8=2,9=2,10=2,19=2,28=1/1;
 99/9=1/99;
 Leave Link    1 at Mon Oct 14 01:22:52 2019, MaxMem= 10737418240 cpu:               0.9 elap:               0.0
 (Enter /apps/cent7/gaussian/g16-A.03/g16-haswell/g16/l101.exe)
 -------------------
 Title Card Required
 -------------------
 Symbolic Z-matrix:
 Charge =  0 Multiplicity = 1
 O                    -0.872    -1.0507    1.4734 
 S                     0.2655   -0.483     0.4993 
 C                     1.9346   -0.821     1.161 
 C                     2.4174    0.5887    1.5753 
 C                     1.7624    1.6562    0.6532 
 C                     0.2583    1.3433    0.4962 
 O                     0.1191   -1.0621   -0.9867 
 H                     1.8717   -1.3961    2.0848 
 H                     2.6054   -1.1416    0.3639 
 H                     2.0385    0.7655    2.5819 
 H                     3.4899    0.6206    1.3833 
 H                     1.8306    2.6109    1.1748 
 H                     2.2107    1.541    -0.3336 
 H                    -0.2241    1.7291    1.3943 
 H                    -0.0275    1.7266   -0.4834 
 
 ITRead=  0  0  0  0  0  0  0  0  0  0  0  0  0  0  0
 MicOpt= -1 -1 -1 -1 -1 -1 -1 -1 -1 -1 -1 -1 -1 -1 -1
 NAtoms=     15 NQM=       15 NQMF=       0 NMMI=      0 NMMIF=      0
                NMic=       0 NMicF=      0.
                    Isotopes and Nuclear Properties:
 (Nuclear quadrupole moments (NQMom) in fm**2, nuclear magnetic moments (NMagM)
  in nuclear magnetons)

  Atom         1           2           3           4           5           6           7           8           9          10
 IAtWgt=          16          32          12          12          12          12          16           1           1           1
 AtmWgt=  15.9949146  31.9720718  12.0000000  12.0000000  12.0000000  12.0000000  15.9949146   1.0078250   1.0078250   1.0078250
 NucSpn=           0           0           0           0           0           0           0           1           1           1
 AtZEff=  -0.0000000  -0.0000000  -0.0000000  -0.0000000  -0.0000000  -0.0000000  -0.0000000  -0.0000000  -0.0000000  -0.0000000
 NQMom=    0.0000000   0.0000000   0.0000000   0.0000000   0.0000000   0.0000000   0.0000000   0.0000000   0.0000000   0.0000000
 NMagM=    0.0000000   0.0000000   0.0000000   0.0000000   0.0000000   0.0000000   0.0000000   2.7928460   2.7928460   2.7928460
 AtZNuc=   8.0000000  16.0000000   6.0000000   6.0000000   6.0000000   6.0000000   8.0000000   1.0000000   1.0000000   1.0000000

  Atom        11          12          13          14          15
 IAtWgt=           1           1           1           1           1
 AtmWgt=   1.0078250   1.0078250   1.0078250   1.0078250   1.0078250
 NucSpn=           1           1           1           1           1
 AtZEff=  -0.0000000  -0.0000000  -0.0000000  -0.0000000  -0.0000000
 NQMom=    0.0000000   0.0000000   0.0000000   0.0000000   0.0000000
 NMagM=    2.7928460   2.7928460   2.7928460   2.7928460   2.7928460
 AtZNuc=   1.0000000   1.0000000   1.0000000   1.0000000   1.0000000
 Leave Link  101 at Mon Oct 14 01:22:52 2019, MaxMem= 10737418240 cpu:               8.3 elap:               0.4
 (Enter /apps/cent7/gaussian/g16-A.03/g16-haswell/g16/l103.exe)

 GradGradGradGradGradGradGradGradGradGradGradGradGradGradGradGradGradGrad
 Berny optimization.
 Initialization pass.
                           ----------------------------
                           !    Initial Parameters    !
                           ! (Angstroms and Degrees)  !
 --------------------------                            --------------------------
 ! Name  Definition              Value          Derivative Info.                !
 --------------------------------------------------------------------------------
 ! R1    R(1,2)                  1.6016         estimate D2E/DX2                !
 ! R2    R(2,3)                  1.827          estimate D2E/DX2                !
 ! R3    R(2,6)                  1.8263         estimate D2E/DX2                !
 ! R4    R(2,7)                  1.6016         estimate D2E/DX2                !
 ! R5    R(3,4)                  1.5466         estimate D2E/DX2                !
 ! R6    R(3,8)                  1.09           estimate D2E/DX2                !
 ! R7    R(3,9)                  1.09           estimate D2E/DX2                !
 ! R8    R(4,5)                  1.5553         estimate D2E/DX2                !
 ! R9    R(4,10)                 1.09           estimate D2E/DX2                !
 ! R10   R(4,11)                 1.09           estimate D2E/DX2                !
 ! R11   R(5,6)                  1.5443         estimate D2E/DX2                !
 ! R12   R(5,12)                 1.09           estimate D2E/DX2                !
 ! R13   R(5,13)                 1.09           estimate D2E/DX2                !
 ! R14   R(6,14)                 1.09           estimate D2E/DX2                !
 ! R15   R(6,15)                 1.0901         estimate D2E/DX2                !
 ! A1    A(1,2,3)              111.2841         estimate D2E/DX2                !
 ! A2    A(1,2,6)              110.652          estimate D2E/DX2                !
 ! A3    A(1,2,7)              111.7918         estimate D2E/DX2                !
 ! A4    A(3,2,6)              100.907          estimate D2E/DX2                !
 ! A5    A(3,2,7)              110.6501         estimate D2E/DX2                !
 ! A6    A(6,2,7)              111.0785         estimate D2E/DX2                !
 ! A7    A(2,3,4)              102.3322         estimate D2E/DX2                !
 ! A8    A(2,3,8)              110.6            estimate D2E/DX2                !
 ! A9    A(2,3,9)              110.5961         estimate D2E/DX2                !
 ! A10   A(4,3,8)              105.7769         estimate D2E/DX2                !
 ! A11   A(4,3,9)              105.7757         estimate D2E/DX2                !
 ! A12   A(8,3,9)              120.0067         estimate D2E/DX2                !
 ! A13   A(3,4,5)              109.5925         estimate D2E/DX2                !
 ! A14   A(3,4,10)             106.6613         estimate D2E/DX2                !
 ! A15   A(3,4,11)             106.6569         estimate D2E/DX2                !
 ! A16   A(5,4,10)             106.8459         estimate D2E/DX2                !
 ! A17   A(5,4,11)             106.8496         estimate D2E/DX2                !
 ! A18   A(10,4,11)            119.997          estimate D2E/DX2                !
 ! A19   A(4,5,6)              109.3532         estimate D2E/DX2                !
 ! A20   A(4,5,12)             106.924          estimate D2E/DX2                !
 ! A21   A(4,5,13)             106.9185         estimate D2E/DX2                !
 ! A22   A(6,5,12)             106.6812         estimate D2E/DX2                !
 ! A23   A(6,5,13)             106.6865         estimate D2E/DX2                !
 ! A24   A(12,5,13)            120.0042         estimate D2E/DX2                !
 ! A25   A(2,6,5)              101.4552         estimate D2E/DX2                !
 ! A26   A(2,6,14)             110.7495         estimate D2E/DX2                !
 ! A27   A(2,6,15)             110.7438         estimate D2E/DX2                !
 ! A28   A(5,6,14)             105.9956         estimate D2E/DX2                !
 ! A29   A(5,6,15)             105.9906         estimate D2E/DX2                !
 ! A30   A(14,6,15)            119.9969         estimate D2E/DX2                !
 ! D1    D(1,2,3,4)           -109.5322         estimate D2E/DX2                !
 ! D2    D(1,2,3,8)              2.7705         estimate D2E/DX2                !
 ! D3    D(1,2,3,9)            138.168          estimate D2E/DX2                !
 ! D4    D(6,2,3,4)              7.8897         estimate D2E/DX2                !
 ! D5    D(6,2,3,8)            120.1925         estimate D2E/DX2                !
 ! D6    D(6,2,3,9)           -104.4101         estimate D2E/DX2                !
 ! D7    D(7,2,3,4)            125.5374         estimate D2E/DX2                !
 ! D8    D(7,2,3,8)           -122.1599         estimate D2E/DX2                !
 ! D9    D(7,2,3,9)             13.2376         estimate D2E/DX2                !
 ! D10   D(1,2,6,5)            133.5342         estimate D2E/DX2                !
 ! D11   D(1,2,6,14)            21.3593         estimate D2E/DX2                !
 ! D12   D(1,2,6,15)          -114.2986         estimate D2E/DX2                !
 ! D13   D(3,2,6,5)             15.65           estimate D2E/DX2                !
 ! D14   D(3,2,6,14)           -96.5249         estimate D2E/DX2                !
 ! D15   D(3,2,6,15)           127.8172         estimate D2E/DX2                !
 ! D16   D(7,2,6,5)           -101.6838         estimate D2E/DX2                !
 ! D17   D(7,2,6,14)           146.1412         estimate D2E/DX2                !
 ! D18   D(7,2,6,15)            10.4834         estimate D2E/DX2                !
 ! D19   D(2,3,4,5)            -29.8727         estimate D2E/DX2                !
 ! D20   D(2,3,4,10)            85.4436         estimate D2E/DX2                !
 ! D21   D(2,3,4,11)          -145.1909         estimate D2E/DX2                !
 ! D22   D(8,3,4,5)           -145.7229         estimate D2E/DX2                !
 ! D23   D(8,3,4,10)           -30.4066         estimate D2E/DX2                !
 ! D24   D(8,3,4,11)            98.9589         estimate D2E/DX2                !
 ! D25   D(9,3,4,5)             85.9727         estimate D2E/DX2                !
 ! D26   D(9,3,4,10)          -158.711          estimate D2E/DX2                !
 ! D27   D(9,3,4,11)           -29.3455         estimate D2E/DX2                !
 ! D28   D(3,4,5,6)             45.1316         estimate D2E/DX2                !
 ! D29   D(3,4,5,12)           160.275          estimate D2E/DX2                !
 ! D30   D(3,4,5,13)           -70.0151         estimate D2E/DX2                !
 ! D31   D(10,4,5,6)           -70.0669         estimate D2E/DX2                !
 ! D32   D(10,4,5,12)           45.0765         estimate D2E/DX2                !
 ! D33   D(10,4,5,13)          174.7864         estimate D2E/DX2                !
 ! D34   D(11,4,5,6)           160.3268         estimate D2E/DX2                !
 ! D35   D(11,4,5,12)          -84.5298         estimate D2E/DX2                !
 ! D36   D(11,4,5,13)           45.1802         estimate D2E/DX2                !
 ! D37   D(4,5,6,2)            -35.2816         estimate D2E/DX2                !
 ! D38   D(4,5,6,14)            80.4484         estimate D2E/DX2                !
 ! D39   D(4,5,6,15)          -151.0036         estimate D2E/DX2                !
 ! D40   D(12,5,6,2)          -150.5807         estimate D2E/DX2                !
 ! D41   D(12,5,6,14)          -34.8507         estimate D2E/DX2                !
 ! D42   D(12,5,6,15)           93.6974         estimate D2E/DX2                !
 ! D43   D(13,5,6,2)            80.0137         estimate D2E/DX2                !
 ! D44   D(13,5,6,14)         -164.2562         estimate D2E/DX2                !
 ! D45   D(13,5,6,15)          -35.7082         estimate D2E/DX2                !
 --------------------------------------------------------------------------------
 Trust Radius=3.00D-01 FncErr=1.00D-07 GrdErr=1.00D-06 EigMax=2.50D+02 EigMin=1.00D-04
 Number of steps in this run=    100 maximum allowed number of steps=    100.
 GradGradGradGradGradGradGradGradGradGradGradGradGradGradGradGradGradGrad

 Leave Link  103 at Mon Oct 14 01:22:52 2019, MaxMem= 10737418240 cpu:               0.2 elap:               0.0
 (Enter /apps/cent7/gaussian/g16-A.03/g16-haswell/g16/l202.exe)
                          Input orientation:                          
 ---------------------------------------------------------------------
 Center     Atomic      Atomic             Coordinates (Angstroms)
 Number     Number       Type             X           Y           Z
 ---------------------------------------------------------------------
      1          8           0       -0.872000   -1.050700    1.473400
      2         16           0        0.265500   -0.483000    0.499300
      3          6           0        1.934600   -0.821000    1.161000
      4          6           0        2.417400    0.588700    1.575300
      5          6           0        1.762400    1.656200    0.653200
      6          6           0        0.258300    1.343300    0.496200
      7          8           0        0.119100   -1.062100   -0.986700
      8          1           0        1.871700   -1.396100    2.084800
      9          1           0        2.605400   -1.141600    0.363900
     10          1           0        2.038500    0.765500    2.581900
     11          1           0        3.489900    0.620600    1.383300
     12          1           0        1.830600    2.610900    1.174800
     13          1           0        2.210700    1.541000   -0.333600
     14          1           0       -0.224100    1.729100    1.394300
     15          1           0       -0.027500    1.726600   -0.483400
 ---------------------------------------------------------------------
                    Distance matrix (angstroms):
                    1          2          3          4          5
     1  O    0.000000
     2  S    1.601581   0.000000
     3  C    2.833260   1.827016   0.000000
     4  C    3.676706   2.633817   1.546607   0.000000
     5  C    3.865242   2.615449   2.534568   1.555265   0.000000
     6  C    2.822009   1.826317   2.817115   2.528951   1.544303
     7  O    2.652263   1.601557   2.822549   3.817220   3.574753
     8  H    2.832137   2.434634   1.090001   2.120568   3.373123
     9  H    3.651241   2.434588   1.090012   2.120559   2.936329
    10  H    3.605325   3.006577   2.132307   1.089985   2.142303
    11  H    4.671995   3.520816   2.132272   1.090017   2.142375
    12  H    4.560759   3.532429   3.433503   2.143368   1.090032
    13  H    4.414204   2.928157   2.808755   2.143245   1.089962
    14  H    2.855402   2.436005   3.349242   2.882845   2.121491
    15  H    3.500806   2.435956   3.611669   3.392727   2.121452
                    6          7          8          9         10
     6  C    0.000000
     7  O    2.829190   0.000000
     8  H    3.554015   3.552080   0.000000
     9  H    3.420688   2.830570   1.888010   0.000000
    10  H    2.802340   4.445124   2.224285   2.979586   0.000000
    11  H    3.428189   4.450918   2.679133   2.219654   1.887909
    12  H    2.130595   4.592629   4.109238   3.916520   2.329947
    13  H    2.130615   3.402567   3.819704   2.799757   3.021786
    14  H    1.090016   3.684799   3.825708   4.160374   2.730985
    15  H    1.090054   2.837543   4.466975   3.984552   3.819441
                   11         12         13         14         15
    11  H    0.000000
    12  H    2.599624   0.000000
    13  H    2.330501   1.887970   0.000000
    14  H    3.875911   2.246674   2.991533   0.000000
    15  H    4.132784   2.642754   2.250872   1.887966   0.000000
 Stoichiometry    C4H8O2S
 Framework group  C1[X(C4H8O2S)]
 Deg. of freedom    39
 Full point group                 C1      NOp   1
 Largest Abelian subgroup         C1      NOp   1
 Largest concise Abelian subgroup C1      NOp   1
                         Standard orientation:                         
 ---------------------------------------------------------------------
 Center     Atomic      Atomic             Coordinates (Angstroms)
 Number     Number       Type             X           Y           Z
 ---------------------------------------------------------------------
      1          8           0       -1.664069    0.312789   -1.251360
      2         16           0       -0.715600    0.002042    0.001199
      3          6           0        0.449404    1.375632    0.307792
      4          6           0        1.803926    0.760599   -0.115292
      5          6           0        1.778435   -0.775131    0.129109
      6          6           0        0.443896   -1.353801   -0.389561
      7          8           0       -1.561790   -0.326053    1.320783
      8          1           0        0.266556    2.195786   -0.386483
      9          1           0        0.535042    1.574570    1.376069
     10          1           0        1.891330    0.907730   -1.191759
     11          1           0        2.557818    1.174621    0.554312
     12          1           0        2.567254   -1.207541   -0.486486
     13          1           0        1.785832   -0.924663    1.208741
     14          1           0        0.562266   -1.462020   -1.467713
     15          1           0        0.236414   -2.228834    0.226463
 ---------------------------------------------------------------------
 Rotational constants (GHZ):           3.4808087           1.9059747           1.7870883
 Leave Link  202 at Mon Oct 14 01:22:52 2019, MaxMem= 10737418240 cpu:               0.5 elap:               0.0
 (Enter /apps/cent7/gaussian/g16-A.03/g16-haswell/g16/l301.exe)
 Standard basis: 6-31G(d) (6D, 7F)
 Ernie: Thresh=  0.10000D-02 Tol=  0.10000D-05 Strict=F.
 There are   125 symmetry adapted cartesian basis functions of A   symmetry.
 There are   125 symmetry adapted basis functions of A   symmetry.
   125 basis functions,   252 primitive gaussians,   125 cartesian basis functions
    32 alpha electrons       32 beta electrons
       nuclear repulsion energy       415.0693172630 Hartrees.
 IExCor=  402 DFT=T Ex+Corr=B3LYP ExCW=0 ScaHFX=  0.200000
 ScaDFX=  0.800000  0.720000  1.000000  0.810000 ScalE2=  1.000000  1.000000
 IRadAn=      5 IRanWt=     -1 IRanGd=            0 ICorTp=0 IEmpDi=  4
 NAtoms=   15 NActive=   15 NUniq=   15 SFac= 1.00D+00 NAtFMM=   60 NAOKFM=F Big=F
 Integral buffers will be    131072 words long.
 Raffenetti 2 integral format.
 Two-electron integral symmetry is turned on.
 Leave Link  301 at Mon Oct 14 01:22:52 2019, MaxMem= 10737418240 cpu:               1.3 elap:               0.1
 (Enter /apps/cent7/gaussian/g16-A.03/g16-haswell/g16/l302.exe)
 NPDir=0 NMtPBC=     1 NCelOv=     1 NCel=       1 NClECP=     1 NCelD=      1
         NCelK=      1 NCelE2=     1 NClLst=     1 CellRange=     0.0.
 One-electron integrals computed using PRISM.
 One-electron integral symmetry used in STVInt
 NBasis=   125 RedAO= T EigKep=  3.42D-03  NBF=   125
 NBsUse=   125 1.00D-06 EigRej= -1.00D+00 NBFU=   125
 Precomputing XC quadrature grid using
 IXCGrd= 4 IRadAn=           5 IRanWt=          -1 IRanGd=           0 AccXCQ= 0.00D+00.
 Generated NRdTot=       0 NPtTot=           0 NUsed=           0 NTot=          32
 NSgBfM=   125   125   125   125   125 MxSgAt=    15 MxSgA2=    15.
 Leave Link  302 at Mon Oct 14 01:22:53 2019, MaxMem= 10737418240 cpu:               3.3 elap:               0.2
 (Enter /apps/cent7/gaussian/g16-A.03/g16-haswell/g16/l303.exe)
 DipDrv:  MaxL=1.
 Leave Link  303 at Mon Oct 14 01:22:53 2019, MaxMem= 10737418240 cpu:               1.0 elap:               0.1
 (Enter /apps/cent7/gaussian/g16-A.03/g16-haswell/g16/l401.exe)
 ExpMin= 1.17D-01 ExpMax= 2.19D+04 ExpMxC= 3.30D+03 IAcc=3 IRadAn=         5 AccDes= 0.00D+00
 Harris functional with IExCor=  402 and IRadAn=       5 diagonalized for initial guess.
 HarFok:  IExCor=  402 AccDes= 0.00D+00 IRadAn=         5 IDoV= 1 UseB2=F ITyADJ=14
 ICtDFT=  3500011 ScaDFX=  1.000000  1.000000  1.000000  1.000000
 FoFCou: FMM=F IPFlag=           0 FMFlag=      100000 FMFlg1=           0
         NFxFlg=           0 DoJE=T BraDBF=F KetDBF=T FulRan=T
         wScrn=  0.000000 ICntrl=       500 IOpCl=  0 I1Cent=   200000004 NGrid=           0
         NMat0=    1 NMatS0=      1 NMatT0=    0 NMatD0=    1 NMtDS0=    0 NMtDT0=    0
 Petite list used in FoFCou.
 Harris En= -705.856229298654    
 JPrj=0 DoOrth=F DoCkMO=F.
 Leave Link  401 at Mon Oct 14 01:22:53 2019, MaxMem= 10737418240 cpu:               5.9 elap:               0.3
 (Enter /apps/cent7/gaussian/g16-A.03/g16-haswell/g16/l502.exe)
 Integral symmetry usage will be decided dynamically.
 Closed shell SCF:
 Using DIIS extrapolation, IDIIS=  1040.
 NGot= 10737418240 LenX= 10737382433 LenY= 10737366367
 Requested convergence on RMS density matrix=1.00D-08 within 128 cycles.
 Requested convergence on MAX density matrix=1.00D-06.
 Requested convergence on             energy=1.00D-06.
 No special actions if energy rises.
 Fock matrices will be formed incrementally for  20 cycles.
 Integral accuracy reduced to 1.0D-05 until final iterations.

 Cycle   1  Pass 0  IDiag  1:
 FoFJK:  IHMeth= 1 ICntrl=       0 DoSepK=F KAlg= 0 I1Cent=           0 FoldK=F
 IRaf= 980000000 NMat=       1 IRICut=       1 DoRegI=T DoRafI=F ISym2E= 0 IDoP0=0 IntGTp=1.
 FoFCou: FMM=F IPFlag=           0 FMFlag=      100000 FMFlg1=           0
         NFxFlg=           0 DoJE=F BraDBF=F KetDBF=F FulRan=T
         wScrn=  0.000000 ICntrl=         0 IOpCl=  0 I1Cent=           0 NGrid=           0
         NMat0=    1 NMatS0=      1 NMatT0=    0 NMatD0=    1 NMtDS0=    0 NMtDT0=    0
 Symmetry not used in FoFCou.
 E= -705.362093922186    
 DIIS: error= 4.62D-02 at cycle   1 NSaved=   1.
 NSaved= 1 IEnMin= 1 EnMin= -705.362093922186     IErMin= 1 ErrMin= 4.62D-02
 ErrMax= 4.62D-02  0.00D+00 EMaxC= 1.00D-01 BMatC= 4.65D-01 BMatP= 4.65D-01
 IDIUse=3 WtCom= 5.38D-01 WtEn= 4.62D-01
 Coeff-Com:  0.100D+01
 Coeff-En:   0.100D+01
 Coeff:      0.100D+01
 Gap=     0.209 Goal=   None    Shift=    0.000
 GapD=    0.209 DampG=1.000 DampE=0.500 DampFc=0.5000 IDamp=-1.
 Damping current iteration by 5.00D-01
 RMSDP=1.83D-02 MaxDP=6.13D-01              OVMax= 3.55D-01

 Cycle   2  Pass 0  IDiag  1:
 RMSU=  9.16D-03    CP:  1.01D+00
 E= -705.319412345471     Delta-E=        0.042681576715 Rises=F Damp=T
 DIIS: error= 2.66D-02 at cycle   2 NSaved=   2.
 NSaved= 2 IEnMin= 1 EnMin= -705.362093922186     IErMin= 2 ErrMin= 2.66D-02
 ErrMax= 2.66D-02  0.00D+00 EMaxC= 1.00D-01 BMatC= 1.67D-01 BMatP= 4.65D-01
 IDIUse=3 WtCom= 7.34D-01 WtEn= 2.66D-01
 Coeff-Com:  0.354D+00 0.646D+00
 Coeff-En:   0.535D+00 0.465D+00
 Coeff:      0.402D+00 0.598D+00
 Gap=     0.292 Goal=   None    Shift=    0.000
 RMSDP=5.96D-03 MaxDP=1.29D-01 DE= 4.27D-02 OVMax= 3.24D-01

 Cycle   3  Pass 0  IDiag  1:
 RMSU=  3.71D-03    CP:  1.00D+00  4.94D-01
 E= -705.712185275847     Delta-E=       -0.392772930376 Rises=F Damp=F
 DIIS: error= 2.02D-02 at cycle   3 NSaved=   3.
 NSaved= 3 IEnMin= 3 EnMin= -705.712185275847     IErMin= 3 ErrMin= 2.02D-02
 ErrMax= 2.02D-02  0.00D+00 EMaxC= 1.00D-01 BMatC= 5.28D-02 BMatP= 1.67D-01
 IDIUse=3 WtCom= 7.98D-01 WtEn= 2.02D-01
 Coeff-Com:  0.179D+00 0.363D+00 0.459D+00
 Coeff-En:   0.000D+00 0.000D+00 0.100D+01
 Coeff:      0.143D+00 0.289D+00 0.568D+00
 Gap=     0.281 Goal=   None    Shift=    0.000
 RMSDP=2.98D-03 MaxDP=4.59D-02 DE=-3.93D-01 OVMax= 8.12D-02

 Cycle   4  Pass 0  IDiag  1:
 RMSU=  1.62D-03    CP:  1.01D+00  5.90D-01  3.77D-01
 E= -705.758071561824     Delta-E=       -0.045886285976 Rises=F Damp=F
 DIIS: error= 7.01D-03 at cycle   4 NSaved=   4.
 NSaved= 4 IEnMin= 4 EnMin= -705.758071561824     IErMin= 4 ErrMin= 7.01D-03
 ErrMax= 7.01D-03  0.00D+00 EMaxC= 1.00D-01 BMatC= 1.00D-02 BMatP= 5.28D-02
 IDIUse=3 WtCom= 9.30D-01 WtEn= 7.01D-02
 Coeff-Com:  0.210D-01 0.167D-01 0.301D+00 0.661D+00
 Coeff-En:   0.000D+00 0.000D+00 0.156D+00 0.844D+00
 Coeff:      0.196D-01 0.156D-01 0.291D+00 0.674D+00
 Gap=     0.268 Goal=   None    Shift=    0.000
 RMSDP=9.47D-04 MaxDP=1.65D-02 DE=-4.59D-02 OVMax= 2.65D-02

 Cycle   5  Pass 0  IDiag  1:
 RMSU=  2.61D-04    CP:  1.01D+00  5.54D-01  5.60D-01  6.87D-01
 E= -705.767521250994     Delta-E=       -0.009449689171 Rises=F Damp=F
 DIIS: error= 8.33D-04 at cycle   5 NSaved=   5.
 NSaved= 5 IEnMin= 5 EnMin= -705.767521250994     IErMin= 5 ErrMin= 8.33D-04
 ErrMax= 8.33D-04  0.00D+00 EMaxC= 1.00D-01 BMatC= 1.20D-04 BMatP= 1.00D-02
 IDIUse=3 WtCom= 9.92D-01 WtEn= 8.33D-03
 Coeff-Com:  0.259D-02-0.418D-02 0.926D-01 0.252D+00 0.657D+00
 Coeff-En:   0.000D+00 0.000D+00 0.000D+00 0.000D+00 0.100D+01
 Coeff:      0.257D-02-0.414D-02 0.918D-01 0.250D+00 0.659D+00
 Gap=     0.266 Goal=   None    Shift=    0.000
 RMSDP=1.42D-04 MaxDP=5.39D-03 DE=-9.45D-03 OVMax= 2.90D-03

 Cycle   6  Pass 0  IDiag  1:
 RMSU=  8.15D-05    CP:  1.01D+00  5.56D-01  5.51D-01  7.27D-01  6.61D-01
 E= -705.767616167164     Delta-E=       -0.000094916170 Rises=F Damp=F
 DIIS: error= 2.95D-04 at cycle   6 NSaved=   6.
 NSaved= 6 IEnMin= 6 EnMin= -705.767616167164     IErMin= 6 ErrMin= 2.95D-04
 ErrMax= 2.95D-04  0.00D+00 EMaxC= 1.00D-01 BMatC= 1.84D-05 BMatP= 1.20D-04
 IDIUse=3 WtCom= 9.97D-01 WtEn= 2.95D-03
 Coeff-Com:  0.609D-03-0.343D-02 0.304D-01 0.877D-01 0.341D+00 0.543D+00
 Coeff-En:   0.000D+00 0.000D+00 0.000D+00 0.000D+00 0.140D-01 0.986D+00
 Coeff:      0.607D-03-0.342D-02 0.304D-01 0.874D-01 0.340D+00 0.545D+00
 Gap=     0.267 Goal=   None    Shift=    0.000
 RMSDP=5.55D-05 MaxDP=1.09D-03 DE=-9.49D-05 OVMax= 1.80D-03

 Cycle   7  Pass 0  IDiag  1:
 RMSU=  4.00D-05    CP:  1.01D+00  5.55D-01  5.54D-01  7.22D-01  7.14D-01
                    CP:  6.12D-01
 E= -705.767625168475     Delta-E=       -0.000009001311 Rises=F Damp=F
 DIIS: error= 2.61D-04 at cycle   7 NSaved=   7.
 NSaved= 7 IEnMin= 7 EnMin= -705.767625168475     IErMin= 7 ErrMin= 2.61D-04
 ErrMax= 2.61D-04  0.00D+00 EMaxC= 1.00D-01 BMatC= 9.09D-06 BMatP= 1.84D-05
 IDIUse=3 WtCom= 9.97D-01 WtEn= 2.61D-03
 Coeff-Com:  0.130D-03-0.206D-02 0.837D-02 0.258D-01 0.157D+00 0.422D+00
 Coeff-Com:  0.389D+00
 Coeff-En:   0.000D+00 0.000D+00 0.000D+00 0.000D+00 0.000D+00 0.324D+00
 Coeff-En:   0.676D+00
 Coeff:      0.130D-03-0.206D-02 0.835D-02 0.257D-01 0.156D+00 0.422D+00
 Coeff:      0.390D+00
 Gap=     0.267 Goal=   None    Shift=    0.000
 RMSDP=2.72D-05 MaxDP=5.40D-04 DE=-9.00D-06 OVMax= 9.38D-04

 Cycle   8  Pass 0  IDiag  1:
 RMSU=  1.26D-05    CP:  1.01D+00  5.54D-01  5.54D-01  7.20D-01  7.21D-01
                    CP:  7.07D-01  4.47D-01
 E= -705.767632471559     Delta-E=       -0.000007303084 Rises=F Damp=F
 DIIS: error= 3.28D-05 at cycle   8 NSaved=   8.
 NSaved= 8 IEnMin= 8 EnMin= -705.767632471559     IErMin= 8 ErrMin= 3.28D-05
 ErrMax= 3.28D-05  0.00D+00 EMaxC= 1.00D-01 BMatC= 2.35D-07 BMatP= 9.09D-06
 IDIUse=1 WtCom= 1.00D+00 WtEn= 0.00D+00
 Coeff-Com:  0.204D-04-0.417D-03-0.592D-03-0.116D-02 0.196D-01 0.115D+00
 Coeff-Com:  0.186D+00 0.681D+00
 Coeff:      0.204D-04-0.417D-03-0.592D-03-0.116D-02 0.196D-01 0.115D+00
 Coeff:      0.186D+00 0.681D+00
 Gap=     0.267 Goal=   None    Shift=    0.000
 RMSDP=4.62D-06 MaxDP=7.49D-05 DE=-7.30D-06 OVMax= 1.32D-04

 Initial convergence to 1.0D-05 achieved.  Increase integral accuracy.
 Cycle   9  Pass 1  IDiag  1:
 E= -705.767649805814     Delta-E=       -0.000017334255 Rises=F Damp=F
 DIIS: error= 1.13D-05 at cycle   1 NSaved=   1.
 NSaved= 1 IEnMin= 1 EnMin= -705.767649805814     IErMin= 1 ErrMin= 1.13D-05
 ErrMax= 1.13D-05  0.00D+00 EMaxC= 1.00D-01 BMatC= 1.61D-08 BMatP= 1.61D-08
 IDIUse=1 WtCom= 1.00D+00 WtEn= 0.00D+00
 Coeff-Com:  0.100D+01
 Coeff:      0.100D+01
 Gap=     0.267 Goal=   None    Shift=    0.000
 RMSDP=4.62D-06 MaxDP=7.49D-05 DE=-1.73D-05 OVMax= 5.94D-05

 Cycle  10  Pass 1  IDiag  1:
 RMSU=  3.50D-06    CP:  1.00D+00
 E= -705.767649798001     Delta-E=        0.000000007814 Rises=F Damp=F
 DIIS: error= 1.02D-05 at cycle   2 NSaved=   2.
 NSaved= 2 IEnMin= 1 EnMin= -705.767649805814     IErMin= 2 ErrMin= 1.02D-05
 ErrMax= 1.02D-05  0.00D+00 EMaxC= 1.00D-01 BMatC= 2.69D-08 BMatP= 1.61D-08
 IDIUse=1 WtCom= 1.00D+00 WtEn= 0.00D+00
 Coeff-Com:  0.574D+00 0.426D+00
 Coeff:      0.574D+00 0.426D+00
 Gap=     0.267 Goal=   None    Shift=    0.000
 RMSDP=1.74D-06 MaxDP=3.50D-05 DE= 7.81D-09 OVMax= 5.03D-05

 Cycle  11  Pass 1  IDiag  1:
 RMSU=  1.20D-06    CP:  1.00D+00  6.45D-01
 E= -705.767649819357     Delta-E=       -0.000000021356 Rises=F Damp=F
 DIIS: error= 4.23D-06 at cycle   3 NSaved=   3.
 NSaved= 3 IEnMin= 3 EnMin= -705.767649819357     IErMin= 3 ErrMin= 4.23D-06
 ErrMax= 4.23D-06  0.00D+00 EMaxC= 1.00D-01 BMatC= 3.27D-09 BMatP= 1.61D-08
 IDIUse=1 WtCom= 1.00D+00 WtEn= 0.00D+00
 Coeff-Com:  0.193D+00 0.262D+00 0.545D+00
 Coeff:      0.193D+00 0.262D+00 0.545D+00
 Gap=     0.267 Goal=   None    Shift=    0.000
 RMSDP=6.13D-07 MaxDP=1.68D-05 DE=-2.14D-08 OVMax= 1.72D-05

 Cycle  12  Pass 1  IDiag  1:
 RMSU=  3.99D-07    CP:  1.00D+00  7.31D-01  7.22D-01
 E= -705.767649821417     Delta-E=       -0.000000002060 Rises=F Damp=F
 DIIS: error= 1.49D-06 at cycle   4 NSaved=   4.
 NSaved= 4 IEnMin= 4 EnMin= -705.767649821417     IErMin= 4 ErrMin= 1.49D-06
 ErrMax= 1.49D-06  0.00D+00 EMaxC= 1.00D-01 BMatC= 6.38D-10 BMatP= 3.27D-09
 IDIUse=1 WtCom= 1.00D+00 WtEn= 0.00D+00
 Coeff-Com:  0.509D-02 0.813D-01 0.354D+00 0.560D+00
 Coeff:      0.509D-02 0.813D-01 0.354D+00 0.560D+00
 Gap=     0.267 Goal=   None    Shift=    0.000
 RMSDP=2.24D-07 MaxDP=6.01D-06 DE=-2.06D-09 OVMax= 6.13D-06

 Cycle  13  Pass 1  IDiag  1:
 RMSU=  9.14D-08    CP:  1.00D+00  7.22D-01  8.02D-01  5.63D-01
 E= -705.767649821935     Delta-E=       -0.000000000518 Rises=F Damp=F
 DIIS: error= 4.92D-07 at cycle   5 NSaved=   5.
 NSaved= 5 IEnMin= 5 EnMin= -705.767649821935     IErMin= 5 ErrMin= 4.92D-07
 ErrMax= 4.92D-07  0.00D+00 EMaxC= 1.00D-01 BMatC= 4.40D-11 BMatP= 6.38D-10
 IDIUse=1 WtCom= 1.00D+00 WtEn= 0.00D+00
 Coeff-Com: -0.453D-02 0.413D-01 0.197D+00 0.349D+00 0.417D+00
 Coeff:     -0.453D-02 0.413D-01 0.197D+00 0.349D+00 0.417D+00
 Gap=     0.267 Goal=   None    Shift=    0.000
 RMSDP=7.14D-08 MaxDP=1.47D-06 DE=-5.18D-10 OVMax= 2.49D-06

 Cycle  14  Pass 1  IDiag  1:
 RMSU=  4.85D-08    CP:  1.00D+00  7.22D-01  7.98D-01  5.97D-01  4.50D-01
 E= -705.767649821965     Delta-E=       -0.000000000030 Rises=F Damp=F
 DIIS: error= 2.07D-07 at cycle   6 NSaved=   6.
 NSaved= 6 IEnMin= 6 EnMin= -705.767649821965     IErMin= 6 ErrMin= 2.07D-07
 ErrMax= 2.07D-07  0.00D+00 EMaxC= 1.00D-01 BMatC= 9.44D-12 BMatP= 4.40D-11
 IDIUse=1 WtCom= 1.00D+00 WtEn= 0.00D+00
 Coeff-Com: -0.369D-02 0.150D-01 0.715D-01 0.145D+00 0.316D+00 0.456D+00
 Coeff:     -0.369D-02 0.150D-01 0.715D-01 0.145D+00 0.316D+00 0.456D+00
 Gap=     0.267 Goal=   None    Shift=    0.000
 RMSDP=2.62D-08 MaxDP=5.56D-07 DE=-2.98D-11 OVMax= 7.56D-07

 Cycle  15  Pass 1  IDiag  1:
 RMSU=  1.01D-08    CP:  1.00D+00  7.24D-01  7.99D-01  5.95D-01  5.55D-01
                    CP:  5.75D-01
 E= -705.767649821977     Delta-E=       -0.000000000012 Rises=F Damp=F
 DIIS: error= 2.20D-08 at cycle   7 NSaved=   7.
 NSaved= 7 IEnMin= 7 EnMin= -705.767649821977     IErMin= 7 ErrMin= 2.20D-08
 ErrMax= 2.20D-08  0.00D+00 EMaxC= 1.00D-01 BMatC= 7.31D-14 BMatP= 9.44D-12
 IDIUse=1 WtCom= 1.00D+00 WtEn= 0.00D+00
 Coeff-Com: -0.547D-03 0.912D-03 0.833D-03 0.909D-02 0.434D-01 0.830D-01
 Coeff-Com:  0.863D+00
 Coeff:     -0.547D-03 0.912D-03 0.833D-03 0.909D-02 0.434D-01 0.830D-01
 Coeff:      0.863D+00
 Gap=     0.267 Goal=   None    Shift=    0.000
 RMSDP=3.48D-09 MaxDP=1.06D-07 DE=-1.21D-11 OVMax= 8.28D-08

 SCF Done:  E(RB3LYP) =  -705.767649822     A.U. after   15 cycles
            NFock= 15  Conv=0.35D-08     -V/T= 2.0066
 KE= 7.011152487291D+02 PE=-2.492458819309D+03 EE= 6.705066034954D+02
 Leave Link  502 at Mon Oct 14 01:22:55 2019, MaxMem= 10737418240 cpu:              53.7 elap:               2.3
 (Enter /apps/cent7/gaussian/g16-A.03/g16-haswell/g16/l601.exe)
 Copying SCF densities to generalized density rwf, IOpCl= 0 IROHF=0.

 **********************************************************************

            Population analysis using the SCF density.

 **********************************************************************

 Orbital symmetries:
       Occupied  (A) (A) (A) (A) (A) (A) (A) (A) (A) (A) (A) (A)
                 (A) (A) (A) (A) (A) (A) (A) (A) (A) (A) (A) (A)
                 (A) (A) (A) (A) (A) (A) (A) (A)
       Virtual   (A) (A) (A) (A) (A) (A) (A) (A) (A) (A) (A) (A)
                 (A) (A) (A) (A) (A) (A) (A) (A) (A) (A) (A) (A)
                 (A) (A) (A) (A) (A) (A) (A) (A) (A) (A) (A) (A)
                 (A) (A) (A) (A) (A) (A) (A) (A) (A) (A) (A) (A)
                 (A) (A) (A) (A) (A) (A) (A) (A) (A) (A) (A) (A)
                 (A) (A) (A) (A) (A) (A) (A) (A) (A) (A) (A) (A)
                 (A) (A) (A) (A) (A) (A) (A) (A) (A) (A) (A) (A)
                 (A) (A) (A) (A) (A) (A) (A) (A) (A)
 The electronic state is 1-A.
 Alpha  occ. eigenvalues --  -89.08232 -19.12652 -19.12529 -10.24565 -10.24554
 Alpha  occ. eigenvalues --  -10.22878 -10.22832  -8.11341  -6.07682  -6.07681
 Alpha  occ. eigenvalues --   -6.07674  -1.02099  -0.92091  -0.87116  -0.78057
 Alpha  occ. eigenvalues --   -0.73221  -0.61299  -0.60823  -0.54439  -0.49746
 Alpha  occ. eigenvalues --   -0.49538  -0.45855  -0.44233  -0.41346  -0.39871
 Alpha  occ. eigenvalues --   -0.38758  -0.38164  -0.37342  -0.28803  -0.27024
 Alpha  occ. eigenvalues --   -0.26864  -0.25673
 Alpha virt. eigenvalues --    0.01001   0.01984   0.04144   0.06494   0.06640
 Alpha virt. eigenvalues --    0.09814   0.10411   0.12800   0.14529   0.14772
 Alpha virt. eigenvalues --    0.16811   0.17510   0.19211   0.19785   0.23649
 Alpha virt. eigenvalues --    0.36760   0.39780   0.40923   0.47501   0.48297
 Alpha virt. eigenvalues --    0.49164   0.50489   0.51135   0.54120   0.55964
 Alpha virt. eigenvalues --    0.58227   0.63546   0.64342   0.67610   0.72971
 Alpha virt. eigenvalues --    0.79487   0.81135   0.81915   0.83196   0.84269
 Alpha virt. eigenvalues --    0.85756   0.86026   0.86338   0.89163   0.89879
 Alpha virt. eigenvalues --    0.90521   0.93839   0.98863   1.00802   1.04160
 Alpha virt. eigenvalues --    1.04342   1.08617   1.10186   1.13988   1.15188
 Alpha virt. eigenvalues --    1.28785   1.29872   1.36329   1.39712   1.48795
 Alpha virt. eigenvalues --    1.54483   1.62626   1.72125   1.72832   1.81509
 Alpha virt. eigenvalues --    1.82390   1.84449   1.85086   1.86679   1.88166
 Alpha virt. eigenvalues --    1.92281   1.93670   1.96141   1.99006   1.99408
 Alpha virt. eigenvalues --    2.03036   2.05486   2.06290   2.13537   2.15878
 Alpha virt. eigenvalues --    2.17911   2.18367   2.25062   2.28886   2.30258
 Alpha virt. eigenvalues --    2.34559   2.51702   2.53563   2.56290   2.67899
 Alpha virt. eigenvalues --    2.69760   3.83209   3.86035   3.95803   4.13406
 Alpha virt. eigenvalues --    4.19616   4.43111   4.48396
          Condensed to atoms (all electrons):
               1          2          3          4          5          6
     1  O    8.329215   0.360984  -0.041523   0.000238   0.001157  -0.043716
     2  S    0.360984  14.131392   0.094599  -0.044869  -0.042468   0.094851
     3  C   -0.041523   0.094599   5.620454   0.315656  -0.044808  -0.068834
     4  C    0.000238  -0.044869   0.315656   5.108361   0.354539  -0.044398
     5  C    0.001157  -0.042468  -0.044808   0.354539   5.121439   0.312956
     6  C   -0.043716   0.094851  -0.068834  -0.044398   0.312956   5.617409
     7  O   -0.045782   0.356968  -0.042940   0.000909  -0.000387  -0.040567
     8  H    0.001021  -0.014454   0.358251  -0.030244   0.004575   0.001949
     9  H    0.001028  -0.007198   0.345878  -0.032875  -0.001977   0.001507
    10  H    0.000472   0.003595  -0.046662   0.377321  -0.041582  -0.002815
    11  H   -0.000045   0.000172  -0.031180   0.374915  -0.033737   0.005442
    12  H   -0.000075   0.000526   0.005455  -0.034263   0.373709  -0.030869
    13  H    0.000003   0.005435  -0.003143  -0.041211   0.374863  -0.047637
    14  H    0.000436  -0.005464   0.001074  -0.002744  -0.035438   0.341943
    15  H    0.000633  -0.016070   0.002244   0.004625  -0.029679   0.361359
               7          8          9         10         11         12
     1  O   -0.045782   0.001021   0.001028   0.000472  -0.000045  -0.000075
     2  S    0.356968  -0.014454  -0.007198   0.003595   0.000172   0.000526
     3  C   -0.042940   0.358251   0.345878  -0.046662  -0.031180   0.005455
     4  C    0.000909  -0.030244  -0.032875   0.377321   0.374915  -0.034263
     5  C   -0.000387   0.004575  -0.001977  -0.041582  -0.033737   0.373709
     6  C   -0.040567   0.001949   0.001507  -0.002815   0.005442  -0.030869
     7  O    8.332420   0.000800   0.000580  -0.000007  -0.000096  -0.000050
     8  H    0.000800   0.470418  -0.013736  -0.007398   0.000335  -0.000173
     9  H    0.000580  -0.013736   0.489138   0.005110  -0.009418  -0.000154
    10  H   -0.000007  -0.007398   0.005110   0.557721  -0.018390  -0.006571
    11  H   -0.000096   0.000335  -0.009418  -0.018390   0.543173  -0.000306
    12  H   -0.000050  -0.000173  -0.000154  -0.006571  -0.000306   0.544383
    13  H    0.001141  -0.000037   0.002787   0.005717  -0.006573  -0.018187
    14  H    0.001115  -0.000009   0.000023   0.003570  -0.000155  -0.008797
    15  H    0.000959  -0.000042  -0.000030  -0.000048  -0.000168  -0.000156
              13         14         15
     1  O    0.000003   0.000436   0.000633
     2  S    0.005435  -0.005464  -0.016070
     3  C   -0.003143   0.001074   0.002244
     4  C   -0.041211  -0.002744   0.004625
     5  C    0.374863  -0.035438  -0.029679
     6  C   -0.047637   0.341943   0.361359
     7  O    0.001141   0.001115   0.000959
     8  H   -0.000037  -0.000009  -0.000042
     9  H    0.002787   0.000023  -0.000030
    10  H    0.005717   0.003570  -0.000048
    11  H   -0.006573  -0.000155  -0.000168
    12  H   -0.018187  -0.008797  -0.000156
    13  H    0.553133   0.005492  -0.006460
    14  H    0.005492   0.498102  -0.013940
    15  H   -0.006460  -0.013940   0.466520
 Mulliken charges:
               1
     1  O   -0.564048
     2  S    1.082001
     3  C   -0.464518
     4  C   -0.305958
     5  C   -0.313163
     6  C   -0.458579
     7  O   -0.565063
     8  H    0.228745
     9  H    0.219337
    10  H    0.169967
    11  H    0.176031
    12  H    0.175528
    13  H    0.174676
    14  H    0.214792
    15  H    0.230252
 Sum of Mulliken charges =  -0.00000
 Mulliken charges with hydrogens summed into heavy atoms:
               1
     1  O   -0.564048
     2  S    1.082001
     3  C   -0.016436
     4  C    0.040040
     5  C    0.037041
     6  C   -0.013534
     7  O   -0.565063
 Electronic spatial extent (au):  <R**2>=            818.1068
 Charge=             -0.0000 electrons
 Dipole moment (field-independent basis, Debye):
    X=              6.7953    Y=              0.0394    Z=             -0.1801  Tot=              6.7978
 Quadrupole moment (field-independent basis, Debye-Ang):
   XX=            -56.5706   YY=            -43.7877   ZZ=            -52.9131
   XY=              0.0617   XZ=             -0.1260   YZ=              2.5083
 Traceless Quadrupole moment (field-independent basis, Debye-Ang):
   XX=             -5.4801   YY=              7.3028   ZZ=             -1.8226
   XY=              0.0617   XZ=             -0.1260   YZ=              2.5083
 Octapole moment (field-independent basis, Debye-Ang**2):
  XXX=              9.0087  YYY=             -0.3198  ZZZ=             -0.6555  XYY=             -0.5340
  XXY=             -0.2491  XXZ=              0.5399  XZZ=             10.8728  YZZ=              0.4947
  YYZ=              0.0033  XYZ=             -0.5185
 Hexadecapole moment (field-independent basis, Debye-Ang**3):
 XXXX=           -578.8050 YYYY=           -262.7068 ZZZZ=           -202.6331 XXXY=             -0.1668
 XXXZ=             -1.3387 YYYX=              0.2219 YYYZ=             -5.3147 ZZZX=              0.2568
 ZZZY=              4.5105 XXYY=           -140.6482 XXZZ=           -136.2783 YYZZ=            -75.4881
 XXYZ=              8.1284 YYXZ=             -0.0428 ZZXY=              0.1275
 N-N= 4.150693172630D+02 E-N=-2.492458824183D+03  KE= 7.011152487291D+02
 No NMR shielding tensors so no spin-rotation constants.
 Leave Link  601 at Mon Oct 14 01:22:56 2019, MaxMem= 10737418240 cpu:               3.1 elap:               0.2
 (Enter /apps/cent7/gaussian/g16-A.03/g16-haswell/g16/l701.exe)
 ... and contract with generalized density number  0.
 Compute integral first derivatives.
 Leave Link  701 at Mon Oct 14 01:22:56 2019, MaxMem= 10737418240 cpu:               3.1 elap:               0.2
 (Enter /apps/cent7/gaussian/g16-A.03/g16-haswell/g16/l702.exe)
 L702 exits ... SP integral derivatives will be done elsewhere.
 Leave Link  702 at Mon Oct 14 01:22:56 2019, MaxMem= 10737418240 cpu:               0.5 elap:               0.0
 (Enter /apps/cent7/gaussian/g16-A.03/g16-haswell/g16/l703.exe)
 Integral derivatives from FoFJK, PRISM(SPDF).
 Compute integral first derivatives, UseDBF=F ICtDFT=           0.
 Calling FoFJK, ICntrl=      2127 FMM=F ISym2X=0 I1Cent= 0 IOpClX= 0 NMat=1 NMatS=1 NMatT=0.
 FoFJK:  IHMeth= 1 ICntrl=    2127 DoSepK=F KAlg= 0 I1Cent=           0 FoldK=F
 IRaf=         0 NMat=       1 IRICut=       1 DoRegI=T DoRafI=F ISym2E= 0 IDoP0=0 IntGTp=1.
 FoFCou: FMM=F IPFlag=           0 FMFlag=      100000 FMFlg1=         800
         NFxFlg=           0 DoJE=F BraDBF=F KetDBF=F FulRan=T
         wScrn=  0.000000 ICntrl=      2127 IOpCl=  0 I1Cent=           0 NGrid=           0
         NMat0=    1 NMatS0=      1 NMatT0=    0 NMatD0=    1 NMtDS0=    0 NMtDT0=    0
 Symmetry not used in FoFCou.
 Leave Link  703 at Mon Oct 14 01:22:56 2019, MaxMem= 10737418240 cpu:              13.1 elap:               0.6
 (Enter /apps/cent7/gaussian/g16-A.03/g16-haswell/g16/l716.exe)
 Dipole        = 2.67348031D+00 1.55130926D-02-7.08390516D-02
 ***** Axes restored to original set *****
 -------------------------------------------------------------------
 Center     Atomic                   Forces (Hartrees/Bohr)
 Number     Number              X              Y              Z
 -------------------------------------------------------------------
      1        8           0.070742207    0.039936763   -0.042539133
      2       16          -0.110077186   -0.096296142   -0.040487626
      3        6           0.006559845    0.035571323    0.006443541
      4        6          -0.015039202    0.001477484   -0.016156643
      5        6          -0.005327588   -0.017880562    0.010386207
      6        6           0.037275696    0.000414536    0.005406726
      7        8           0.021590501    0.042108938    0.078579506
      8        1          -0.002190458   -0.014993443   -0.011208504
      9        1          -0.008338948   -0.015962419    0.000227206
     10        1           0.015585678    0.003737294    0.007568376
     11        1           0.004133370    0.004852051    0.018995770
     12        1           0.010781159    0.008344774   -0.014388978
     13        1           0.007060159    0.016127974   -0.001252872
     14        1          -0.015435410   -0.003998328   -0.006824205
     15        1          -0.017319820   -0.003440243    0.005250630
 -------------------------------------------------------------------
 Cartesian Forces:  Max     0.110077186 RMS     0.032078449
 Leave Link  716 at Mon Oct 14 01:22:57 2019, MaxMem= 10737418240 cpu:               0.5 elap:               0.0
 (Enter /apps/cent7/gaussian/g16-A.03/g16-haswell/g16/l103.exe)

 GradGradGradGradGradGradGradGradGradGradGradGradGradGradGradGradGradGrad
 Berny optimization.
 FormGI is forming the generalized inverse of G from B-inverse, IUseBI=4.
 Internal  Forces:  Max     0.090272174 RMS     0.014856509
 Search for a local minimum.
 Step number   1 out of a maximum of  100
 All quantities printed in internal units (Hartrees-Bohrs-Radians)
 RMS Force = .14857D-01 SwitMx=.10000D-02 MixMth= 1
 Mixed Optimization -- RFO/linear search
 Second derivative matrix not updated -- first step.
 ITU=  0
     Eigenvalues ---    0.00257   0.00399   0.02279   0.02313   0.04613
     Eigenvalues ---    0.04959   0.05032   0.05204   0.05379   0.05616
     Eigenvalues ---    0.05867   0.05998   0.06546   0.06620   0.07293
     Eigenvalues ---    0.07329   0.08391   0.08850   0.09475   0.09731
     Eigenvalues ---    0.11241   0.13847   0.20462   0.21262   0.23903
     Eigenvalues ---    0.24178   0.26505   0.27259   0.27622   0.34806
     Eigenvalues ---    0.34809   0.34811   0.34811   0.34811   0.34812
     Eigenvalues ---    0.34814   0.34817   0.50913   0.50918
 RFO step:  Lambda=-5.60928061D-02 EMin= 2.57321869D-03
 Linear search not attempted -- first point.
 Maximum step size (   0.300) exceeded in Quadratic search.
    -- Step size scaled by   0.833
 Iteration  1 RMS(Cart)=  0.04365422 RMS(Int)=  0.00168570
 Iteration  2 RMS(Cart)=  0.00140192 RMS(Int)=  0.00110419
 Iteration  3 RMS(Cart)=  0.00000187 RMS(Int)=  0.00110419
 Iteration  4 RMS(Cart)=  0.00000001 RMS(Int)=  0.00110419
 ITry= 1 IFail=0 DXMaxC= 1.16D-01 DCOld= 1.00D+10 DXMaxT= 3.00D-01 DXLimC= 3.00D+00 Rises=F
 Variable       Old X    -DE/DX   Delta X   Delta X   Delta X     New X
                                 (Linear)    (Quad)   (Total)
    R1        3.02655  -0.09027   0.00000  -0.13306  -0.13306   2.89349
    R2        3.45256  -0.00057   0.00000   0.00231   0.00250   3.45506
    R3        3.45124  -0.00108   0.00000   0.00047   0.00072   3.45196
    R4        3.02650  -0.09011   0.00000  -0.13281  -0.13281   2.89369
    R5        2.92266   0.01287   0.00000   0.03088   0.03067   2.95334
    R6        2.05980  -0.00146   0.00000  -0.00301  -0.00301   2.05679
    R7        2.05982  -0.00060   0.00000  -0.00124  -0.00124   2.05858
    R8        2.93903   0.00332   0.00000   0.00264   0.00248   2.94151
    R9        2.05977   0.00218   0.00000   0.00449   0.00449   2.06426
   R10        2.05983   0.00086   0.00000   0.00178   0.00178   2.06161
   R11        2.91831   0.01164   0.00000   0.02775   0.02760   2.94591
   R12        2.05986   0.00110   0.00000   0.00226   0.00226   2.06212
   R13        2.05973   0.00233   0.00000   0.00481   0.00481   2.06454
   R14        2.05983  -0.00021   0.00000  -0.00043  -0.00043   2.05940
   R15        2.05990  -0.00139   0.00000  -0.00286  -0.00286   2.05704
    A1        1.94227  -0.00272   0.00000  -0.01494  -0.01567   1.92660
    A2        1.93124  -0.00009   0.00000  -0.00562  -0.00654   1.92470
    A3        1.95114   0.01240   0.00000   0.07975   0.08016   2.03130
    A4        1.76116  -0.00769   0.00000  -0.04311  -0.04364   1.71752
    A5        1.93121  -0.00087   0.00000  -0.01082  -0.01197   1.91924
    A6        1.93869  -0.00321   0.00000  -0.01877  -0.01977   1.91891
    A7        1.78603   0.00878   0.00000   0.03991   0.04012   1.82615
    A8        1.93033  -0.00776   0.00000  -0.04085  -0.04364   1.88669
    A9        1.93027  -0.00469   0.00000  -0.03495  -0.03762   1.89265
   A10        1.84615   0.00618   0.00000   0.05416   0.05471   1.90086
   A11        1.84613   0.00616   0.00000   0.05485   0.05528   1.90141
   A12        2.09451  -0.00460   0.00000  -0.04584  -0.05074   2.04377
   A13        1.91275  -0.00604   0.00000  -0.02308  -0.02304   1.88971
   A14        1.86159   0.00321   0.00000   0.02501   0.02493   1.88652
   A15        1.86151   0.00632   0.00000   0.03180   0.03214   1.89366
   A16        1.86481   0.00524   0.00000   0.02373   0.02401   1.88883
   A17        1.86488   0.00229   0.00000   0.02003   0.02007   1.88495
   A18        2.09434  -0.01142   0.00000  -0.07753  -0.07748   2.01686
   A19        1.90857  -0.00655   0.00000  -0.02528  -0.02520   1.88337
   A20        1.86618   0.00260   0.00000   0.02122   0.02126   1.88743
   A21        1.86608   0.00541   0.00000   0.02480   0.02514   1.89122
   A22        1.86194   0.00641   0.00000   0.03200   0.03237   1.89431
   A23        1.86203   0.00311   0.00000   0.02396   0.02391   1.88594
   A24        2.09447  -0.01142   0.00000  -0.07686  -0.07683   2.01764
   A25        1.77073   0.00956   0.00000   0.04249   0.04272   1.81345
   A26        1.93294  -0.00454   0.00000  -0.03313  -0.03582   1.89713
   A27        1.93284  -0.00778   0.00000  -0.04119  -0.04404   1.88881
   A28        1.84997   0.00568   0.00000   0.05237   0.05277   1.90274
   A29        1.84988   0.00560   0.00000   0.05186   0.05250   1.90238
   A30        2.09434  -0.00433   0.00000  -0.04446  -0.04911   2.04523
    D1       -1.91170   0.00687   0.00000   0.04345   0.04323  -1.86847
    D2        0.04835   0.01522   0.00000   0.10889   0.10704   0.15540
    D3        2.41149  -0.00266   0.00000  -0.02509  -0.02396   2.38753
    D4        0.13770   0.00148   0.00000   0.00748   0.00763   0.14534
    D5        2.09775   0.00984   0.00000   0.07292   0.07145   2.16920
    D6       -1.82230  -0.00804   0.00000  -0.06106  -0.05955  -1.88185
    D7        2.19104  -0.00660   0.00000  -0.04123  -0.04084   2.15020
    D8       -2.13209   0.00175   0.00000   0.02421   0.02298  -2.10912
    D9        0.23104  -0.01613   0.00000  -0.10976  -0.10803   0.12301
   D10        2.33061  -0.00619   0.00000  -0.03797  -0.03764   2.29297
   D11        0.37279  -0.01562   0.00000  -0.10581  -0.10420   0.26859
   D12       -1.99489   0.00195   0.00000   0.02628   0.02501  -1.96987
   D13        0.27314   0.00103   0.00000   0.00429   0.00455   0.27769
   D14       -1.68468  -0.00840   0.00000  -0.06354  -0.06202  -1.74669
   D15        2.23083   0.00918   0.00000   0.06854   0.06720   2.29803
   D16       -1.77472   0.00747   0.00000   0.04754   0.04729  -1.72743
   D17        2.55065  -0.00196   0.00000  -0.02030  -0.01928   2.53137
   D18        0.18297   0.01562   0.00000   0.11179   0.10994   0.29291
   D19       -0.52138  -0.00342   0.00000  -0.01578  -0.01603  -0.53740
   D20        1.49127   0.00143   0.00000   0.01392   0.01369   1.50496
   D21       -2.53406  -0.00647   0.00000  -0.04477  -0.04495  -2.57901
   D22       -2.54334  -0.00087   0.00000  -0.00791  -0.00806  -2.55140
   D23       -0.53070   0.00398   0.00000   0.02179   0.02165  -0.50904
   D24        1.72716  -0.00392   0.00000  -0.03690  -0.03699   1.69017
   D25        1.50051  -0.00258   0.00000  -0.01685  -0.01681   1.48370
   D26       -2.77003   0.00227   0.00000   0.01285   0.01290  -2.75713
   D27       -0.51218  -0.00564   0.00000  -0.04585  -0.04574  -0.55791
   D28        0.78769  -0.00229   0.00000  -0.00630  -0.00673   0.78097
   D29        2.79733   0.00333   0.00000   0.02982   0.02956   2.82689
   D30       -1.22199  -0.00552   0.00000  -0.03489  -0.03511  -1.25710
   D31       -1.22290  -0.00584   0.00000  -0.03680  -0.03701  -1.25991
   D32        0.78673  -0.00022   0.00000  -0.00068  -0.00072   0.78602
   D33        3.05060  -0.00907   0.00000  -0.06539  -0.06539   2.98521
   D34        2.79823   0.00333   0.00000   0.03019   0.02995   2.82818
   D35       -1.47532   0.00894   0.00000   0.06631   0.06624  -1.40908
   D36        0.78854   0.00009   0.00000   0.00160   0.00157   0.79012
   D37       -0.61578  -0.00322   0.00000  -0.01459  -0.01492  -0.63070
   D38        1.40409  -0.00218   0.00000  -0.01441  -0.01436   1.38973
   D39       -2.63551  -0.00065   0.00000  -0.00570  -0.00594  -2.64145
   D40       -2.62813  -0.00640   0.00000  -0.04383  -0.04404  -2.67217
   D41       -0.60826  -0.00536   0.00000  -0.04365  -0.04348  -0.65174
   D42        1.63533  -0.00384   0.00000  -0.03494  -0.03506   1.60027
   D43        1.39650   0.00151   0.00000   0.01457   0.01429   1.41079
   D44       -2.86681   0.00254   0.00000   0.01475   0.01485  -2.85196
   D45       -0.62323   0.00407   0.00000   0.02346   0.02327  -0.59995
         Item               Value     Threshold  Converged?
 Maximum Force            0.090272     0.000450     NO 
 RMS     Force            0.014857     0.000300     NO 
 Maximum Displacement     0.116200     0.001800     NO 
 RMS     Displacement     0.043849     0.001200     NO 
 Predicted change in Energy=-3.238864D-02
 Lowest energy point so far.  Saving SCF results.
 GradGradGradGradGradGradGradGradGradGradGradGradGradGradGradGradGradGrad

 Leave Link  103 at Mon Oct 14 01:22:57 2019, MaxMem= 10737418240 cpu:               1.4 elap:               0.1
 (Enter /apps/cent7/gaussian/g16-A.03/g16-haswell/g16/l202.exe)
                          Input orientation:                          
 ---------------------------------------------------------------------
 Center     Atomic      Atomic             Coordinates (Angstroms)
 Number     Number       Type             X           Y           Z
 ---------------------------------------------------------------------
      1          8           0       -0.821749   -1.023136    1.468405
      2         16           0        0.237788   -0.506656    0.491112
      3          6           0        1.915330   -0.806660    1.153436
      4          6           0        2.426780    0.604991    1.587170
      5          6           0        1.782400    1.666975    0.649138
      6          6           0        0.270047    1.319739    0.499447
      7          8           0        0.144266   -1.020882   -0.948205
      8          1           0        1.822537   -1.435122    2.037209
      9          1           0        2.543910   -1.177406    0.344655
     10          1           0        2.079681    0.793326    2.605651
     11          1           0        3.507747    0.640490    1.444201
     12          1           0        1.868350    2.642449    1.130639
     13          1           0        2.247990    1.583956   -0.335701
     14          1           0       -0.264679    1.674574    1.380242
     15          1           0       -0.079897    1.670761   -0.469699
 ---------------------------------------------------------------------
                    Distance matrix (angstroms):
                    1          2          3          4          5
     1  O    0.000000
     2  S    1.531167   0.000000
     3  C    2.763634   1.828339   0.000000
     4  C    3.635636   2.688641   1.562838   0.000000
     5  C    3.832687   2.671230   2.528014   1.556579   0.000000
     6  C    2.760428   1.826699   2.766989   2.519028   1.558906
     7  O    2.602535   1.531276   2.756711   3.779082   3.529810
     8  H    2.735968   2.400811   1.088407   2.174788   3.398728
     9  H    3.551658   2.406149   1.089353   2.175891   2.960255
    10  H    3.607099   3.090922   2.167002   1.092360   2.163233
    11  H    4.638187   3.594017   2.171308   1.090959   2.159310
    12  H    4.559302   3.603414   3.449504   2.161366   1.091229
    13  H    4.413051   3.015823   2.836059   2.165126   1.092508
    14  H    2.756038   2.408483   3.310651   2.903581   2.173730
    15  H    3.400540   2.401089   3.571150   3.413211   2.172547
                    6          7          8          9         10
     6  C    0.000000
     7  O    2.754999   0.000000
     8  H    3.516276   3.449766   0.000000
     9  H    3.380849   2.730252   1.857831   0.000000
    10  H    2.826302   4.434757   2.314137   3.035028   0.000000
    11  H    3.440442   4.449356   2.738568   2.332966   1.847078
    12  H    2.168533   4.551269   4.177386   3.957960   2.374779
    13  H    2.163224   3.403821   3.863488   2.859295   3.050405
    14  H    1.089790   3.585301   3.802405   4.134538   2.788234
    15  H    1.088541   2.743020   4.421578   3.957220   3.858944
                   11         12         13         14         15
    11  H    0.000000
    12  H    2.606489   0.000000
    13  H    2.375956   1.847887   0.000000
    14  H    3.912112   2.355609   3.044039   0.000000
    15  H    4.194718   2.702022   2.333356   1.859151   0.000000
 Stoichiometry    C4H8O2S
 Framework group  C1[X(C4H8O2S)]
 Deg. of freedom    39
 Full point group                 C1      NOp   1
 RotChk:  IX=0 Diff= 2.57D-02
 Largest Abelian subgroup         C1      NOp   1
 Largest concise Abelian subgroup C1      NOp   1
                         Standard orientation:                         
 ---------------------------------------------------------------------
 Center     Atomic      Atomic             Coordinates (Angstroms)
 Number     Number       Type             X           Y           Z
 ---------------------------------------------------------------------
      1          8           0       -1.619622    0.334159   -1.218588
      2         16           0       -0.758099    0.000860    0.002544
      3          6           0        0.436138    1.346965    0.325998
      4          6           0        1.817503    0.763385   -0.114151
      5          6           0        1.795176   -0.774936    0.122511
      6          6           0        0.434149   -1.321516   -0.405736
      7          8           0       -1.509232   -0.352100    1.289410
      8          1           0        0.184707    2.184890   -0.321532
      9          1           0        0.458289    1.537684    1.398297
     10          1           0        1.935648    0.942524   -1.185226
     11          1           0        2.592882    1.191262    0.522952
     12          1           0        2.599535   -1.220784   -0.464862
     13          1           0        1.838960   -0.958204    1.198648
     14          1           0        0.487981   -1.420914   -1.489647
     15          1           0        0.164619   -2.210086    0.162347
 ---------------------------------------------------------------------
 Rotational constants (GHZ):           3.5784632           1.9331333           1.8056138
 Leave Link  202 at Mon Oct 14 01:22:57 2019, MaxMem= 10737418240 cpu:               0.2 elap:               0.0
 (Enter /apps/cent7/gaussian/g16-A.03/g16-haswell/g16/l301.exe)
 Standard basis: 6-31G(d) (6D, 7F)
 Ernie: Thresh=  0.10000D-02 Tol=  0.10000D-05 Strict=F.
 There are   125 symmetry adapted cartesian basis functions of A   symmetry.
 There are   125 symmetry adapted basis functions of A   symmetry.
   125 basis functions,   252 primitive gaussians,   125 cartesian basis functions
    32 alpha electrons       32 beta electrons
       nuclear repulsion energy       419.3737559904 Hartrees.
 IExCor=  402 DFT=T Ex+Corr=B3LYP ExCW=0 ScaHFX=  0.200000
 ScaDFX=  0.800000  0.720000  1.000000  0.810000 ScalE2=  1.000000  1.000000
 IRadAn=      5 IRanWt=     -1 IRanGd=            0 ICorTp=0 IEmpDi=  4
 NAtoms=   15 NActive=   15 NUniq=   15 SFac= 1.00D+00 NAtFMM=   60 NAOKFM=F Big=F
 Integral buffers will be    131072 words long.
 Raffenetti 2 integral format.
 Two-electron integral symmetry is turned on.
 Leave Link  301 at Mon Oct 14 01:22:57 2019, MaxMem= 10737418240 cpu:               1.7 elap:               0.1
 (Enter /apps/cent7/gaussian/g16-A.03/g16-haswell/g16/l302.exe)
 NPDir=0 NMtPBC=     1 NCelOv=     1 NCel=       1 NClECP=     1 NCelD=      1
         NCelK=      1 NCelE2=     1 NClLst=     1 CellRange=     0.0.
 One-electron integrals computed using PRISM.
 One-electron integral symmetry used in STVInt
 NBasis=   125 RedAO= T EigKep=  3.13D-03  NBF=   125
 NBsUse=   125 1.00D-06 EigRej= -1.00D+00 NBFU=   125
 Precomputing XC quadrature grid using
 IXCGrd= 4 IRadAn=           5 IRanWt=          -1 IRanGd=           0 AccXCQ= 0.00D+00.
 Generated NRdTot=       0 NPtTot=           0 NUsed=           0 NTot=          32
 NSgBfM=   125   125   125   125   125 MxSgAt=    15 MxSgA2=    15.
 Leave Link  302 at Mon Oct 14 01:22:57 2019, MaxMem= 10737418240 cpu:               3.5 elap:               0.2
 (Enter /apps/cent7/gaussian/g16-A.03/g16-haswell/g16/l303.exe)
 DipDrv:  MaxL=1.
 Leave Link  303 at Mon Oct 14 01:22:57 2019, MaxMem= 10737418240 cpu:               0.5 elap:               0.0
 (Enter /apps/cent7/gaussian/g16-A.03/g16-haswell/g16/l401.exe)
 Initial guess from the checkpoint file:  "23.chk"
 B after Tr=     0.000000   -0.000000    0.000000
         Rot=    0.999956   -0.009291   -0.000976   -0.000706 Ang=  -1.07 deg.
 Guess basis will be translated and rotated to current coordinates.
 JPrj=2 DoOrth=T DoCkMO=T.
 Generating alternative initial guess.
 ExpMin= 1.17D-01 ExpMax= 2.19D+04 ExpMxC= 3.30D+03 IAcc=2 IRadAn=         4 AccDes= 0.00D+00
 Harris functional with IExCor=  402 and IRadAn=       4 diagonalized for initial guess.
 HarFok:  IExCor=  402 AccDes= 0.00D+00 IRadAn=         4 IDoV= 1 UseB2=F ITyADJ=14
 ICtDFT=  3500011 ScaDFX=  1.000000  1.000000  1.000000  1.000000
 FoFCou: FMM=F IPFlag=           0 FMFlag=      100000 FMFlg1=           0
         NFxFlg=           0 DoJE=T BraDBF=F KetDBF=T FulRan=T
         wScrn=  0.000000 ICntrl=       500 IOpCl=  0 I1Cent=   200000004 NGrid=           0
         NMat0=    1 NMatS0=      1 NMatT0=    0 NMatD0=    1 NMtDS0=    0 NMtDT0=    0
 Petite list used in FoFCou.
 Harris En= -705.875099096470    
 Leave Link  401 at Mon Oct 14 01:22:57 2019, MaxMem= 10737418240 cpu:               6.2 elap:               0.3
 (Enter /apps/cent7/gaussian/g16-A.03/g16-haswell/g16/l502.exe)
 Integral symmetry usage will be decided dynamically.
 Closed shell SCF:
 Using DIIS extrapolation, IDIIS=  1040.
 NGot= 10737418240 LenX= 10737382433 LenY= 10737366367
 Requested convergence on RMS density matrix=1.00D-08 within 128 cycles.
 Requested convergence on MAX density matrix=1.00D-06.
 Requested convergence on             energy=1.00D-06.
 No special actions if energy rises.
 Fock matrices will be formed incrementally for  20 cycles.
 Integral accuracy reduced to 1.0D-05 until final iterations.

 Cycle   1  Pass 0  IDiag  1:
 FoFJK:  IHMeth= 1 ICntrl=       0 DoSepK=F KAlg= 0 I1Cent=           0 FoldK=F
 IRaf= 980000000 NMat=       1 IRICut=       1 DoRegI=T DoRafI=F ISym2E= 0 IDoP0=0 IntGTp=1.
 FoFCou: FMM=F IPFlag=           0 FMFlag=      100000 FMFlg1=           0
         NFxFlg=           0 DoJE=F BraDBF=F KetDBF=F FulRan=T
         wScrn=  0.000000 ICntrl=         0 IOpCl=  0 I1Cent=           0 NGrid=           0
         NMat0=    1 NMatS0=      1 NMatT0=    0 NMatD0=    1 NMtDS0=    0 NMtDT0=    0
 Symmetry not used in FoFCou.
 E= -705.794914914350    
 DIIS: error= 8.42D-03 at cycle   1 NSaved=   1.
 NSaved= 1 IEnMin= 1 EnMin= -705.794914914350     IErMin= 1 ErrMin= 8.42D-03
 ErrMax= 8.42D-03  0.00D+00 EMaxC= 1.00D-01 BMatC= 5.87D-03 BMatP= 5.87D-03
 IDIUse=3 WtCom= 9.16D-01 WtEn= 8.42D-02
 Coeff-Com:  0.100D+01
 Coeff-En:   0.100D+01
 Coeff:      0.100D+01
 Gap=     1.579 Goal=   None    Shift=    0.000
 GapD=    1.579 DampG=2.000 DampE=1.000 DampFc=2.0000 IDamp=-1.
 RMSDP=1.56D-03 MaxDP=2.24D-02              OVMax= 3.85D-02

 Cycle   2  Pass 0  IDiag  1:
 RMSU=  1.53D-03    CP:  9.93D-01
 E= -705.802046628608     Delta-E=       -0.007131714258 Rises=F Damp=F
 DIIS: error= 3.88D-03 at cycle   2 NSaved=   2.
 NSaved= 2 IEnMin= 2 EnMin= -705.802046628608     IErMin= 2 ErrMin= 3.88D-03
 ErrMax= 3.88D-03  0.00D+00 EMaxC= 1.00D-01 BMatC= 2.89D-03 BMatP= 5.87D-03
 IDIUse=3 WtCom= 9.61D-01 WtEn= 3.88D-02
 Coeff-Com:  0.369D+00 0.631D+00
 Coeff-En:   0.000D+00 0.100D+01
 Coeff:      0.355D+00 0.645D+00
 Gap=     0.306 Goal=   None    Shift=    0.000
 RMSDP=8.33D-04 MaxDP=1.64D-02 DE=-7.13D-03 OVMax= 2.75D-02

 Cycle   3  Pass 0  IDiag  1:
 RMSU=  6.91D-04    CP:  9.97D-01  7.11D-01
 E= -705.802162377692     Delta-E=       -0.000115749084 Rises=F Damp=F
 DIIS: error= 4.66D-03 at cycle   3 NSaved=   3.
 NSaved= 3 IEnMin= 3 EnMin= -705.802162377692     IErMin= 2 ErrMin= 3.88D-03
 ErrMax= 4.66D-03  0.00D+00 EMaxC= 1.00D-01 BMatC= 2.68D-03 BMatP= 2.89D-03
 IDIUse=3 WtCom= 9.53D-01 WtEn= 4.66D-02
 Coeff-Com:  0.737D-02 0.488D+00 0.504D+00
 Coeff-En:   0.000D+00 0.490D+00 0.510D+00
 Coeff:      0.703D-02 0.489D+00 0.504D+00
 Gap=     0.310 Goal=   None    Shift=    0.000
 RMSDP=4.67D-04 MaxDP=1.01D-02 DE=-1.16D-04 OVMax= 1.26D-02

 Cycle   4  Pass 0  IDiag  1:
 RMSU=  1.27D-04    CP:  9.94D-01  8.98D-01  5.18D-01
 E= -705.804263096506     Delta-E=       -0.002100718814 Rises=F Damp=F
 DIIS: error= 6.20D-04 at cycle   4 NSaved=   4.
 NSaved= 4 IEnMin= 4 EnMin= -705.804263096506     IErMin= 4 ErrMin= 6.20D-04
 ErrMax= 6.20D-04  0.00D+00 EMaxC= 1.00D-01 BMatC= 4.13D-05 BMatP= 2.68D-03
 IDIUse=3 WtCom= 9.94D-01 WtEn= 6.20D-03
 Coeff-Com: -0.178D-01 0.163D+00 0.220D+00 0.635D+00
 Coeff-En:   0.000D+00 0.000D+00 0.000D+00 0.100D+01
 Coeff:     -0.177D-01 0.162D+00 0.218D+00 0.637D+00
 Gap=     0.310 Goal=   None    Shift=    0.000
 RMSDP=6.49D-05 MaxDP=3.21D-03 DE=-2.10D-03 OVMax= 1.45D-03

 Cycle   5  Pass 0  IDiag  1:
 RMSU=  4.37D-05    CP:  9.94D-01  9.01D-01  5.44D-01  6.60D-01
 E= -705.804297561774     Delta-E=       -0.000034465269 Rises=F Damp=F
 DIIS: error= 9.94D-05 at cycle   5 NSaved=   5.
 NSaved= 5 IEnMin= 5 EnMin= -705.804297561774     IErMin= 5 ErrMin= 9.94D-05
 ErrMax= 9.94D-05  0.00D+00 EMaxC= 1.00D-01 BMatC= 3.42D-06 BMatP= 4.13D-05
 IDIUse=1 WtCom= 1.00D+00 WtEn= 0.00D+00
 Coeff-Com: -0.744D-02 0.464D-01 0.734D-01 0.308D+00 0.580D+00
 Coeff:     -0.744D-02 0.464D-01 0.734D-01 0.308D+00 0.580D+00
 Gap=     0.309 Goal=   None    Shift=    0.000
 RMSDP=2.18D-05 MaxDP=7.06D-04 DE=-3.45D-05 OVMax= 4.78D-04

 Cycle   6  Pass 0  IDiag  1:
 RMSU=  1.33D-05    CP:  9.94D-01  8.99D-01  5.52D-01  7.24D-01  6.87D-01
 E= -705.804300507683     Delta-E=       -0.000002945909 Rises=F Damp=F
 DIIS: error= 6.74D-05 at cycle   6 NSaved=   6.
 NSaved= 6 IEnMin= 6 EnMin= -705.804300507683     IErMin= 6 ErrMin= 6.74D-05
 ErrMax= 6.74D-05  0.00D+00 EMaxC= 1.00D-01 BMatC= 6.85D-07 BMatP= 3.42D-06
 IDIUse=1 WtCom= 1.00D+00 WtEn= 0.00D+00
 Coeff-Com: -0.284D-02 0.136D-01 0.243D-01 0.130D+00 0.355D+00 0.480D+00
 Coeff:     -0.284D-02 0.136D-01 0.243D-01 0.130D+00 0.355D+00 0.480D+00
 Gap=     0.309 Goal=   None    Shift=    0.000
 RMSDP=9.00D-06 MaxDP=1.67D-04 DE=-2.95D-06 OVMax= 2.99D-04

 Initial convergence to 1.0D-05 achieved.  Increase integral accuracy.
 Cycle   7  Pass 1  IDiag  1:
 E= -705.804304339846     Delta-E=       -0.000003832163 Rises=F Damp=F
 DIIS: error= 3.25D-05 at cycle   1 NSaved=   1.
 NSaved= 1 IEnMin= 1 EnMin= -705.804304339846     IErMin= 1 ErrMin= 3.25D-05
 ErrMax= 3.25D-05  0.00D+00 EMaxC= 1.00D-01 BMatC= 1.77D-07 BMatP= 1.77D-07
 IDIUse=1 WtCom= 1.00D+00 WtEn= 0.00D+00
 Coeff-Com:  0.100D+01
 Coeff:      0.100D+01
 Gap=     0.309 Goal=   None    Shift=    0.000
 RMSDP=9.00D-06 MaxDP=1.67D-04 DE=-3.83D-06 OVMax= 3.55D-04

 Cycle   8  Pass 1  IDiag  1:
 RMSU=  1.10D-05    CP:  1.00D+00
 E= -705.804303727591     Delta-E=        0.000000612255 Rises=F Damp=F
 DIIS: error= 8.16D-05 at cycle   2 NSaved=   2.
 NSaved= 2 IEnMin= 1 EnMin= -705.804304339846     IErMin= 1 ErrMin= 3.25D-05
 ErrMax= 8.16D-05  0.00D+00 EMaxC= 1.00D-01 BMatC= 9.54D-07 BMatP= 1.77D-07
 IDIUse=1 WtCom= 1.00D+00 WtEn= 0.00D+00
 Coeff-Com:  0.702D+00 0.298D+00
 Coeff:      0.702D+00 0.298D+00
 Gap=     0.309 Goal=   None    Shift=    0.000
 RMSDP=7.59D-06 MaxDP=1.46D-04 DE= 6.12D-07 OVMax= 2.57D-04

 Cycle   9  Pass 1  IDiag  1:
 RMSU=  1.95D-06    CP:  1.00D+00  3.34D-01
 E= -705.804304484911     Delta-E=       -0.000000757319 Rises=F Damp=F
 DIIS: error= 4.45D-06 at cycle   3 NSaved=   3.
 NSaved= 3 IEnMin= 3 EnMin= -705.804304484911     IErMin= 3 ErrMin= 4.45D-06
 ErrMax= 4.45D-06  0.00D+00 EMaxC= 1.00D-01 BMatC= 5.54D-09 BMatP= 1.77D-07
 IDIUse=1 WtCom= 1.00D+00 WtEn= 0.00D+00
 Coeff-Com:  0.311D+00 0.146D+00 0.543D+00
 Coeff:      0.311D+00 0.146D+00 0.543D+00
 Gap=     0.309 Goal=   None    Shift=    0.000
 RMSDP=8.24D-07 MaxDP=2.82D-05 DE=-7.57D-07 OVMax= 1.77D-05

 Cycle  10  Pass 1  IDiag  1:
 RMSU=  6.80D-07    CP:  1.00D+00  3.45D-01  7.69D-01
 E= -705.804304490053     Delta-E=       -0.000000005142 Rises=F Damp=F
 DIIS: error= 1.19D-06 at cycle   4 NSaved=   4.
 NSaved= 4 IEnMin= 4 EnMin= -705.804304490053     IErMin= 4 ErrMin= 1.19D-06
 ErrMax= 1.19D-06  0.00D+00 EMaxC= 1.00D-01 BMatC= 3.58D-10 BMatP= 5.54D-09
 IDIUse=1 WtCom= 1.00D+00 WtEn= 0.00D+00
 Coeff-Com:  0.325D-01 0.192D-01 0.222D+00 0.726D+00
 Coeff:      0.325D-01 0.192D-01 0.222D+00 0.726D+00
 Gap=     0.309 Goal=   None    Shift=    0.000
 RMSDP=2.01D-07 MaxDP=5.51D-06 DE=-5.14D-09 OVMax= 5.33D-06

 Cycle  11  Pass 1  IDiag  1:
 RMSU=  1.22D-07    CP:  1.00D+00  3.47D-01  8.29D-01  8.46D-01
 E= -705.804304490405     Delta-E=       -0.000000000352 Rises=F Damp=F
 DIIS: error= 3.68D-07 at cycle   5 NSaved=   5.
 NSaved= 5 IEnMin= 5 EnMin= -705.804304490405     IErMin= 5 ErrMin= 3.68D-07
 ErrMax= 3.68D-07  0.00D+00 EMaxC= 1.00D-01 BMatC= 2.16D-11 BMatP= 3.58D-10
 IDIUse=1 WtCom= 1.00D+00 WtEn= 0.00D+00
 Coeff-Com: -0.626D-02-0.123D-02 0.597D-01 0.290D+00 0.658D+00
 Coeff:     -0.626D-02-0.123D-02 0.597D-01 0.290D+00 0.658D+00
 Gap=     0.309 Goal=   None    Shift=    0.000
 RMSDP=5.82D-08 MaxDP=1.28D-06 DE=-3.52D-10 OVMax= 1.47D-06

 Cycle  12  Pass 1  IDiag  1:
 RMSU=  4.13D-08    CP:  1.00D+00  3.47D-01  8.35D-01  8.67D-01  7.11D-01
 E= -705.804304490418     Delta-E=       -0.000000000013 Rises=F Damp=F
 DIIS: error= 2.13D-07 at cycle   6 NSaved=   6.
 NSaved= 6 IEnMin= 6 EnMin= -705.804304490418     IErMin= 6 ErrMin= 2.13D-07
 ErrMax= 2.13D-07  0.00D+00 EMaxC= 1.00D-01 BMatC= 7.43D-12 BMatP= 2.16D-11
 IDIUse=1 WtCom= 1.00D+00 WtEn= 0.00D+00
 Coeff-Com: -0.628D-02-0.210D-02 0.239D-01 0.139D+00 0.429D+00 0.416D+00
 Coeff:     -0.628D-02-0.210D-02 0.239D-01 0.139D+00 0.429D+00 0.416D+00
 Gap=     0.309 Goal=   None    Shift=    0.000
 RMSDP=2.48D-08 MaxDP=7.03D-07 DE=-1.34D-11 OVMax= 6.20D-07

 Cycle  13  Pass 1  IDiag  1:
 RMSU=  1.45D-08    CP:  1.00D+00  3.47D-01  8.36D-01  8.65D-01  7.71D-01
                    CP:  5.73D-01
 E= -705.804304490423     Delta-E=       -0.000000000005 Rises=F Damp=F
 DIIS: error= 4.89D-08 at cycle   7 NSaved=   7.
 NSaved= 7 IEnMin= 7 EnMin= -705.804304490423     IErMin= 7 ErrMin= 4.89D-08
 ErrMax= 4.89D-08  0.00D+00 EMaxC= 1.00D-01 BMatC= 3.88D-13 BMatP= 7.43D-12
 IDIUse=1 WtCom= 1.00D+00 WtEn= 0.00D+00
 Coeff-Com: -0.252D-02-0.948D-03 0.463D-02 0.342D-01 0.137D+00 0.213D+00
 Coeff-Com:  0.615D+00
 Coeff:     -0.252D-02-0.948D-03 0.463D-02 0.342D-01 0.137D+00 0.213D+00
 Coeff:      0.615D+00
 Gap=     0.309 Goal=   None    Shift=    0.000
 RMSDP=6.56D-09 MaxDP=1.30D-07 DE=-5.00D-12 OVMax= 2.05D-07

 SCF Done:  E(RB3LYP) =  -705.804304490     A.U. after   13 cycles
            NFock= 13  Conv=0.66D-08     -V/T= 2.0065
 KE= 7.012449348335D+02 PE=-2.501141993923D+03 EE= 6.747189986088D+02
 Leave Link  502 at Mon Oct 14 01:22:59 2019, MaxMem= 10737418240 cpu:              48.3 elap:               2.0
 (Enter /apps/cent7/gaussian/g16-A.03/g16-haswell/g16/l701.exe)
 ... and contract with generalized density number  0.
 Compute integral first derivatives.
 Leave Link  701 at Mon Oct 14 01:22:59 2019, MaxMem= 10737418240 cpu:               2.4 elap:               0.1
 (Enter /apps/cent7/gaussian/g16-A.03/g16-haswell/g16/l702.exe)
 L702 exits ... SP integral derivatives will be done elsewhere.
 Leave Link  702 at Mon Oct 14 01:22:59 2019, MaxMem= 10737418240 cpu:               0.5 elap:               0.0
 (Enter /apps/cent7/gaussian/g16-A.03/g16-haswell/g16/l703.exe)
 Integral derivatives from FoFJK, PRISM(SPDF).
 Compute integral first derivatives, UseDBF=F ICtDFT=           0.
 Calling FoFJK, ICntrl=      2127 FMM=F ISym2X=0 I1Cent= 0 IOpClX= 0 NMat=1 NMatS=1 NMatT=0.
 FoFJK:  IHMeth= 1 ICntrl=    2127 DoSepK=F KAlg= 0 I1Cent=           0 FoldK=F
 IRaf=         0 NMat=       1 IRICut=       1 DoRegI=T DoRafI=F ISym2E= 0 IDoP0=0 IntGTp=1.
 FoFCou: FMM=F IPFlag=           0 FMFlag=      100000 FMFlg1=         800
         NFxFlg=           0 DoJE=F BraDBF=F KetDBF=F FulRan=T
         wScrn=  0.000000 ICntrl=      2127 IOpCl=  0 I1Cent=           0 NGrid=           0
         NMat0=    1 NMatS0=      1 NMatT0=    0 NMatD0=    1 NMtDS0=    0 NMtDT0=    0
 Symmetry not used in FoFCou.
 Leave Link  703 at Mon Oct 14 01:23:00 2019, MaxMem= 10737418240 cpu:              13.3 elap:               0.6
 (Enter /apps/cent7/gaussian/g16-A.03/g16-haswell/g16/l716.exe)
 Dipole        = 2.37705963D+00 1.97481034D-02-7.04665578D-02
 ***** Axes restored to original set *****
 -------------------------------------------------------------------
 Center     Atomic                   Forces (Hartrees/Bohr)
 Number     Number              X              Y              Z
 -------------------------------------------------------------------
      1        8           0.039735206    0.022202806   -0.026646037
      2       16          -0.058625171   -0.051172818   -0.021981940
      3        6           0.006535093    0.028287249    0.008137219
      4        6          -0.014069506   -0.005791140   -0.017084352
      5        6          -0.012041277   -0.016637966    0.009355224
      6        6           0.029872773    0.002741916    0.001951053
      7        8           0.010657362    0.022586939    0.046296147
      8        1           0.000905483   -0.010102534   -0.006439405
      9        1          -0.003455502   -0.009558926    0.001086055
     10        1           0.009693286    0.001379923    0.003673248
     11        1           0.002313652    0.001467922    0.012488147
     12        1           0.005582144    0.005187897   -0.010016838
     13        1           0.003246823    0.009931956    0.000062903
     14        1          -0.008825820   -0.000671090   -0.004472449
     15        1          -0.011524546    0.000147866    0.003591026
 -------------------------------------------------------------------
 Cartesian Forces:  Max     0.058625171 RMS     0.018836462
 Leave Link  716 at Mon Oct 14 01:23:00 2019, MaxMem= 10737418240 cpu:               0.5 elap:               0.0
 (Enter /apps/cent7/gaussian/g16-A.03/g16-haswell/g16/l103.exe)

 GradGradGradGradGradGradGradGradGradGradGradGradGradGradGradGradGradGrad
 Berny optimization.
 Using GEDIIS/GDIIS optimizer.
 FormGI is forming the generalized inverse of G from B-inverse, IUseBI=4.
 Internal  Forces:  Max     0.051992705 RMS     0.008403621
 Search for a local minimum.
 Step number   2 out of a maximum of  100
 All quantities printed in internal units (Hartrees-Bohrs-Radians)
 RMS Force = .84036D-02 SwitMx=.10000D-02 MixMth= 1
 Mixed Optimization -- RFO/linear search
 Update second derivatives using D2CorX and points    1    2
 DE= -3.67D-02 DEPred=-3.24D-02 R= 1.13D+00
 TightC=F SS=  1.41D+00  RLast= 4.36D-01 DXNew= 5.0454D-01 1.3083D+00
 Trust test= 1.13D+00 RLast= 4.36D-01 DXMaxT set to 5.05D-01
 ITU=  1  0
 Use linear search instead of GDIIS.
     Eigenvalues ---    0.00259   0.00406   0.02170   0.02320   0.04516
     Eigenvalues ---    0.04673   0.05024   0.05156   0.05472   0.05763
     Eigenvalues ---    0.05825   0.06361   0.06594   0.06788   0.07219
     Eigenvalues ---    0.07326   0.08869   0.08980   0.09415   0.09422
     Eigenvalues ---    0.11245   0.13292   0.20433   0.21718   0.23872
     Eigenvalues ---    0.24166   0.26432   0.27225   0.29095   0.33411
     Eigenvalues ---    0.34808   0.34810   0.34811   0.34811   0.34812
     Eigenvalues ---    0.34816   0.34848   0.34960   0.50916
 RFO step:  Lambda=-5.35763725D-03 EMin= 2.58828044D-03
 Quartic linear search produced a step of  0.90109.
 Iteration  1 RMS(Cart)=  0.03655869 RMS(Int)=  0.00180994
 Iteration  2 RMS(Cart)=  0.00111015 RMS(Int)=  0.00142652
 Iteration  3 RMS(Cart)=  0.00000087 RMS(Int)=  0.00142652
 ITry= 1 IFail=0 DXMaxC= 1.25D-01 DCOld= 1.00D+10 DXMaxT= 5.05D-01 DXLimC= 3.00D+00 Rises=F
 Variable       Old X    -DE/DX   Delta X   Delta X   Delta X     New X
                                 (Linear)    (Quad)   (Total)
    R1        2.89349  -0.05199  -0.11990  -0.04431  -0.16421   2.72927
    R2        3.45506   0.00101   0.00225   0.01151   0.01399   3.46905
    R3        3.45196   0.00038   0.00065   0.00896   0.00991   3.46187
    R4        2.89369  -0.05175  -0.11968  -0.04368  -0.16336   2.73033
    R5        2.95334  -0.00345   0.02764  -0.06536  -0.03798   2.91536
    R6        2.05679   0.00053  -0.00271   0.00642   0.00371   2.06050
[...]
 ! D45   D(13,5,6,15)          -35.5188         -DE/DX =    0.0                 !
 --------------------------------------------------------------------------------
 GradGradGradGradGradGradGradGradGradGradGradGradGradGradGradGradGradGrad

 Leave Link  103 at Mon Oct 14 01:23:44 2019, MaxMem= 10737418240 cpu:               0.5 elap:               0.0
 (Enter /apps/cent7/gaussian/g16-A.03/g16-haswell/g16/l9999.exe)

 ----------------------------------------------------------------------

 Electric dipole moment (input orientation):
 (Debye = 10**-18 statcoulomb cm , SI units = C m)
                  (au)            (Debye)         (10**-30 SI)
   Tot        0.207491D+01      0.527389D+01      0.175918D+02
   x          0.151417D+01      0.384865D+01      0.128377D+02
   y          0.132778D+01      0.337487D+01      0.112574D+02
   z          0.499532D+00      0.126968D+01      0.423521D+01

 Dipole polarizability, Alpha (input orientation).
 (esu units = cm**3 , SI units = C**2 m**2 J**-1)
 Alpha(0;0):
               (au)            (10**-24 esu)      (10**-40 SI)
   iso        0.609035D+02      0.902497D+01      0.100416D+02
   aniso      0.798044D+01      0.118258D+01      0.131580D+01
   xx         0.624232D+02      0.925016D+01      0.102922D+02
   yx         0.339665D+01      0.503331D+00      0.560031D+00
   yy         0.619865D+02      0.918545D+01      0.102202D+02
   zx         0.205498D+01      0.304516D+00      0.338820D+00
   zy         0.584121D+00      0.865578D-01      0.963086D-01
   zz         0.583009D+02      0.863930D+01      0.961252D+01

 ----------------------------------------------------------------------

 Dipole orientation:
     8         -2.25010599         -2.52568575         -1.48780744
    16         -0.09754385         -1.42480162         -0.11051840
     6          1.08348236         -3.71343202          2.23460722
     6         -0.07380386         -2.88451061          4.75650457
     6         -0.12185904          0.03452158          4.75665083
     6         -1.27860420          0.86380087          2.23459487
     8          2.05495694         -0.32394538         -1.48790523
     1          0.52079029         -5.59446809          1.60153844
     1          3.14276163         -3.54979023          2.22124142
     1         -2.00522406         -3.61685287          4.92005249
     1          1.01150669         -3.62960179          6.35180421
     1         -1.20748330          0.77948249          6.35179581
     1          1.80954674          0.76679620          4.92067221
     1         -3.33789392          0.70040522          2.22084774
     1         -0.71557603          2.74486139          1.60188680

 Electric dipole moment (dipole orientation):
 (Debye = 10**-18 statcoulomb cm , SI units = C m)
                  (au)            (Debye)         (10**-30 SI)
   Tot        0.207491D+01      0.527389D+01      0.175918D+02
   x          0.000000D+00      0.000000D+00      0.000000D+00
   y          0.000000D+00      0.000000D+00      0.000000D+00
   z          0.207491D+01      0.527389D+01      0.175918D+02

 Dipole polarizability, Alpha (dipole orientation).
 (esu units = cm**3 , SI units = C**2 m**2 J**-1)
 Alpha(0;0):
               (au)            (10**-24 esu)      (10**-40 SI)
   iso        0.609035D+02      0.902497D+01      0.100416D+02
   aniso      0.798044D+01      0.118258D+01      0.131580D+01
   xx         0.573156D+02      0.849329D+01      0.945006D+01
   yx        -0.365932D+00     -0.542255D-01     -0.603340D-01
   yy         0.593152D+02      0.878960D+01      0.977975D+01
   zx        -0.533576D-03     -0.790679D-04     -0.879749D-04
   zy        -0.417321D-03     -0.618405D-04     -0.688069D-04
   zz         0.660798D+02      0.979202D+01      0.108951D+02

 ----------------------------------------------------------------------
 1\1\GINC-BROWN-A265\Freq\RB3LYP\6-31G(d)\C4H8O2S1\FINEJ\14-Oct-2019\0\
 \#P Geom=AllCheck Guess=TCheck SCRF=Check GenChk RB3LYP/6-31G(d) Freq\
 \Title Card Required\\0,1\O,-0.7511517828,-0.9510922373,1.5346537821\S
 ,0.211633383,-0.5231279909,0.5060709315\C,1.9297998247,-0.7755993401,1
 .1237624812\C,2.3890278895,0.6027636436,1.6112591372\C,1.7931908188,1.
 6472599704,0.6413596606\C,0.3046897369,1.3176017802,0.4859327074\O,0.1
 106335625,-1.0279807947,-0.8734211154\H,1.8900100205,-1.5447839045,1.8
 97382477\H,2.5140493212,-1.1322530363,0.2714144708\H,2.0146609391,0.78
 31885597,2.6259446454\H,3.4812995317,0.6626676328,1.6476956149\H,1.932
 9030091,2.6677565724,1.0115471815\H,2.2940641868,1.5777391527,-0.33156
 54458\H,-0.2900821277,1.6651635339,1.3347472487\H,-0.1442283133,1.6580
 964579,-0.4490837771\\Version=ES64L-G16RevA.03\State=1-A\HF=-705.82002
 12\RMSD=6.490e-10\RMSF=2.692e-06\ZeroPoint=0.1232965\Thermal=0.1232965
 \Dipole=1.5141749,1.3277767,0.4995319\DipoleDeriv=-0.9015633,-0.210950
 9,0.1473508,-0.1746154,-0.6765309,0.0683153,0.327806,0.2121291,-0.7135
 876,1.6759441,0.2342229,0.0028132,0.2339791,1.5872071,0.0751232,0.0034
 613,0.0743575,1.6742021,-0.1928977,0.0242324,-0.0637678,0.0140272,-0.1
 286803,-0.0111725,-0.0869592,0.0391668,-0.074653,0.0342407,-0.0137803,
 -0.0830847,0.0697524,0.110042,0.0470799,0.0327506,0.0363232,0.1288701,
 0.1416994,0.0787778,-0.011089,-0.0345546,0.0171274,0.0447137,-0.047747
 9,-0.0348003,0.1143778,-0.1142269,-0.021635,-0.0067785,0.0122215,-0.23
 1,0.0154445,-0.0464342,0.0367979,-0.0510533,-0.602595,-0.0508365,-0.05
 66376,-0.0880238,-0.6900754,-0.1684822,-0.2348113,-0.3148923,-0.999044
 7,0.0414786,0.0012919,-0.0172671,-0.0018187,-0.0117439,0.0401871,-0.00
 88177,0.0563154,0.0252661,-0.023718,0.0216344,0.0300465,-0.0057556,0.0
 453664,-0.0241379,0.0176004,-0.047727,-0.0140225,0.039396,0.0162627,0.
 0807257,0.0005438,-0.0025381,-0.0189061,0.0259055,-0.0219423,-0.100581
 1,-0.1363544,-0.0174231,-0.045791,-0.0381974,0.0315343,-0.0144975,-0.0
 334725,-0.0020599,0.0520295,0.0227332,-0.0570203,-0.0128468,-0.0380886
 ,-0.1254495,-0.031622,-0.0202927,-0.0496177,0.0499207,-0.0244455,-0.00
 17261,0.0437271,0.0280071,0.0548513,-0.0238253,0.0613284,0.021653,-0.0
 941608,0.0161944,-0.0134244,0.0306217,0.0063328,-0.0054878,-0.0311858,
 0.0633437,-0.0307267,-0.003056,0.0241144,0.0103748,-0.0380226,0.016190
 1,0.0253774,0.0329656,-0.0536606,0.0250234,0.0054928\Polar=62.4231666,
 3.3966473,61.9864652,2.0549764,0.5841212,58.300915\Quadrupole=0.109083
 4,1.8896846,-1.998768,-3.4497784,1.0413407,-1.4035842\PG=C01 [X(C4H8O2
 S1)]\NImag=0\\0.28149840,0.10774760,0.09801577,-0.24136686,-0.10555032
 ,0.30672731,-0.28944243,-0.09462380,0.21118370,0.59031353,-0.09009929,
 -0.12490612,0.09357307,0.09403221,0.49624700,0.22093414,0.10097980,-0.
 31121636,-0.15303060,0.05003215,0.95326153,-0.00574897,0.00052532,-0.0
 0360458,-0.10926557,0.01696937,-0.01927951,0.36184671,-0.00780189,0.01
 017597,0.00045446,0.01699525,-0.07199143,0.00643059,-0.02490371,0.5259
 0340,0.02335172,0.00251031,0.00431672,-0.01401574,0.00750578,-0.067696
 25,-0.09936804,-0.04404389,0.57032054,-0.00327749,0.00270192,0.0015433
 0,-0.01619854,-0.02491543,-0.01355984,-0.08425759,-0.03015349,-0.00848
 373,0.60818641,0.00243413,-0.00195727,-0.00132307,-0.02151730,0.005535
 89,-0.00713132,-0.02185704,-0.15997095,-0.03131607,0.00807257,0.417150
 30,0.00101504,-0.00006676,-0.00083041,-0.00836177,-0.00699523,-0.00393
 732,-0.00473499,-0.03606042,-0.09427361,-0.02893859,0.03253791,0.55307
 962,-0.00037297,0.00272543,-0.00257993,-0.00368290,-0.02544513,-0.0002
 3811,0.00396993,-0.00012978,0.00455142,-0.08941990,0.02525477,-0.01829
 857,0.45576335,0.00015986,-0.00540843,0.00362469,-0.03000221,-0.011992
 98,-0.00187648,0.00569715,-0.03371398,0.01867257,0.02280070,-0.1161863
 6,0.03784898,0.03047421,0.57367659,-0.00184354,0.00125949,-0.00018940,
 -0.00235202,-0.00552705,0.00107665,0.00459997,-0.00084225,0.00813435,-
 0.01798083,0.03893954,-0.12138639,-0.06031330,0.05653812,0.54896353,0.
 00616462,-0.01769757,0.00666438,-0.06574239,0.00921252,-0.00138852,0.0
 0062345,0.01478831,-0.00363053,-0.02198047,0.00679622,-0.00905327,-0.1
 7709614,-0.02559522,-0.00342093,0.49418921,0.00066874,0.00211263,-0.00
 513714,0.00794251,-0.12020574,0.00654687,-0.00076418,-0.00394109,0.001
 46980,0.01882082,0.00383014,0.00095062,-0.01543569,-0.07894423,-0.0031
 7515,-0.07106892,0.34317067,0.00965568,0.01496276,0.00089089,-0.003350
 81,0.00170602,-0.06301101,-0.00457387,0.00577202,0.00822426,-0.0254736
 9,0.00021533,-0.00345578,-0.00461987,-0.00228254,-0.08244639,-0.001218
 30,-0.01149355,0.62069887,0.01606601,0.00649189,0.02599478,-0.08610638
 ,-0.01481498,-0.03864947,0.00454358,-0.00832103,-0.01796408,-0.0030676
 8,0.00249535,-0.00146851,-0.00190960,0.00296163,0.00059844,0.01036886,
 -0.00107315,-0.00234107,0.05734244,-0.00445944,0.01902982,0.01239764,-
 0.01041262,-0.14139740,-0.15768969,0.00177740,0.01255863,-0.00236322,0
 .00128479,-0.00255355,0.00189120,0.00212149,-0.00305821,-0.00101931,-0
 .00085361,0.00247788,-0.02513285,0.01876475,0.11431498,-0.00760050,-0.
 01344892,-0.00649262,-0.02857323,-0.15065480,-0.49808137,0.00700826,-0
 .00733217,-0.00792839,-0.00433556,0.00363515,-0.00035127,0.00159463,-0
 .00149988,-0.00109914,0.00189337,0.00283315,-0.00409744,0.03671105,0.1
 7378495,0.51459756,0.00255495,-0.00177775,0.00213583,0.00146243,0.0211
 3504,-0.01961676,-0.04335800,-0.00610871,0.00998784,0.00119685,-0.0071
 4657,0.00961655,-0.00257326,-0.00185835,-0.00218869,-0.00378712,0.0016
 6234,-0.00022956,-0.00306014,-0.00275394,-0.00278009,0.04561933,-0.000
 46652,0.00095758,-0.00138854,0.00052219,-0.00292044,0.00220508,-0.0076
 8645,-0.18320959,0.13971642,0.00176041,-0.01564369,0.01911245,-0.00143
 784,-0.00435343,-0.00256169,-0.00061278,-0.00068004,0.00030560,-0.0008
 1011,-0.00034243,-0.00042085,0.00812130,0.19633009,0.00096146,-0.00139
 850,0.00168703,0.00299114,0.00569013,-0.00827430,0.00925890,0.14235743
 ,-0.19390832,0.00099665,-0.01007867,0.01116695,-0.00109877,-0.00273599
 ,-0.00073322,-0.00075127,-0.00021219,0.00012678,-0.00263963,-0.0007492
 1,-0.00054688,-0.00933573,-0.14979102,0.20352906,-0.00705471,-0.000511
 15,-0.00103027,-0.01540012,0.00831001,0.02405453,-0.12384464,0.0485855
 1,0.11937468,0.00767615,-0.00463367,-0.01181875,-0.00020577,0.00031022
 ,0.00007705,-0.00166678,0.00029145,-0.00270438,0.00453849,-0.00098943,
 -0.00163421,0.00097278,-0.00047713,-0.00065837,0.13347338,-0.00108159,
 0.00050095,-0.00036763,0.00204810,-0.00246816,-0.00198489,0.04815206,-
 0.07767872,-0.06604445,0.01570258,-0.00855245,-0.02335137,0.00035451,0
 .00118154,-0.00088054,0.00042457,-0.00051629,0.00092333,-0.00090696,0.
 00025157,-0.00000507,-0.01371614,0.00953870,0.01686590,-0.04908534,0.0
 8137945,-0.00304142,-0.00114826,0.00127172,-0.00607428,0.00408764,0.00
 598663,0.11901768,-0.06481372,-0.21610579,0.00403355,-0.00319478,-0.00
 820900,-0.00009009,0.00040401,0.00054082,-0.00073254,-0.00003764,-0.00
 136526,-0.00018398,0.00035350,0.00065596,0.01243404,-0.00830207,-0.014
 91534,-0.12470007,0.07444526,0.23021467,0.00012560,0.00008740,0.000359
 60,0.00075302,-0.00023307,-0.00079655,0.00347117,-0.00219733,-0.010048
 89,-0.08657993,0.01483612,0.08389392,0.00448334,-0.00237502,-0.0124057
 1,0.00093812,-0.00027383,-0.00027985,-0.00011664,0.00022971,0.00015022
 ,0.00056328,0.00059455,0.00023832,0.00019822,-0.00155022,-0.00082419,0
 .08637050,-0.00041210,0.00022710,0.00079958,0.00250236,-0.00111560,-0.
 00118789,0.01142534,-0.00860037,-0.02969846,0.01419715,-0.05451028,-0.
 03858926,-0.00920210,0.00291185,0.02441993,-0.00103260,0.00055857,-0.0
 0078839,-0.00079186,0.00047963,-0.00012551,0.00090911,0.00147662,0.000
 38641,-0.00355943,-0.00485941,-0.00216304,-0.01594044,0.06502268,-0.00
 036781,0.00005337,0.00084624,0.00158145,-0.00039537,-0.00148560,0.0026
 5184,-0.00241160,-0.00766670,0.08287520,-0.04022104,-0.27153491,0.0075
 8133,-0.00182834,-0.01966083,0.00049996,-0.00042971,0.00061525,-0.0004
 4369,0.00012969,0.00007233,-0.00029421,0.00010068,0.00111022,-0.000901
 53,-0.00107794,0.00079361,-0.09019916,0.04224894,0.29479099,-0.0001549
 5,-0.00012973,-0.00010753,0.00161061,-0.00025779,0.00058069,-0.0067506
 6,-0.00120978,-0.00034383,-0.31626991,-0.01422134,-0.00479089,-0.00981
 201,-0.00062922,0.00020056,0.00075074,0.00202464,-0.00201245,-0.000201
 79,-0.00018120,-0.00020738,-0.00024494,-0.00036371,-0.00023781,0.00104
 606,0.00007104,-0.00017928,-0.01027315,-0.00042128,0.00018724,0.339775
 76,-0.00177317,0.00116441,0.00042492,0.00249037,-0.00771232,0.00050505
 ,-0.03124523,-0.00283721,-0.00235649,-0.01508385,-0.04723303,-0.000953
 25,0.02377023,0.00248957,-0.00070025,0.00120863,-0.00294336,0.00401313
 ,-0.00142017,0.00101440,-0.00169929,0.00001591,-0.00029308,0.00019499,
 0.00069189,0.00170631,0.00023428,0.00549629,0.00023021,0.00048191,0.01
 553691,0.05229418,-0.00075341,-0.00000741,0.00059163,-0.00077165,-0.00
 129613,-0.00121673,-0.01004726,-0.00071709,-0.00087500,-0.00238295,-0.
 00145446,-0.04914339,-0.02183797,-0.00139026,-0.00130888,-0.00071311,0
 .00301759,-0.00249470,-0.00048392,-0.00017233,-0.00061774,0.00006572,-
 0.00007211,-0.00005575,-0.00028261,0.00046496,0.00056039,0.03116811,0.
 00198069,0.00194606,0.00682439,0.00100885,0.05117713,0.00008044,-0.002
 12767,0.00134619,-0.00699851,0.00343079,-0.00168043,-0.00043037,0.0019
 9230,-0.00257626,0.00219194,0.01230324,0.00640781,-0.05133649,-0.03057
 977,-0.01017666,-0.00582779,-0.03120094,-0.01033360,0.00108962,-0.0018
 1465,-0.00087514,0.00062707,0.00075639,0.00025441,0.00002074,-0.000296
 38,0.00001505,0.00049762,-0.00070141,0.00014560,0.00004712,-0.00015620
 ,0.00056161,0.05622947,-0.00041131,-0.00002530,-0.00008565,0.00078564,
 0.00064824,0.00045221,0.00196296,-0.00140270,0.00410951,-0.00271371,-0
 .01862411,-0.00747297,-0.03073590,-0.27905586,-0.08752647,-0.00108321,
 -0.00339790,-0.00142993,-0.00031405,0.00000970,-0.00012711,-0.00056075
 ,-0.00087338,-0.00067533,0.00009024,0.00014344,-0.00005826,-0.00053200
 ,0.00099833,0.00005121,0.00033121,0.00031820,-0.00020856,0.03329380,0.
 30150343,0.00035173,-0.00016396,0.00013989,-0.00059941,0.00256470,-0.0
 0096754,-0.00163028,0.00254435,-0.00285512,0.00351989,0.02164136,0.007
 80244,-0.00987850,-0.09011078,-0.08225627,-0.00085098,-0.00281931,-0.0
 0123763,0.00015216,-0.00012965,0.00050114,0.00040364,0.00105285,0.0005
 8128,0.00002578,0.00031763,0.00015935,0.00061149,-0.00052197,0.0010876
 1,0.00012482,-0.00075250,0.00047400,0.01205120,0.09352573,0.08551572,0
 .00038747,-0.00096088,-0.00008778,-0.00151765,0.00244573,0.00215237,0.
 00009299,-0.00090930,0.00032862,0.00673297,-0.00096131,-0.01472744,-0.
 10176605,0.00708497,0.10458626,-0.01858580,0.00309818,0.02885235,0.000
 56296,-0.00018678,-0.00104823,-0.00003785,-0.00013517,-0.00005857,0.00
 014682,-0.00007551,0.00022642,-0.00035850,0.00277697,-0.00229323,0.000
 79526,-0.00071965,0.00013908,0.00223040,0.00034172,-0.00415118,0.11519
 246,0.00021520,-0.00006887,-0.00014804,-0.00042738,0.00040998,0.001088
 69,-0.00035295,0.00124724,0.00021478,-0.01031450,0.00144471,0.02136557
 ,0.00739018,-0.05560416,-0.01830228,-0.00326789,0.00011980,0.00595143,
 0.00021710,0.00020221,-0.00035417,0.00019220,0.00011498,-0.00018782,0.
 00020217,-0.00045403,-0.00020340,0.00160594,-0.00289916,0.00301191,-0.
 00022492,0.00102285,-0.00086486,0.01459659,-0.00073665,-0.02765502,-0.
 00946926,0.05421642,0.00009587,0.00006397,0.00011688,0.00013956,-0.000
 11845,-0.00074021,0.00008655,-0.00075785,0.00077165,0.00827356,-0.0014
 0618,-0.02044568,0.10649103,-0.01768166,-0.25525264,-0.00312921,0.0006
 5159,0.00566927,-0.00006587,0.00010100,0.00043317,-0.00025860,0.000058
 00,0.00019179,0.00010263,0.00078362,0.00032098,-0.00212330,0.00354778,
 -0.00118941,-0.00025951,-0.00045219,0.00076562,0.00468002,-0.00089864,
 -0.00959053,-0.11272818,0.01629269,0.27677525,0.00027760,-0.00059276,-
 0.00023164,0.00025270,-0.00052442,-0.00213470,-0.00037049,0.00017843,-
 0.00031870,0.00097979,-0.00015509,0.00104482,-0.01666284,0.00934313,0.
 02543325,-0.12663189,0.05021913,0.11409138,-0.00012407,-0.00236433,-0.
 00091462,0.00004029,0.00011845,0.00004470,-0.00002934,-0.00013430,0.00
 000459,-0.00015005,0.00036713,-0.00089453,0.00021837,-0.00016458,-0.00
 037139,0.00182732,-0.00005590,0.00001389,-0.00555287,-0.00085205,-0.00
 161589,0.13722608,-0.00098639,0.00380781,0.00243118,0.01643610,-0.0096
 4199,-0.02473120,-0.00088473,-0.00276137,0.00220829,0.00030834,-0.0001
 7904,-0.00038989,-0.00643754,0.00300440,0.00905431,0.05114489,-0.07153
 640,-0.06891160,-0.00151616,-0.00683339,-0.00241429,0.00108339,-0.0000
 2057,0.00023117,-0.00020866,0.00002508,-0.00003287,0.00022746,0.000184
 54,0.00009496,0.00004826,0.00007010,0.00002583,0.00037966,0.00072077,0
 .00060071,-0.00303345,0.00063682,-0.00052908,-0.04970726,0.07746754,-0
 .00085419,0.00113034,0.00136141,-0.00042383,0.00159919,-0.00249490,0.0
 0018064,0.00035139,-0.00041796,-0.00013767,-0.00013479,0.00071534,-0.0
 0252840,0.00270981,0.00457442,0.11314100,-0.06865119,-0.21946524,0.000
 35413,-0.00078807,0.00167542,-0.00010419,-0.00000463,0.00000458,-0.000
 04918,-0.00005547,-0.00000222,0.00009020,-0.00018237,-0.00002098,0.000
 10078,-0.00012448,0.00003490,0.00040196,0.00027101,0.00076505,-0.00123
 591,0.00003429,0.00104847,-0.12379461,0.07397723,0.23038038,-0.0011035
 6,-0.00185825,-0.00021918,-0.00003779,0.00075445,0.00265274,-0.0005215
 4,-0.00080477,-0.00084446,-0.00591262,-0.00170008,0.00021464,-0.009378
 68,0.01220792,-0.02481384,-0.09171660,0.03508890,-0.09546196,0.0000743
 5,-0.00016214,0.00061144,0.00002434,0.00011640,0.00003457,0.00012873,0
 .00009356,0.00009453,0.00007740,-0.00011684,-0.00012846,-0.00053652,0.
 00135264,-0.00111464,-0.00024856,-0.00039874,-0.00014426,0.00167738,0.
 00048958,0.00031133,0.00869940,-0.00685390,0.01485926,0.09877428,-0.00
 373381,-0.00362604,0.00029485,0.01322858,-0.00848894,0.02636102,0.0011
 8469,-0.00377784,-0.00058487,-0.00246831,-0.00255029,0.00017243,-0.003
 26684,0.00505370,-0.00967641,0.03763666,-0.07010465,0.07618924,-0.0009
 6225,0.00384617,-0.00217119,0.00080291,-0.00008131,0.00010271,0.000983
 32,-0.00019797,0.00042933,0.00002444,-0.00010472,0.00019132,-0.0003730
 9,0.00070877,-0.00031469,0.00012427,-0.00022623,-0.00009413,0.00070374
 ,0.00034786,0.00034539,-0.00567558,0.00505572,-0.01013226,-0.03820873,
 0.07414578,-0.00053790,0.00082409,0.00077907,0.00165750,-0.00177166,-0
 .00120321,0.00043468,-0.00093125,-0.00004038,0.00005073,-0.00070892,0.
 00080341,0.00126512,-0.00039225,0.00104337,-0.09731005,0.07648627,-0.2
 5865188,0.00042967,-0.00061365,0.00127926,0.00016421,-0.00001016,0.000
 03613,0.00014470,-0.00003334,0.00009351,0.00016577,-0.00012645,0.00029
 610,0.00012018,0.00017532,0.00016246,-0.00022176,0.00007325,-0.0001193
 9,0.00004542,-0.00024377,0.00112537,-0.01035656,0.00838527,-0.01815867
 ,0.10394828,-0.08111275,0.27255485\\-0.00000427,0.00000234,0.00000257,
 -0.00000029,-0.00000082,-0.00000320,0.00000785,0.00000446,-0.00000431,
 -0.00000081,-0.00000194,-0.00000038,0.00000159,-0.00000082,0.00000001,
 -0.00000423,-0.00000088,0.00000722,0.00000183,-0.00000135,0.00000111,-
 0.00000095,-0.00000036,0.00000047,-0.00000324,-0.00000261,-0.00000015,
 0.00000196,-0.00000037,-0.00000241,0.00000184,0.00000215,-0.00000129,0
 .00000038,0.00000093,0.00000183,-0.00000111,-0.00000002,0.00000299,-0.
 00000174,-0.00000436,-0.00000270,0.00000119,0.00000365,-0.00000177\\\@


 DO NOT LET SELFISH MEN OR GREEDY INTERESTS SKIN YOUR COUNTRY OF ITS
 BEAUTY, ITS RICHES, OR ITS ROMANCE. -- THEODORE ROOSEVELT
 Job cpu time:       0 days  0 hours  5 minutes 26.1 seconds.
 Elapsed time:       0 days  0 hours  0 minutes 14.1 seconds.
 File lengths (MBytes):  RWF=     35 Int=      0 D2E=      0 Chk=      3 Scr=      1
 Normal termination of Gaussian 16 at Mon Oct 14 01:23:44 2019.
real 52.63
user 1130.21
sys 13.56
Machine:
brown-a265
brown-a265
brown-a265
brown-a265
brown-a265
brown-a265
brown-a265
brown-a265
brown-a265
brown-a265
brown-a265
brown-a265
brown-a265
brown-a265
brown-a265
brown-a265
brown-a265
brown-a265
brown-a265
brown-a265
brown-a265
brown-a265
brown-a265
brown-a265
