Title Card Required                                                     
Freq      RB3LYP                                                      6-31G(d)            
Number of atoms                            I               16
Info1-9                                    I   N=           9
          42          42        1002           0           0         100
           6          18        -502
Full Title                                 C   N=           2
Title Card Required     
Route                                      C   N=           6
#P opt freq b3lyp/6-31g(d) geom=connectivity temperature=0.0
01          
Charge                                     I                1
Multiplicity                               I                1
Number of electrons                        I               64
Number of alpha electrons                  I               32
Number of beta electrons                   I               32
Number of basis functions                  I              127
Number of independent functions            I              127
Number of point charges in /Mol/           I                0
Number of translation vectors              I                0
Atomic numbers                             I   N=          16
           8          16           6           6           6           6
           8           1           1           1           1           1
           1           1           1           1
Nuclear charges                            R   N=          16
  8.00000000E+00  1.60000000E+01  6.00000000E+00  6.00000000E+00  6.00000000E+00
  6.00000000E+00  8.00000000E+00  1.00000000E+00  1.00000000E+00  1.00000000E+00
  1.00000000E+00  1.00000000E+00  1.00000000E+00  1.00000000E+00  1.00000000E+00
  1.00000000E+00
Current cartesian coordinates              R   N=          48
 -3.19491589E+00  8.74859729E-01 -2.09779725E+00 -1.34925319E+00  9.33068843E-02
 -2.14498325E-01  9.37565385E-01  2.50485810E+00  7.87985623E-01  3.49212911E+00
  1.41857689E+00 -8.84961604E-02  3.38064933E+00 -1.48869302E+00  1.80903910E-01
  8.98178057E-01 -2.38447917E+00 -1.02958242E+00 -2.55615317E+00 -1.08366130E+00
  2.33041344E+00  3.64137467E-01  4.27788541E+00 -1.02671466E-01  7.75353844E-01
  2.64474047E+00  2.84416626E+00  3.84276421E+00  1.95020824E+00 -2.05713523E+00
  5.00967828E+00  2.22527645E+00  1.05724103E+00  4.97529427E+00 -2.39210453E+00
 -7.72333496E-01  3.44000591E+00 -2.04589010E+00  2.17250216E+00  9.44528423E-01
 -2.37147851E+00 -3.09982016E+00  1.39809324E-01 -4.18090633E+00 -3.50974299E-01
 -4.14609942E+00 -2.31805530E-01  2.77520317E+00
Number of symbols in /Mol/                 I                0
Force Field                                I                0
Atom Types                                 C   N=          16
                                                            
                                                            
                                                            
            
Int Atom Types                             I   N=          16
           0           0           0           0           0           0
           0           0           0           0           0           0
           0           0           0           0
MM charges                                 R   N=          16
  0.00000000E+00  0.00000000E+00  0.00000000E+00  0.00000000E+00  0.00000000E+00
  0.00000000E+00  0.00000000E+00  0.00000000E+00  0.00000000E+00  0.00000000E+00
  0.00000000E+00  0.00000000E+00  0.00000000E+00  0.00000000E+00  0.00000000E+00
  0.00000000E+00
Integer atomic weights                     I   N=          16
          16          32          12          12          12          12
          16           1           1           1           1           1
           1           1           1           1
Real atomic weights                        R   N=          16
  1.59949146E+01  3.19720718E+01  1.20000000E+01  1.20000000E+01  1.20000000E+01
  1.20000000E+01  1.59949146E+01  1.00782504E+00  1.00782504E+00  1.00782504E+00
  1.00782504E+00  1.00782504E+00  1.00782504E+00  1.00782504E+00  1.00782504E+00
  1.00782504E+00
Atom fragment info                         I   N=          16
           0           0           0           0           0           0
           0           0           0           0           0           0
           0           0           0           0
Atom residue num                           I   N=          16
           0           0           0           0           0           0
           0           0           0           0           0           0
           0           0           0           0
Nuclear spins                              I   N=          16
           0           0           0           0           0           0
           0           1           1           1           1           1
           1           1           1           1
Nuclear ZEff                               R   N=          16
 -5.60000000E+00 -1.36000000E+01 -3.60000000E+00 -3.60000000E+00 -3.60000000E+00
 -3.60000000E+00 -5.60000000E+00 -1.00000000E+00 -1.00000000E+00 -1.00000000E+00
 -1.00000000E+00 -1.00000000E+00 -1.00000000E+00 -1.00000000E+00 -1.00000000E+00
 -1.00000000E+00
Nuclear ZNuc                               R   N=          16
  8.00000000E+00  1.60000000E+01  6.00000000E+00  6.00000000E+00  6.00000000E+00
  6.00000000E+00  8.00000000E+00  1.00000000E+00  1.00000000E+00  1.00000000E+00
  1.00000000E+00  1.00000000E+00  1.00000000E+00  1.00000000E+00  1.00000000E+00
  1.00000000E+00
Nuclear QMom                               R   N=          16
  0.00000000E+00  0.00000000E+00  0.00000000E+00  0.00000000E+00  0.00000000E+00
  0.00000000E+00  0.00000000E+00  0.00000000E+00  0.00000000E+00  0.00000000E+00
  0.00000000E+00  0.00000000E+00  0.00000000E+00  0.00000000E+00  0.00000000E+00
  0.00000000E+00
Nuclear GFac                               R   N=          16
  0.00000000E+00  0.00000000E+00  0.00000000E+00  0.00000000E+00  0.00000000E+00
  0.00000000E+00  0.00000000E+00  2.79284600E+00  2.79284600E+00  2.79284600E+00
  2.79284600E+00  2.79284600E+00  2.79284600E+00  2.79284600E+00  2.79284600E+00
  2.79284600E+00
MicOpt                                     I   N=          16
          -1          -1          -1          -1          -1          -1
          -1          -1          -1          -1          -1          -1
          -1          -1          -1          -1
Number of residues                         I                0
Number of secondary structures             I                0
Redundant internal dimensions              I   N=           4
          95          16          31          48
Redundant internal coordinate indices      I   N=         380
           1           2           0           0           2           3
           0           0           2           6           0           0
           2           7           0           0           3           4
           0           0           3           8           0           0
           3           9           0           0           4           5
           0           0           4          10           0           0
           4          11           0           0           5           6
           0           0           5          12           0           0
           5          13           0           0           6          14
           0           0           6          15           0           0
           7          16           0           0           1           2
           3           0           1           2           6           0
           1           2           7           0           3           2
           6           0           3           2           7           0
           6           2           7           0           2           3
           4           0           2           3           8           0
           2           3           9           0           4           3
           8           0           4           3           9           0
           8           3           9           0           3           4
           5           0           3           4          10           0
           3           4          11           0           5           4
          10           0           5           4          11           0
          10           4          11           0           4           5
           6           0           4           5          12           0
           4           5          13           0           6           5
          12           0           6           5          13           0
          12           5          13           0           2           6
           5           0           2           6          14           0
           2           6          15           0           5           6
          14           0           5           6          15           0
          14           6          15           0           2           7
          16           0           1           2           3           4
           1           2           3           8           1           2
           3           9           6           2           3           4
           6           2           3           8           6           2
           3           9           7           2           3           4
           7           2           3           8           7           2
           3           9           1           2           6           5
           1           2           6          14           1           2
           6          15           3           2           6           5
           3           2           6          14           3           2
           6          15           7           2           6           5
           7           2           6          14           7           2
           6          15           1           2           7          16
           3           2           7          16           6           2
           7          16           2           3           4           5
           2           3           4          10           2           3
           4          11           8           3           4           5
           8           3           4          10           8           3
           4          11           9           3           4           5
           9           3           4          10           9           3
           4          11           3           4           5           6
           3           4           5          12           3           4
           5          13          10           4           5           6
          10           4           5          12          10           4
           5          13          11           4           5           6
          11           4           5          12          11           4
           5          13           4           5           6           2
           4           5           6          14           4           5
           6          15          12           5           6           2
          12           5           6          14          12           5
           6          15          13           5           6           2
          13           5           6          14          13           5
           6          15
Redundant internal coordinates             R   N=          95
  2.75029280E+00  3.47132432E+00  3.44307029E+00  3.05261159E+00  2.91101752E+00
  2.06536086E+00  2.06730706E+00  2.92185257E+00  2.06908595E+00  2.06553464E+00
  2.90351056E+00  2.06584278E+00  2.06892615E+00  2.07079736E+00  2.06465074E+00
  1.85780118E+00  2.02909917E+00  2.07194911E+00  1.99886982E+00  1.70953983E+00
  1.86246349E+00  1.74971350E+00  1.80484437E+00  1.86391357E+00  1.85724940E+00
  2.01988694E+00  1.97531623E+00  1.92734572E+00  1.88604888E+00  1.91697632E+00
  1.90920238E+00  1.92820650E+00  1.94495673E+00  1.87854168E+00  1.87670552E+00
  1.94242198E+00  1.93438863E+00  1.90994671E+00  1.92065205E+00  1.87995896E+00
  1.81045217E+00  1.82013175E+00  1.88450260E+00  1.97764556E+00  2.03248107E+00
  1.92013289E+00  1.94031898E+00 -2.02936988E+00  1.09674650E-01  2.16860711E+00
  1.97245495E-01  2.33629003E+00 -1.88796282E+00  1.99964567E+00 -2.14449511E+00
 -8.55626476E-02  2.45244146E+00  3.78047715E-01 -1.66391551E+00  2.55716117E-01
 -1.81867762E+00  2.42254446E+00 -1.64112998E+00  2.56766159E+00  5.25698362E-01
 -6.19698665E-01  1.65178624E+00 -2.85818683E+00 -6.03083496E-01  1.50153544E+00
 -2.72346137E+00 -2.63464470E+00 -5.30025762E-01  1.52816274E+00  1.39900700E+00
 -2.77955937E+00 -7.21370870E-01  8.43089939E-01  2.93463602E+00 -1.25681792E+00
 -1.25449845E+00  8.37047635E-01  2.92877900E+00  2.94118908E+00 -1.25045015E+00
  8.41281214E-01 -6.43949261E-01  1.31868419E+00 -2.71128971E+00 -2.75602009E+00
 -7.93386639E-01  1.45982477E+00  1.46462709E+00 -2.85592476E+00 -6.02713355E-01
ZRed-IntVec                                I   N=          95
           0           0           0           0           0           0
           0           0           0           0           0           0
           0           0           0           0           0           0
           0           0           0           0           0           0
           0           0           0           0           0           0
           0           0           0           0           0           0
           0           0           0           0           0           0
           0           0           0           0           0           0
           0           0           0           0           0           0
           0           0           0           0           0           0
           0           0           0           0           0           0
           0           0           0           0           0           0
           0           0           0           0           0           0
           0           0           0           0           0           0
           0           0           0           0           0           0
           0           0           0           0           0
ZRed-FPVec                                 R   N=          95
  0.00000000E+00  0.00000000E+00  0.00000000E+00  0.00000000E+00  0.00000000E+00
  0.00000000E+00  0.00000000E+00  0.00000000E+00  0.00000000E+00  0.00000000E+00
  0.00000000E+00  0.00000000E+00  0.00000000E+00  0.00000000E+00  0.00000000E+00
  0.00000000E+00  0.00000000E+00  0.00000000E+00  0.00000000E+00  0.00000000E+00
  0.00000000E+00  0.00000000E+00  0.00000000E+00  0.00000000E+00  0.00000000E+00
  0.00000000E+00  0.00000000E+00  0.00000000E+00  0.00000000E+00  0.00000000E+00
  0.00000000E+00  0.00000000E+00  0.00000000E+00  0.00000000E+00  0.00000000E+00
  0.00000000E+00  0.00000000E+00  0.00000000E+00  0.00000000E+00  0.00000000E+00
  0.00000000E+00  0.00000000E+00  0.00000000E+00  0.00000000E+00  0.00000000E+00
  0.00000000E+00  0.00000000E+00  0.00000000E+00  0.00000000E+00  0.00000000E+00
  0.00000000E+00  0.00000000E+00  0.00000000E+00  0.00000000E+00  0.00000000E+00
  0.00000000E+00  0.00000000E+00  0.00000000E+00  0.00000000E+00  0.00000000E+00
  0.00000000E+00  0.00000000E+00  0.00000000E+00  0.00000000E+00  0.00000000E+00
  0.00000000E+00  0.00000000E+00  0.00000000E+00  0.00000000E+00  0.00000000E+00
  0.00000000E+00  0.00000000E+00  0.00000000E+00  0.00000000E+00  0.00000000E+00
  0.00000000E+00  0.00000000E+00  0.00000000E+00  0.00000000E+00  0.00000000E+00
  0.00000000E+00  0.00000000E+00  0.00000000E+00  0.00000000E+00  0.00000000E+00
  0.00000000E+00  0.00000000E+00  0.00000000E+00  0.00000000E+00  0.00000000E+00
  0.00000000E+00  0.00000000E+00  0.00000000E+00  0.00000000E+00  0.00000000E+00
ZRed-Constraint1                           R   N=          95
  2.75029280E+00  3.47132432E+00  3.44307029E+00  3.05261159E+00  2.91101752E+00
  2.06536086E+00  2.06730706E+00  2.92185257E+00  2.06908595E+00  2.06553464E+00
  2.90351056E+00  2.06584278E+00  2.06892615E+00  2.07079736E+00  2.06465074E+00
  1.85780118E+00  2.02909917E+00  2.07194911E+00  1.99886982E+00  1.70953983E+00
  1.86246349E+00  1.74971350E+00  1.80484437E+00  1.86391357E+00  1.85724940E+00
  2.01988694E+00  1.97531623E+00  1.92734572E+00  1.88604888E+00  1.91697632E+00
  1.90920238E+00  1.92820650E+00  1.94495673E+00  1.87854168E+00  1.87670552E+00
  1.94242198E+00  1.93438863E+00  1.90994671E+00  1.92065205E+00  1.87995896E+00
  1.81045217E+00  1.82013175E+00  1.88450260E+00  1.97764556E+00  2.03248107E+00
  1.92013289E+00  1.94031898E+00 -2.02936988E+00  1.09674650E-01  2.16860711E+00
  1.97245495E-01  2.33629003E+00 -1.88796282E+00  1.99964567E+00 -2.14449511E+00
 -8.55626476E-02  2.45244146E+00  3.78047715E-01 -1.66391551E+00  2.55716117E-01
 -1.81867762E+00  2.42254446E+00 -1.64112998E+00  2.56766159E+00  5.25698362E-01
 -6.19698665E-01  1.65178624E+00 -2.85818683E+00 -6.03083496E-01  1.50153544E+00
 -2.72346137E+00 -2.63464470E+00 -5.30025762E-01  1.52816274E+00  1.39900700E+00
 -2.77955937E+00 -7.21370870E-01  8.43089939E-01  2.93463602E+00 -1.25681792E+00
 -1.25449845E+00  8.37047635E-01  2.92877900E+00  2.94118908E+00 -1.25045015E+00
  8.41281214E-01 -6.43949261E-01  1.31868419E+00 -2.71128971E+00 -2.75602009E+00
 -7.93386639E-01  1.45982477E+00  1.46462709E+00 -2.85592476E+00 -6.02713355E-01
ZRed-Constraint2                           R   N=          95
  3.02654866E+00  3.45255895E+00  3.45123861E+00  3.02650466E+00  2.92266439E+00
  2.05980395E+00  2.05982350E+00  2.93902517E+00  2.05977288E+00  2.05983429E+00
  2.91831001E+00  2.05986206E+00  2.05973054E+00  2.05983182E+00  2.05990263E+00
  1.81413707E+00  1.94227369E+00  1.93124216E+00  1.95113554E+00  1.76115981E+00
  1.93120810E+00  1.93868580E+00  1.78603343E+00  1.93033472E+00  1.93026579E+00
  1.84615464E+00  1.84613338E+00  2.09451190E+00  1.91275054E+00  1.86159144E+00
  1.86151466E+00  1.86481352E+00  1.86487765E+00  2.09434293E+00  1.90857350E+00
  1.86617603E+00  1.86607947E+00  1.86193824E+00  1.86203050E+00  2.09446824E+00
  1.77072712E+00  1.93294320E+00  1.93284402E+00  1.84997161E+00  1.84988457E+00
  2.09434046E+00  2.09439510E+00 -1.91169770E+00  4.83545890E-02  2.41148641E+00
  1.37701830E-01  2.09775412E+00 -1.82229937E+00  2.19104080E+00 -2.13209222E+00
  2.31039603E-01  2.33061227E+00  3.72790144E-01 -1.99488651E+00  2.73144353E-01
 -1.68467777E+00  2.23083088E+00 -1.77471742E+00  2.55064576E+00  1.82969108E-01
 -2.50615592E+00 -3.30744069E-01  1.61043087E+00 -5.21376390E-01  1.49127230E+00
 -2.53405921E+00 -2.54334433E+00 -5.30695634E-01  1.72715816E+00  1.50050720E+00
 -2.77002941E+00 -5.12175613E-01  7.87694423E-01  2.79732575E+00 -1.22199380E+00
 -1.22289835E+00  7.86732982E-01  3.05059873E+00  2.79823140E+00 -1.47532258E+00
  7.88543172E-01 -6.15780838E-01  1.40408897E+00 -2.63550977E+00 -2.62812900E+00
 -6.08259198E-01  1.63532738E+00  1.39650318E+00 -2.86681233E+00 -6.23225751E-01
SymInf integers                            I   N=          26
           1           1           1           1           1           0
           0           0           0           0           0           0
           0           0           0           0           0           0
           0           0           0           0           0           0
           0           0
RotTr to input orientation                 R   N=          12
  6.91005355E-01  6.50402528E-01  3.15417423E-01  4.27267612E-01 -7.19474010E-01
  5.47539530E-01  5.83055732E-01 -2.43585098E-01 -7.75056329E-01  1.61885783E+00
 -2.85845207E-02  1.14772903E+00
Number of contracted shells                I               47
Number of primitive shells                 I              119
Pure/Cartesian d shells                    I                1
Pure/Cartesian f shells                    I                0
Highest angular momentum                   I                2
Largest degree of contraction              I                6
Shell types                                I   N=          47
           0          -1          -1           2           0          -1
          -1          -1           2           0          -1          -1
           2           0          -1          -1           2           0
          -1          -1           2           0          -1          -1
           2           0          -1          -1           2           0
           0           0           0           0           0           0
           0           0           0           0           0           0
           0           0           0           0           0
Number of primitives per shell             I   N=          47
           6           3           1           1           6           6
           3           1           1           6           3           1
           1           6           3           1           1           6
           3           1           1           6           3           1
           1           6           3           1           1           3
           1           3           1           3           1           3
           1           3           1           3           1           3
           1           3           1           3           1
Shell to atom map                          I   N=          47
           1           1           1           1           2           2
           2           2           2           3           3           3
           3           4           4           4           4           5
           5           5           5           6           6           6
           6           7           7           7           7           8
           8           9           9          10          10          11
          11          12          12          13          13          14
          14          15          15          16          16
Primitive exponents                        R   N=         119
  5.48467166E+03  8.25234946E+02  1.88046958E+02  5.29645000E+01  1.68975704E+01
  5.79963534E+00  1.55396162E+01  3.59993359E+00  1.01376175E+00  2.70005823E-01
  8.00000000E-01  2.19171000E+04  3.30149000E+03  7.54146000E+02  2.12711000E+02
  6.79896000E+01  2.30515000E+01  4.23735000E+02  1.00710000E+02  3.21599000E+01
  1.18079000E+01  4.63110000E+00  1.87025000E+00  2.61584000E+00  9.22167000E-01
  3.41287000E-01  1.17167000E-01  6.50000000E-01  3.04752488E+03  4.57369518E+02
  1.03948685E+02  2.92101553E+01  9.28666296E+00  3.16392696E+00  7.86827235E+00
  1.88128854E+00  5.44249258E-01  1.68714478E-01  8.00000000E-01  3.04752488E+03
  4.57369518E+02  1.03948685E+02  2.92101553E+01  9.28666296E+00  3.16392696E+00
  7.86827235E+00  1.88128854E+00  5.44249258E-01  1.68714478E-01  8.00000000E-01
  3.04752488E+03  4.57369518E+02  1.03948685E+02  2.92101553E+01  9.28666296E+00
  3.16392696E+00  7.86827235E+00  1.88128854E+00  5.44249258E-01  1.68714478E-01
  8.00000000E-01  3.04752488E+03  4.57369518E+02  1.03948685E+02  2.92101553E+01
  9.28666296E+00  3.16392696E+00  7.86827235E+00  1.88128854E+00  5.44249258E-01
  1.68714478E-01  8.00000000E-01  5.48467166E+03  8.25234946E+02  1.88046958E+02
  5.29645000E+01  1.68975704E+01  5.79963534E+00  1.55396162E+01  3.59993359E+00
  1.01376175E+00  2.70005823E-01  8.00000000E-01  1.87311370E+01  2.82539436E+00
  6.40121692E-01  1.61277759E-01  1.87311370E+01  2.82539436E+00  6.40121692E-01
  1.61277759E-01  1.87311370E+01  2.82539436E+00  6.40121692E-01  1.61277759E-01
  1.87311370E+01  2.82539436E+00  6.40121692E-01  1.61277759E-01  1.87311370E+01
  2.82539436E+00  6.40121692E-01  1.61277759E-01  1.87311370E+01  2.82539436E+00
  6.40121692E-01  1.61277759E-01  1.87311370E+01  2.82539436E+00  6.40121692E-01
  1.61277759E-01  1.87311370E+01  2.82539436E+00  6.40121692E-01  1.61277759E-01
  1.87311370E+01  2.82539436E+00  6.40121692E-01  1.61277759E-01
Contraction coefficients                   R   N=         119
  1.83107443E-03  1.39501722E-02  6.84450781E-02  2.32714336E-01  4.70192898E-01
  3.58520853E-01 -1.10777550E-01 -1.48026263E-01  1.13076702E+00  1.00000000E+00
  1.00000000E+00  1.86924085E-03  1.42303065E-02  6.96962317E-02  2.38487108E-01
  4.83307220E-01  3.38074154E-01 -2.37677050E-03 -3.16930067E-02 -1.13317024E-01
  5.60900118E-02  5.92255124E-01  4.55006095E-01 -2.50373114E-01  6.69567631E-02
  1.05450627E+00  1.00000000E+00  1.00000000E+00  1.83473713E-03  1.40373228E-02
  6.88426223E-02  2.32184443E-01  4.67941348E-01  3.62311985E-01 -1.19332420E-01
 -1.60854152E-01  1.14345644E+00  1.00000000E+00  1.00000000E+00  1.83473713E-03
  1.40373228E-02  6.88426223E-02  2.32184443E-01  4.67941348E-01  3.62311985E-01
 -1.19332420E-01 -1.60854152E-01  1.14345644E+00  1.00000000E+00  1.00000000E+00
  1.83473713E-03  1.40373228E-02  6.88426223E-02  2.32184443E-01  4.67941348E-01
  3.62311985E-01 -1.19332420E-01 -1.60854152E-01  1.14345644E+00  1.00000000E+00
  1.00000000E+00  1.83473713E-03  1.40373228E-02  6.88426223E-02  2.32184443E-01
  4.67941348E-01  3.62311985E-01 -1.19332420E-01 -1.60854152E-01  1.14345644E+00
  1.00000000E+00  1.00000000E+00  1.83107443E-03  1.39501722E-02  6.84450781E-02
  2.32714336E-01  4.70192898E-01  3.58520853E-01 -1.10777550E-01 -1.48026263E-01
  1.13076702E+00  1.00000000E+00  1.00000000E+00  3.34946043E-02  2.34726953E-01
  8.13757326E-01  1.00000000E+00  3.34946043E-02  2.34726953E-01  8.13757326E-01
  1.00000000E+00  3.34946043E-02  2.34726953E-01  8.13757326E-01  1.00000000E+00
  3.34946043E-02  2.34726953E-01  8.13757326E-01  1.00000000E+00  3.34946043E-02
  2.34726953E-01  8.13757326E-01  1.00000000E+00  3.34946043E-02  2.34726953E-01
  8.13757326E-01  1.00000000E+00  3.34946043E-02  2.34726953E-01  8.13757326E-01
  1.00000000E+00  3.34946043E-02  2.34726953E-01  8.13757326E-01  1.00000000E+00
  3.34946043E-02  2.34726953E-01  8.13757326E-01  1.00000000E+00
P(S=P) Contraction coefficients            R   N=         119
  0.00000000E+00  0.00000000E+00  0.00000000E+00  0.00000000E+00  0.00000000E+00
  0.00000000E+00  7.08742682E-02  3.39752839E-01  7.27158577E-01  1.00000000E+00
  0.00000000E+00  0.00000000E+00  0.00000000E+00  0.00000000E+00  0.00000000E+00
  0.00000000E+00  0.00000000E+00  4.06100998E-03  3.06812999E-02  1.30451999E-01
  3.27204999E-01  4.52850998E-01  2.56041999E-01 -1.45104895E-02  3.10262776E-01
  7.54482456E-01  1.00000000E+00  0.00000000E+00  0.00000000E+00  0.00000000E+00
  0.00000000E+00  0.00000000E+00  0.00000000E+00  0.00000000E+00  6.89990666E-02
  3.16423961E-01  7.44308291E-01  1.00000000E+00  0.00000000E+00  0.00000000E+00
  0.00000000E+00  0.00000000E+00  0.00000000E+00  0.00000000E+00  0.00000000E+00
  6.89990666E-02  3.16423961E-01  7.44308291E-01  1.00000000E+00  0.00000000E+00
  0.00000000E+00  0.00000000E+00  0.00000000E+00  0.00000000E+00  0.00000000E+00
  0.00000000E+00  6.89990666E-02  3.16423961E-01  7.44308291E-01  1.00000000E+00
  0.00000000E+00  0.00000000E+00  0.00000000E+00  0.00000000E+00  0.00000000E+00
  0.00000000E+00  0.00000000E+00  6.89990666E-02  3.16423961E-01  7.44308291E-01
  1.00000000E+00  0.00000000E+00  0.00000000E+00  0.00000000E+00  0.00000000E+00
  0.00000000E+00  0.00000000E+00  0.00000000E+00  7.08742682E-02  3.39752839E-01
  7.27158577E-01  1.00000000E+00  0.00000000E+00  0.00000000E+00  0.00000000E+00
  0.00000000E+00  0.00000000E+00  0.00000000E+00  0.00000000E+00  0.00000000E+00
  0.00000000E+00  0.00000000E+00  0.00000000E+00  0.00000000E+00  0.00000000E+00
  0.00000000E+00  0.00000000E+00  0.00000000E+00  0.00000000E+00  0.00000000E+00
  0.00000000E+00  0.00000000E+00  0.00000000E+00  0.00000000E+00  0.00000000E+00
  0.00000000E+00  0.00000000E+00  0.00000000E+00  0.00000000E+00  0.00000000E+00
  0.00000000E+00  0.00000000E+00  0.00000000E+00  0.00000000E+00  0.00000000E+00
  0.00000000E+00  0.00000000E+00  0.00000000E+00  0.00000000E+00
Coordinates of each shell                  R   N=         141
 -3.19491589E+00  8.74859729E-01 -2.09779725E+00 -3.19491589E+00  8.74859729E-01
 -2.09779725E+00 -3.19491589E+00  8.74859729E-01 -2.09779725E+00 -3.19491589E+00
  8.74859729E-01 -2.09779725E+00 -1.34925319E+00  9.33068843E-02 -2.14498325E-01
 -1.34925319E+00  9.33068843E-02 -2.14498325E-01 -1.34925319E+00  9.33068843E-02
 -2.14498325E-01 -1.34925319E+00  9.33068843E-02 -2.14498325E-01 -1.34925319E+00
  9.33068843E-02 -2.14498325E-01  9.37565385E-01  2.50485810E+00  7.87985623E-01
  9.37565385E-01  2.50485810E+00  7.87985623E-01  9.37565385E-01  2.50485810E+00
  7.87985623E-01  9.37565385E-01  2.50485810E+00  7.87985623E-01  3.49212911E+00
  1.41857689E+00 -8.84961604E-02  3.49212911E+00  1.41857689E+00 -8.84961604E-02
  3.49212911E+00  1.41857689E+00 -8.84961604E-02  3.49212911E+00  1.41857689E+00
 -8.84961604E-02  3.38064933E+00 -1.48869302E+00  1.80903910E-01  3.38064933E+00
 -1.48869302E+00  1.80903910E-01  3.38064933E+00 -1.48869302E+00  1.80903910E-01
  3.38064933E+00 -1.48869302E+00  1.80903910E-01  8.98178057E-01 -2.38447917E+00
 -1.02958242E+00  8.98178057E-01 -2.38447917E+00 -1.02958242E+00  8.98178057E-01
 -2.38447917E+00 -1.02958242E+00  8.98178057E-01 -2.38447917E+00 -1.02958242E+00
 -2.55615317E+00 -1.08366130E+00  2.33041344E+00 -2.55615317E+00 -1.08366130E+00
  2.33041344E+00 -2.55615317E+00 -1.08366130E+00  2.33041344E+00 -2.55615317E+00
 -1.08366130E+00  2.33041344E+00  3.64137467E-01  4.27788541E+00 -1.02671466E-01
  3.64137467E-01  4.27788541E+00 -1.02671466E-01  7.75353844E-01  2.64474047E+00
  2.84416626E+00  7.75353844E-01  2.64474047E+00  2.84416626E+00  3.84276421E+00
  1.95020824E+00 -2.05713523E+00  3.84276421E+00  1.95020824E+00 -2.05713523E+00
  5.00967828E+00  2.22527645E+00  1.05724103E+00  5.00967828E+00  2.22527645E+00
  1.05724103E+00  4.97529427E+00 -2.39210453E+00 -7.72333496E-01  4.97529427E+00
 -2.39210453E+00 -7.72333496E-01  3.44000591E+00 -2.04589010E+00  2.17250216E+00
  3.44000591E+00 -2.04589010E+00  2.17250216E+00  9.44528423E-01 -2.37147851E+00