 Entering Gaussian System, Link 0=/apps/cent7/gaussian/g16-A.03/g16-haswell/g16/g16
 Initial command:
 /apps/cent7/gaussian/g16-A.03/g16-haswell/g16/l1.exe "/scratch/brown/finej/gaussian/Gau-241774.inp" -scrdir="/scratch/brown/finej/gaussian/"
 Entering Link 1 = /apps/cent7/gaussian/g16-A.03/g16-haswell/g16/l1.exe PID=    241775.
  
 Copyright (c) 1988,1990,1992,1993,1995,1998,2003,2009,2016,
            Gaussian, Inc.  All Rights Reserved.
  
 This is part of the Gaussian(R) 16 program.  It is based on
 the Gaussian(R) 09 system (copyright 2009, Gaussian, Inc.),
 the Gaussian(R) 03 system (copyright 2003, Gaussian, Inc.),
 the Gaussian(R) 98 system (copyright 1998, Gaussian, Inc.),
 the Gaussian(R) 94 system (copyright 1995, Gaussian, Inc.),
 the Gaussian 92(TM) system (copyright 1992, Gaussian, Inc.),
 the Gaussian 90(TM) system (copyright 1990, Gaussian, Inc.),
 the Gaussian 88(TM) system (copyright 1988, Gaussian, Inc.),
 the Gaussian 86(TM) system (copyright 1986, Carnegie Mellon
 University), and the Gaussian 82(TM) system (copyright 1983,
 Carnegie Mellon University). Gaussian is a federally registered
 trademark of Gaussian, Inc.
  
 This software contains proprietary and confidential information,
 including trade secrets, belonging to Gaussian, Inc.
  
 This software is provided under written license and may be
 used, copied, transmitted, or stored only in accord with that
 written license.
  
 The following legend is applicable only to US Government
 contracts under FAR:
  
                    RESTRICTED RIGHTS LEGEND
  
 Use, reproduction and disclosure by the US Government is
 subject to restrictions as set forth in subparagraphs (a)
 and (c) of the Commercial Computer Software - Restricted
 Rights clause in FAR 52.227-19.
  
 Gaussian, Inc.
 340 Quinnipiac St., Bldg. 40, Wallingford CT 06492
  
  
 ---------------------------------------------------------------
 Warning -- This program may not be used in any manner that
 competes with the business of Gaussian, Inc. or will provide
 assistance to any competitor of Gaussian, Inc.  The licensee
 of this program is prohibited from giving any competitor of
 Gaussian, Inc. access to this program.  By using this program,
 the user acknowledges that Gaussian, Inc. is engaged in the
 business of creating and licensing software in the field of
 computational chemistry and represents and warrants to the
 licensee that it is not a competitor of Gaussian, Inc. and that
 it will not use this program in any manner prohibited above.
 ---------------------------------------------------------------
  

 Cite this work as:
 Gaussian 16, Revision A.03,
 M. J. Frisch, G. W. Trucks, H. B. Schlegel, G. E. Scuseria, 
 M. A. Robb, J. R. Cheeseman, G. Scalmani, V. Barone, 
 G. A. Petersson, H. Nakatsuji, X. Li, M. Caricato, A. V. Marenich, 
 J. Bloino, B. G. Janesko, R. Gomperts, B. Mennucci, H. P. Hratchian, 
 J. V. Ortiz, A. F. Izmaylov, J. L. Sonnenberg, D. Williams-Young, 
 F. Ding, F. Lipparini, F. Egidi, J. Goings, B. Peng, A. Petrone, 
 T. Henderson, D. Ranasinghe, V. G. Zakrzewski, J. Gao, N. Rega, 
 G. Zheng, W. Liang, M. Hada, M. Ehara, K. Toyota, R. Fukuda, 
 J. Hasegawa, M. Ishida, T. Nakajima, Y. Honda, O. Kitao, H. Nakai, 
 T. Vreven, K. Throssell, J. A. Montgomery, Jr., J. E. Peralta, 
 F. Ogliaro, M. J. Bearpark, J. J. Heyd, E. N. Brothers, K. N. Kudin, 
 V. N. Staroverov, T. A. Keith, R. Kobayashi, J. Normand, 
 K. Raghavachari, A. P. Rendell, J. C. Burant, S. S. Iyengar, 
 J. Tomasi, M. Cossi, J. M. Millam, M. Klene, C. Adamo, R. Cammi, 
 J. W. Ochterski, R. L. Martin, K. Morokuma, O. Farkas, 
 J. B. Foresman, and D. J. Fox, Gaussian, Inc., Wallingford CT, 2016.
 
 ******************************************
 Gaussian 16:  ES64L-G16RevA.03 25-Dec-2016
                14-Oct-2019 
 ******************************************
 %chk=23_p.chk
 %nprocshared=24
 Will use up to   24 processors via shared memory.
 %mem=80GB
 --------------------------------------------------------------
 #P opt freq b3lyp/6-31g(d) geom=connectivity temperature=0.001
 --------------------------------------------------------------
 1/18=20,19=15,26=3,38=1,57=2,112=-1000/1,3;
 2/9=110,12=2,17=6,18=5,40=1/2;
 3/5=1,6=6,7=1,11=2,25=1,30=1,71=1,74=-5/1,2,3;
 4//1;
 5/5=2,38=5/2;
 6/7=2,8=2,9=2,10=2,28=1/1;
 7//1,2,3,16;
 1/18=20,19=15,26=3/3(2);
 2/9=110/2;
 99//99;
 2/9=110/2;
 3/5=1,6=6,7=1,11=2,25=1,30=1,71=1,74=-5/1,2,3;
 4/5=5,16=3,69=1/1;
 5/5=2,38=5/2;
 7//1,2,3,16;
 1/18=20,19=15,26=3/3(-5);
 2/9=110/2;
 6/7=2,8=2,9=2,10=2,19=2,28=1/1;
 99/9=1/99;
 Leave Link    1 at Mon Oct 14 01:28:01 2019, MaxMem= 10737418240 cpu:               1.5 elap:               0.1
 (Enter /apps/cent7/gaussian/g16-A.03/g16-haswell/g16/l101.exe)
 -------------------
 Title Card Required
 -------------------
 Symbolic Z-matrix:
 Charge =  1 Multiplicity = 1
 O                    -0.872    -1.0507    1.4734 
 S                     0.2655   -0.483     0.4993 
 C                     1.9346   -0.821     1.161 
 C                     2.4174    0.5887    1.5753 
 C                     1.7624    1.6562    0.6532 
 C                     0.2583    1.3433    0.4962 
 O                     0.1191   -1.0621   -0.9867 
 H                     1.8717   -1.3961    2.0848 
 H                     2.6054   -1.1416    0.3639 
 H                     2.0385    0.7655    2.5819 
 H                     3.4899    0.6206    1.3833 
 H                     1.8306    2.6109    1.1748 
 H                     2.2107    1.541    -0.3336 
 H                    -0.2241    1.7291    1.3943 
 H                    -0.0275    1.7266   -0.4834 
 H                     0.90313  -1.26326  -1.50288 
 
 ITRead=  0  0  0  0  0  0  0  0  0  0  0  0  0  0  0  0
 MicOpt= -1 -1 -1 -1 -1 -1 -1 -1 -1 -1 -1 -1 -1 -1 -1 -1
 NAtoms=     16 NQM=       16 NQMF=       0 NMMI=      0 NMMIF=      0
                NMic=       0 NMicF=      0.
                    Isotopes and Nuclear Properties:
 (Nuclear quadrupole moments (NQMom) in fm**2, nuclear magnetic moments (NMagM)
  in nuclear magnetons)

  Atom         1           2           3           4           5           6           7           8           9          10
 IAtWgt=          16          32          12          12          12          12          16           1           1           1
 AtmWgt=  15.9949146  31.9720718  12.0000000  12.0000000  12.0000000  12.0000000  15.9949146   1.0078250   1.0078250   1.0078250
 NucSpn=           0           0           0           0           0           0           0           1           1           1
 AtZEff=  -0.0000000  -0.0000000  -0.0000000  -0.0000000  -0.0000000  -0.0000000  -0.0000000  -0.0000000  -0.0000000  -0.0000000
 NQMom=    0.0000000   0.0000000   0.0000000   0.0000000   0.0000000   0.0000000   0.0000000   0.0000000   0.0000000   0.0000000
 NMagM=    0.0000000   0.0000000   0.0000000   0.0000000   0.0000000   0.0000000   0.0000000   2.7928460   2.7928460   2.7928460
 AtZNuc=   8.0000000  16.0000000   6.0000000   6.0000000   6.0000000   6.0000000   8.0000000   1.0000000   1.0000000   1.0000000

  Atom        11          12          13          14          15          16
 IAtWgt=           1           1           1           1           1           1
 AtmWgt=   1.0078250   1.0078250   1.0078250   1.0078250   1.0078250   1.0078250
 NucSpn=           1           1           1           1           1           1
 AtZEff=  -0.0000000  -0.0000000  -0.0000000  -0.0000000  -0.0000000  -0.0000000
 NQMom=    0.0000000   0.0000000   0.0000000   0.0000000   0.0000000   0.0000000
 NMagM=    2.7928460   2.7928460   2.7928460   2.7928460   2.7928460   2.7928460
 AtZNuc=   1.0000000   1.0000000   1.0000000   1.0000000   1.0000000   1.0000000
 Leave Link  101 at Mon Oct 14 01:28:01 2019, MaxMem= 10737418240 cpu:               8.2 elap:               0.4
 (Enter /apps/cent7/gaussian/g16-A.03/g16-haswell/g16/l103.exe)

 GradGradGradGradGradGradGradGradGradGradGradGradGradGradGradGradGradGrad
 Berny optimization.
 Initialization pass.
                           ----------------------------
                           !    Initial Parameters    !
                           ! (Angstroms and Degrees)  !
 --------------------------                            --------------------------
 ! Name  Definition              Value          Derivative Info.                !
 --------------------------------------------------------------------------------
 ! R1    R(1,2)                  1.6016         estimate D2E/DX2                !
 ! R2    R(2,3)                  1.827          estimate D2E/DX2                !
 ! R3    R(2,6)                  1.8263         estimate D2E/DX2                !
 ! R4    R(2,7)                  1.6016         estimate D2E/DX2                !
 ! R5    R(3,4)                  1.5466         estimate D2E/DX2                !
 ! R6    R(3,8)                  1.09           estimate D2E/DX2                !
 ! R7    R(3,9)                  1.09           estimate D2E/DX2                !
 ! R8    R(4,5)                  1.5553         estimate D2E/DX2                !
 ! R9    R(4,10)                 1.09           estimate D2E/DX2                !
 ! R10   R(4,11)                 1.09           estimate D2E/DX2                !
 ! R11   R(5,6)                  1.5443         estimate D2E/DX2                !
 ! R12   R(5,12)                 1.09           estimate D2E/DX2                !
 ! R13   R(5,13)                 1.09           estimate D2E/DX2                !
 ! R14   R(6,14)                 1.09           estimate D2E/DX2                !
 ! R15   R(6,15)                 1.0901         estimate D2E/DX2                !
 ! R16   R(7,16)                 0.96           estimate D2E/DX2                !
 ! A1    A(1,2,3)              111.2841         estimate D2E/DX2                !
 ! A2    A(1,2,6)              110.652          estimate D2E/DX2                !
 ! A3    A(1,2,7)              111.7918         estimate D2E/DX2                !
 ! A4    A(3,2,6)              100.907          estimate D2E/DX2                !
 ! A5    A(3,2,7)              110.6501         estimate D2E/DX2                !
 ! A6    A(6,2,7)              111.0785         estimate D2E/DX2                !
 ! A7    A(2,3,4)              102.3322         estimate D2E/DX2                !
 ! A8    A(2,3,8)              110.6            estimate D2E/DX2                !
 ! A9    A(2,3,9)              110.5961         estimate D2E/DX2                !
 ! A10   A(4,3,8)              105.7769         estimate D2E/DX2                !
 ! A11   A(4,3,9)              105.7757         estimate D2E/DX2                !
 ! A12   A(8,3,9)              120.0067         estimate D2E/DX2                !
 ! A13   A(3,4,5)              109.5925         estimate D2E/DX2                !
 ! A14   A(3,4,10)             106.6613         estimate D2E/DX2                !
 ! A15   A(3,4,11)             106.6569         estimate D2E/DX2                !
 ! A16   A(5,4,10)             106.8459         estimate D2E/DX2                !
 ! A17   A(5,4,11)             106.8496         estimate D2E/DX2                !
 ! A18   A(10,4,11)            119.997          estimate D2E/DX2                !
 ! A19   A(4,5,6)              109.3532         estimate D2E/DX2                !
 ! A20   A(4,5,12)             106.924          estimate D2E/DX2                !
 ! A21   A(4,5,13)             106.9185         estimate D2E/DX2                !
 ! A22   A(6,5,12)             106.6812         estimate D2E/DX2                !
 ! A23   A(6,5,13)             106.6865         estimate D2E/DX2                !
 ! A24   A(12,5,13)            120.0042         estimate D2E/DX2                !
 ! A25   A(2,6,5)              101.4552         estimate D2E/DX2                !
 ! A26   A(2,6,14)             110.7495         estimate D2E/DX2                !
 ! A27   A(2,6,15)             110.7438         estimate D2E/DX2                !
 ! A28   A(5,6,14)             105.9956         estimate D2E/DX2                !
 ! A29   A(5,6,15)             105.9906         estimate D2E/DX2                !
 ! A30   A(14,6,15)            119.9969         estimate D2E/DX2                !
 ! A31   A(2,7,16)             120.0            estimate D2E/DX2                !
 ! D1    D(1,2,3,4)           -109.5322         estimate D2E/DX2                !
 ! D2    D(1,2,3,8)              2.7705         estimate D2E/DX2                !
 ! D3    D(1,2,3,9)            138.168          estimate D2E/DX2                !
 ! D4    D(6,2,3,4)              7.8897         estimate D2E/DX2                !
 ! D5    D(6,2,3,8)            120.1925         estimate D2E/DX2                !
 ! D6    D(6,2,3,9)           -104.4101         estimate D2E/DX2                !
 ! D7    D(7,2,3,4)            125.5374         estimate D2E/DX2                !
 ! D8    D(7,2,3,8)           -122.1599         estimate D2E/DX2                !
 ! D9    D(7,2,3,9)             13.2376         estimate D2E/DX2                !
 ! D10   D(1,2,6,5)            133.5342         estimate D2E/DX2                !
 ! D11   D(1,2,6,14)            21.3593         estimate D2E/DX2                !
 ! D12   D(1,2,6,15)          -114.2986         estimate D2E/DX2                !
 ! D13   D(3,2,6,5)             15.65           estimate D2E/DX2                !
 ! D14   D(3,2,6,14)           -96.5249         estimate D2E/DX2                !
 ! D15   D(3,2,6,15)           127.8172         estimate D2E/DX2                !
 ! D16   D(7,2,6,5)           -101.6838         estimate D2E/DX2                !
 ! D17   D(7,2,6,14)           146.1412         estimate D2E/DX2                !
 ! D18   D(7,2,6,15)            10.4834         estimate D2E/DX2                !
 ! D19   D(1,2,7,16)          -143.5922         estimate D2E/DX2                !
 ! D20   D(3,2,7,16)           -18.9502         estimate D2E/DX2                !
 ! D21   D(6,2,7,16)            92.2709         estimate D2E/DX2                !
 ! D22   D(2,3,4,5)            -29.8727         estimate D2E/DX2                !
 ! D23   D(2,3,4,10)            85.4436         estimate D2E/DX2                !
 ! D24   D(2,3,4,11)          -145.1909         estimate D2E/DX2                !
 ! D25   D(8,3,4,5)           -145.7229         estimate D2E/DX2                !
 ! D26   D(8,3,4,10)           -30.4066         estimate D2E/DX2                !
 ! D27   D(8,3,4,11)            98.9589         estimate D2E/DX2                !
 ! D28   D(9,3,4,5)             85.9727         estimate D2E/DX2                !
 ! D29   D(9,3,4,10)          -158.711          estimate D2E/DX2                !
 ! D30   D(9,3,4,11)           -29.3455         estimate D2E/DX2                !
 ! D31   D(3,4,5,6)             45.1316         estimate D2E/DX2                !
 ! D32   D(3,4,5,12)           160.275          estimate D2E/DX2                !
 ! D33   D(3,4,5,13)           -70.0151         estimate D2E/DX2                !
 ! D34   D(10,4,5,6)           -70.0669         estimate D2E/DX2                !
 ! D35   D(10,4,5,12)           45.0765         estimate D2E/DX2                !
 ! D36   D(10,4,5,13)          174.7864         estimate D2E/DX2                !
 ! D37   D(11,4,5,6)           160.3268         estimate D2E/DX2                !
 ! D38   D(11,4,5,12)          -84.5298         estimate D2E/DX2                !
 ! D39   D(11,4,5,13)           45.1802         estimate D2E/DX2                !
 ! D40   D(4,5,6,2)            -35.2816         estimate D2E/DX2                !
 ! D41   D(4,5,6,14)            80.4484         estimate D2E/DX2                !
 ! D42   D(4,5,6,15)          -151.0036         estimate D2E/DX2                !
 ! D43   D(12,5,6,2)          -150.5807         estimate D2E/DX2                !
 ! D44   D(12,5,6,14)          -34.8507         estimate D2E/DX2                !
 ! D45   D(12,5,6,15)           93.6974         estimate D2E/DX2                !
 ! D46   D(13,5,6,2)            80.0137         estimate D2E/DX2                !
 ! D47   D(13,5,6,14)         -164.2562         estimate D2E/DX2                !
 ! D48   D(13,5,6,15)          -35.7082         estimate D2E/DX2                !
 --------------------------------------------------------------------------------
 Trust Radius=3.00D-01 FncErr=1.00D-07 GrdErr=1.00D-06 EigMax=2.50D+02 EigMin=1.00D-04
 Number of steps in this run=    100 maximum allowed number of steps=    100.
 GradGradGradGradGradGradGradGradGradGradGradGradGradGradGradGradGradGrad

 Leave Link  103 at Mon Oct 14 01:28:01 2019, MaxMem= 10737418240 cpu:               0.9 elap:               0.1
 (Enter /apps/cent7/gaussian/g16-A.03/g16-haswell/g16/l202.exe)
                          Input orientation:                          
 ---------------------------------------------------------------------
 Center     Atomic      Atomic             Coordinates (Angstroms)
 Number     Number       Type             X           Y           Z
 ---------------------------------------------------------------------
      1          8           0       -0.872000   -1.050700    1.473400
      2         16           0        0.265500   -0.483000    0.499300
      3          6           0        1.934600   -0.821000    1.161000
      4          6           0        2.417400    0.588700    1.575300
      5          6           0        1.762400    1.656200    0.653200
      6          6           0        0.258300    1.343300    0.496200
      7          8           0        0.119100   -1.062100   -0.986700
      8          1           0        1.871700   -1.396100    2.084800
      9          1           0        2.605400   -1.141600    0.363900
     10          1           0        2.038500    0.765500    2.581900
     11          1           0        3.489900    0.620600    1.383300
     12          1           0        1.830600    2.610900    1.174800
     13          1           0        2.210700    1.541000   -0.333600
     14          1           0       -0.224100    1.729100    1.394300
     15          1           0       -0.027500    1.726600   -0.483400
     16          1           0        0.903126   -1.263256   -1.502877
 ---------------------------------------------------------------------
                    Distance matrix (angstroms):
                    1          2          3          4          5
     1  O    0.000000
     2  S    1.601581   0.000000
     3  C    2.833260   1.827016   0.000000
     4  C    3.676706   2.633817   1.546607   0.000000
     5  C    3.865242   2.615449   2.534568   1.555265   0.000000
     6  C    2.822009   1.826317   2.817115   2.528951   1.544303
     7  O    2.652263   1.601557   2.822549   3.817220   3.574753
     8  H    2.832137   2.434634   1.090001   2.120568   3.373123
     9  H    3.651241   2.434588   1.090012   2.120559   2.936329
    10  H    3.605325   3.006577   2.132307   1.089985   2.142303
    11  H    4.671995   3.520816   2.132272   1.090017   2.142375
    12  H    4.560759   3.532429   3.433503   2.143368   1.090032
    13  H    4.414204   2.928157   2.808755   2.143245   1.089962
    14  H    2.855402   2.436005   3.349242   2.882845   2.121491
    15  H    3.500806   2.435956   3.611669   3.392727   2.121452
    16  H    3.471956   2.241446   2.890635   3.898454   3.729644
                    6          7          8          9         10
     6  C    0.000000
     7  O    2.829190   0.000000
     8  H    3.554015   3.552080   0.000000
     9  H    3.420688   2.830570   1.888010   0.000000
    10  H    2.802340   4.445124   2.224285   2.979586   0.000000
    11  H    3.428189   4.450918   2.679133   2.219654   1.887909
    12  H    2.130595   4.592629   4.109238   3.916520   2.329947
    13  H    2.130615   3.402567   3.819704   2.799757   3.021786
    14  H    1.090016   3.684799   3.825708   4.160374   2.730985
    15  H    1.090054   2.837543   4.466975   3.984552   3.819441
    16  H    3.347573   0.960000   3.718496   2.529307   4.700035
                   11         12         13         14         15
    11  H    0.000000
    12  H    2.599624   0.000000
    13  H    2.330501   1.887970   0.000000
    14  H    3.875911   2.246674   2.991533   0.000000
    15  H    4.132784   2.642754   2.250872   1.887966   0.000000
    16  H    4.309331   4.799922   3.307690   4.314913   3.293120
                   16
    16  H    0.000000
 Stoichiometry    C4H9O2S(1+)
 Framework group  C1[X(C4H9O2S)]
 Deg. of freedom    42
 Full point group                 C1      NOp   1
 Largest Abelian subgroup         C1      NOp   1
 Largest concise Abelian subgroup C1      NOp   1
                         Standard orientation:                         
 ---------------------------------------------------------------------
 Center     Atomic      Atomic             Coordinates (Angstroms)
 Number     Number       Type             X           Y           Z
 ---------------------------------------------------------------------
      1          8           0       -1.596190    0.323228   -1.342517
      2         16           0       -0.694742    0.003337   -0.057947
      3          6           0        0.459036    1.373838    0.300537
      4          6           0        1.827845    0.760439   -0.076421
      5          6           0        1.792391   -0.776857    0.156628
      6          6           0        0.477515   -1.350898   -0.414732
      7          8           0       -1.589213   -0.332771    1.227331
      8          1           0        0.302427    2.198744   -0.394522
      9          1           0        0.505357    1.565601    1.372547
     10          1           0        1.954970    0.914639   -1.147929
     11          1           0        2.556800    1.169344    0.623264
     12          1           0        2.603095   -1.205861   -0.432341
     13          1           0        1.759884   -0.933562    1.234777
     14          1           0        0.635485   -1.452059   -1.488486
     15          1           0        0.246910   -2.229820    0.187376
     16          1           0       -1.306565   -0.043195    2.097880
 ---------------------------------------------------------------------
 Rotational constants (GHZ):           3.3718238           1.8639060           1.7776859
 Leave Link  202 at Mon Oct 14 01:28:01 2019, MaxMem= 10737418240 cpu:               0.5 elap:               0.0
 (Enter /apps/cent7/gaussian/g16-A.03/g16-haswell/g16/l301.exe)
 Standard basis: 6-31G(d) (6D, 7F)
 Ernie: Thresh=  0.10000D-02 Tol=  0.10000D-05 Strict=F.
 There are   127 symmetry adapted cartesian basis functions of A   symmetry.
 There are   127 symmetry adapted basis functions of A   symmetry.
   127 basis functions,   256 primitive gaussians,   127 cartesian basis functions
    32 alpha electrons       32 beta electrons
       nuclear repulsion energy       429.3289312762 Hartrees.
 IExCor=  402 DFT=T Ex+Corr=B3LYP ExCW=0 ScaHFX=  0.200000
 ScaDFX=  0.800000  0.720000  1.000000  0.810000 ScalE2=  1.000000  1.000000
 IRadAn=      5 IRanWt=     -1 IRanGd=            0 ICorTp=0 IEmpDi=  4
 NAtoms=   16 NActive=   16 NUniq=   16 SFac= 1.00D+00 NAtFMM=   60 NAOKFM=F Big=F
 Integral buffers will be    131072 words long.
 Raffenetti 2 integral format.
 Two-electron integral symmetry is turned on.
 Leave Link  301 at Mon Oct 14 01:28:01 2019, MaxMem= 10737418240 cpu:               1.6 elap:               0.1
 (Enter /apps/cent7/gaussian/g16-A.03/g16-haswell/g16/l302.exe)
 NPDir=0 NMtPBC=     1 NCelOv=     1 NCel=       1 NClECP=     1 NCelD=      1
         NCelK=      1 NCelE2=     1 NClLst=     1 CellRange=     0.0.
 One-electron integrals computed using PRISM.
 One-electron integral symmetry used in STVInt
 NBasis=   127 RedAO= T EigKep=  3.36D-03  NBF=   127
 NBsUse=   127 1.00D-06 EigRej= -1.00D+00 NBFU=   127
 Precomputing XC quadrature grid using
 IXCGrd= 4 IRadAn=           5 IRanWt=          -1 IRanGd=           0 AccXCQ= 0.00D+00.
 Generated NRdTot=       0 NPtTot=           0 NUsed=           0 NTot=          32
 NSgBfM=   127   127   127   127   127 MxSgAt=    16 MxSgA2=    16.
 Leave Link  302 at Mon Oct 14 01:28:01 2019, MaxMem= 10737418240 cpu:               3.3 elap:               0.2
 (Enter /apps/cent7/gaussian/g16-A.03/g16-haswell/g16/l303.exe)
 DipDrv:  MaxL=1.
 Leave Link  303 at Mon Oct 14 01:28:01 2019, MaxMem= 10737418240 cpu:               0.6 elap:               0.1
 (Enter /apps/cent7/gaussian/g16-A.03/g16-haswell/g16/l401.exe)
 ExpMin= 1.17D-01 ExpMax= 2.19D+04 ExpMxC= 3.30D+03 IAcc=3 IRadAn=         5 AccDes= 0.00D+00
 Harris functional with IExCor=  402 and IRadAn=       5 diagonalized for initial guess.
 HarFok:  IExCor=  402 AccDes= 0.00D+00 IRadAn=         5 IDoV= 1 UseB2=F ITyADJ=14
 ICtDFT=  3500011 ScaDFX=  1.000000  1.000000  1.000000  1.000000
 FoFCou: FMM=F IPFlag=           0 FMFlag=      100000 FMFlg1=           0
         NFxFlg=           0 DoJE=T BraDBF=F KetDBF=T FulRan=T
         wScrn=  0.000000 ICntrl=       500 IOpCl=  0 I1Cent=   200000004 NGrid=           0
         NMat0=    1 NMatS0=      1 NMatT0=    0 NMatD0=    1 NMtDS0=    0 NMtDT0=    0
 Petite list used in FoFCou.
 Harris En= -706.229083614893    
 JPrj=0 DoOrth=F DoCkMO=F.
 Leave Link  401 at Mon Oct 14 01:28:02 2019, MaxMem= 10737418240 cpu:               6.2 elap:               0.3
 (Enter /apps/cent7/gaussian/g16-A.03/g16-haswell/g16/l502.exe)
 Integral symmetry usage will be decided dynamically.
 Closed shell SCF:
 Using DIIS extrapolation, IDIIS=  1040.
 NGot= 10737418240 LenX= 10737381330 LenY= 10737364760
 Requested convergence on RMS density matrix=1.00D-08 within 128 cycles.
 Requested convergence on MAX density matrix=1.00D-06.
 Requested convergence on             energy=1.00D-06.
 No special actions if energy rises.
 Fock matrices will be formed incrementally for  20 cycles.
 Integral accuracy reduced to 1.0D-05 until final iterations.

 Cycle   1  Pass 0  IDiag  1:
 FoFJK:  IHMeth= 1 ICntrl=       0 DoSepK=F KAlg= 0 I1Cent=           0 FoldK=F
 IRaf= 980000000 NMat=       1 IRICut=       1 DoRegI=T DoRafI=F ISym2E= 0 IDoP0=0 IntGTp=1.
 FoFCou: FMM=F IPFlag=           0 FMFlag=      100000 FMFlg1=           0
         NFxFlg=           0 DoJE=F BraDBF=F KetDBF=F FulRan=T
         wScrn=  0.000000 ICntrl=         0 IOpCl=  0 I1Cent=           0 NGrid=           0
         NMat0=    1 NMatS0=      1 NMatT0=    0 NMatD0=    1 NMtDS0=    0 NMtDT0=    0
 Symmetry not used in FoFCou.
 E= -705.691520915221    
 DIIS: error= 4.71D-02 at cycle   1 NSaved=   1.
 NSaved= 1 IEnMin= 1 EnMin= -705.691520915221     IErMin= 1 ErrMin= 4.71D-02
 ErrMax= 4.71D-02  0.00D+00 EMaxC= 1.00D-01 BMatC= 4.37D-01 BMatP= 4.37D-01
 IDIUse=3 WtCom= 5.29D-01 WtEn= 4.71D-01
 Coeff-Com:  0.100D+01
 Coeff-En:   0.100D+01
 Coeff:      0.100D+01
 Gap=     0.082 Goal=   None    Shift=    0.000
 GapD=    0.082 DampG=0.500 DampE=0.500 DampFc=0.2500 IDamp=-1.
 Damping current iteration by 2.50D-01
 RMSDP=1.80D-02 MaxDP=7.17D-01              OVMax= 4.88D-01

 Cycle   2  Pass 0  IDiag  1:
 RMSU=  4.50D-03    CP:  1.00D+00
 E= -705.794657192257     Delta-E=       -0.103136277036 Rises=F Damp=T
 DIIS: error= 1.58D-02 at cycle   2 NSaved=   2.
 NSaved= 2 IEnMin= 2 EnMin= -705.794657192257     IErMin= 2 ErrMin= 1.58D-02
 ErrMax= 1.58D-02  0.00D+00 EMaxC= 1.00D-01 BMatC= 6.42D-02 BMatP= 4.37D-01
 IDIUse=3 WtCom= 8.42D-01 WtEn= 1.58D-01
 Coeff-Com: -0.197D+00 0.120D+01
 Coeff-En:   0.222D+00 0.778D+00
 Coeff:     -0.131D+00 0.113D+01
 Gap=     0.236 Goal=   None    Shift=    0.000
 RMSDP=4.92D-03 MaxDP=8.27D-02 DE=-1.03D-01 OVMax= 5.09D-01

 Cycle   3  Pass 0  IDiag  1:
 RMSU=  4.80D-03    CP:  9.99D-01  7.60D-01
 E= -705.915399667812     Delta-E=       -0.120742475555 Rises=F Damp=F
 DIIS: error= 3.00D-02 at cycle   3 NSaved=   3.
 NSaved= 3 IEnMin= 3 EnMin= -705.915399667812     IErMin= 2 ErrMin= 1.58D-02
 ErrMax= 3.00D-02  0.00D+00 EMaxC= 1.00D-01 BMatC= 1.98D-01 BMatP= 6.42D-02
 IDIUse=2 WtCom= 0.00D+00 WtEn= 1.00D+00
 EnCoef did     3 forward-backward iterations
 Coeff-En:   0.267D-02 0.257D+00 0.741D+00
 Coeff:      0.267D-02 0.257D+00 0.741D+00
 Gap=     0.406 Goal=   None    Shift=    0.000
 RMSDP=1.12D-02 MaxDP=2.22D-01 DE=-1.21D-01 OVMax= 4.59D-01

 Cycle   4  Pass 0  IDiag  1:
 RMSU=  3.64D-03    CP:  1.02D+00  2.32D+00 -6.38D-01
 E= -705.300072599041     Delta-E=        0.615327068771 Rises=F Damp=F
 DIIS: error= 7.82D-02 at cycle   4 NSaved=   4.
 NSaved= 4 IEnMin= 3 EnMin= -705.915399667812     IErMin= 2 ErrMin= 1.58D-02
 ErrMax= 7.82D-02  0.00D+00 EMaxC= 1.00D-01 BMatC= 9.20D-01 BMatP= 6.42D-02
 IDIUse=2 WtCom= 0.00D+00 WtEn= 1.00D+00
 EnCoef did     2 forward-backward iterations
 Coeff-En:   0.207D-01 0.000D+00 0.733D+00 0.247D+00
 Coeff:      0.207D-01 0.000D+00 0.733D+00 0.247D+00
 Gap=     0.204 Goal=   None    Shift=    0.000
 RMSDP=7.47D-03 MaxDP=1.50D-01 DE= 6.15D-01 OVMax= 3.17D-01

 Cycle   5  Pass 0  IDiag  1:
 RMSU=  1.52D-03    CP:  1.01D+00  9.72D-01  1.15D-01  4.67D-01
 E= -706.053593204041     Delta-E=       -0.753520604999 Rises=F Damp=F
 DIIS: error= 1.28D-02 at cycle   5 NSaved=   5.
 NSaved= 5 IEnMin= 5 EnMin= -706.053593204041     IErMin= 5 ErrMin= 1.28D-02
 ErrMax= 1.28D-02  0.00D+00 EMaxC= 1.00D-01 BMatC= 4.57D-02 BMatP= 6.42D-02
 IDIUse=3 WtCom= 8.72D-01 WtEn= 1.28D-01
 Coeff-Com: -0.187D+00 0.286D+00 0.288D+00-0.645D-01 0.677D+00
 Coeff-En:   0.000D+00 0.000D+00 0.220D+00 0.000D+00 0.780D+00
 Coeff:     -0.163D+00 0.250D+00 0.279D+00-0.562D-01 0.690D+00
 Gap=     0.258 Goal=   None    Shift=    0.000
 RMSDP=1.72D-03 MaxDP=4.48D-02 DE=-7.54D-01 OVMax= 5.21D-02

 Cycle   6  Pass 0  IDiag  1:
 RMSU=  2.69D-04    CP:  1.01D+00  9.53D-01  4.39D-01  2.89D-01  8.87D-01
 E= -706.092999509700     Delta-E=       -0.039406305659 Rises=F Damp=F
 DIIS: error= 1.78D-03 at cycle   6 NSaved=   6.
 NSaved= 6 IEnMin= 6 EnMin= -706.092999509700     IErMin= 6 ErrMin= 1.78D-03
 ErrMax= 1.78D-03  0.00D+00 EMaxC= 1.00D-01 BMatC= 5.77D-04 BMatP= 4.57D-02
 IDIUse=3 WtCom= 9.82D-01 WtEn= 1.78D-02
 Coeff-Com: -0.291D-01 0.308D-01 0.183D-01-0.522D-02 0.134D+00 0.851D+00
 Coeff-En:   0.000D+00 0.000D+00 0.000D+00 0.000D+00 0.000D+00 0.100D+01
 Coeff:     -0.286D-01 0.302D-01 0.180D-01-0.512D-02 0.132D+00 0.854D+00
 Gap=     0.252 Goal=   None    Shift=    0.000
 RMSDP=1.90D-04 MaxDP=4.21D-03 DE=-3.94D-02 OVMax= 6.09D-03

 Cycle   7  Pass 0  IDiag  1:
 RMSU=  1.02D-04    CP:  1.01D+00  9.69D-01  4.16D-01  3.06D-01  9.29D-01
                    CP:  8.81D-01
 E= -706.093446860907     Delta-E=       -0.000447351207 Rises=F Damp=F
 DIIS: error= 5.33D-04 at cycle   7 NSaved=   7.
 NSaved= 7 IEnMin= 7 EnMin= -706.093446860907     IErMin= 7 ErrMin= 5.33D-04
 ErrMax= 5.33D-04  0.00D+00 EMaxC= 1.00D-01 BMatC= 5.73D-05 BMatP= 5.77D-04
 IDIUse=3 WtCom= 9.95D-01 WtEn= 5.33D-03
 Coeff-Com: -0.487D-02 0.384D-02-0.158D-01 0.130D-02 0.124D-01 0.492D+00
 Coeff-Com:  0.511D+00
 Coeff-En:   0.000D+00 0.000D+00 0.000D+00 0.000D+00 0.000D+00 0.000D+00
 Coeff-En:   0.100D+01
 Coeff:     -0.484D-02 0.382D-02-0.157D-01 0.129D-02 0.124D-01 0.489D+00
 Coeff:      0.514D+00
 Gap=     0.252 Goal=   None    Shift=    0.000
 RMSDP=6.00D-05 MaxDP=1.49D-03 DE=-4.47D-04 OVMax= 1.36D-03

 Cycle   8  Pass 0  IDiag  1:
 RMSU=  3.07D-05    CP:  1.01D+00  9.68D-01  4.14D-01  3.05D-01  9.33D-01
                    CP:  9.65D-01  5.69D-01
 E= -706.093493000089     Delta-E=       -0.000046139182 Rises=F Damp=F
 DIIS: error= 9.77D-05 at cycle   8 NSaved=   8.
 NSaved= 8 IEnMin= 8 EnMin= -706.093493000089     IErMin= 8 ErrMin= 9.77D-05
 ErrMax= 9.77D-05  0.00D+00 EMaxC= 1.00D-01 BMatC= 2.63D-06 BMatP= 5.73D-05
 IDIUse=1 WtCom= 1.00D+00 WtEn= 0.00D+00
 Coeff-Com: -0.107D-02-0.592D-04-0.807D-02 0.105D-02-0.645D-03 0.167D+00
 Coeff-Com:  0.228D+00 0.614D+00
 Coeff:     -0.107D-02-0.592D-04-0.807D-02 0.105D-02-0.645D-03 0.167D+00
 Coeff:      0.228D+00 0.614D+00
 Gap=     0.252 Goal=   None    Shift=    0.000
 RMSDP=1.34D-05 MaxDP=2.48D-04 DE=-4.61D-05 OVMax= 3.58D-04

 Cycle   9  Pass 0  IDiag  1:
 RMSU=  9.44D-06    CP:  1.01D+00  9.69D-01  4.13D-01  3.05D-01  9.34D-01
                    CP:  9.71D-01  6.15D-01  7.63D-01
 E= -706.093494896476     Delta-E=       -0.000001896387 Rises=F Damp=F
 DIIS: error= 3.55D-05 at cycle   9 NSaved=   9.
 NSaved= 9 IEnMin= 9 EnMin= -706.093494896476     IErMin= 9 ErrMin= 3.55D-05
 ErrMax= 3.55D-05  0.00D+00 EMaxC= 1.00D-01 BMatC= 3.78D-07 BMatP= 2.63D-06
 IDIUse=1 WtCom= 1.00D+00 WtEn= 0.00D+00
 Coeff-Com: -0.774D-03 0.121D-02-0.164D-02 0.105D-03-0.134D-02 0.135D-01
 Coeff-Com:  0.392D-01 0.289D+00 0.661D+00
 Coeff:     -0.774D-03 0.121D-02-0.164D-02 0.105D-03-0.134D-02 0.135D-01
 Coeff:      0.392D-01 0.289D+00 0.661D+00
 Gap=     0.252 Goal=   None    Shift=    0.000
 RMSDP=4.14D-06 MaxDP=7.90D-05 DE=-1.90D-06 OVMax= 1.18D-04

 Initial convergence to 1.0D-05 achieved.  Increase integral accuracy.
 Cycle  10  Pass 1  IDiag  1:
 E= -706.093506921390     Delta-E=       -0.000012024914 Rises=F Damp=F
 DIIS: error= 2.13D-05 at cycle   1 NSaved=   1.
 NSaved= 1 IEnMin= 1 EnMin= -706.093506921390     IErMin= 1 ErrMin= 2.13D-05
 ErrMax= 2.13D-05  0.00D+00 EMaxC= 1.00D-01 BMatC= 8.77D-08 BMatP= 8.77D-08
 IDIUse=1 WtCom= 1.00D+00 WtEn= 0.00D+00
 Coeff-Com:  0.100D+01
 Coeff:      0.100D+01
 Gap=     0.252 Goal=   None    Shift=    0.000
 RMSDP=4.14D-06 MaxDP=7.90D-05 DE=-1.20D-05 OVMax= 3.30D-04

 Cycle  11  Pass 1  IDiag  1:
 RMSU=  8.88D-06    CP:  1.00D+00
 E= -706.093506523029     Delta-E=        0.000000398361 Rises=F Damp=F
 DIIS: error= 5.72D-05 at cycle   2 NSaved=   2.
 NSaved= 2 IEnMin= 1 EnMin= -706.093506921390     IErMin= 1 ErrMin= 2.13D-05
 ErrMax= 5.72D-05  0.00D+00 EMaxC= 1.00D-01 BMatC= 5.82D-07 BMatP= 8.77D-08
 IDIUse=1 WtCom= 1.00D+00 WtEn= 0.00D+00
 Coeff-Com:  0.727D+00 0.273D+00
 Coeff:      0.727D+00 0.273D+00
 Gap=     0.252 Goal=   None    Shift=    0.000
 RMSDP=5.98D-06 MaxDP=1.40D-04 DE= 3.98D-07 OVMax= 2.53D-04

 Cycle  12  Pass 1  IDiag  1:
 RMSU=  2.18D-06    CP:  1.00D+00  3.83D-01
 E= -706.093506999838     Delta-E=       -0.000000476809 Rises=F Damp=F
 DIIS: error= 3.39D-06 at cycle   3 NSaved=   3.
 NSaved= 3 IEnMin= 3 EnMin= -706.093506999838     IErMin= 3 ErrMin= 3.39D-06
 ErrMax= 3.39D-06  0.00D+00 EMaxC= 1.00D-01 BMatC= 2.60D-09 BMatP= 8.77D-08
 IDIUse=1 WtCom= 1.00D+00 WtEn= 0.00D+00
 Coeff-Com:  0.248D+00 0.104D+00 0.647D+00
 Coeff:      0.248D+00 0.104D+00 0.647D+00
 Gap=     0.252 Goal=   None    Shift=    0.000
 RMSDP=5.45D-07 MaxDP=1.18D-05 DE=-4.77D-07 OVMax= 1.51D-05

 Cycle  13  Pass 1  IDiag  1:
 RMSU=  5.17D-07    CP:  1.00D+00  3.97D-01  9.45D-01
 E= -706.093507001553     Delta-E=       -0.000000001714 Rises=F Damp=F
 DIIS: error= 1.72D-06 at cycle   4 NSaved=   4.
 NSaved= 4 IEnMin= 4 EnMin= -706.093507001553     IErMin= 4 ErrMin= 1.72D-06
 ErrMax= 1.72D-06  0.00D+00 EMaxC= 1.00D-01 BMatC= 6.98D-10 BMatP= 2.60D-09
 IDIUse=1 WtCom= 1.00D+00 WtEn= 0.00D+00
 Coeff-Com:  0.167D-01 0.102D-01 0.345D+00 0.628D+00
 Coeff:      0.167D-01 0.102D-01 0.345D+00 0.628D+00
 Gap=     0.252 Goal=   None    Shift=    0.000
 RMSDP=2.37D-07 MaxDP=4.29D-06 DE=-1.71D-09 OVMax= 6.95D-06

 Cycle  14  Pass 1  IDiag  1:
 RMSU=  1.33D-07    CP:  1.00D+00  3.91D-01  9.87D-01  6.79D-01
 E= -706.093507002134     Delta-E=       -0.000000000582 Rises=F Damp=F
 DIIS: error= 5.19D-07 at cycle   5 NSaved=   5.
 NSaved= 5 IEnMin= 5 EnMin= -706.093507002134     IErMin= 5 ErrMin= 5.19D-07
 ErrMax= 5.19D-07  0.00D+00 EMaxC= 1.00D-01 BMatC= 7.58D-11 BMatP= 6.98D-10
 IDIUse=1 WtCom= 1.00D+00 WtEn= 0.00D+00
 Coeff-Com: -0.488D-02 0.860D-03 0.151D+00 0.356D+00 0.497D+00
 Coeff:     -0.488D-02 0.860D-03 0.151D+00 0.356D+00 0.497D+00
 Gap=     0.252 Goal=   None    Shift=    0.000
 RMSDP=7.26D-08 MaxDP=1.92D-06 DE=-5.82D-10 OVMax= 1.57D-06

 Cycle  15  Pass 1  IDiag  1:
 RMSU=  4.04D-08    CP:  1.00D+00  3.93D-01  9.90D-01  6.99D-01  5.82D-01
 E= -706.093507002188     Delta-E=       -0.000000000054 Rises=F Damp=F
 DIIS: error= 1.49D-07 at cycle   6 NSaved=   6.
 NSaved= 6 IEnMin= 6 EnMin= -706.093507002188     IErMin= 6 ErrMin= 1.49D-07
 ErrMax= 1.49D-07  0.00D+00 EMaxC= 1.00D-01 BMatC= 6.49D-12 BMatP= 7.58D-11
 IDIUse=1 WtCom= 1.00D+00 WtEn= 0.00D+00
 Coeff-Com: -0.462D-02 0.693D-04 0.502D-01 0.142D+00 0.277D+00 0.535D+00
 Coeff:     -0.462D-02 0.693D-04 0.502D-01 0.142D+00 0.277D+00 0.535D+00
 Gap=     0.252 Goal=   None    Shift=    0.000
 RMSDP=1.76D-08 MaxDP=4.29D-07 DE=-5.39D-11 OVMax= 4.32D-07

 Cycle  16  Pass 1  IDiag  1:
 RMSU=  1.14D-08    CP:  1.00D+00  3.93D-01  9.90D-01  7.03D-01  6.18D-01
                    CP:  7.30D-01
 E= -706.093507002198     Delta-E=       -0.000000000009 Rises=F Damp=F
 DIIS: error= 2.98D-08 at cycle   7 NSaved=   7.
 NSaved= 7 IEnMin= 7 EnMin= -706.093507002198     IErMin= 7 ErrMin= 2.98D-08
 ErrMax= 2.98D-08  0.00D+00 EMaxC= 1.00D-01 BMatC= 1.73D-13 BMatP= 6.49D-12
 IDIUse=1 WtCom= 1.00D+00 WtEn= 0.00D+00
 Coeff-Com: -0.587D-03 0.308D-03-0.958D-03 0.585D-02 0.243D-01 0.106D+00
 Coeff-Com:  0.865D+00
 Coeff:     -0.587D-03 0.308D-03-0.958D-03 0.585D-02 0.243D-01 0.106D+00
 Coeff:      0.865D+00
 Gap=     0.252 Goal=   None    Shift=    0.000
 RMSDP=4.89D-09 MaxDP=1.24D-07 DE=-9.32D-12 OVMax= 1.35D-07

 SCF Done:  E(RB3LYP) =  -706.093507002     A.U. after   16 cycles
            NFock= 16  Conv=0.49D-08     -V/T= 2.0064
 KE= 7.016369715502D+02 PE=-2.508032256280D+03 EE= 6.709728464517D+02
 Leave Link  502 at Mon Oct 14 01:28:04 2019, MaxMem= 10737418240 cpu:              58.9 elap:               2.5
 (Enter /apps/cent7/gaussian/g16-A.03/g16-haswell/g16/l601.exe)
 Copying SCF densities to generalized density rwf, IOpCl= 0 IROHF=0.

 **********************************************************************

            Population analysis using the SCF density.

 **********************************************************************

 Orbital symmetries:
       Occupied  (A) (A) (A) (A) (A) (A) (A) (A) (A) (A) (A) (A)
                 (A) (A) (A) (A) (A) (A) (A) (A) (A) (A) (A) (A)
                 (A) (A) (A) (A) (A) (A) (A) (A)
       Virtual   (A) (A) (A) (A) (A) (A) (A) (A) (A) (A) (A) (A)
                 (A) (A) (A) (A) (A) (A) (A) (A) (A) (A) (A) (A)
                 (A) (A) (A) (A) (A) (A) (A) (A) (A) (A) (A) (A)
                 (A) (A) (A) (A) (A) (A) (A) (A) (A) (A) (A) (A)
                 (A) (A) (A) (A) (A) (A) (A) (A) (A) (A) (A) (A)
                 (A) (A) (A) (A) (A) (A) (A) (A) (A) (A) (A) (A)
                 (A) (A) (A) (A) (A) (A) (A) (A) (A) (A) (A) (A)
                 (A) (A) (A) (A) (A) (A) (A) (A) (A) (A) (A)
 The electronic state is 1-A.
 Alpha  occ. eigenvalues --  -89.31352 -19.43375 -19.35562 -10.43771 -10.43347
 Alpha  occ. eigenvalues --  -10.39246 -10.39130  -8.34757  -6.31351  -6.30946
 Alpha  occ. eigenvalues --   -6.30866  -1.32402  -1.18915  -1.06429  -0.96413
 Alpha  occ. eigenvalues --   -0.94613  -0.85217  -0.78923  -0.76985  -0.72247
 Alpha  occ. eigenvalues --   -0.67989  -0.66740  -0.66212  -0.63890  -0.60255
 Alpha  occ. eigenvalues --   -0.59219  -0.56909  -0.55358  -0.54815  -0.53520
 Alpha  occ. eigenvalues --   -0.49629  -0.47617
 Alpha virt. eigenvalues --   -0.22404  -0.20205  -0.16458  -0.15964  -0.13289
 Alpha virt. eigenvalues --   -0.08115  -0.06528  -0.04468  -0.03349  -0.01589
 Alpha virt. eigenvalues --   -0.00292   0.00316   0.01396   0.02929   0.03696
 Alpha virt. eigenvalues --    0.06750   0.15334   0.19600   0.20731   0.26393
 Alpha virt. eigenvalues --    0.28242   0.29242   0.33601   0.34031   0.37120
 Alpha virt. eigenvalues --    0.39964   0.41357   0.45375   0.48093   0.49631
 Alpha virt. eigenvalues --    0.55662   0.57496   0.61696   0.62715   0.63635
 Alpha virt. eigenvalues --    0.65968   0.66768   0.67522   0.69056   0.69705
 Alpha virt. eigenvalues --    0.72709   0.73082   0.74972   0.76008   0.76727
 Alpha virt. eigenvalues --    0.80650   0.83704   0.84823   0.90145   0.90722
 Alpha virt. eigenvalues --    0.93734   1.00484   1.08716   1.12435   1.17757
 Alpha virt. eigenvalues --    1.21984   1.29976   1.32652   1.44444   1.49279
 Alpha virt. eigenvalues --    1.51201   1.55672   1.59891   1.62437   1.63748
 Alpha virt. eigenvalues --    1.65736   1.69845   1.73295   1.75158   1.76122
 Alpha virt. eigenvalues --    1.82037   1.83484   1.85282   1.86619   1.89984
 Alpha virt. eigenvalues --    1.96698   1.98165   1.99634   2.06809   2.10722
 Alpha virt. eigenvalues --    2.13375   2.16339   2.22404   2.29528   2.35049
 Alpha virt. eigenvalues --    2.36880   2.44165   2.52684   3.59581   3.64259
 Alpha virt. eigenvalues --    3.73367   3.95789   4.01242   4.25289   4.31705
          Condensed to atoms (all electrons):
               1          2          3          4          5          6
     1  O    8.149171   0.386206  -0.033989   0.000476   0.001011  -0.037559
     2  S    0.386206  14.096934   0.175803  -0.055450  -0.045523   0.183101
     3  C   -0.033989   0.175803   5.571061   0.302778  -0.042397  -0.067892
     4  C    0.000476  -0.055450   0.302778   5.127055   0.341983  -0.042988
     5  C    0.001011  -0.045523  -0.042397   0.341983   5.148104   0.294751
     6  C   -0.037559   0.183101  -0.067892  -0.042988   0.294751   5.535376
     7  O   -0.029146   0.136517  -0.029852   0.001157   0.000340  -0.031421
     8  H   -0.000330  -0.020695   0.367531  -0.026902   0.003770   0.001876
     9  H    0.000985  -0.009089   0.335944  -0.030229  -0.001486   0.001669
    10  H    0.000349   0.003961  -0.048981   0.386856  -0.039775  -0.001940
    11  H   -0.000030   0.002868  -0.031434   0.382221  -0.030159   0.004545
    12  H   -0.000059   0.001956   0.004989  -0.030490   0.381880  -0.028911
    13  H   -0.000016   0.004339  -0.003128  -0.043226   0.380433  -0.051375
    14  H   -0.000697  -0.015306   0.000811  -0.001439  -0.033931   0.363031
    15  H    0.000646  -0.018268   0.002026   0.004267  -0.029203   0.356826
    16  H    0.000728   0.010632   0.000200  -0.000097   0.000114  -0.000202
               7          8          9         10         11         12
     1  O   -0.029146  -0.000330   0.000985   0.000349  -0.000030  -0.000059
     2  S    0.136517  -0.020695  -0.009089   0.003961   0.002868   0.001956
     3  C   -0.029852   0.367531   0.335944  -0.048981  -0.031434   0.004989
     4  C    0.001157  -0.026902  -0.030229   0.386856   0.382221  -0.030490
     5  C    0.000340   0.003770  -0.001486  -0.039775  -0.030159   0.381880
     6  C   -0.031421   0.001876   0.001669  -0.001940   0.004545  -0.028911
     7  O    8.278091   0.000586   0.000785  -0.000015  -0.000069  -0.000046
     8  H    0.000586   0.386487  -0.007117  -0.005276   0.000233  -0.000121
     9  H    0.000785  -0.007117   0.468511   0.004349  -0.008594  -0.000140
    10  H   -0.000015  -0.005276   0.004349   0.493756  -0.011947  -0.005046
    11  H   -0.000069   0.000233  -0.008594  -0.011947   0.464849  -0.000958
    12  H   -0.000046  -0.000121  -0.000140  -0.005046  -0.000958   0.453571
    13  H    0.000628  -0.000042   0.002696   0.005038  -0.005672  -0.011604
    14  H    0.000781  -0.000033   0.000025   0.002792  -0.000082  -0.005699
    15  H    0.001514  -0.000028  -0.000047  -0.000035  -0.000146  -0.000906
    16  H    0.232905   0.000040   0.001337   0.000006  -0.000022   0.000001
              13         14         15         16
     1  O   -0.000016  -0.000697   0.000646   0.000728
     2  S    0.004339  -0.015306  -0.018268   0.010632
     3  C   -0.003128   0.000811   0.002026   0.000200
     4  C   -0.043226  -0.001439   0.004267  -0.000097
     5  C    0.380433  -0.033931  -0.029203   0.000114
     6  C   -0.051375   0.363031   0.356826  -0.000202
     7  O    0.000628   0.000781   0.001514   0.232905
     8  H   -0.000042  -0.000033  -0.000028   0.000040
     9  H    0.002696   0.000025  -0.000047   0.001337
    10  H    0.005038   0.002792  -0.000035   0.000006
    11  H   -0.005672  -0.000082  -0.000146  -0.000022
    12  H   -0.011604  -0.005699  -0.000906   0.000001
    13  H    0.533757   0.004429  -0.005057   0.000155
    14  H    0.004429   0.406143  -0.006195  -0.000013
    15  H   -0.005057  -0.006195   0.418365  -0.000119
    16  H    0.000155  -0.000013  -0.000119   0.270304
 Mulliken charges:
               1
     1  O   -0.437745
     2  S    1.162015
     3  C   -0.503469
     4  C   -0.315972
     5  C   -0.329913
     6  C   -0.478887
     7  O   -0.562754
     8  H    0.300021
     9  H    0.240400
    10  H    0.215906
    11  H    0.234397
    12  H    0.241582
    13  H    0.188647
    14  H    0.285382
    15  H    0.276360
    16  H    0.484030
 Sum of Mulliken charges =   1.00000
 Mulliken charges with hydrogens summed into heavy atoms:
               1
     1  O   -0.437745
     2  S    1.162015
     3  C    0.036951
     4  C    0.134331
     5  C    0.100316
     6  C    0.082855
     7  O   -0.078724
 Electronic spatial extent (au):  <R**2>=            816.7629
 Charge=              1.0000 electrons
 Dipole moment (field-independent basis, Debye):
    X=              3.8519    Y=             -0.0281    Z=              3.6877  Tot=              5.3326
 Quadrupole moment (field-independent basis, Debye-Ang):
   XX=            -44.2934   YY=            -38.8282   ZZ=            -38.5358
   XY=             -0.0359   XZ=             -5.9262   YZ=              2.4816
 Traceless Quadrupole moment (field-independent basis, Debye-Ang):
   XX=             -3.7409   YY=              1.7243   ZZ=              2.0166
   XY=             -0.0359   XZ=             -5.9262   YZ=              2.4816
 Octapole moment (field-independent basis, Debye-Ang**2):
  XXX=              8.0987  YYY=              0.0487  ZZZ=             21.7522  XYY=              2.5161
  XXY=             -0.3389  XXZ=              6.2711  XZZ=             -4.5730  YZZ=              0.1813
  YYZ=             -0.7996  XYZ=              1.1019
 Hexadecapole moment (field-independent basis, Debye-Ang**3):
 XXXX=           -518.8981 YYYY=           -235.7660 ZZZZ=           -147.5866 XXXY=             -1.6457
 XXXZ=            -12.0090 YYYX=              0.7278 YYYZ=             -4.5719 ZZZX=            -31.1439
 ZZZY=              3.9974 XXYY=           -128.8525 XXZZ=           -109.5187 YYZZ=            -70.9789
 XXYZ=              8.3798 YYXZ=             -2.0882 ZZXY=             -0.4677
 N-N= 4.293289312762D+02 E-N=-2.508032252568D+03  KE= 7.016369715502D+02
 No NMR shielding tensors so no spin-rotation constants.
 Leave Link  601 at Mon Oct 14 01:28:04 2019, MaxMem= 10737418240 cpu:               2.3 elap:               0.1
 (Enter /apps/cent7/gaussian/g16-A.03/g16-haswell/g16/l701.exe)
 ... and contract with generalized density number  0.
 Compute integral first derivatives.
 Leave Link  701 at Mon Oct 14 01:28:05 2019, MaxMem= 10737418240 cpu:               2.6 elap:               0.1
 (Enter /apps/cent7/gaussian/g16-A.03/g16-haswell/g16/l702.exe)
 L702 exits ... SP integral derivatives will be done elsewhere.
 Leave Link  702 at Mon Oct 14 01:28:05 2019, MaxMem= 10737418240 cpu:               0.9 elap:               0.1
 (Enter /apps/cent7/gaussian/g16-A.03/g16-haswell/g16/l703.exe)
 Integral derivatives from FoFJK, PRISM(SPDF).
 Compute integral first derivatives, UseDBF=F ICtDFT=           0.
 Calling FoFJK, ICntrl=      2127 FMM=F ISym2X=0 I1Cent= 0 IOpClX= 0 NMat=1 NMatS=1 NMatT=0.
 FoFJK:  IHMeth= 1 ICntrl=    2127 DoSepK=F KAlg= 0 I1Cent=           0 FoldK=F
 IRaf=         0 NMat=       1 IRICut=       1 DoRegI=T DoRafI=F ISym2E= 0 IDoP0=0 IntGTp=1.
 FoFCou: FMM=F IPFlag=           0 FMFlag=      100000 FMFlg1=         800
         NFxFlg=           0 DoJE=F BraDBF=F KetDBF=F FulRan=T
         wScrn=  0.000000 ICntrl=      2127 IOpCl=  0 I1Cent=           0 NGrid=           0
         NMat0=    1 NMatS0=      1 NMatT0=    0 NMatD0=    1 NMtDS0=    0 NMtDT0=    0
 Symmetry not used in FoFCou.
 Leave Link  703 at Mon Oct 14 01:28:05 2019, MaxMem= 10737418240 cpu:              13.9 elap:               0.6
 (Enter /apps/cent7/gaussian/g16-A.03/g16-haswell/g16/l716.exe)
 Dipole        = 1.51544287D+00-1.10604675D-02 1.45085433D+00
 ***** Axes restored to original set *****
 -------------------------------------------------------------------
 Center     Atomic                   Forces (Hartrees/Bohr)
 Number     Number              X              Y              Z
 -------------------------------------------------------------------
      1        8           0.076755761    0.036177700   -0.071601340
      2       16          -0.091076070   -0.047593727    0.090300882
      3        6           0.011817159    0.030094061   -0.002115406
      4        6          -0.018419143    0.005726916   -0.013943200
      5        6          -0.002052581   -0.021953572    0.008403455
      6        6           0.035407682    0.005382981   -0.007286142
      7        8          -0.022430251    0.008349284    0.004594032
      8        1          -0.005063923   -0.017116842   -0.011366234
      9        1          -0.004382344   -0.016558485    0.000677479
     10        1           0.016350525    0.002580616    0.007123313
     11        1           0.003275224    0.003152190    0.018179339
     12        1           0.008778126    0.007697820   -0.014617875
     13        1           0.007821320    0.017778608   -0.001314403
     14        1          -0.018164616   -0.008413438   -0.005754877
     15        1          -0.018355761   -0.001302860    0.004436489
     16        1           0.019738892   -0.004001252   -0.005715513
 -------------------------------------------------------------------
 Cartesian Forces:  Max     0.091076070 RMS     0.028328811
 Leave Link  716 at Mon Oct 14 01:28:05 2019, MaxMem= 10737418240 cpu:               0.6 elap:               0.0
 (Enter /apps/cent7/gaussian/g16-A.03/g16-haswell/g16/l103.exe)

 GradGradGradGradGradGradGradGradGradGradGradGradGradGradGradGradGradGrad
 Berny optimization.
 FormGI is forming the generalized inverse of G from B-inverse, IUseBI=4.
 Internal  Forces:  Max     0.110886171 RMS     0.012955002
 Search for a local minimum.
 Step number   1 out of a maximum of  100
 All quantities printed in internal units (Hartrees-Bohrs-Radians)
 RMS Force = .12955D-01 SwitMx=.10000D-02 MixMth= 1
 Mixed Optimization -- RFO/linear search
 Second derivative matrix not updated -- first step.
 ITU=  0
     Eigenvalues ---    0.00257   0.00399   0.02280   0.02314   0.02598
     Eigenvalues ---    0.04613   0.04954   0.05029   0.05204   0.05371
     Eigenvalues ---    0.05611   0.05858   0.05957   0.06544   0.06617
     Eigenvalues ---    0.07293   0.07329   0.08161   0.08212   0.08775
     Eigenvalues ---    0.09475   0.11239   0.13702   0.16000   0.20309
     Eigenvalues ---    0.20609   0.23642   0.23911   0.26400   0.27257
     Eigenvalues ---    0.27484   0.34806   0.34809   0.34811   0.34811
     Eigenvalues ---    0.34811   0.34812   0.34814   0.34817   0.50913
     Eigenvalues ---    0.50918   0.55473
 RFO step:  Lambda=-4.89198924D-02 EMin= 2.57348490D-03
 Linear search not attempted -- first point.
 Maximum step size (   0.300) exceeded in Quadratic search.
    -- Step size scaled by   0.844
 Iteration  1 RMS(Cart)=  0.04504499 RMS(Int)=  0.00185354
 Iteration  2 RMS(Cart)=  0.00153757 RMS(Int)=  0.00121277
 Iteration  3 RMS(Cart)=  0.00000200 RMS(Int)=  0.00121276
 Iteration  4 RMS(Cart)=  0.00000001 RMS(Int)=  0.00121276
 ITry= 1 IFail=0 DXMaxC= 1.21D-01 DCOld= 1.00D+10 DXMaxT= 3.00D-01 DXLimC= 3.00D+00 Rises=F
 Variable       Old X    -DE/DX   Delta X   Delta X   Delta X     New X
                                 (Linear)    (Quad)   (Total)
    R1        3.02655  -0.11089   0.00000  -0.16767  -0.16767   2.85888
    R2        3.45256  -0.00048   0.00000  -0.00081  -0.00084   3.45172
    R3        3.45124  -0.00284   0.00000  -0.00729  -0.00726   3.44398
    R4        3.02650  -0.00029   0.00000  -0.00043  -0.00043   3.02607
    R5        2.92266   0.01404   0.00000   0.03602   0.03594   2.95860
    R6        2.05980  -0.00031   0.00000  -0.00066  -0.00066   2.05915
    R7        2.05982   0.00168   0.00000   0.00356   0.00356   2.06339
    R8        2.93903   0.00545   0.00000   0.01183   0.01194   2.95096
    R9        2.05977   0.00131   0.00000   0.00279   0.00279   2.06256
   R10        2.05983   0.00011   0.00000   0.00024   0.00024   2.06008
   R11        2.91831   0.01292   0.00000   0.03389   0.03387   2.95218
   R12        2.05986   0.00030   0.00000   0.00063   0.00063   2.06049
   R13        2.05973   0.00253   0.00000   0.00537   0.00537   2.06511
   R14        2.05983   0.00032   0.00000   0.00068   0.00068   2.06051
   R15        2.05990   0.00037   0.00000   0.00078   0.00078   2.06068
   R16        1.81414   0.02003   0.00000   0.02800   0.02800   1.84214
    A1        1.94227   0.00325   0.00000   0.02702   0.02706   1.96933
    A2        1.93124   0.00518   0.00000   0.03139   0.03144   1.96268
    A3        1.95114  -0.00150   0.00000  -0.00647  -0.00623   1.94490
    A4        1.76116  -0.00132   0.00000  -0.01326  -0.01407   1.74709
    A5        1.93121  -0.00003   0.00000  -0.00683  -0.00731   1.92389
    A6        1.93869  -0.00551   0.00000  -0.03216  -0.03224   1.90645
    A7        1.78603   0.00316   0.00000   0.01378   0.01380   1.79983
    A8        1.93033  -0.00964   0.00000  -0.05851  -0.06012   1.87022
    A9        1.93027  -0.00038   0.00000  -0.01235  -0.01424   1.91603
   A10        1.84615   0.00971   0.00000   0.07354   0.07387   1.92002
   A11        1.84613   0.00624   0.00000   0.06077   0.06035   1.90649
   A12        2.09451  -0.00582   0.00000  -0.05246  -0.05829   2.03622
   A13        1.91275  -0.00433   0.00000  -0.01758  -0.01778   1.89497
   A14        1.86159   0.00288   0.00000   0.02522   0.02509   1.88668
   A15        1.86151   0.00429   0.00000   0.02241   0.02273   1.88424
   A16        1.86481   0.00573   0.00000   0.03245   0.03260   1.89742
   A17        1.86488   0.00220   0.00000   0.02025   0.02029   1.88517
   A18        2.09434  -0.01094   0.00000  -0.08184  -0.08171   2.01263
   A19        1.90857  -0.00510   0.00000  -0.01742  -0.01755   1.89102
   A20        1.86618   0.00329   0.00000   0.02554   0.02553   1.89171
   A21        1.86608   0.00491   0.00000   0.02639   0.02653   1.89261
   A22        1.86194   0.00393   0.00000   0.02048   0.02077   1.88271
   A23        1.86203   0.00416   0.00000   0.03099   0.03085   1.89288
   A24        2.09447  -0.01142   0.00000  -0.08465  -0.08449   2.00997
   A25        1.77073   0.00554   0.00000   0.02455   0.02480   1.79552
   A26        1.93294  -0.00848   0.00000  -0.06416  -0.06628   1.86667
   A27        1.93284  -0.00401   0.00000  -0.02246  -0.02536   1.90748
   A28        1.84997   0.00887   0.00000   0.07231   0.07285   1.92282
   A29        1.84988   0.00672   0.00000   0.06588   0.06560   1.91548
   A30        2.09434  -0.00482   0.00000  -0.04786  -0.05498   2.03936
   A31        2.09440  -0.01062   0.00000  -0.04290  -0.04290   2.05150
    D1       -1.91170  -0.00175   0.00000  -0.00270  -0.00249  -1.91419
    D2        0.04835   0.00710   0.00000   0.06493   0.06349   0.11185
    D3        2.41149  -0.01026   0.00000  -0.07383  -0.07257   2.33892
    D4        0.13770   0.00487   0.00000   0.03765   0.03782   0.17552
    D5        2.09775   0.01372   0.00000   0.10529   0.10380   2.20156
    D6       -1.82230  -0.00364   0.00000  -0.03348  -0.03225  -1.85455
    D7        2.19104  -0.00216   0.00000  -0.00903  -0.00883   2.18221
    D8       -2.13209   0.00669   0.00000   0.05861   0.05715  -2.07494
    D9        0.23104  -0.01067   0.00000  -0.08016  -0.07890   0.15214
   D10        2.33061   0.00261   0.00000   0.01133   0.01122   2.34183
   D11        0.37279  -0.00698   0.00000  -0.05870  -0.05672   0.31607
   D12       -1.99489   0.01145   0.00000   0.08963   0.08802  -1.90687
   D13        0.27314  -0.00258   0.00000  -0.02577  -0.02585   0.24729
   D14       -1.68468  -0.01218   0.00000  -0.09580  -0.09380  -1.77848
   D15        2.23083   0.00626   0.00000   0.05253   0.05094   2.28177
   D16       -1.77472   0.00046   0.00000   0.00254   0.00211  -1.77260
   D17        2.55065  -0.00914   0.00000  -0.06749  -0.06583   2.48481
   D18        0.18297   0.00929   0.00000   0.08084   0.07891   0.26188
   D19       -2.50616   0.00035   0.00000   0.00539   0.00554  -2.50061
   D20       -0.33074   0.00346   0.00000   0.03077   0.03075  -0.29999
   D21        1.61043  -0.00121   0.00000  -0.00687  -0.00701   1.60343
   D22       -0.52138  -0.00581   0.00000  -0.03769  -0.03795  -0.55933
   D23        1.49127   0.00030   0.00000   0.00509   0.00487   1.49614
   D24       -2.53406  -0.00852   0.00000  -0.06466  -0.06489  -2.59895
   D25       -2.54334  -0.00016   0.00000  -0.00668  -0.00620  -2.54954
   D26       -0.53070   0.00595   0.00000   0.03610   0.03662  -0.49408
   D27        1.72716  -0.00287   0.00000  -0.03365  -0.03314   1.69402
   D28        1.50051  -0.00253   0.00000  -0.02249  -0.02298   1.47752
   D29       -2.77003   0.00357   0.00000   0.02029   0.01983  -2.75019
   D30       -0.51218  -0.00524   0.00000  -0.04946  -0.04992  -0.56210
   D31        0.78769  -0.00014   0.00000   0.00553   0.00519   0.79289
   D32        2.79733   0.00366   0.00000   0.03436   0.03419   2.83151
   D33       -1.22199  -0.00507   0.00000  -0.03609  -0.03629  -1.25828
   D34       -1.22290  -0.00442   0.00000  -0.03265  -0.03284  -1.25574
   D35        0.78673  -0.00063   0.00000  -0.00381  -0.00385   0.78289
   D36        3.05060  -0.00935   0.00000  -0.07426  -0.07432   2.97627
   D37        2.79823   0.00390   0.00000   0.03387   0.03369   2.83192
   D38       -1.47532   0.00770   0.00000   0.06270   0.06268  -1.41264
   D39        0.78854  -0.00103   0.00000  -0.00775  -0.00780   0.78074
   D40       -0.61578  -0.00037   0.00000   0.00637   0.00632  -0.60946
   D41        1.40409  -0.00419   0.00000  -0.02785  -0.02839   1.37570
   D42       -2.63551  -0.00069   0.00000  -0.00300  -0.00271  -2.63822
   D43       -2.62813  -0.00376   0.00000  -0.02572  -0.02574  -2.65387
   D44       -0.60826  -0.00759   0.00000  -0.05994  -0.06046  -0.66872
   D45        1.63533  -0.00409   0.00000  -0.03509  -0.03478   1.60055
   D46        1.39650   0.00505   0.00000   0.04504   0.04504   1.44154
   D47       -2.86681   0.00123   0.00000   0.01081   0.01032  -2.85649
   D48       -0.62323   0.00472   0.00000   0.03566   0.03600  -0.58722
         Item               Value     Threshold  Converged?
 Maximum Force            0.110886     0.000450     NO 
 RMS     Force            0.012955     0.000300     NO 
 Maximum Displacement     0.120674     0.001800     NO 
 RMS     Displacement     0.045188     0.001200     NO 
 Predicted change in Energy=-2.840341D-02
 Lowest energy point so far.  Saving SCF results.
 GradGradGradGradGradGradGradGradGradGradGradGradGradGradGradGradGradGrad

 Leave Link  103 at Mon Oct 14 01:28:05 2019, MaxMem= 10737418240 cpu:               0.8 elap:               0.1
 (Enter /apps/cent7/gaussian/g16-A.03/g16-haswell/g16/l202.exe)
                          Input orientation:                          
 ---------------------------------------------------------------------
 Center     Atomic      Atomic             Coordinates (Angstroms)
 Number     Number       Type             X           Y           Z
 ---------------------------------------------------------------------
      1          8           0       -0.832715   -1.035885    1.435742
      2         16           0        0.247571   -0.488044    0.529332
      3          6           0        1.931820   -0.814168    1.156471
      4          6           0        2.430966    0.605213    1.589354
      5          6           0        1.785724    1.668693    0.645315
      6          6           0        0.267452    1.333949    0.492496
      7          8           0        0.095623   -1.044180   -0.964613
      8          1           0        1.830447   -1.456450    2.030852
      9          1           0        2.562397   -1.185526    0.346096
     10          1           0        2.088444    0.788603    2.609321
     11          1           0        3.511255    0.639449    1.447158
     12          1           0        1.866570    2.645972    1.122059
     13          1           0        2.257789    1.590498   -0.337165
     14          1           0       -0.283012    1.675693    1.369490
     15          1           0       -0.089944    1.678562   -0.478395
     16          1           0        0.913241   -1.238233   -1.458690
 ---------------------------------------------------------------------
                    Distance matrix (angstroms):
                    1          2          3          4          5
     1  O    0.000000
     2  S    1.512853   0.000000
     3  C    2.787437   1.826569   0.000000
     4  C    3.656284   2.661968   1.565624   0.000000
     5  C    3.846523   2.651581   2.539138   1.561581   0.000000
     6  C    2.777804   1.822474   2.797390   2.532775   1.562229
     7  O    2.573632   1.601327   2.814876   3.833677   3.578826
     8  H    2.761062   2.387021   1.089653   2.192259   3.418806
     9  H    3.568824   2.424557   1.091898   2.183967   2.973099
    10  H    3.638573   3.056958   2.168912   1.091461   2.173365
    11  H    4.655851   3.572853   2.166130   1.090145   2.163273
    12  H    4.576091   3.576945   3.460926   2.168318   1.090365
    13  H    4.426319   3.018631   2.849496   2.170772   1.092807
    14  H    2.767530   2.380996   3.339202   2.925739   2.191837
    15  H    3.403505   2.413216   3.601946   3.432586   2.186539
    16  H    3.386302   2.226687   2.838380   3.871996   3.693005
                    6          7          8          9         10
     6  C    0.000000
     7  O    2.794314   0.000000
     8  H    3.549059   3.486028   0.000000
     9  H    3.411153   2.796947   1.856758   0.000000
    10  H    2.845059   4.483685   2.332692   3.040395   0.000000
    11  H    3.451952   4.507527   2.749293   2.333068   1.843166
    12  H    2.162159   4.594309   4.202032   3.970727   2.389768
    13  H    2.171542   3.465571   3.882528   2.875056   3.058348
    14  H    1.090375   3.604041   3.835939   4.162963   2.819204
    15  H    1.090467   2.772033   4.451126   3.989699   3.882188
    16  H    3.292460   0.974817   3.614663   2.445353   4.694452
                   11         12         13         14         15
    11  H    0.000000
    12  H    2.614730   0.000000
    13  H    2.378967   1.842936   0.000000
    14  H    3.933993   2.371364   3.061960   0.000000
    15  H    4.213804   2.706526   2.353625   1.857945   0.000000
    16  H    4.326583   4.759848   3.326763   4.233272   3.236518
                   16
    16  H    0.000000
 Stoichiometry    C4H9O2S(1+)
 Framework group  C1[X(C4H9O2S)]
 Deg. of freedom    42
 Full point group                 C1      NOp   1
 RotChk:  IX=0 Diff= 1.08D-02
 Largest Abelian subgroup         C1      NOp   1
 Largest concise Abelian subgroup C1      NOp   1
                         Standard orientation:                         
 ---------------------------------------------------------------------
 Center     Atomic      Atomic             Coordinates (Angstroms)
 Number     Number       Type             X           Y           Z
 ---------------------------------------------------------------------
      1          8           0       -1.578158    0.327124   -1.281085
      2         16           0       -0.707508    0.016225   -0.083572
      3          6           0        0.462461    1.362338    0.310773
      4          6           0        1.850105    0.754253   -0.084009
      5          6           0        1.807260   -0.786571    0.166110
      6          6           0        0.464581   -1.340936   -0.408737
      7          8           0       -1.589525   -0.345491    1.203073
      8          1           0        0.222157    2.199248   -0.344345
      9          1           0        0.449069    1.560860    1.384389
     10          1           0        2.007394    0.931846   -1.149377
     11          1           0        2.604688    1.182089    0.576277
     12          1           0        2.624646   -1.247946   -0.388785
     13          1           0        1.820487   -0.962160    1.244636
     14          1           0        0.534846   -1.447734   -1.491592
     15          1           0        0.159132   -2.223404    0.154353
     16          1           0       -1.267271   -0.039972    2.070874
 ---------------------------------------------------------------------
 Rotational constants (GHZ):           3.4592709           1.8766008           1.7695397
 Leave Link  202 at Mon Oct 14 01:28:05 2019, MaxMem= 10737418240 cpu:               0.3 elap:               0.0
 (Enter /apps/cent7/gaussian/g16-A.03/g16-haswell/g16/l301.exe)
 Standard basis: 6-31G(d) (6D, 7F)
 Ernie: Thresh=  0.10000D-02 Tol=  0.10000D-05 Strict=F.
 There are   127 symmetry adapted cartesian basis functions of A   symmetry.
 There are   127 symmetry adapted basis functions of A   symmetry.
   127 basis functions,   256 primitive gaussians,   127 cartesian basis functions
    32 alpha electrons       32 beta electrons
       nuclear repulsion energy       431.6490335370 Hartrees.
 IExCor=  402 DFT=T Ex+Corr=B3LYP ExCW=0 ScaHFX=  0.200000
 ScaDFX=  0.800000  0.720000  1.000000  0.810000 ScalE2=  1.000000  1.000000
 IRadAn=      5 IRanWt=     -1 IRanGd=            0 ICorTp=0 IEmpDi=  4
 NAtoms=   16 NActive=   16 NUniq=   16 SFac= 1.00D+00 NAtFMM=   60 NAOKFM=F Big=F
 Integral buffers will be    131072 words long.
 Raffenetti 2 integral format.
 Two-electron integral symmetry is turned on.
 Leave Link  301 at Mon Oct 14 01:28:06 2019, MaxMem= 10737418240 cpu:               1.2 elap:               0.1
 (Enter /apps/cent7/gaussian/g16-A.03/g16-haswell/g16/l302.exe)
 NPDir=0 NMtPBC=     1 NCelOv=     1 NCel=       1 NClECP=     1 NCelD=      1
         NCelK=      1 NCelE2=     1 NClLst=     1 CellRange=     0.0.
 One-electron integrals computed using PRISM.
 One-electron integral symmetry used in STVInt
 NBasis=   127 RedAO= T EigKep=  3.30D-03  NBF=   127
 NBsUse=   127 1.00D-06 EigRej= -1.00D+00 NBFU=   127
 Precomputing XC quadrature grid using
 IXCGrd= 4 IRadAn=           5 IRanWt=          -1 IRanGd=           0 AccXCQ= 0.00D+00.
 Generated NRdTot=       0 NPtTot=           0 NUsed=           0 NTot=          32
 NSgBfM=   127   127   127   127   127 MxSgAt=    16 MxSgA2=    16.
 Leave Link  302 at Mon Oct 14 01:28:06 2019, MaxMem= 10737418240 cpu:               2.8 elap:               0.1
 (Enter /apps/cent7/gaussian/g16-A.03/g16-haswell/g16/l303.exe)
 DipDrv:  MaxL=1.
 Leave Link  303 at Mon Oct 14 01:28:06 2019, MaxMem= 10737418240 cpu:               0.5 elap:               0.0
 (Enter /apps/cent7/gaussian/g16-A.03/g16-haswell/g16/l401.exe)
 Initial guess from the checkpoint file:  "23_p.chk"
 B after Tr=     0.000000    0.000000    0.000000
         Rot=    0.999994   -0.002986   -0.000443    0.001871 Ang=  -0.41 deg.
 Guess basis will be translated and rotated to current coordinates.
 JPrj=2 DoOrth=T DoCkMO=T.
 Generating alternative initial guess.
 ExpMin= 1.17D-01 ExpMax= 2.19D+04 ExpMxC= 3.30D+03 IAcc=2 IRadAn=         4 AccDes= 0.00D+00
 Harris functional with IExCor=  402 and IRadAn=       4 diagonalized for initial guess.
 HarFok:  IExCor=  402 AccDes= 0.00D+00 IRadAn=         4 IDoV= 1 UseB2=F ITyADJ=14
 ICtDFT=  3500011 ScaDFX=  1.000000  1.000000  1.000000  1.000000
 FoFCou: FMM=F IPFlag=           0 FMFlag=      100000 FMFlg1=           0
         NFxFlg=           0 DoJE=T BraDBF=F KetDBF=T FulRan=T
         wScrn=  0.000000 ICntrl=       500 IOpCl=  0 I1Cent=   200000004 NGrid=           0
         NMat0=    1 NMatS0=      1 NMatT0=    0 NMatD0=    1 NMtDS0=    0 NMtDT0=    0
 Petite list used in FoFCou.
 Harris En= -706.245191062842    
 Leave Link  401 at Mon Oct 14 01:28:06 2019, MaxMem= 10737418240 cpu:               5.6 elap:               0.3
 (Enter /apps/cent7/gaussian/g16-A.03/g16-haswell/g16/l502.exe)
 Integral symmetry usage will be decided dynamically.
 Closed shell SCF:
 Using DIIS extrapolation, IDIIS=  1040.
 NGot= 10737418240 LenX= 10737381330 LenY= 10737364760
 Requested convergence on RMS density matrix=1.00D-08 within 128 cycles.
 Requested convergence on MAX density matrix=1.00D-06.
 Requested convergence on             energy=1.00D-06.
 No special actions if energy rises.
 Fock matrices will be formed incrementally for  20 cycles.
 Integral accuracy reduced to 1.0D-05 until final iterations.

 Cycle   1  Pass 0  IDiag  1:
 FoFJK:  IHMeth= 1 ICntrl=       0 DoSepK=F KAlg= 0 I1Cent=           0 FoldK=F
 IRaf= 980000000 NMat=       1 IRICut=       1 DoRegI=T DoRafI=F ISym2E= 0 IDoP0=0 IntGTp=1.
 FoFCou: FMM=F IPFlag=           0 FMFlag=      100000 FMFlg1=           0
         NFxFlg=           0 DoJE=F BraDBF=F KetDBF=F FulRan=T
         wScrn=  0.000000 ICntrl=         0 IOpCl=  0 I1Cent=           0 NGrid=           0
         NMat0=    1 NMatS0=      1 NMatT0=    0 NMatD0=    1 NMtDS0=    0 NMtDT0=    0
 Symmetry not used in FoFCou.
 E= -706.117927388836    
 DIIS: error= 6.38D-03 at cycle   1 NSaved=   1.
 NSaved= 1 IEnMin= 1 EnMin= -706.117927388836     IErMin= 1 ErrMin= 6.38D-03
 ErrMax= 6.38D-03  0.00D+00 EMaxC= 1.00D-01 BMatC= 5.12D-03 BMatP= 5.12D-03
 IDIUse=3 WtCom= 9.36D-01 WtEn= 6.38D-02
 Coeff-Com:  0.100D+01
 Coeff-En:   0.100D+01
 Coeff:      0.100D+01
 Gap=     1.588 Goal=   None    Shift=    0.000
 GapD=    1.588 DampG=2.000 DampE=1.000 DampFc=2.0000 IDamp=-1.
 RMSDP=1.23D-03 MaxDP=2.99D-02              OVMax= 2.70D-02

 Cycle   2  Pass 0  IDiag  1:
 RMSU=  1.22D-03    CP:  9.96D-01
 E= -706.122101072507     Delta-E=       -0.004173683670 Rises=F Damp=F
 DIIS: error= 5.15D-03 at cycle   2 NSaved=   2.
 NSaved= 2 IEnMin= 2 EnMin= -706.122101072507     IErMin= 2 ErrMin= 5.15D-03
 ErrMax= 5.15D-03  0.00D+00 EMaxC= 1.00D-01 BMatC= 4.30D-03 BMatP= 5.12D-03
 IDIUse=3 WtCom= 9.48D-01 WtEn= 5.15D-02
 Coeff-Com:  0.469D+00 0.531D+00
 Coeff-En:   0.342D-01 0.966D+00
 Coeff:      0.447D+00 0.553D+00
 Gap=     0.272 Goal=   None    Shift=    0.000
 RMSDP=8.88D-04 MaxDP=2.30D-02 DE=-4.17D-03 OVMax= 3.74D-02

 Cycle   3  Pass 0  IDiag  1:
 RMSU=  7.30D-04    CP:  9.99D-01  5.95D-01
 E= -706.122724692191     Delta-E=       -0.000623619684 Rises=F Damp=F
 DIIS: error= 4.95D-03 at cycle   3 NSaved=   3.
 NSaved= 3 IEnMin= 3 EnMin= -706.122724692191     IErMin= 3 ErrMin= 4.95D-03
 ErrMax= 4.95D-03  0.00D+00 EMaxC= 1.00D-01 BMatC= 3.45D-03 BMatP= 4.30D-03
 IDIUse=3 WtCom= 9.50D-01 WtEn= 4.95D-02
 Coeff-Com:  0.276D-01 0.465D+00 0.507D+00
 Coeff-En:   0.000D+00 0.463D+00 0.537D+00
 Coeff:      0.262D-01 0.465D+00 0.509D+00
 Gap=     0.280 Goal=   None    Shift=    0.000
 RMSDP=4.76D-04 MaxDP=1.16D-02 DE=-6.24D-04 OVMax= 1.87D-02

 Cycle   4  Pass 0  IDiag  1:
 RMSU=  1.41D-04    CP:  9.97D-01  8.28D-01  5.25D-01
 E= -706.125439262883     Delta-E=       -0.002714570692 Rises=F Damp=F
 DIIS: error= 6.24D-04 at cycle   4 NSaved=   4.
 NSaved= 4 IEnMin= 4 EnMin= -706.125439262883     IErMin= 4 ErrMin= 6.24D-04
 ErrMax= 6.24D-04  0.00D+00 EMaxC= 1.00D-01 BMatC= 5.67D-05 BMatP= 3.45D-03
 IDIUse=3 WtCom= 9.94D-01 WtEn= 6.24D-03
 Coeff-Com: -0.146D-01 0.179D+00 0.242D+00 0.594D+00
 Coeff-En:   0.000D+00 0.000D+00 0.000D+00 0.100D+01
 Coeff:     -0.145D-01 0.178D+00 0.241D+00 0.596D+00
 Gap=     0.279 Goal=   None    Shift=    0.000
 RMSDP=7.39D-05 MaxDP=3.90D-03 DE=-2.71D-03 OVMax= 1.60D-03

 Cycle   5  Pass 0  IDiag  1:
 RMSU=  4.48D-05    CP:  9.97D-01  8.27D-01  5.54D-01  6.24D-01
 E= -706.125485942487     Delta-E=       -0.000046679604 Rises=F Damp=F
 DIIS: error= 1.47D-04 at cycle   5 NSaved=   5.
 NSaved= 5 IEnMin= 5 EnMin= -706.125485942487     IErMin= 5 ErrMin= 1.47D-04
 ErrMax= 1.47D-04  0.00D+00 EMaxC= 1.00D-01 BMatC= 6.31D-06 BMatP= 5.67D-05
 IDIUse=3 WtCom= 9.99D-01 WtEn= 1.47D-03
 Coeff-Com: -0.890D-02 0.521D-01 0.841D-01 0.314D+00 0.559D+00
 Coeff-En:   0.000D+00 0.000D+00 0.000D+00 0.000D+00 0.100D+01
 Coeff:     -0.889D-02 0.521D-01 0.840D-01 0.314D+00 0.559D+00
 Gap=     0.279 Goal=   None    Shift=    0.000
 RMSDP=2.14D-05 MaxDP=8.55D-04 DE=-4.67D-05 OVMax= 4.87D-04

 Cycle   6  Pass 0  IDiag  1:
 RMSU=  1.20D-05    CP:  9.97D-01  8.26D-01  5.60D-01  6.89D-01  6.83D-01
 E= -706.125491202124     Delta-E=       -0.000005259637 Rises=F Damp=F
 DIIS: error= 5.79D-05 at cycle   6 NSaved=   6.
 NSaved= 6 IEnMin= 6 EnMin= -706.125491202124     IErMin= 6 ErrMin= 5.79D-05
 ErrMax= 5.79D-05  0.00D+00 EMaxC= 1.00D-01 BMatC= 4.87D-07 BMatP= 6.31D-06
 IDIUse=1 WtCom= 1.00D+00 WtEn= 0.00D+00
 Coeff-Com: -0.313D-02 0.128D-01 0.236D-01 0.112D+00 0.284D+00 0.570D+00
 Coeff:     -0.313D-02 0.128D-01 0.236D-01 0.112D+00 0.284D+00 0.570D+00
 Gap=     0.279 Goal=   None    Shift=    0.000
 RMSDP=7.04D-06 MaxDP=1.78D-04 DE=-5.26D-06 OVMax= 2.00D-04

 Initial convergence to 1.0D-05 achieved.  Increase integral accuracy.
 Cycle   7  Pass 1  IDiag  1:
 E= -706.125500604058     Delta-E=       -0.000009401934 Rises=F Damp=F
 DIIS: error= 1.81D-05 at cycle   1 NSaved=   1.
 NSaved= 1 IEnMin= 1 EnMin= -706.125500604058     IErMin= 1 ErrMin= 1.81D-05
 ErrMax= 1.81D-05  0.00D+00 EMaxC= 1.00D-01 BMatC= 7.92D-08 BMatP= 7.92D-08
 IDIUse=1 WtCom= 1.00D+00 WtEn= 0.00D+00
 Coeff-Com:  0.100D+01
 Coeff:      0.100D+01
 Gap=     0.279 Goal=   None    Shift=    0.000
 RMSDP=7.04D-06 MaxDP=1.78D-04 DE=-9.40D-06 OVMax= 1.52D-04

 Cycle   8  Pass 1  IDiag  1:
 RMSU=  6.07D-06    CP:  1.00D+00
 E= -706.125500498551     Delta-E=        0.000000105506 Rises=F Damp=F
 DIIS: error= 3.17D-05 at cycle   2 NSaved=   2.
 NSaved= 2 IEnMin= 1 EnMin= -706.125500604058     IErMin= 1 ErrMin= 1.81D-05
 ErrMax= 3.17D-05  0.00D+00 EMaxC= 1.00D-01 BMatC= 2.08D-07 BMatP= 7.92D-08
 IDIUse=1 WtCom= 1.00D+00 WtEn= 0.00D+00
 Coeff-Com:  0.623D+00 0.377D+00
 Coeff:      0.623D+00 0.377D+00
 Gap=     0.279 Goal=   None    Shift=    0.000
 RMSDP=3.74D-06 MaxDP=7.20D-05 DE= 1.06D-07 OVMax= 1.23D-04

 Cycle   9  Pass 1  IDiag  1:
 RMSU=  1.93D-06    CP:  1.00D+00  4.74D-01
 E= -706.125500673187     Delta-E=       -0.000000174636 Rises=F Damp=F
 DIIS: error= 5.20D-06 at cycle   3 NSaved=   3.
 NSaved= 3 IEnMin= 3 EnMin= -706.125500673187     IErMin= 3 ErrMin= 5.20D-06
 ErrMax= 5.20D-06  0.00D+00 EMaxC= 1.00D-01 BMatC= 5.46D-09 BMatP= 7.92D-08
 IDIUse=1 WtCom= 1.00D+00 WtEn= 0.00D+00
 Coeff-Com:  0.302D+00 0.213D+00 0.485D+00
 Coeff:      0.302D+00 0.213D+00 0.485D+00
 Gap=     0.279 Goal=   None    Shift=    0.000
 RMSDP=7.55D-07 MaxDP=3.03D-05 DE=-1.75D-07 OVMax= 2.50D-05

 Cycle  10  Pass 1  IDiag  1:
 RMSU=  6.45D-07    CP:  1.00D+00  4.87D-01  8.15D-01
 E= -706.125500676717     Delta-E=       -0.000000003529 Rises=F Damp=F
 DIIS: error= 2.50D-06 at cycle   4 NSaved=   4.
 NSaved= 4 IEnMin= 4 EnMin= -706.125500676717     IErMin= 4 ErrMin= 2.50D-06
 ErrMax= 2.50D-06  0.00D+00 EMaxC= 1.00D-01 BMatC= 1.16D-09 BMatP= 5.46D-09
 IDIUse=1 WtCom= 1.00D+00 WtEn= 0.00D+00
 Coeff-Com:  0.621D-01 0.600D-01 0.324D+00 0.554D+00
 Coeff:      0.621D-01 0.600D-01 0.324D+00 0.554D+00
 Gap=     0.279 Goal=   None    Shift=    0.000
 RMSDP=3.23D-07 MaxDP=7.07D-06 DE=-3.53D-09 OVMax= 1.31D-05

 Cycle  11  Pass 1  IDiag  1:
 RMSU=  2.07D-07    CP:  1.00D+00  4.88D-01  8.78D-01  6.71D-01
 E= -706.125500677506     Delta-E=       -0.000000000790 Rises=F Damp=F
 DIIS: error= 9.15D-07 at cycle   5 NSaved=   5.
 NSaved= 5 IEnMin= 5 EnMin= -706.125500677506     IErMin= 5 ErrMin= 9.15D-07
 ErrMax= 9.15D-07  0.00D+00 EMaxC= 1.00D-01 BMatC= 1.99D-10 BMatP= 1.16D-09
 IDIUse=1 WtCom= 1.00D+00 WtEn= 0.00D+00
 Coeff-Com: -0.101D-02 0.105D-01 0.142D+00 0.366D+00 0.482D+00
 Coeff:     -0.101D-02 0.105D-01 0.142D+00 0.366D+00 0.482D+00
 Gap=     0.279 Goal=   None    Shift=    0.000
 RMSDP=1.13D-07 MaxDP=2.73D-06 DE=-7.90D-10 OVMax= 3.50D-06

 Cycle  12  Pass 1  IDiag  1:
 RMSU=  4.42D-08    CP:  1.00D+00  4.94D-01  8.79D-01  7.00D-01  5.38D-01
 E= -706.125500677666     Delta-E=       -0.000000000159 Rises=F Damp=F
 DIIS: error= 1.59D-07 at cycle   6 NSaved=   6.
 NSaved= 6 IEnMin= 6 EnMin= -706.125500677666     IErMin= 6 ErrMin= 1.59D-07
 ErrMax= 1.59D-07  0.00D+00 EMaxC= 1.00D-01 BMatC= 4.68D-12 BMatP= 1.99D-10
 IDIUse=1 WtCom= 1.00D+00 WtEn= 0.00D+00
 Coeff-Com: -0.530D-02 0.255D-04 0.346D-01 0.117D+00 0.204D+00 0.650D+00
 Coeff:     -0.530D-02 0.255D-04 0.346D-01 0.117D+00 0.204D+00 0.650D+00
 Gap=     0.279 Goal=   None    Shift=    0.000
 RMSDP=1.96D-08 MaxDP=5.90D-07 DE=-1.59D-10 OVMax= 4.14D-07

 Cycle  13  Pass 1  IDiag  1:
 RMSU=  1.27D-08    CP:  1.00D+00  4.94D-01  8.82D-01  7.08D-01  5.68D-01
                    CP:  7.54D-01
 E= -706.125500677672     Delta-E=       -0.000000000007 Rises=F Damp=F
 DIIS: error= 2.27D-08 at cycle   7 NSaved=   7.
 NSaved= 7 IEnMin= 7 EnMin= -706.125500677672     IErMin= 7 ErrMin= 2.27D-08
 ErrMax= 2.27D-08  0.00D+00 EMaxC= 1.00D-01 BMatC= 1.42D-13 BMatP= 4.68D-12
 IDIUse=1 WtCom= 1.00D+00 WtEn= 0.00D+00
 Coeff-Com: -0.157D-02-0.308D-03 0.469D-02 0.223D-01 0.416D-01 0.201D+00
 Coeff-Com:  0.732D+00
 Coeff:     -0.157D-02-0.308D-03 0.469D-02 0.223D-01 0.416D-01 0.201D+00
 Coeff:      0.732D+00
 Gap=     0.279 Goal=   None    Shift=    0.000
 RMSDP=4.20D-09 MaxDP=6.81D-08 DE=-6.59D-12 OVMax= 8.49D-08

 SCF Done:  E(RB3LYP) =  -706.125500678     A.U. after   13 cycles
            NFock= 13  Conv=0.42D-08     -V/T= 2.0064
 KE= 7.016682519882D+02 PE=-2.512678052217D+03 EE= 6.732352660143D+02
 Leave Link  502 at Mon Oct 14 01:28:08 2019, MaxMem= 10737418240 cpu:              51.1 elap:               2.2
 (Enter /apps/cent7/gaussian/g16-A.03/g16-haswell/g16/l701.exe)
 ... and contract with generalized density number  0.
 Compute integral first derivatives.
 Leave Link  701 at Mon Oct 14 01:28:08 2019, MaxMem= 10737418240 cpu:               2.9 elap:               0.1
 (Enter /apps/cent7/gaussian/g16-A.03/g16-haswell/g16/l702.exe)
 L702 exits ... SP integral derivatives will be done elsewhere.
 Leave Link  702 at Mon Oct 14 01:28:08 2019, MaxMem= 10737418240 cpu:               0.5 elap:               0.0
 (Enter /apps/cent7/gaussian/g16-A.03/g16-haswell/g16/l703.exe)
 Integral derivatives from FoFJK, PRISM(SPDF).
 Compute integral first derivatives, UseDBF=F ICtDFT=           0.
 Calling FoFJK, ICntrl=      2127 FMM=F ISym2X=0 I1Cent= 0 IOpClX= 0 NMat=1 NMatS=1 NMatT=0.
 FoFJK:  IHMeth= 1 ICntrl=    2127 DoSepK=F KAlg= 0 I1Cent=           0 FoldK=F
 IRaf=         0 NMat=       1 IRICut=       1 DoRegI=T DoRafI=F ISym2E= 0 IDoP0=0 IntGTp=1.
 FoFCou: FMM=F IPFlag=           0 FMFlag=      100000 FMFlg1=         800
         NFxFlg=           0 DoJE=F BraDBF=F KetDBF=F FulRan=T
         wScrn=  0.000000 ICntrl=      2127 IOpCl=  0 I1Cent=           0 NGrid=           0
         NMat0=    1 NMatS0=      1 NMatT0=    0 NMatD0=    1 NMtDS0=    0 NMtDT0=    0
 Symmetry not used in FoFCou.
 Leave Link  703 at Mon Oct 14 01:28:09 2019, MaxMem= 10737418240 cpu:              13.5 elap:               0.6
 (Enter /apps/cent7/gaussian/g16-A.03/g16-haswell/g16/l716.exe)
 Dipole        = 1.42298673D+00 1.90973107D-02 1.33849127D+00
 ***** Axes restored to original set *****
 -------------------------------------------------------------------
 Center     Atomic                   Forces (Hartrees/Bohr)
 Number     Number              X              Y              Z
 -------------------------------------------------------------------
      1        8           0.042078319    0.019687904   -0.040525427
      2       16          -0.050949285   -0.024205740    0.055686921
      3        6           0.009127357    0.025487217    0.000716102
      4        6          -0.015527201   -0.001941415   -0.015642122
      5        6          -0.009247144   -0.018718832    0.009022806
      6        6           0.029464644    0.003339182   -0.006555909
      7        8          -0.006512104    0.002772368   -0.004045780
[...]
     6          3.57260516          1.44930297          2.53054289
     6          4.41092305         -1.21508999          3.35045526
     6          2.08633133         -2.97964326          3.20957401
     6          0.82082323         -2.55454658          0.63117225
     8         -1.47769267          1.84106220          1.18754592
     1          5.03185040          2.61798414          1.65275981
     1          2.61397922          2.49861912          4.03178584
     1          5.91242596         -1.89464645          2.09953213
     1          5.18123558         -1.13269327          5.26520400
     1          2.63799894         -4.96264859          3.38580995
     1          0.75068020         -2.56004827          4.73287028
     1          1.84354212         -3.43608643         -0.93890267
     1         -1.18980287         -3.00722686          0.50769786
     1         -1.82171783          3.57504449          0.61625145

 Electric dipole moment (dipole orientation):
 (Debye = 10**-18 statcoulomb cm , SI units = C m)
                  (au)            (Debye)         (10**-30 SI)
   Tot        0.909091D+00      0.231068D+01      0.770759D+01
   x          0.000000D+00      0.000000D+00      0.000000D+00
   y          0.000000D+00      0.000000D+00      0.000000D+00
   z          0.909091D+00      0.231068D+01      0.770759D+01

 Dipole polarizability, Alpha (dipole orientation).
 (esu units = cm**3 , SI units = C**2 m**2 J**-1)
 Alpha(0;0):
               (au)            (10**-24 esu)      (10**-40 SI)
   iso        0.605279D+02      0.896931D+01      0.997970D+01
   aniso      0.120043D+02      0.177886D+01      0.197925D+01
   xx         0.589355D+02      0.873334D+01      0.971716D+01
   yx        -0.225439D+01     -0.334066D+00     -0.371698D+00
   yy         0.621453D+02      0.920898D+01      0.102464D+02
   zx         0.373115D+01      0.552900D+00      0.615184D+00
   zy        -0.514343D+01     -0.762177D+00     -0.848037D+00
   zz         0.605029D+02      0.896560D+01      0.997557D+01

 ----------------------------------------------------------------------
 1\1\GINC-BROWN-A265\Freq\RB3LYP\6-31G(d)\C4H9O2S1(1+)\FINEJ\14-Oct-201
 9\0\\#P Geom=AllCheck Guess=TCheck SCRF=Check GenChk RB3LYP/6-31G(d) F
 req\\Title Card Required\\1,1\O,-0.7610518921,-1.1774259519,1.18796485
 06\S,0.3182044068,-0.4873857013,0.4971559326\C,2.0089709067,-0.7476805
 562,1.166427789\C,2.4270456206,0.658101831,1.6375514859\C,1.812067541,
 1.6918900285,0.666083679\C,0.3282957359,1.3345608381,0.4886516571\O,0.
 3959779328,-0.7827064634,-1.0890865464\H,1.9253676081,-1.5052798843,1.
 9497385444\H,2.6156969575,-1.1218085725,0.3365567216\H,2.0680588351,0.
 8301321363,2.6575362057\H,3.5178596835,0.7255898909,1.6546706248\H,1.8
 967989612,2.707559235,1.0614520636\H,2.3222770443,1.6677441148,-0.3022
 927099\H,-0.2905668914,1.6124168824,1.3492467092\H,-0.1458076989,1.670
 0268515,-0.4367613382\H,0.144431539,-1.7115909589,-1.2900728889\\Versi
 on=ES64L-G16RevA.03\State=1-A\HF=-706.1487223\RMSD=4.804e-09\RMSF=4.74
 3e-05\ZeroPoint=0.1337785\Thermal=0.1337785\Dipole=0.8409568,0.1367459
 ,-0.3170769\DipoleDeriv=-0.7568129,-0.2125628,0.0616156,-0.200582,-0.6
 199756,0.0611567,0.119315,0.0856298,-0.4926192,1.5229467,0.2060562,-0.
 0254703,0.1879641,1.4429053,0.0575915,0.0307022,0.145431,1.7802716,0.0
 266604,0.0306568,0.0576713,0.0064292,-0.187752,-0.0168243,0.0304659,0.
 0213116,-0.0549985,-0.0716776,-0.0293899,-0.1017768,0.0800235,0.147688
 2,0.0620925,0.0430398,0.0567902,0.1206581,0.1671902,0.0767215,0.000260
 1,-0.0484276,-0.0876755,0.008995,-0.053594,-0.0856737,0.078951,-0.1458
 278,0.0281307,-0.0314878,0.0744243,0.0478834,0.0490903,-0.0602296,0.10
 56063,-0.0870833,-0.5178296,-0.0223506,-0.0386246,-0.0243898,-0.566131
 7,-0.3111455,-0.171844,-0.3633982,-1.133014,0.0532506,-0.0169977,-0.01
 59555,-0.0279421,0.0661238,-0.0019888,0.0046581,0.0010476,0.0976203,0.
 0438806,0.0010389,-0.016174,-0.0218383,0.0880107,-0.0177996,-0.0311052
 ,-0.0291426,0.0207141,0.0585801,0.0094321,0.075691,-0.0057058,0.012033
 8,-0.0013876,0.0223074,-0.0067298,-0.0239891,0.0093749,0.0026744,-0.01
 20476,-0.0236486,0.0547976,-0.0185332,-0.017792,-0.0076044,0.0820097,0
 .0567117,-0.0286943,-0.0105223,-0.0007175,0.0149821,-0.0165305,-0.0068
 686,-0.021562,0.0869104,0.0102593,0.0045673,0.0111275,0.0313328,0.0829
 043,-0.0285688,0.0302669,0.0167557,-0.0381563,0.0822537,-0.0534262,0.0
 093684,-0.0358104,0.0512296,0.0100763,0.0338435,0.0214079,0.0654579,0.
 0793568,-0.0276882,-0.015683,-0.0095524,0.0696833,-0.0073453,-0.016982
 ,-0.026456,0.094548,0.3816829,0.0318319,0.0520079,0.0184405,0.3832927,
 0.1711214,0.0438166,0.0865866,0.4027194\Polar=61.6826231,5.1741971,63.
 0222157,2.9711867,1.4139003,56.8788355\Quadrupole=-2.0696863,3.5428293
 ,-1.473143,-0.7762355,3.6735253,3.9831355\PG=C01 [X(C4H9O2S1)]\NImag=0
 \\0.37089963,0.20917119,0.17387745,-0.20660137,-0.13284818,0.18017788,
 -0.38043720,-0.19224902,0.18420934,0.64820740,-0.19414513,-0.20302163,
 0.11984786,0.18705669,0.53865646,0.18938375,0.12207933,-0.19164785,-0.
 15777754,-0.07244342,0.58529299,0.00188611,0.00093222,-0.00605991,-0.0
 9193529,0.01674729,-0.01433735,0.33630831,-0.01157873,0.01185354,-0.00
 059289,0.02004861,-0.07418259,0.01214371,-0.02999045,0.51318751,0.0184
 9139,0.00298195,0.00828789,-0.00737245,0.00676619,-0.06652914,-0.12073
 124,-0.05151899,0.55648563,-0.00583611,0.00275836,0.00128587,-0.020343
 17,-0.02523535,-0.01471776,-0.07382898,-0.02103739,-0.00470682,0.60990
 419,0.00370083,-0.00234155,-0.00142358,-0.02744993,0.00804150,-0.00855
 189,-0.01079876,-0.14998254,-0.02502255,0.00384985,0.40250312,0.000765
 37,0.00043997,0.00009310,-0.00875498,-0.00694511,-0.00536748,-0.002063
 99,-0.03265999,-0.09293129,-0.03486410,0.02916965,0.55970094,-0.000504
 73,0.00418415,-0.00253958,-0.00161298,-0.03022662,0.00048065,0.0021909
 1,-0.00036639,0.00385431,-0.08925037,0.02735115,-0.01792740,0.44512811
 ,0.00047606,-0.00754711,0.00247247,-0.03127610,-0.01949207,-0.00038951
 ,0.00509699,-0.03254055,0.01766655,0.02233826,-0.11324104,0.03727709,0
 .02271923,0.57533289,-0.00120397,0.00074599,-0.00036169,-0.00476139,-0
 .00876658,0.00209821,0.00567305,-0.00166295,0.00823143,-0.01720983,0.0
 3826089,-0.12265428,-0.07036007,0.05557689,0.55833113,0.00915720,-0.01
 902145,0.00444472,-0.06854434,0.01645299,0.00071143,0.00233250,0.01278
 935,-0.00182631,-0.02269191,0.00483165,-0.00876218,-0.16682664,-0.0210
 3404,-0.00197697,0.49629443,0.00315253,0.00859117,-0.00541466,0.011120
 11,-0.10737739,0.00196300,0.00104524,-0.00046197,0.00396929,0.01811548
 ,0.00306200,-0.00026963,-0.01195060,-0.07349460,0.00105796,-0.06993541
 ,0.31055884,0.00460830,0.00976635,0.00420270,-0.00033010,0.01317884,-0
 .06262577,-0.00545599,0.00487503,0.00984870,-0.02567748,0.00003592,-0.
 00390665,-0.00238497,-0.00002473,-0.08278664,0.00001101,-0.02659492,0.
 62114727,0.00983085,0.00396849,0.02509904,-0.06046580,-0.01668453,-0.0
 0395462,0.00525076,-0.00332343,-0.01325225,-0.00222913,0.00207713,-0.0
 0151638,-0.00163755,0.00185343,0.00041410,0.00689430,-0.00249909,-0.00
 429045,0.07469352,-0.00081187,0.01547459,0.01550014,-0.01130497,-0.098
 29189,-0.05358280,0.00085954,0.01040582,-0.00188884,0.00067207,-0.0034
 3690,0.00213886,0.00116732,-0.00218646,-0.00119021,0.00364369,0.001069
 92,-0.02939099,0.13251479,0.49519624,-0.00265893,-0.00588441,-0.008014
 30,0.01447671,-0.01776477,-0.23691870,0.01101049,-0.00486678,-0.007038
 21,-0.00481668,0.00269448,-0.00040456,0.00099080,-0.00216300,-0.001750
 66,-0.00042458,0.00381690,-0.00510025,0.00990317,0.12197680,0.30537974
 ,0.00268859,-0.00185534,0.00232115,-0.00108415,0.02179880,-0.02203920,
 -0.04655374,-0.01656659,0.02083075,0.00201609,-0.00599453,0.00865621,-
 0.00261569,-0.00180595,-0.00233469,-0.00371500,0.00102629,-0.00010898,
 -0.00263869,-0.00159994,-0.00324757,0.04973644,-0.00035464,0.00055268,
 -0.00091159,0.00292883,-0.00249320,0.00170789,-0.01620198,-0.17979065,
 0.14147585,0.00072007,-0.01413602,0.01827493,-0.00137453,-0.00408570,-
 0.00231424,-0.00080674,-0.00091874,0.00041100,-0.00139331,-0.00055832,
 -0.00163740,0.01586752,0.19106428,0.00092279,-0.00116570,0.00129952,0.
 00083137,0.00610419,-0.00873617,0.01710398,0.14168154,-0.19699479,0.00
 124437,-0.00883544,0.01183991,-0.00102398,-0.00295678,-0.00100049,-0.0
 0047256,-0.00065768,0.00012107,-0.00209526,-0.00025476,-0.00126594,-0.
 01680231,-0.14926690,0.20703045,-0.00512472,-0.00101877,-0.00160613,-0
 .02010777,0.00950088,0.01989041,-0.12940470,0.05324844,0.12107251,0.00
 754451,-0.00432906,-0.01061701,-0.00015120,0.00014618,0.00005185,-0.00
 170701,-0.00036074,-0.00309389,0.00400609,-0.00081859,0.00020594,0.001
 54240,-0.00034171,0.00021714,0.14224975,-0.00151221,0.00000624,-0.0006
 3506,0.00273018,-0.00281572,-0.00076460,0.05258865,-0.07812773,-0.0688
 8758,0.01554160,-0.00874189,-0.02270906,0.00050843,0.00130149,-0.00042
 046,0.00040397,-0.00058864,0.00106489,-0.00062391,0.00012186,-0.000304
 69,-0.01393662,0.00967008,0.01531672,-0.05369113,0.08244008,-0.0034058
 8,-0.00151820,-0.00035267,-0.00810120,0.00625561,0.00900577,0.12239379
 ,-0.06764052,-0.20876170,0.00314153,-0.00336447,-0.00734578,-0.0001230
 7,0.00029707,0.00072153,-0.00118373,-0.00033169,-0.00252536,-0.0000608
 4,-0.00021003,0.00000052,0.01308643,-0.00883788,-0.01374862,-0.1253880
 9,0.07678529,0.22078516,-0.00001406,0.00008745,0.00023759,0.00069842,-
 0.00056039,-0.00077248,0.00293677,-0.00288047,-0.01020106,-0.08500261,
 0.01414188,0.08372709,0.00433415,-0.00212140,-0.01337999,0.00104500,-0
 .00033628,-0.00024932,-0.00011248,0.00044526,-0.00005232,0.00045839,0.
 00065215,0.00017988,0.00028937,-0.00148339,-0.00051120,0.08435312,-0.0
 0052134,0.00026868,0.00032805,0.00259309,-0.00173626,-0.00099770,0.010
 13223,-0.00973828,-0.02978595,0.01341521,-0.05423825,-0.03768312,-0.00
 916497,0.00266312,0.02440791,-0.00101759,0.00030030,-0.00065556,-0.000
 68561,0.00062620,-0.00035918,0.00074087,0.00150706,0.00011972,-0.00329
 511,-0.00476667,-0.00200608,-0.01464644,0.06597016,-0.00023325,0.00000
 655,0.00032349,0.00071460,-0.00069163,-0.00138957,0.00185314,-0.002015
 07,-0.00588304,0.08351126,-0.04007384,-0.28174565,0.00680725,-0.000875
 62,-0.01842524,0.00047296,-0.00050726,0.00059524,-0.00018535,0.0001786
 6,-0.00002532,-0.00032120,0.00017932,0.00099523,-0.00064984,-0.0004914
 2,0.00090689,-0.08903594,0.04130824,0.30256693,0.00052056,-0.00010024,
 -0.00027809,0.00123951,0.00042505,0.00072007,-0.00675696,-0.00205946,-
 0.00067278,-0.32512858,-0.01718317,-0.00074401,-0.00948382,-0.00031829
 ,-0.00013582,0.00067495,0.00188519,-0.00160088,0.00014170,-0.00023725,
 0.00042704,-0.00022239,-0.00029851,-0.00031090,0.00116618,0.00020782,0
 .00010807,-0.00887104,-0.00047411,0.00018100,0.34609502,-0.00235381,0.
 00116539,0.00025120,0.00104932,-0.00773175,0.00041295,-0.02981299,-0.0
 0456137,-0.00206114,-0.01745079,-0.04699211,-0.00083172,0.02313119,0.0
 0275553,-0.00084908,0.00173794,-0.00346988,0.00375080,-0.00088643,0.00
 093384,-0.00168216,0.00002382,-0.00054108,0.00007146,0.00013819,0.0018
 6889,0.00015754,0.00541789,0.00069904,0.00043321,0.01863037,0.05335583
 ,-0.00089173,0.00004048,0.00019912,-0.00181841,-0.00183924,-0.00113613
 ,-0.00939635,-0.00062337,-0.00065982,0.00286958,-0.00158054,-0.0479048
 9,-0.02144968,-0.00119413,-0.00126387,-0.00106446,0.00291091,-0.002421
 37,-0.00025087,-0.00013927,-0.00097570,0.00001999,-0.00005379,-0.00004
 141,-0.00034703,0.00033367,0.00059252,0.03111966,0.00236517,0.00168956
 ,0.00203497,0.00114519,0.05060370,0.00021361,-0.00266765,0.00100577,-0
 .00744366,0.00125033,-0.00122238,-0.00100909,0.00215901,-0.00281761,0.
 00172196,0.01256131,0.00661700,-0.04850522,-0.01842365,-0.00609717,-0.
 00490941,-0.02950630,-0.01101718,0.00075518,-0.00133710,-0.00092079,0.
 00064688,0.00068506,0.00034137,0.00003805,-0.00028960,0.00006148,0.000
 64439,-0.00061978,0.00017584,0.00001858,-0.00002645,0.00053385,0.05404
 816,-0.00003494,0.00049467,-0.00038652,0.00060309,0.00045255,0.0004327
 9,0.00189374,-0.00115860,0.00359460,-0.00140847,-0.01792611,-0.0066219
 4,-0.01951465,-0.28441518,-0.09589468,-0.00180852,-0.00513064,-0.00186
 882,-0.00026696,0.00019099,0.00014380,-0.00041769,-0.00065262,-0.00059
 732,0.00000728,0.00007407,-0.00008762,-0.00055884,0.00097091,-0.000147
 09,0.00014708,0.00030840,-0.00023611,0.02107608,0.30486757,0.00045253,
 0.00016677,0.00011111,-0.00008185,0.00259248,-0.00130404,-0.00174922,0
 .00313548,-0.00269149,0.00238235,0.02137871,0.00793274,-0.00594341,-0.
 09928491,-0.08676303,-0.00162907,-0.00350140,-0.00167299,0.00003359,0.
 00006553,0.00038351,0.00047096,0.00096917,0.00060208,0.00001896,0.0002
 1716,0.00008004,0.00064146,-0.00024982,0.00101399,0.00011690,-0.000659
 47,0.00044974,0.00815288,0.10153596,0.09084302,0.00029533,-0.00083921,
 -0.00015439,-0.00205263,0.00230087,0.00229795,0.00003034,-0.00086428,0
 .00007622,0.00764081,-0.00090590,-0.01573027,-0.10633278,0.00329430,0.
 10918032,-0.01914622,0.00090286,0.02767822,0.00029858,-0.00013757,-0.0
 0036748,0.00000155,-0.00009261,-0.00003310,0.00020006,0.00000223,0.000
 24233,-0.00062581,0.00301670,-0.00230913,0.00082735,-0.00057909,0.0000
 3037,0.00195073,0.00048674,-0.00280308,0.12017500,0.00005956,-0.000193
 93,-0.00005894,-0.00072429,0.00039321,0.00136970,-0.00037249,0.0012065
 8,0.00001754,-0.01014533,0.00050605,0.02079161,0.00346444,-0.05437232,
 -0.00876797,-0.00456105,-0.00073500,0.00650847,0.00007631,0.00016826,-
 0.00010678,0.00018479,0.00003080,-0.00010752,0.00014278,-0.00048540,-0
 .00010294,0.00163430,-0.00276799,0.00248430,-0.00029585,0.00107790,-0.
 00084141,0.01488585,0.00128695,-0.02685739,-0.00406168,0.05305729,0.00
 007195,-0.00013301,0.00005412,0.00019896,0.00054187,-0.00033497,0.0000
 5629,-0.00045707,0.00061644,0.00740226,-0.00082717,-0.01890392,0.11200
 225,-0.00864966,-0.26101897,-0.00450737,0.00023714,0.00724673,-0.00004
 915,-0.00007281,0.00021061,-0.00015832,0.00007034,0.00010558,0.0001354
 1,0.00068140,0.00019722,-0.00189018,0.00327911,-0.00076598,-0.00002923
 ,-0.00039675,0.00070447,0.00521681,-0.00009847,-0.00973112,-0.11673729
 ,0.00622722,0.27989945,-0.00007561,-0.00001754,-0.00030463,0.00029286,
 0.00153965,-0.00159739,-0.00051717,0.00025269,-0.00046616,0.00120815,0
 .00011853,0.00078623,-0.01665373,0.00691311,0.02420362,-0.13121191,0.0
 4126960,0.12159488,-0.00036209,-0.00293132,-0.00130058,0.00000370,0.00
 013383,0.00005914,-0.00006760,-0.00013875,0.00003035,-0.00022426,0.000
 38208,-0.00085915,0.00015070,-0.00025760,-0.00032642,0.00184774,0.0001
 1851,0.00018871,-0.00491206,-0.00087511,-0.00203905,0.14120334,-0.0013
 2542,0.00373416,0.00201977,0.01862561,-0.01243913,-0.02612858,-0.00138
 218,-0.00268461,0.00220963,0.00024596,0.00005091,-0.00039868,-0.006665
 89,0.00268853,0.00987311,0.04108408,-0.06219769,-0.05393003,-0.0013725
 6,-0.00731535,-0.00152829,0.00110652,0.00007616,0.00015238,-0.00024627
 ,-0.00000467,-0.00012365,0.00019274,0.00030213,0.00002869,-0.00000055,
 0.00000361,-0.00000558,0.00004260,0.00081901,0.00054164,-0.00305949,0.
 00063740,-0.00077853,-0.04120594,0.07071401,-0.00065692,0.00024762,0.0
 0089763,-0.00088018,-0.00067691,-0.00122351,0.00044408,0.00030540,-0.0
 0076609,-0.00018343,-0.00009920,0.00085461,-0.00262281,0.00306552,0.00
 536045,0.11899725,-0.05517780,-0.22157751,0.00007399,0.00037778,0.0004
 3623,-0.00023701,-0.00002046,0.00000988,0.00003067,-0.00011205,0.00003
 551,0.00000434,-0.00012377,-0.00010915,0.00008842,-0.00012043,-0.00002
 450,0.00030083,0.00013906,0.00068652,-0.00138607,-0.00014568,0.0007828
 8,-0.12904972,0.06098604,0.23169244,-0.00091485,-0.00183448,-0.0006534
 7,-0.00026892,0.00274407,0.00316124,-0.00079257,-0.00077470,-0.0013671
 9,-0.00553014,-0.00164590,0.00014429,-0.00794599,0.01155737,-0.0224016
 2,-0.09760318,0.03553561,-0.10300988,-0.00023926,-0.00052206,0.0001142
 9,-0.00002911,0.00010686,0.00002803,0.00020711,0.00009537,0.00019720,0
 .00005189,-0.00006238,-0.00013526,-0.00036153,0.00122977,-0.00100434,-
 0.00023692,-0.00030813,-0.00018303,0.00152600,0.00060722,0.00036766,0.
 00892328,-0.00710353,0.01474339,0.10306558,-0.00284918,-0.00250996,-0.
 00107353,0.01418209,-0.01417524,0.02686697,0.00087940,-0.00362732,-0.0
 0150797,-0.00316251,-0.00282712,0.00017917,-0.00302515,0.00655671,-0.0
 1011382,0.03681506,-0.06961911,0.07309777,-0.00007134,0.00320496,-0.00
 048292,0.00077874,-0.00006530,0.00004976,0.00106568,-0.00023336,0.0007
 9566,0.00009720,-0.00005162,0.00021270,-0.00032437,0.00089814,-0.00040
 014,0.00013568,-0.00019476,-0.00008131,0.00058166,0.00024174,0.0003584
 3,-0.00506200,0.00552278,-0.00844204,-0.03951728,0.07664021,-0.0007429
 8,-0.00013601,0.00005893,0.00253929,-0.00077501,0.00232177,0.00091709,
 -0.00159231,-0.00038855,0.00019938,-0.00090267,0.00060995,0.00051311,-
 0.00088094,0.00139689,-0.10388632,0.07702753,-0.25608042,0.00007218,-0
 .00116032,-0.00028520,0.00023614,-0.00000939,0.00001105,0.00035733,-0.
 00010064,0.00027882,0.00012777,-0.00007143,0.00021969,0.00013330,0.000
 12561,0.00016921,-0.00021380,0.00009117,-0.00007022,0.00023133,-0.0002
 7906,0.00093734,-0.01053100,0.00839369,-0.01740894,0.10977969,-0.07967
 283,0.26799959,-0.00258461,-0.00149815,-0.00040591,0.00385772,0.007035
 42,-0.00022681,-0.00013719,0.00094379,-0.00091131,-0.00019471,-0.00032
 509,0.00028411,-0.00013245,0.00058449,0.00033858,-0.00004276,0.0005355
 2,0.00332670,-0.03418599,-0.11960200,-0.02333950,-0.00023527,-0.000230
 30,-0.00018996,-0.00068051,-0.00040263,-0.00048715,0.00003877,0.000207
 17,0.00001308,-0.00001023,0.00000868,-0.00005912,0.00021901,-0.0000143
 3,-0.00006869,0.00012375,-0.00001947,-0.00004100,0.00039466,0.00106431
 ,0.00033319,0.00014862,-0.00052368,0.00026748,0.03342119,-0.00107292,-
 0.00040439,0.00292548,0.00206669,-0.00378685,-0.00411785,-0.00161643,0
 .00020277,0.00199142,0.00078300,-0.00030006,-0.00015203,-0.00023712,0.
 00007676,0.00005727,0.00042606,0.00041143,-0.00022402,-0.11268297,-0.4
 1560378,-0.09185160,0.00064930,0.00034055,0.00034634,-0.00014807,0.000
 28137,-0.00006809,-0.00008166,-0.00000855,-0.00002974,-0.00000373,0.00
 022962,0.00011815,0.00007462,0.00001279,0.00003139,-0.00004554,-0.0000
 5154,0.00001794,-0.00023971,0.00009275,-0.00020307,-0.00010780,0.00023
 925,-0.00005739,0.11223628,0.41826786,0.00169894,0.00521050,0.00467101
 ,-0.01309217,-0.04538436,-0.02150540,0.00034216,0.00148878,-0.00082597
 ,0.00013950,-0.00085830,0.00013324,-0.00027339,0.00006369,-0.00011478,
 0.00109618,0.00147230,-0.00446475,-0.00994089,-0.05234774,-0.04463178,
 -0.00037236,-0.00003686,-0.00022736,-0.00027824,0.00002645,0.00013017,
 0.00005469,0.00012441,0.00003293,-0.00003806,0.00025280,0.00001936,-0.
 00011690,0.00000118,0.00013015,-0.00021591,-0.00013114,0.00000011,-0.0
 0038884,-0.00131161,0.00035354,0.00021899,0.00021409,0.00023009,0.0211
 6631,0.09121581,0.06606941\\0.00005137,0.00000311,0.00004321,0.0000258
 6,-0.00001250,-0.00006549,-0.00014596,0.00012417,0.00006086,-0.0000513
 7,-0.00001709,-0.00006566,-0.00008846,-0.00005268,0.00005367,0.0001146
 3,0.00003052,0.00000409,-0.00000922,-0.00002703,-0.00002545,0.00004405
 ,-0.00007625,-0.00001284,0.00004707,-0.00006643,-0.00000571,0.00000096
 ,0.00000441,0.00001834,0.00002983,-0.00000037,-0.00000065,0.00000757,0
 .00004153,-0.00000084,0.00001940,0.00000130,-0.00001347,-0.00002262,0.
 00000870,0.00000578,-0.00003606,0.00000291,-0.00000556,0.00001295,0.00
 003571,0.00000974\\\@


 OLD AGE AND TREACHERY WILL ALWAYS PREVAIL OVER YOUTH AND SKILL.
 Job cpu time:       0 days  0 hours  5 minutes 52.8 seconds.
 Elapsed time:       0 days  0 hours  0 minutes 15.2 seconds.
 File lengths (MBytes):  RWF=     38 Int=      0 D2E=      0 Chk=      3 Scr=      1
 Normal termination of Gaussian 16 at Mon Oct 14 01:29:17 2019.
real 76.92
user 1662.77
sys 19.37
Machine:
brown-a265
brown-a265
brown-a265
brown-a265
brown-a265
brown-a265
brown-a265
brown-a265
brown-a265
brown-a265
brown-a265
brown-a265
brown-a265
brown-a265
brown-a265
brown-a265
brown-a265
brown-a265
brown-a265
brown-a265
brown-a265
brown-a265
brown-a265
brown-a265
