Title Card Required                                                     
Freq      RB3LYP                                                      6-31G(d)            
Number of atoms                            I               23
Info1-9                                    I   N=           9
          56          56        1002           0           0         100
           6          18        -502
Full Title                                 C   N=           2
Title Card Required     
Route                                      C   N=           6
#P opt freq b3lyp/6-31g(d) geom=connectivity temperature=0.0
01          
Charge                                     I                0
Multiplicity                               I                1
Number of electrons                        I              112
Number of alpha electrons                  I               56
Number of beta electrons                   I               56
Number of basis functions                  I              245
Number of independent functions            I              245
Number of point charges in /Mol/           I                0
Number of translation vectors              I                0
Atomic numbers                             I   N=          23
           8          16           6           6           6           6
           6           6           6           6           6           6
           6           6           8           1           1           1
           1           1           1           1           1
Nuclear charges                            R   N=          23
  8.00000000E+00  1.60000000E+01  6.00000000E+00  6.00000000E+00  6.00000000E+00
  6.00000000E+00  6.00000000E+00  6.00000000E+00  6.00000000E+00  6.00000000E+00
  6.00000000E+00  6.00000000E+00  6.00000000E+00  6.00000000E+00  8.00000000E+00
  1.00000000E+00  1.00000000E+00  1.00000000E+00  1.00000000E+00  1.00000000E+00
  1.00000000E+00  1.00000000E+00  1.00000000E+00
Current cartesian coordinates              R   N=          69
  1.01938713E-04  4.41364580E+00 -2.39406327E+00  1.52109138E-06  3.00321648E+00
  4.96286260E-04  2.44006155E+00  6.32166444E-01 -4.27093113E-04  1.39731659E+00
 -1.80348132E+00  4.58956518E-04  3.03289061E+00 -3.87477750E+00  6.09244500E-04
  5.64136912E+00 -3.46496016E+00 -1.62490268E-04  6.63567125E+00 -1.01674478E+00
 -1.21887501E-03  5.02152348E+00  1.07629226E+00 -1.38480825E-03 -1.39731273E+00
 -1.80348205E+00  4.27891713E-04 -2.44006231E+00  6.32164228E-01 -5.26714639E-04
 -5.02152546E+00  1.07628749E+00 -1.45880742E-03 -6.63567019E+00 -1.01675100E+00
 -1.25174171E-03 -5.64136415E+00 -3.46496519E+00 -1.42155158E-04 -3.03288552E+00
 -3.87477955E+00  6.38263057E-04 -1.15642818E-04  4.41012974E+00  2.39717885E+00
  2.29370101E+00 -5.78966355E+00  1.28672469E-03  6.91363203E+00 -5.07594674E+00
 -9.16181265E-06  8.66835320E+00 -7.35553881E-01 -2.02453119E-03  5.76265952E+00
  2.98943394E+00 -2.38947306E-03 -5.76266363E+00  2.98942841E+00 -2.48412833E-03
 -8.66835269E+00 -7.35563347E-01 -2.05063672E-03 -6.91362631E+00 -5.07595240E+00
  5.12533902E-05 -2.29369124E+00 -5.78966370E+00  1.38468292E-03
Number of symbols in /Mol/                 I                0
Force Field                                I                0
Atom Types                                 C   N=          23
                                                            
                                                            
                                                            
                                                            
                                    
Int Atom Types                             I   N=          23
           0           0           0           0           0           0
           0           0           0           0           0           0
           0           0           0           0           0           0
           0           0           0           0           0
MM charges                                 R   N=          23
  0.00000000E+00  0.00000000E+00  0.00000000E+00  0.00000000E+00  0.00000000E+00
  0.00000000E+00  0.00000000E+00  0.00000000E+00  0.00000000E+00  0.00000000E+00
  0.00000000E+00  0.00000000E+00  0.00000000E+00  0.00000000E+00  0.00000000E+00
  0.00000000E+00  0.00000000E+00  0.00000000E+00  0.00000000E+00  0.00000000E+00
  0.00000000E+00  0.00000000E+00  0.00000000E+00
Integer atomic weights                     I   N=          23
          16          32          12          12          12          12
          12          12          12          12          12          12
          12          12          16           1           1           1
           1           1           1           1           1
Real atomic weights                        R   N=          23
  1.59949146E+01  3.19720718E+01  1.20000000E+01  1.20000000E+01  1.20000000E+01
  1.20000000E+01  1.20000000E+01  1.20000000E+01  1.20000000E+01  1.20000000E+01
  1.20000000E+01  1.20000000E+01  1.20000000E+01  1.20000000E+01  1.59949146E+01
  1.00782504E+00  1.00782504E+00  1.00782504E+00  1.00782504E+00  1.00782504E+00
  1.00782504E+00  1.00782504E+00  1.00782504E+00
Atom fragment info                         I   N=          23
           0           0           0           0           0           0
           0           0           0           0           0           0
           0           0           0           0           0           0
           0           0           0           0           0
Atom residue num                           I   N=          23
           0           0           0           0           0           0
           0           0           0           0           0           0
           0           0           0           0           0           0
           0           0           0           0           0
Nuclear spins                              I   N=          23
           0           0           0           0           0           0
           0           0           0           0           0           0
           0           0           0           1           1           1
           1           1           1           1           1
Nuclear ZEff                               R   N=          23
 -5.60000000E+00 -1.36000000E+01 -3.60000000E+00 -3.60000000E+00 -3.60000000E+00
 -3.60000000E+00 -3.60000000E+00 -3.60000000E+00 -3.60000000E+00 -3.60000000E+00
 -3.60000000E+00 -3.60000000E+00 -3.60000000E+00 -3.60000000E+00 -5.60000000E+00
 -1.00000000E+00 -1.00000000E+00 -1.00000000E+00 -1.00000000E+00 -1.00000000E+00
 -1.00000000E+00 -1.00000000E+00 -1.00000000E+00
Nuclear ZNuc                               R   N=          23
  8.00000000E+00  1.60000000E+01  6.00000000E+00  6.00000000E+00  6.00000000E+00
  6.00000000E+00  6.00000000E+00  6.00000000E+00  6.00000000E+00  6.00000000E+00
  6.00000000E+00  6.00000000E+00  6.00000000E+00  6.00000000E+00  8.00000000E+00
  1.00000000E+00  1.00000000E+00  1.00000000E+00  1.00000000E+00  1.00000000E+00
  1.00000000E+00  1.00000000E+00  1.00000000E+00
Nuclear QMom                               R   N=          23
  0.00000000E+00  0.00000000E+00  0.00000000E+00  0.00000000E+00  0.00000000E+00
  0.00000000E+00  0.00000000E+00  0.00000000E+00  0.00000000E+00  0.00000000E+00
  0.00000000E+00  0.00000000E+00  0.00000000E+00  0.00000000E+00  0.00000000E+00
  0.00000000E+00  0.00000000E+00  0.00000000E+00  0.00000000E+00  0.00000000E+00
  0.00000000E+00  0.00000000E+00  0.00000000E+00
Nuclear GFac                               R   N=          23
  0.00000000E+00  0.00000000E+00  0.00000000E+00  0.00000000E+00  0.00000000E+00
  0.00000000E+00  0.00000000E+00  0.00000000E+00  0.00000000E+00  0.00000000E+00
  0.00000000E+00  0.00000000E+00  0.00000000E+00  0.00000000E+00  0.00000000E+00
  2.79284600E+00  2.79284600E+00  2.79284600E+00  2.79284600E+00  2.79284600E+00
  2.79284600E+00  2.79284600E+00  2.79284600E+00
MicOpt                                     I   N=          23
          -1          -1          -1          -1          -1          -1
          -1          -1          -1          -1          -1          -1
          -1          -1          -1          -1          -1          -1
          -1          -1          -1          -1          -1
Number of residues                         I                0
Number of secondary structures             I                0
Redundant internal dimensions              I   N=           4
         131          25          42          64
Redundant internal coordinate indices      I   N=         524
           1           2           0           0           2           3
           0           0           2          10           0           0
           2          15           0           0           3           4
           0           0           3           8           0           0
           4           5           0           0           4           9
           0           0           5           6           0           0
           5          16           0           0           6           7
           0           0           6          17           0           0
           7           8           0           0           7          18
           0           0           8          19           0           0
           9          10           0           0           9          14
           0           0          10          11           0           0
          11          12           0           0          11          20
           0           0          12          13           0           0
          12          21           0           0          13          14
           0           0          13          22           0           0
          14          23           0           0           1           2
           3           0           1           2          10           0
           1           2          15           0           3           2
          10           0           3           2          15           0
          10           2          15           0           2           3
           4           0           2           3           8           0
           4           3           8           0           3           4
           5           0           3           4           9           0
           5           4           9           0           4           5
           6           0           4           5          16           0
           6           5          16           0           5           6
           7           0           5           6          17           0
           7           6          17           0           6           7
           8           0           6           7          18           0
           8           7          18           0           3           8
           7           0           3           8          19           0
           7           8          19           0           4           9
          10           0           4           9          14           0
          10           9          14           0           2          10
           9           0           2          10          11           0
           9          10          11           0          10          11
          12           0          10          11          20           0
          12          11          20           0          11          12
          13           0          11          12          21           0
          13          12          21           0          12          13
          14           0          12          13          22           0
          14          13          22           0           9          14
          13           0           9          14          23           0
          13          14          23           0           1           2
           3           4           1           2           3           8
          10           2           3           4          10           2
           3           8          15           2           3           4
          15           2           3           8           1           2
          10           9           1           2          10          11
           3           2          10           9           3           2
          10          11          15           2          10           9
          15           2          10          11           2           3
           4           5           2           3           4           9
           8           3           4           5           8           3
           4           9           2           3           8           7
           2           3           8          19           4           3
           8           7           4           3           8          19
           3           4           5           6           3           4
           5          16           9           4           5           6
           9           4           5          16           3           4
           9          10           3           4           9          14
           5           4           9          10           5           4
           9          14           4           5           6           7
           4           5           6          17          16           5
           6           7          16           5           6          17
           5           6           7           8           5           6
           7          18          17           6           7           8
          17           6           7          18           6           7
           8           3           6           7           8          19
          18           7           8           3          18           7
           8          19           4           9          10           2
           4           9          10          11          14           9
          10           2          14           9          10          11
           4           9          14          13           4           9
          14          23          10           9          14          13
          10           9          14          23           2          10
          11          12           2          10          11          20
           9          10          11          12           9          10
          11          20          10          11          12          13
          10          11          12          21          20          11
          12          13          20          11          12          21
          11          12          13          14          11          12
          13          22          21          12          13          14
          21          12          13          22          12          13
          14           9          12          13          14          23
          22          13          14           9          22          13
          14          23
Redundant internal coordinates             R   N=         131
  2.77906933E+00  3.40231863E+00  3.40232293E+00  2.77911717E+00  2.64947125E+00
  2.61938817E+00  2.63919878E+00  2.79462932E+00  2.64047553E+00  2.05260574E+00
  2.64242245E+00  2.05278608E+00  2.64315666E+00  2.05203920E+00  2.05168095E+00
  2.64947172E+00  2.63919907E+00  2.61938893E+00  2.64315595E+00  2.05168102E+00
  2.64242284E+00  2.05203930E+00  2.64047519E+00  2.05278611E+00  2.05260567E+00
  1.93202736E+00  1.93205567E+00  2.07846555E+00  1.59948235E+00  1.93163856E+00
  1.93160080E+00  1.93734270E+00  2.20016107E+00  2.14568152E+00  2.06869329E+00
  1.97530532E+00  2.23918666E+00  2.08335101E+00  2.10480278E+00  2.09503151E+00
  2.11241487E+00  2.08341477E+00  2.08735566E+00  2.09887911E+00  2.09404153E+00
  2.09026466E+00  2.05735080E+00  2.11076329E+00  2.11507121E+00  1.97530663E+00
  2.23918650E+00  2.06869215E+00  1.93734054E+00  2.20016243E+00  2.14568230E+00
  2.05735060E+00  2.11076335E+00  2.11507136E+00  2.09887882E+00  2.09026501E+00
  2.09404147E+00  2.11241529E+00  2.08735461E+00  2.08341541E+00  2.08335144E+00
  2.10480100E+00  2.09503286E+00 -1.97093253E+00  1.17086787E+00 -7.70997988E-04
  3.14102940E+00  1.96882265E+00 -1.17256226E+00  1.97091769E+00 -1.17095508E+00
  7.81502199E-04 -3.14109127E+00 -1.96884596E+00  1.17246657E+00 -3.14129053E+00
  5.74358206E-04  1.02015400E-04 -3.14121840E+00  3.14125873E+00 -4.21246775E-04
 -1.02829253E-04  3.14140250E+00 -1.77261761E-05  3.14159257E+00  3.14125604E+00
 -3.18969749E-04  1.86295149E-05  3.14133445E+00 -3.14126926E+00  4.65626358E-05
 -6.09073257E-05  3.14157226E+00  3.14151421E+00 -3.79322281E-05  5.99599656E-05
 -3.14147059E+00 -3.14157330E+00  8.14589201E-05  2.06289557E-05 -3.14148447E+00
  3.14155131E+00  4.62147257E-05 -6.02548977E-04  3.14125993E+00  3.14123739E+00
 -8.54423059E-05 -3.14128576E+00  2.98222779E-04  1.72342994E-05 -3.14158409E+00
 -3.14120296E+00  4.82189769E-04  7.80908244E-05 -3.14142206E+00 -3.56355904E-06
 -3.14154338E+00  3.14149635E+00 -4.34604928E-05 -6.19638016E-05  3.14156855E+00
  3.14147773E+00 -7.70595020E-05  5.44519300E-05 -3.14152958E+00 -3.14157598E+00
  2.52930433E-05
ZRed-IntVec                                I   N=         131
           0           0           0           0           0           0
           0           0           0           0           0           0
           0           0           0           0           0           0
           0           0           0           0           0           0
           0           0           0           0           0           0
           0           0           0           0           0           0
           0           0           0           0           0           0
           0           0           0           0           0           0
           0           0           0           0           0           0
           0           0           0           0           0           0
           0           0           0           0           0           0
           0           0           0           0           0           0
           0           0           0           0           0           0
           0           0           0           0           0           0
           0           0           0           0           0           0
           0           0           0           0           0           0
           0           0           0           0           0           0
           0           0           0           0           0           0
           0           0           0           0           0           0
           0           0           0           0           0           0
           0           0           0           0           0           0
           0           0           0           0           0
ZRed-FPVec                                 R   N=         131
  0.00000000E+00  0.00000000E+00  0.00000000E+00  0.00000000E+00  0.00000000E+00
  0.00000000E+00  0.00000000E+00  0.00000000E+00  0.00000000E+00  0.00000000E+00
  0.00000000E+00  0.00000000E+00  0.00000000E+00  0.00000000E+00  0.00000000E+00
  0.00000000E+00  0.00000000E+00  0.00000000E+00  0.00000000E+00  0.00000000E+00
  0.00000000E+00  0.00000000E+00  0.00000000E+00  0.00000000E+00  0.00000000E+00
  0.00000000E+00  0.00000000E+00  0.00000000E+00  0.00000000E+00  0.00000000E+00
  0.00000000E+00  0.00000000E+00  0.00000000E+00  0.00000000E+00  0.00000000E+00
  0.00000000E+00  0.00000000E+00  0.00000000E+00  0.00000000E+00  0.00000000E+00
  0.00000000E+00  0.00000000E+00  0.00000000E+00  0.00000000E+00  0.00000000E+00
  0.00000000E+00  0.00000000E+00  0.00000000E+00  0.00000000E+00  0.00000000E+00
  0.00000000E+00  0.00000000E+00  0.00000000E+00  0.00000000E+00  0.00000000E+00
  0.00000000E+00  0.00000000E+00  0.00000000E+00  0.00000000E+00  0.00000000E+00
  0.00000000E+00  0.00000000E+00  0.00000000E+00  0.00000000E+00  0.00000000E+00
  0.00000000E+00  0.00000000E+00  0.00000000E+00  0.00000000E+00  0.00000000E+00
  0.00000000E+00  0.00000000E+00  0.00000000E+00  0.00000000E+00  0.00000000E+00
  0.00000000E+00  0.00000000E+00  0.00000000E+00  0.00000000E+00  0.00000000E+00
  0.00000000E+00  0.00000000E+00  0.00000000E+00  0.00000000E+00  0.00000000E+00
  0.00000000E+00  0.00000000E+00  0.00000000E+00  0.00000000E+00  0.00000000E+00
  0.00000000E+00  0.00000000E+00  0.00000000E+00  0.00000000E+00  0.00000000E+00
  0.00000000E+00  0.00000000E+00  0.00000000E+00  0.00000000E+00  0.00000000E+00
  0.00000000E+00  0.00000000E+00  0.00000000E+00  0.00000000E+00  0.00000000E+00
  0.00000000E+00  0.00000000E+00  0.00000000E+00  0.00000000E+00  0.00000000E+00
  0.00000000E+00  0.00000000E+00  0.00000000E+00  0.00000000E+00  0.00000000E+00
  0.00000000E+00  0.00000000E+00  0.00000000E+00  0.00000000E+00  0.00000000E+00
  0.00000000E+00  0.00000000E+00  0.00000000E+00  0.00000000E+00  0.00000000E+00
  0.00000000E+00  0.00000000E+00  0.00000000E+00  0.00000000E+00  0.00000000E+00
  0.00000000E+00
ZRed-Constraint1                           R   N=         131
  2.77906933E+00  3.40231863E+00  3.40232293E+00  2.77911717E+00  2.64947125E+00
  2.61938817E+00  2.63919878E+00  2.79462932E+00  2.64047553E+00  2.05260574E+00
  2.64242245E+00  2.05278608E+00  2.64315666E+00  2.05203920E+00  2.05168095E+00
  2.64947172E+00  2.63919907E+00  2.61938893E+00  2.64315595E+00  2.05168102E+00
  2.64242284E+00  2.05203930E+00  2.64047519E+00  2.05278611E+00  2.05260567E+00
  1.93202736E+00  1.93205567E+00  2.07846555E+00  1.59948235E+00  1.93163856E+00
  1.93160080E+00  1.93734270E+00  2.20016107E+00  2.14568152E+00  2.06869329E+00
  1.97530532E+00  2.23918666E+00  2.08335101E+00  2.10480278E+00  2.09503151E+00
  2.11241487E+00  2.08341477E+00  2.08735566E+00  2.09887911E+00  2.09404153E+00
  2.09026466E+00  2.05735080E+00  2.11076329E+00  2.11507121E+00  1.97530663E+00
  2.23918650E+00  2.06869215E+00  1.93734054E+00  2.20016243E+00  2.14568230E+00
  2.05735060E+00  2.11076335E+00  2.11507136E+00  2.09887882E+00  2.09026501E+00
  2.09404147E+00  2.11241529E+00  2.08735461E+00  2.08341541E+00  2.08335144E+00
  2.10480100E+00  2.09503286E+00 -1.97093253E+00  1.17086787E+00 -7.70997988E-04
  3.14102940E+00  1.96882265E+00 -1.17256226E+00  1.97091769E+00 -1.17095508E+00
  7.81502199E-04 -3.14109127E+00 -1.96884596E+00  1.17246657E+00 -3.14129053E+00
  5.74358206E-04  1.02015399E-04 -3.14121840E+00  3.14125873E+00 -4.21246775E-04
 -1.02829253E-04  3.14140250E+00 -1.77261636E-05  3.14159257E+00  3.14125604E+00
 -3.18969749E-04  1.86295268E-05  3.14133445E+00 -3.14126926E+00  4.65626358E-05
 -6.09073257E-05  3.14157226E+00  3.14151421E+00 -3.79322281E-05  5.99599619E-05
 -3.14147059E+00 -3.14157330E+00  8.14589201E-05  2.06289450E-05 -3.14148447E+00
  3.14155131E+00  4.62147305E-05 -6.02548977E-04  3.14125993E+00  3.14123739E+00
 -8.54423059E-05 -3.14128576E+00  2.98222780E-04  1.72342994E-05 -3.14158409E+00
 -3.14120296E+00  4.82189769E-04  7.80908244E-05 -3.14142206E+00 -3.56355904E-06
 -3.14154338E+00  3.14149635E+00 -4.34604928E-05 -6.19638016E-05  3.14156855E+00
  3.14147773E+00 -7.70595020E-05  5.44519300E-05 -3.14152958E+00 -3.14157598E+00
  2.52930433E-05
ZRed-Constraint2                           R   N=         131
  3.02833994E+00  3.34631423E+00  3.34671489E+00  3.02914185E+00  2.66762835E+00
  2.65055447E+00  2.66967589E+00  2.71620365E+00  2.66592736E+00  2.05993248E+00
  2.66658152E+00  2.05993696E+00  2.66110617E+00  2.05990543E+00  2.05976557E+00
  2.66713117E+00  2.66983178E+00  2.65071633E+00  2.66126803E+00  2.05981703E+00
  2.66651074E+00  2.05980482E+00  2.66603390E+00  2.05977307E+00  2.05990585E+00
  1.95207085E+00  1.95244453E+00  1.96450724E+00  1.67636066E+00  1.94998004E+00
  1.95029409E+00  1.86605025E+00  2.26800365E+00  2.14910800E+00  2.05752165E+00
  2.00802291E+00  2.21761135E+00  2.09568904E+00  2.09496858E+00  2.09252768E+00
  2.10376594E+00  2.08944092E+00  2.08997844E+00  2.10105372E+00  2.09291403E+00
  2.08921756E+00  2.05921662E+00  2.10868628E+00  2.11528240E+00  2.00830726E+00
  2.21722894E+00  2.05762356E+00  1.86596537E+00  2.26799671E+00  2.14920216E+00
  2.05910359E+00  2.10878065E+00  2.11530107E+00  2.10105831E+00  2.08941828E+00
  2.09270872E+00  2.10378597E+00  2.08988007E+00  2.08951925E+00  2.09557476E+00
  2.09523164E+00  2.09237892E+00 -2.04290629E+00  1.09137563E+00 -9.83108965E-03
  3.12445083E+00  2.02016810E+00 -1.12873529E+00  2.04302658E+00 -1.09163104E+00
  1.02522875E-02 -3.12440533E+00 -2.01949363E+00  1.12903407E+00  3.14075998E+00
  6.82193124E-03  5.86038376E-03 -3.12807766E+00 -3.13568566E+00  5.79970719E-03
 -2.44566472E-03  3.13903970E+00 -4.81876713E-03  3.13664257E+00  3.12808405E+00
 -1.36399279E-02  8.15189469E-04  3.13450562E+00 -3.13229924E+00  1.39119764E-03
  6.08439110E-04 -3.14085476E+00 -3.14085308E+00  8.69030819E-04  2.92530173E-03
 -3.13869033E+00 -3.13879685E+00  2.77282974E-03 -2.02374505E-03  3.13967662E+00
  3.13959184E+00 -1.89310441E-03 -8.00592507E-03  3.12723719E+00  3.14072373E+00
 -7.21845859E-03 -3.12777369E+00  1.37895895E-02  5.72015477E-03 -3.13590188E+00
  3.13708111E+00 -4.53238882E-03  3.41256202E-03 -3.13820093E+00  1.90457460E-03
 -3.13961757E+00 -3.13966716E+00  1.99601108E-03 -3.21316765E-03  3.13820476E+00
  3.13830884E+00 -3.45853841E-03 -7.25008285E-04  3.14089698E+00  3.14104233E+00
 -5.20989303E-04
SymInf integers                            I   N=          26
           1           1           1           1           1           0
           0           0           0           0           0           0
           0           0           0           0           0           0
           0           0           0           0           0           0
           0           0
RotTr to input orientation                 R   N=          12
 -9.92226572E-01 -1.23889478E-01 -1.17400145E-02  1.23845847E-01 -9.92291820E-01
  4.37610301E-03 -1.21916735E-02  2.88813365E-03  9.99921508E-01 -2.41172673E+00
  3.96741687E-01 -3.75992690E-02
Number of contracted shells                I               77
Number of primitive shells                 I              203
Pure/Cartesian d shells                    I                1
Pure/Cartesian f shells                    I                0
Highest angular momentum                   I                2
Largest degree of contraction              I                6
Shell types                                I   N=          77
           0          -1          -1           2           0          -1
          -1          -1           2           0          -1          -1
           2           0          -1          -1           2           0
          -1          -1           2           0          -1          -1
           2           0          -1          -1           2           0
          -1          -1           2           0          -1          -1
           2           0          -1          -1           2           0
          -1          -1           2           0          -1          -1
           2           0          -1          -1           2           0
          -1          -1           2           0          -1          -1
           2           0           0           0           0           0
           0           0           0           0           0           0
           0           0           0           0           0
Number of primitives per shell             I   N=          77
           6           3           1           1           6           6
           3           1           1           6           3           1
           1           6           3           1           1           6
           3           1           1           6           3           1
           1           6           3           1           1           6
           3           1           1           6           3           1
           1           6           3           1           1           6
           3           1           1           6           3           1
           1           6           3           1           1           6
           3           1           1           6           3           1
           1           3           1           3           1           3
           1           3           1           3           1           3
           1           3           1           3           1
Shell to atom map                          I   N=          77
           1           1           1           1           2           2
           2           2           2           3           3           3
           3           4           4           4           4           5
           5           5           5           6           6           6
           6           7           7           7           7           8
           8           8           8           9           9           9
           9          10          10          10          10          11
          11          11          11          12          12          12
          12          13          13          13          13          14
          14          14          14          15          15          15
          15          16          16          17          17          18
          18          19          19          20          20          21
          21          22          22          23          23
Primitive exponents                        R   N=         203
  5.48467166E+03  8.25234946E+02  1.88046958E+02  5.29645000E+01  1.68975704E+01
  5.79963534E+00  1.55396162E+01  3.59993359E+00  1.01376175E+00  2.70005823E-01
  8.00000000E-01  2.19171000E+04  3.30149000E+03  7.54146000E+02  2.12711000E+02
  6.79896000E+01  2.30515000E+01  4.23735000E+02  1.00710000E+02  3.21599000E+01
  1.18079000E+01  4.63110000E+00  1.87025000E+00  2.61584000E+00  9.22167000E-01
  3.41287000E-01  1.17167000E-01  6.50000000E-01  3.04752488E+03  4.57369518E+02
  1.03948685E+02  2.92101553E+01  9.28666296E+00  3.16392696E+00  7.86827235E+00