 Entering Gaussian System, Link 0=/apps/cent7/gaussian/g16-A.03/g16-haswell/g16/g16
 Initial command:
 /apps/cent7/gaussian/g16-A.03/g16-haswell/g16/l1.exe "/scratch/brown/finej/gaussian/Gau-247219.inp" -scrdir="/scratch/brown/finej/gaussian/"
 Entering Link 1 = /apps/cent7/gaussian/g16-A.03/g16-haswell/g16/l1.exe PID=    247222.
  
 Copyright (c) 1988,1990,1992,1993,1995,1998,2003,2009,2016,
            Gaussian, Inc.  All Rights Reserved.
  
 This is part of the Gaussian(R) 16 program.  It is based on
 the Gaussian(R) 09 system (copyright 2009, Gaussian, Inc.),
 the Gaussian(R) 03 system (copyright 2003, Gaussian, Inc.),
 the Gaussian(R) 98 system (copyright 1998, Gaussian, Inc.),
 the Gaussian(R) 94 system (copyright 1995, Gaussian, Inc.),
 the Gaussian 92(TM) system (copyright 1992, Gaussian, Inc.),
 the Gaussian 90(TM) system (copyright 1990, Gaussian, Inc.),
 the Gaussian 88(TM) system (copyright 1988, Gaussian, Inc.),
 the Gaussian 86(TM) system (copyright 1986, Carnegie Mellon
 University), and the Gaussian 82(TM) system (copyright 1983,
 Carnegie Mellon University). Gaussian is a federally registered
 trademark of Gaussian, Inc.
  
 This software contains proprietary and confidential information,
 including trade secrets, belonging to Gaussian, Inc.
  
 This software is provided under written license and may be
 used, copied, transmitted, or stored only in accord with that
 written license.
  
 The following legend is applicable only to US Government
 contracts under FAR:
  
                    RESTRICTED RIGHTS LEGEND
  
 Use, reproduction and disclosure by the US Government is
 subject to restrictions as set forth in subparagraphs (a)
 and (c) of the Commercial Computer Software - Restricted
 Rights clause in FAR 52.227-19.
  
 Gaussian, Inc.
 340 Quinnipiac St., Bldg. 40, Wallingford CT 06492
  
  
 ---------------------------------------------------------------
 Warning -- This program may not be used in any manner that
 competes with the business of Gaussian, Inc. or will provide
 assistance to any competitor of Gaussian, Inc.  The licensee
 of this program is prohibited from giving any competitor of
 Gaussian, Inc. access to this program.  By using this program,
 the user acknowledges that Gaussian, Inc. is engaged in the
 business of creating and licensing software in the field of
 computational chemistry and represents and warrants to the
 licensee that it is not a competitor of Gaussian, Inc. and that
 it will not use this program in any manner prohibited above.
 ---------------------------------------------------------------
  

 Cite this work as:
 Gaussian 16, Revision A.03,
 M. J. Frisch, G. W. Trucks, H. B. Schlegel, G. E. Scuseria, 
 M. A. Robb, J. R. Cheeseman, G. Scalmani, V. Barone, 
 G. A. Petersson, H. Nakatsuji, X. Li, M. Caricato, A. V. Marenich, 
 J. Bloino, B. G. Janesko, R. Gomperts, B. Mennucci, H. P. Hratchian, 
 J. V. Ortiz, A. F. Izmaylov, J. L. Sonnenberg, D. Williams-Young, 
 F. Ding, F. Lipparini, F. Egidi, J. Goings, B. Peng, A. Petrone, 
 T. Henderson, D. Ranasinghe, V. G. Zakrzewski, J. Gao, N. Rega, 
 G. Zheng, W. Liang, M. Hada, M. Ehara, K. Toyota, R. Fukuda, 
 J. Hasegawa, M. Ishida, T. Nakajima, Y. Honda, O. Kitao, H. Nakai, 
 T. Vreven, K. Throssell, J. A. Montgomery, Jr., J. E. Peralta, 
 F. Ogliaro, M. J. Bearpark, J. J. Heyd, E. N. Brothers, K. N. Kudin, 
 V. N. Staroverov, T. A. Keith, R. Kobayashi, J. Normand, 
 K. Raghavachari, A. P. Rendell, J. C. Burant, S. S. Iyengar, 
 J. Tomasi, M. Cossi, J. M. Millam, M. Klene, C. Adamo, R. Cammi, 
 J. W. Ochterski, R. L. Martin, K. Morokuma, O. Farkas, 
 J. B. Foresman, and D. J. Fox, Gaussian, Inc., Wallingford CT, 2016.
 
 ******************************************
 Gaussian 16:  ES64L-G16RevA.03 25-Dec-2016
                14-Oct-2019 
 ******************************************
 %chk=24.chk
 %nprocshared=24
 Will use up to   24 processors via shared memory.
 %mem=80GB
 --------------------------------------------------------------
 #P opt freq b3lyp/6-31g(d) geom=connectivity temperature=0.001
 --------------------------------------------------------------
 1/18=20,19=15,26=3,38=1,57=2,112=-1000/1,3;
 2/9=110,12=2,17=6,18=5,40=1/2;
 3/5=1,6=6,7=1,11=2,25=1,30=1,71=1,74=-5/1,2,3;
 4//1;
 5/5=2,38=5/2;
 6/7=2,8=2,9=2,10=2,28=1/1;
 7//1,2,3,16;
 1/18=20,19=15,26=3/3(2);
 2/9=110/2;
 99//99;
 2/9=110/2;
 3/5=1,6=6,7=1,11=2,25=1,30=1,71=1,74=-5/1,2,3;
 4/5=5,16=3,69=1/1;
 5/5=2,38=5/2;
 7//1,2,3,16;
 1/18=20,19=15,26=3/3(-5);
 2/9=110/2;
 6/7=2,8=2,9=2,10=2,19=2,28=1/1;
 99/9=1/99;
 Leave Link    1 at Mon Oct 14 01:28:08 2019, MaxMem= 10737418240 cpu:               0.9 elap:               0.0
 (Enter /apps/cent7/gaussian/g16-A.03/g16-haswell/g16/l101.exe)
 -------------------
 Title Card Required
 -------------------
 Symbolic Z-matrix:
 Charge =  0 Multiplicity = 1
 O                    -0.9574   -2.2274   -1.3197 
 S                    -1.0842   -1.3307    0.0024 
 C                    -2.537    -0.3186   -0.0247 
 C                    -2.1022    1.0244   -0.0176 
 C                    -3.0864    2.0377   -0.0372 
 C                    -4.4543    1.6941   -0.0688 
 C                    -4.8535    0.3407   -0.0804 
 C                    -3.8902   -0.6862   -0.057 
 C                    -0.676     1.2023   -0.0006 
 C                     0.0756    0.0077    0.0054 
 C                     1.4781   -0.0159    0.0048 
 C                     2.1596    1.2165    0.0021 
 C                     1.4397    2.4301    0.0024 
 C                     0.0289    2.4267    0.0015 
 O                    -0.9915   -2.1998    1.3461 
 H                    -2.7898    3.0866   -0.0278 
 H                    -5.2088    2.4807   -0.0845 
 H                    -5.9132    0.0867   -0.1076 
 H                    -4.1837   -1.7359   -0.0638 
 H                     2.0208   -0.9612    0.0064 
 H                     3.2495    1.2312   -0.0003 
 H                     1.9778    3.378     0.0035 
 H                    -0.5165    3.3705    0.0024 
 
 ITRead=  0  0  0  0  0  0  0  0  0  0  0  0  0  0  0  0  0  0  0  0
 ITRead=  0  0  0
 MicOpt= -1 -1 -1 -1 -1 -1 -1 -1 -1 -1 -1 -1 -1 -1 -1 -1 -1 -1 -1 -1
 MicOpt= -1 -1 -1
 NAtoms=     23 NQM=       23 NQMF=       0 NMMI=      0 NMMIF=      0
                NMic=       0 NMicF=      0.
                    Isotopes and Nuclear Properties:
 (Nuclear quadrupole moments (NQMom) in fm**2, nuclear magnetic moments (NMagM)
  in nuclear magnetons)

  Atom         1           2           3           4           5           6           7           8           9          10
 IAtWgt=          16          32          12          12          12          12          12          12          12          12
 AtmWgt=  15.9949146  31.9720718  12.0000000  12.0000000  12.0000000  12.0000000  12.0000000  12.0000000  12.0000000  12.0000000
 NucSpn=           0           0           0           0           0           0           0           0           0           0
 AtZEff=  -0.0000000  -0.0000000  -0.0000000  -0.0000000  -0.0000000  -0.0000000  -0.0000000  -0.0000000  -0.0000000  -0.0000000
 NQMom=    0.0000000   0.0000000   0.0000000   0.0000000   0.0000000   0.0000000   0.0000000   0.0000000   0.0000000   0.0000000
 NMagM=    0.0000000   0.0000000   0.0000000   0.0000000   0.0000000   0.0000000   0.0000000   0.0000000   0.0000000   0.0000000
 AtZNuc=   8.0000000  16.0000000   6.0000000   6.0000000   6.0000000   6.0000000   6.0000000   6.0000000   6.0000000   6.0000000

  Atom        11          12          13          14          15          16          17          18          19          20
 IAtWgt=          12          12          12          12          16           1           1           1           1           1
 AtmWgt=  12.0000000  12.0000000  12.0000000  12.0000000  15.9949146   1.0078250   1.0078250   1.0078250   1.0078250   1.0078250
 NucSpn=           0           0           0           0           0           1           1           1           1           1
 AtZEff=  -0.0000000  -0.0000000  -0.0000000  -0.0000000  -0.0000000  -0.0000000  -0.0000000  -0.0000000  -0.0000000  -0.0000000
 NQMom=    0.0000000   0.0000000   0.0000000   0.0000000   0.0000000   0.0000000   0.0000000   0.0000000   0.0000000   0.0000000
 NMagM=    0.0000000   0.0000000   0.0000000   0.0000000   0.0000000   2.7928460   2.7928460   2.7928460   2.7928460   2.7928460
 AtZNuc=   6.0000000   6.0000000   6.0000000   6.0000000   8.0000000   1.0000000   1.0000000   1.0000000   1.0000000   1.0000000

  Atom        21          22          23
 IAtWgt=           1           1           1
 AtmWgt=   1.0078250   1.0078250   1.0078250
 NucSpn=           1           1           1
 AtZEff=  -0.0000000  -0.0000000  -0.0000000
 NQMom=    0.0000000   0.0000000   0.0000000
 NMagM=    2.7928460   2.7928460   2.7928460
 AtZNuc=   1.0000000   1.0000000   1.0000000
 Leave Link  101 at Mon Oct 14 01:28:08 2019, MaxMem= 10737418240 cpu:               8.9 elap:               0.4
 (Enter /apps/cent7/gaussian/g16-A.03/g16-haswell/g16/l103.exe)

 GradGradGradGradGradGradGradGradGradGradGradGradGradGradGradGradGradGrad
 Berny optimization.
 Initialization pass.
                           ----------------------------
                           !    Initial Parameters    !
                           ! (Angstroms and Degrees)  !
 --------------------------                            --------------------------
 ! Name  Definition              Value          Derivative Info.                !
 --------------------------------------------------------------------------------
 ! R1    R(1,2)                  1.6025         estimate D2E/DX2                !
 ! R2    R(2,3)                  1.7708         estimate D2E/DX2                !
 ! R3    R(2,10)                 1.771          estimate D2E/DX2                !
 ! R4    R(2,15)                 1.603          estimate D2E/DX2                !
 ! R5    R(3,4)                  1.4116         estimate D2E/DX2                !
 ! R6    R(3,8)                  1.4026         estimate D2E/DX2                !
 ! R7    R(4,5)                  1.4127         estimate D2E/DX2                !
 ! R8    R(4,9)                  1.4374         estimate D2E/DX2                !
 ! R9    R(5,6)                  1.4107         estimate D2E/DX2                !
 ! R10   R(5,16)                 1.0901         estimate D2E/DX2                !
 ! R11   R(6,7)                  1.4111         estimate D2E/DX2                !
 ! R12   R(6,17)                 1.0901         estimate D2E/DX2                !
 ! R13   R(7,8)                  1.4082         estimate D2E/DX2                !
 ! R14   R(7,18)                 1.0901         estimate D2E/DX2                !
 ! R15   R(8,19)                 1.09           estimate D2E/DX2                !
 ! R16   R(9,10)                 1.4114         estimate D2E/DX2                !
 ! R17   R(9,14)                 1.4128         estimate D2E/DX2                !
 ! R18   R(10,11)                1.4027         estimate D2E/DX2                !
 ! R19   R(11,12)                1.4083         estimate D2E/DX2                !
 ! R20   R(11,20)                1.09           estimate D2E/DX2                !
 ! R21   R(12,13)                1.4111         estimate D2E/DX2                !
 ! R22   R(12,21)                1.09           estimate D2E/DX2                !
 ! R23   R(13,14)                1.4108         estimate D2E/DX2                !
 ! R24   R(13,22)                1.09           estimate D2E/DX2                !
 ! R25   R(14,23)                1.0901         estimate D2E/DX2                !
 ! A1    A(1,2,3)              111.8454         estimate D2E/DX2                !
 ! A2    A(1,2,10)             111.8668         estimate D2E/DX2                !
 ! A3    A(1,2,15)             112.558          estimate D2E/DX2                !
 ! A4    A(3,2,10)              96.0484         estimate D2E/DX2                !
 ! A5    A(3,2,15)             111.7256         estimate D2E/DX2                !
 ! A6    A(10,2,15)            111.7436         estimate D2E/DX2                !
 ! A7    A(2,3,4)              106.9168         estimate D2E/DX2                !
 ! A8    A(2,3,8)              129.947          estimate D2E/DX2                !
 ! A9    A(4,3,8)              123.1348         estimate D2E/DX2                !
 ! A10   A(3,4,5)              117.8873         estimate D2E/DX2                !
 ! A11   A(3,4,9)              115.0512         estimate D2E/DX2                !
 ! A12   A(5,4,9)              127.0598         estimate D2E/DX2                !
 ! A13   A(4,5,6)              120.0741         estimate D2E/DX2                !
 ! A14   A(4,5,16)             120.0329         estimate D2E/DX2                !
 ! A15   A(6,5,16)             119.893          estimate D2E/DX2                !
 ! A16   A(5,6,7)              120.5369         estimate D2E/DX2                !
 ! A17   A(5,6,17)             119.7161         estimate D2E/DX2                !
 ! A18   A(7,6,17)             119.7469         estimate D2E/DX2                !
 ! A19   A(6,7,8)              120.3815         estimate D2E/DX2                !
 ! A20   A(6,7,18)             119.9151         estimate D2E/DX2                !
 ! A21   A(8,7,18)             119.7033         estimate D2E/DX2                !
 ! A22   A(3,8,7)              117.9844         estimate D2E/DX2                !
 ! A23   A(3,8,19)             120.8188         estimate D2E/DX2                !
 ! A24   A(7,8,19)             121.1968         estimate D2E/DX2                !
 ! A25   A(4,9,10)             115.0675         estimate D2E/DX2                !
 ! A26   A(4,9,14)             127.0379         estimate D2E/DX2                !
 ! A27   A(10,9,14)            117.8931         estimate D2E/DX2                !
 ! A28   A(2,10,9)             106.9119         estimate D2E/DX2                !
 ! A29   A(2,10,11)            129.9466         estimate D2E/DX2                !
 ! A30   A(9,10,11)            123.1402         estimate D2E/DX2                !
 ! A31   A(10,11,12)           117.9779         estimate D2E/DX2                !
 ! A32   A(10,11,20)           120.8242         estimate D2E/DX2                !
 ! A33   A(12,11,20)           121.1978         estimate D2E/DX2                !
 ! A34   A(11,12,13)           120.3818         estimate D2E/DX2                !
 ! A35   A(11,12,21)           119.7148         estimate D2E/DX2                !
 ! A36   A(13,12,21)           119.9034         estimate D2E/DX2                !
 ! A37   A(12,13,14)           120.5381         estimate D2E/DX2                !
 ! A38   A(12,13,22)           119.7413         estimate D2E/DX2                !
 ! A39   A(14,13,22)           119.7206         estimate D2E/DX2                !
 ! A40   A(9,14,13)            120.0676         estimate D2E/DX2                !
 ! A41   A(9,14,23)            120.0479         estimate D2E/DX2                !
 ! A42   A(13,14,23)           119.8845         estimate D2E/DX2                !
 ! D1    D(1,2,3,4)           -117.0499         estimate D2E/DX2                !
 ! D2    D(1,2,3,8)             62.5312         estimate D2E/DX2                !
 ! D3    D(10,2,3,4)            -0.5633         estimate D2E/DX2                !
 ! D4    D(10,2,3,8)           179.0178         estimate D2E/DX2                !
 ! D5    D(15,2,3,4)           115.7471         estimate D2E/DX2                !
 ! D6    D(15,2,3,8)           -64.6718         estimate D2E/DX2                !
 ! D7    D(1,2,10,9)           117.0568         estimate D2E/DX2                !
 ! D8    D(1,2,10,11)          -62.5459         estimate D2E/DX2                !
 ! D9    D(3,2,10,9)             0.5874         estimate D2E/DX2                !
 ! D10   D(3,2,10,11)         -179.0152         estimate D2E/DX2                !
 ! D11   D(15,2,10,9)         -115.7085         estimate D2E/DX2                !
 ! D12   D(15,2,10,11)          64.6889         estimate D2E/DX2                !
 ! D13   D(2,3,4,5)            179.9523         estimate D2E/DX2                !
 ! D14   D(2,3,4,9)              0.3909         estimate D2E/DX2                !
 ! D15   D(8,3,4,5)              0.3358         estimate D2E/DX2                !
 ! D16   D(8,3,4,9)           -179.2256         estimate D2E/DX2                !
 ! D17   D(2,3,8,7)           -179.6616         estimate D2E/DX2                !
 ! D18   D(2,3,8,19)             0.3323         estimate D2E/DX2                !
 ! D19   D(4,3,8,7)             -0.1401         estimate D2E/DX2                !
 ! D20   D(4,3,8,19)           179.8537         estimate D2E/DX2                !
 ! D21   D(3,4,5,6)             -0.2761         estimate D2E/DX2                !
 ! D22   D(3,4,5,16)           179.7164         estimate D2E/DX2                !
 ! D23   D(9,4,5,6)            179.226          estimate D2E/DX2                !
 ! D24   D(9,4,5,16)            -0.7815         estimate D2E/DX2                !
 ! D25   D(3,4,9,10)             0.0467         estimate D2E/DX2                !
 ! D26   D(3,4,9,14)           179.5939         estimate D2E/DX2                !
 ! D27   D(5,4,9,10)          -179.4675         estimate D2E/DX2                !
 ! D28   D(5,4,9,14)             0.0797         estimate D2E/DX2                !
 ! D29   D(4,5,6,7)              0.0349         estimate D2E/DX2                !
 ! D30   D(4,5,6,17)          -179.9577         estimate D2E/DX2                !
 ! D31   D(16,5,6,7)          -179.9576         estimate D2E/DX2                !
 ! D32   D(16,5,6,17)            0.0498         estimate D2E/DX2                !
 ! D33   D(5,6,7,8)              0.1676         estimate D2E/DX2                !
 ! D34   D(5,6,7,18)          -179.8337         estimate D2E/DX2                !
 ! D35   D(17,6,7,8)          -179.8398         estimate D2E/DX2                !
 ! D36   D(17,6,7,18)            0.1589         estimate D2E/DX2                !
 ! D37   D(6,7,8,3)             -0.116          estimate D2E/DX2                !
 ! D38   D(6,7,8,19)           179.8902         estimate D2E/DX2                !
 ! D39   D(18,7,8,3)           179.8854         estimate D2E/DX2                !
 ! D40   D(18,7,8,19)           -0.1085         estimate D2E/DX2                !
 ! D41   D(4,9,10,2)            -0.4587         estimate D2E/DX2                !
 ! D42   D(4,9,10,11)          179.1775         estimate D2E/DX2                !
 ! D43   D(14,9,10,2)          179.9502         estimate D2E/DX2                !
 ! D44   D(14,9,10,11)          -0.4136         estimate D2E/DX2                !
 ! D45   D(4,9,14,13)         -179.2082         estimate D2E/DX2                !
 ! D46   D(4,9,14,23)            0.7901         estimate D2E/DX2                !
 ! D47   D(10,9,14,13)           0.3277         estimate D2E/DX2                !
 ! D48   D(10,9,14,23)        -179.6739         estimate D2E/DX2                !
 ! D49   D(2,10,11,12)         179.7415         estimate D2E/DX2                !
 ! D50   D(2,10,11,20)          -0.2597         estimate D2E/DX2                !
 ! D51   D(9,10,11,12)           0.1955         estimate D2E/DX2                !
 ! D52   D(9,10,11,20)        -179.8057         estimate D2E/DX2                !
 ! D53   D(10,11,12,13)          0.1091         estimate D2E/DX2                !
 ! D54   D(10,11,12,21)       -179.8868         estimate D2E/DX2                !
 ! D55   D(20,11,12,13)       -179.8897         estimate D2E/DX2                !
 ! D56   D(20,11,12,21)          0.1144         estimate D2E/DX2                !
 ! D57   D(11,12,13,14)         -0.1841         estimate D2E/DX2                !
 ! D58   D(11,12,13,22)        179.8059         estimate D2E/DX2                !
 ! D59   D(21,12,13,14)        179.8119         estimate D2E/DX2                !
 ! D60   D(21,12,13,22)         -0.1982         estimate D2E/DX2                !
 ! D61   D(12,13,14,9)          -0.0415         estimate D2E/DX2                !
 ! D62   D(12,13,14,23)        179.9601         estimate D2E/DX2                !
 ! D63   D(22,13,14,9)         179.9685         estimate D2E/DX2                !
 ! D64   D(22,13,14,23)         -0.0299         estimate D2E/DX2                !
 --------------------------------------------------------------------------------
 Trust Radius=3.00D-01 FncErr=1.00D-07 GrdErr=1.00D-06 EigMax=2.50D+02 EigMin=1.00D-04
 Number of steps in this run=    138 maximum allowed number of steps=    138.
 GradGradGradGradGradGradGradGradGradGradGradGradGradGradGradGradGradGrad

 Leave Link  103 at Mon Oct 14 01:28:08 2019, MaxMem= 10737418240 cpu:               0.2 elap:               0.0
 (Enter /apps/cent7/gaussian/g16-A.03/g16-haswell/g16/l202.exe)
                          Input orientation:                          
 ---------------------------------------------------------------------
 Center     Atomic      Atomic             Coordinates (Angstroms)
 Number     Number       Type             X           Y           Z
 ---------------------------------------------------------------------
      1          8           0       -0.957400   -2.227400   -1.319700
      2         16           0       -1.084200   -1.330700    0.002400
      3          6           0       -2.537000   -0.318600   -0.024700
      4          6           0       -2.102200    1.024400   -0.017600
      5          6           0       -3.086400    2.037700   -0.037200
      6          6           0       -4.454300    1.694100   -0.068800
      7          6           0       -4.853500    0.340700   -0.080400
      8          6           0       -3.890200   -0.686200   -0.057000
      9          6           0       -0.676000    1.202300   -0.000600
     10          6           0        0.075600    0.007700    0.005400
     11          6           0        1.478100   -0.015900    0.004800
     12          6           0        2.159600    1.216500    0.002100
     13          6           0        1.439700    2.430100    0.002400
     14          6           0        0.028900    2.426700    0.001500
     15          8           0       -0.991500   -2.199800    1.346100
     16          1           0       -2.789800    3.086600   -0.027800
     17          1           0       -5.208800    2.480700   -0.084500
     18          1           0       -5.913200    0.086700   -0.107600
     19          1           0       -4.183700   -1.735900   -0.063800
     20          1           0        2.020800   -0.961200    0.006400
     21          1           0        3.249500    1.231200   -0.000300
     22          1           0        1.977800    3.378000    0.003500
     23          1           0       -0.516500    3.370500    0.002400
 ---------------------------------------------------------------------
                    Distance matrix (angstroms):
                    1          2          3          4          5
     1  O    0.000000
     2  S    1.602528   0.000000
     3  C    2.795654   1.770793   0.000000
     4  C    3.685137   2.565779   1.411648   0.000000
     5  C    4.936449   3.918736   2.419534   1.412732   0.000000
     6  C    5.401039   4.529024   2.780098   2.446118   1.410748
     7  C    4.828105   4.124082   2.409139   2.835673   2.450371
     8  C    3.545564   2.879678   1.402613   2.474803   2.840091
     9  C    3.685384   2.565682   2.403547   1.437353   2.551325
    10  C    2.796185   1.771005   2.633070   2.403543   3.757786
    11  C    3.546363   2.879946   4.026602   3.728441   5.005367
    12  C    4.829419   4.124375   4.941184   4.266173   5.310031
    13  C    5.402439   4.529204   4.834276   3.810702   4.543251
    14  C    4.937510   3.918807   3.757819   2.551156   3.139731
    15  O    2.666161   1.602953   2.794025   3.672710   4.925295
    16  H    5.767607   4.735243   3.414572   2.173837   1.090069
    17  H    6.462687   5.616640   3.870164   3.431654   2.168656
    18  H    5.602160   5.033921   3.401451   3.925698   3.435427
    19  H    3.496837   3.126575   2.172991   3.457460   3.929991
    20  H    3.497353   3.126911   4.602982   4.576277   5.922735
    21  H    5.603636   5.034312   5.990497   5.355722   6.387130
    22  H    6.464268   5.616734   5.835158   4.710231   5.238720
    23  H    5.768780   4.735353   4.206259   2.831789   2.895222
                    6          7          8          9         10
     6  C    0.000000
     7  C    1.411094   0.000000
     8  C    2.446258   1.408197   0.000000
     9  C    3.810783   4.266173   3.728364   0.000000
    10  C    4.834195   4.941081   4.026532   1.411385   0.000000
    11  C    6.174373   6.342206   5.410339   2.474710   1.402699
    12  C    6.631501   7.068055   6.342227   2.835637   2.409204
    13  C    5.940202   6.631502   6.174357   2.446158   2.780072
    14  C    4.543207   5.309984   5.005289   1.412814   2.419454
    15  O    5.399572   4.837777   3.558390   3.672523   2.794501
    16  H    2.170552   3.435344   3.930108   2.831868   4.206096
    17  H    1.090072   2.169298   3.430556   4.710374   5.835126
    18  H    2.171089   1.090055   2.166210   5.355770   5.990387
    19  H    3.440661   2.182012   1.089981   4.576131   4.602887
    20  H    6.998799   6.997034   5.917733   3.457385   2.173148
    21  H    7.717999   8.152179   7.392899   3.925606   3.401562
    22  H    6.649260   7.476556   7.138264   3.431667   3.870050
    23  H    4.280380   5.291135   5.276570   2.174061   3.414530
                   11         12         13         14         15
    11  C    0.000000
    12  C    1.408282   0.000000
    13  C    2.446303   1.411057   0.000000
    14  C    2.840156   2.450401   1.410804   0.000000
    15  O    3.559133   4.838065   5.399281   4.924801   0.000000
    16  H    5.276508   5.291004   4.280254   2.895064   5.750436
    17  H    7.138320   7.476565   6.649260   5.238684   6.460597
    18  H    7.392867   8.152213   7.718080   6.387179   5.618225
    19  H    5.917693   6.997032   6.998755   5.922626   3.520392
    20  H    1.090008   2.182123   3.440728   3.930083   3.521772
    21  H    2.166366   1.090002   2.170886   3.435329   5.618775
    22  H    3.430490   2.169132   1.089985   2.168683   6.459967
    23  H    3.930158   3.435291   2.170500   1.090055   5.749730
                   16         17         18         19         20
    16  H    0.000000
    17  H    2.494372   0.000000
    18  H    4.331443   2.495586   0.000000
    19  H    5.020036   4.339467   2.512958   0.000000
    20  H    6.287108   8.007625   8.003715   6.253072   0.000000
    21  H    6.317943   8.550508   9.234526   8.003760   2.513238
    22  H    4.776600   7.242935   8.550607   8.007533   4.339414
    23  H    2.291158   4.776712   6.318213   6.287134   5.020113
                   21         22         23
    21  H    0.000000
    22  H    2.495192   0.000000
    23  H    4.331209   2.494312   0.000000
 Stoichiometry    C12H8O2S
 Framework group  C1[X(C12H8O2S)]
 Deg. of freedom    63
 Full point group                 C1      NOp   1
 Largest Abelian subgroup         C1      NOp   1
 Largest concise Abelian subgroup C1      NOp   1
                         Standard orientation:                         
 ---------------------------------------------------------------------
 Center     Atomic      Atomic             Coordinates (Angstroms)
 Number     Number       Type             X           Y           Z
 ---------------------------------------------------------------------
      1          8           0        0.001167    2.438444   -1.322736
      2         16           0        0.000229    1.542503    0.005942
      3          6           0        1.316511    0.357978    0.002863
      4          6           0        0.718458   -0.920691    0.012157
      5          6           0        1.569553   -2.048275    0.010697
      6          6           0        2.969782   -1.877098   -0.005677
      7          6           0        3.533856   -0.583729   -0.019977
      8          6           0        2.705139    0.554786   -0.014533
      9          6           0       -0.718895   -0.920330    0.012256
     10          6           0       -1.316558    0.358225    0.002004
     11          6           0       -2.705199    0.555463   -0.016346
     12          6           0       -3.534199   -0.582957   -0.020580
     13          6           0       -2.970420   -1.876390   -0.004319
     14          6           0       -1.570177   -2.047877    0.012482
     15          8           0        0.000238    2.426062    1.343396
     16          1           0        1.145070   -3.052232    0.022351
     17          1           0        3.621036   -2.751239   -0.007414
     18          1           0        4.617121   -0.463230   -0.035312
     19          1           0        3.126615    1.559940   -0.023630
     20          1           0       -3.126456    1.560724   -0.026952
     21          1           0       -4.617404   -0.462478   -0.036586
     22          1           0       -3.621898   -2.750256   -0.004574
     23          1           0       -1.146085   -3.051965    0.025613
 ---------------------------------------------------------------------
 Rotational constants (GHZ):           0.8633793           0.5326118           0.3557860
 Leave Link  202 at Mon Oct 14 01:28:08 2019, MaxMem= 10737418240 cpu:               0.8 elap:               0.1
 (Enter /apps/cent7/gaussian/g16-A.03/g16-haswell/g16/l301.exe)
 Standard basis: 6-31G(d) (6D, 7F)
 Ernie: Thresh=  0.10000D-02 Tol=  0.10000D-05 Strict=F.
 There are   245 symmetry adapted cartesian basis functions of A   symmetry.
 There are   245 symmetry adapted basis functions of A   symmetry.
   245 basis functions,   476 primitive gaussians,   245 cartesian basis functions
    56 alpha electrons       56 beta electrons
       nuclear repulsion energy      1052.8201728144 Hartrees.
 IExCor=  402 DFT=T Ex+Corr=B3LYP ExCW=0 ScaHFX=  0.200000
 ScaDFX=  0.800000  0.720000  1.000000  0.810000 ScalE2=  1.000000  1.000000
 IRadAn=      5 IRanWt=     -1 IRanGd=            0 ICorTp=0 IEmpDi=  4
 NAtoms=   23 NActive=   23 NUniq=   23 SFac= 1.00D+00 NAtFMM=   60 NAOKFM=F Big=F
 Integral buffers will be    131072 words long.
 Raffenetti 2 integral format.
 Two-electron integral symmetry is turned on.
 Leave Link  301 at Mon Oct 14 01:28:08 2019, MaxMem= 10737418240 cpu:               1.3 elap:               0.1
 (Enter /apps/cent7/gaussian/g16-A.03/g16-haswell/g16/l302.exe)
 NPDir=0 NMtPBC=     1 NCelOv=     1 NCel=       1 NClECP=     1 NCelD=      1
         NCelK=      1 NCelE2=     1 NClLst=     1 CellRange=     0.0.
 One-electron integrals computed using PRISM.
 One-electron integral symmetry used in STVInt
 NBasis=   245 RedAO= T EigKep=  4.04D-04  NBF=   245
 NBsUse=   245 1.00D-06 EigRej= -1.00D+00 NBFU=   245
 Precomputing XC quadrature grid using
 IXCGrd= 4 IRadAn=           5 IRanWt=          -1 IRanGd=           0 AccXCQ= 0.00D+00.
 Generated NRdTot=       0 NPtTot=           0 NUsed=           0 NTot=          32
 NSgBfM=   244   244   244   244   244 MxSgAt=    23 MxSgA2=    23.
 Leave Link  302 at Mon Oct 14 01:28:09 2019, MaxMem= 10737418240 cpu:               4.2 elap:               0.2
 (Enter /apps/cent7/gaussian/g16-A.03/g16-haswell/g16/l303.exe)
 DipDrv:  MaxL=1.
 Leave Link  303 at Mon Oct 14 01:28:09 2019, MaxMem= 10737418240 cpu:               0.7 elap:               0.1
 (Enter /apps/cent7/gaussian/g16-A.03/g16-haswell/g16/l401.exe)
 ExpMin= 1.17D-01 ExpMax= 2.19D+04 ExpMxC= 3.30D+03 IAcc=3 IRadAn=         5 AccDes= 0.00D+00
 Harris functional with IExCor=  402 and IRadAn=       5 diagonalized for initial guess.
 HarFok:  IExCor=  402 AccDes= 0.00D+00 IRadAn=         5 IDoV= 1 UseB2=F ITyADJ=14
 ICtDFT=  3500011 ScaDFX=  1.000000  1.000000  1.000000  1.000000
 FoFCou: FMM=F IPFlag=           0 FMFlag=      100000 FMFlg1=           0
         NFxFlg=           0 DoJE=T BraDBF=F KetDBF=T FulRan=T
         wScrn=  0.000000 ICntrl=       500 IOpCl=  0 I1Cent=   200000004 NGrid=           0
         NMat0=    1 NMatS0=      1 NMatT0=    0 NMatD0=    1 NMtDS0=    0 NMtDT0=    0
 Petite list used in FoFCou.
 Harris En= -1010.68187282112    
 JPrj=0 DoOrth=F DoCkMO=F.
 Leave Link  401 at Mon Oct 14 01:28:09 2019, MaxMem= 10737418240 cpu:              10.8 elap:               0.5
 (Enter /apps/cent7/gaussian/g16-A.03/g16-haswell/g16/l502.exe)
 Integral symmetry usage will be decided dynamically.
 Closed shell SCF:
 Using DIIS extrapolation, IDIIS=  1040.
 NGot= 10737418240 LenX= 10737289633 LenY= 10737229167
 Requested convergence on RMS density matrix=1.00D-08 within 128 cycles.
 Requested convergence on MAX density matrix=1.00D-06.
 Requested convergence on             energy=1.00D-06.
 No special actions if energy rises.
 Fock matrices will be formed incrementally for  20 cycles.
 Integral accuracy reduced to 1.0D-05 until final iterations.

 Cycle   1  Pass 0  IDiag  1:
 FoFJK:  IHMeth= 1 ICntrl=       0 DoSepK=F KAlg= 0 I1Cent=           0 FoldK=F
 IRaf= 870000000 NMat=       1 IRICut=       1 DoRegI=T DoRafI=F ISym2E= 0 IDoP0=0 IntGTp=1.
 FoFCou: FMM=F IPFlag=           0 FMFlag=      100000 FMFlg1=           0
         NFxFlg=           0 DoJE=F BraDBF=F KetDBF=F FulRan=T
         wScrn=  0.000000 ICntrl=         0 IOpCl=  0 I1Cent=           0 NGrid=           0
         NMat0=    1 NMatS0=      1 NMatT0=    0 NMatD0=    1 NMtDS0=    0 NMtDT0=    0
 Symmetry not used in FoFCou.
 E= -1010.12774711696    
 DIIS: error= 4.32D-02 at cycle   1 NSaved=   1.
 NSaved= 1 IEnMin= 1 EnMin= -1010.12774711696     IErMin= 1 ErrMin= 4.32D-02
 ErrMax= 4.32D-02  0.00D+00 EMaxC= 1.00D-01 BMatC= 5.62D-01 BMatP= 5.62D-01
 IDIUse=3 WtCom= 5.68D-01 WtEn= 4.32D-01
 Coeff-Com:  0.100D+01
 Coeff-En:   0.100D+01
 Coeff:      0.100D+01
 Gap=     0.155 Goal=   None    Shift=    0.000
 GapD=    0.155 DampG=1.000 DampE=0.500 DampFc=0.5000 IDamp=-1.
 Damping current iteration by 5.00D-01
 RMSDP=1.13D-02 MaxDP=6.33D-01              OVMax= 3.99D-01

 Cycle   2  Pass 0  IDiag  1:
 RMSU=  5.63D-03    CP:  9.93D-01
 E= -1010.05007487812     Delta-E=        0.077672238841 Rises=F Damp=T
 DIIS: error= 4.68D-02 at cycle   2 NSaved=   2.
 NSaved= 2 IEnMin= 1 EnMin= -1010.12774711696     IErMin= 1 ErrMin= 4.32D-02
 ErrMax= 4.68D-02  0.00D+00 EMaxC= 1.00D-01 BMatC= 2.41D-01 BMatP= 5.62D-01
 IDIUse=3 WtCom= 5.32D-01 WtEn= 4.68D-01
 Coeff-Com:  0.372D+00 0.628D+00
 Coeff-En:   0.551D+00 0.449D+00
 Coeff:      0.456D+00 0.544D+00
 Gap=     0.167 Goal=   None    Shift=    0.000
 RMSDP=3.77D-03 MaxDP=1.28D-01 DE= 7.77D-02 OVMax= 3.23D-01

 Cycle   3  Pass 0  IDiag  1:
 RMSU=  2.79D-03    CP:  9.74D-01  5.58D-01
 E= -1010.56331680399     Delta-E=       -0.513241925874 Rises=F Damp=F
 DIIS: error= 1.63D-02 at cycle   3 NSaved=   3.
 NSaved= 3 IEnMin= 3 EnMin= -1010.56331680399     IErMin= 3 ErrMin= 1.63D-02
 ErrMax= 1.63D-02  0.00D+00 EMaxC= 1.00D-01 BMatC= 6.18D-02 BMatP= 2.41D-01
 IDIUse=3 WtCom= 8.37D-01 WtEn= 1.63D-01
 Coeff-Com:  0.192D+00 0.294D+00 0.514D+00
 Coeff-En:   0.000D+00 0.000D+00 0.100D+01
 Coeff:      0.161D+00 0.246D+00 0.593D+00
 Gap=     0.177 Goal=   None    Shift=    0.000
 RMSDP=2.03D-03 MaxDP=6.52D-02 DE=-5.13D-01 OVMax= 6.75D-02

 Cycle   4  Pass 0  IDiag  1:
 RMSU=  1.51D-03    CP:  9.79D-01  5.77D-01  5.17D-01
 E= -1010.61841540418     Delta-E=       -0.055098600189 Rises=F Damp=F
 DIIS: error= 7.95D-03 at cycle   4 NSaved=   4.
 NSaved= 4 IEnMin= 4 EnMin= -1010.61841540418     IErMin= 4 ErrMin= 7.95D-03
 ErrMax= 7.95D-03  0.00D+00 EMaxC= 1.00D-01 BMatC= 1.37D-02 BMatP= 6.18D-02
 IDIUse=3 WtCom= 9.21D-01 WtEn= 7.95D-02
 Coeff-Com:  0.475D-01 0.398D-01 0.327D+00 0.586D+00
 Coeff-En:   0.000D+00 0.000D+00 0.170D+00 0.830D+00
 Coeff:      0.437D-01 0.367D-01 0.315D+00 0.605D+00
 Gap=     0.172 Goal=   None    Shift=    0.000
 RMSDP=8.22D-04 MaxDP=2.68D-02 DE=-5.51D-02 OVMax= 3.75D-02

 Cycle   5  Pass 0  IDiag  1:
 RMSU=  3.25D-04    CP:  9.79D-01  5.57D-01  6.67D-01  5.91D-01
 E= -1010.63129736610     Delta-E=       -0.012881961919 Rises=F Damp=F
 DIIS: error= 4.16D-03 at cycle   5 NSaved=   5.
 NSaved= 5 IEnMin= 5 EnMin= -1010.63129736610     IErMin= 5 ErrMin= 4.16D-03
 ErrMax= 4.16D-03  0.00D+00 EMaxC= 1.00D-01 BMatC= 1.72D-03 BMatP= 1.37D-02
 IDIUse=3 WtCom= 9.58D-01 WtEn= 4.16D-02
 Coeff-Com:  0.131D-01 0.432D-02 0.154D+00 0.373D+00 0.455D+00
 Coeff-En:   0.000D+00 0.000D+00 0.000D+00 0.639D-01 0.936D+00
 Coeff:      0.126D-01 0.414D-02 0.148D+00 0.360D+00 0.475D+00
 Gap=     0.165 Goal=   None    Shift=    0.000
 RMSDP=2.49D-04 MaxDP=7.74D-03 DE=-1.29D-02 OVMax= 1.76D-02

 Cycle   6  Pass 0  IDiag  1:
 RMSU=  1.25D-04    CP:  9.78D-01  5.60D-01  6.61D-01  6.67D-01  4.50D-01
 E= -1010.63294435531     Delta-E=       -0.001646989210 Rises=F Damp=F
 DIIS: error= 1.58D-03 at cycle   6 NSaved=   6.
 NSaved= 6 IEnMin= 6 EnMin= -1010.63294435531     IErMin= 6 ErrMin= 1.58D-03
 ErrMax= 1.58D-03  0.00D+00 EMaxC= 1.00D-01 BMatC= 2.28D-04 BMatP= 1.72D-03
 IDIUse=3 WtCom= 9.84D-01 WtEn= 1.58D-02
 Coeff-Com:  0.237D-02-0.344D-02 0.499D-01 0.142D+00 0.300D+00 0.509D+00
 Coeff-En:   0.000D+00 0.000D+00 0.000D+00 0.000D+00 0.131D+00 0.869D+00
 Coeff:      0.234D-02-0.339D-02 0.491D-01 0.140D+00 0.298D+00 0.515D+00
 Gap=     0.165 Goal=   None    Shift=    0.000
 RMSDP=7.86D-05 MaxDP=2.17D-03 DE=-1.65D-03 OVMax= 5.20D-03

 Cycle   7  Pass 0  IDiag  1:
 RMSU=  3.72D-05    CP:  9.78D-01  5.59D-01  6.63D-01  6.60D-01  5.68D-01
                    CP:  5.52D-01
 E= -1010.63318808301     Delta-E=       -0.000243727696 Rises=F Damp=F
 DIIS: error= 1.71D-04 at cycle   7 NSaved=   7.
 NSaved= 7 IEnMin= 7 EnMin= -1010.63318808301     IErMin= 7 ErrMin= 1.71D-04
 ErrMax= 1.71D-04  0.00D+00 EMaxC= 1.00D-01 BMatC= 7.90D-06 BMatP= 2.28D-04
 IDIUse=3 WtCom= 9.98D-01 WtEn= 1.71D-03
 Coeff-Com:  0.375D-03-0.206D-02 0.124D-01 0.393D-01 0.106D+00 0.252D+00
 Coeff-Com:  0.592D+00
 Coeff-En:   0.000D+00 0.000D+00 0.000D+00 0.000D+00 0.000D+00 0.000D+00
 Coeff-En:   0.100D+01
 Coeff:      0.375D-03-0.206D-02 0.123D-01 0.393D-01 0.105D+00 0.252D+00
 Coeff:      0.593D+00
 Gap=     0.165 Goal=   None    Shift=    0.000
 RMSDP=1.70D-05 MaxDP=4.88D-04 DE=-2.44D-04 OVMax= 1.08D-03

 Cycle   8  Pass 0  IDiag  1:
 RMSU=  9.47D-06    CP:  9.78D-01  5.59D-01  6.63D-01  6.61D-01  5.58D-01
                    CP:  6.10D-01  6.97D-01
 E= -1010.63319596186     Delta-E=       -0.000007878856 Rises=F Damp=F
 DIIS: error= 7.65D-05 at cycle   8 NSaved=   8.
 NSaved= 8 IEnMin= 8 EnMin= -1010.63319596186     IErMin= 8 ErrMin= 7.65D-05
 ErrMax= 7.65D-05  0.00D+00 EMaxC= 1.00D-01 BMatC= 9.95D-07 BMatP= 7.90D-06
 IDIUse=1 WtCom= 1.00D+00 WtEn= 0.00D+00
 Coeff-Com:  0.814D-05-0.858D-03 0.201D-02 0.813D-02 0.296D-01 0.902D-01
 Coeff-Com:  0.333D+00 0.538D+00
 Coeff:      0.814D-05-0.858D-03 0.201D-02 0.813D-02 0.296D-01 0.902D-01
 Coeff:      0.333D+00 0.538D+00
 Gap=     0.165 Goal=   None    Shift=    0.000
 RMSDP=5.74D-06 MaxDP=1.71D-04 DE=-7.88D-06 OVMax= 3.96D-04

 Initial convergence to 1.0D-05 achieved.  Increase integral accuracy.
 Cycle   9  Pass 1  IDiag  1:
 E= -1010.63322901911     Delta-E=       -0.000033057244 Rises=F Damp=F
 DIIS: error= 6.13D-05 at cycle   1 NSaved=   1.
 NSaved= 1 IEnMin= 1 EnMin= -1010.63322901911     IErMin= 1 ErrMin= 6.13D-05
 ErrMax= 6.13D-05  0.00D+00 EMaxC= 1.00D-01 BMatC= 3.01D-07 BMatP= 3.01D-07
 IDIUse=1 WtCom= 1.00D+00 WtEn= 0.00D+00
 Coeff-Com:  0.100D+01
 Coeff:      0.100D+01
 Gap=     0.165 Goal=   None    Shift=    0.000
 RMSDP=5.74D-06 MaxDP=1.71D-04 DE=-3.31D-05 OVMax= 3.89D-04

 Cycle  10  Pass 1  IDiag  1:
 RMSU=  2.55D-05    CP:  1.00D+00
 E= -1010.63322865112     Delta-E=        0.000000367983 Rises=F Damp=F
 DIIS: error= 6.09D-05 at cycle   2 NSaved=   2.
 NSaved= 2 IEnMin= 1 EnMin= -1010.63322901911     IErMin= 2 ErrMin= 6.09D-05
 ErrMax= 6.09D-05  0.00D+00 EMaxC= 1.00D-01 BMatC= 5.74D-07 BMatP= 3.01D-07
 IDIUse=1 WtCom= 1.00D+00 WtEn= 0.00D+00
 Coeff-Com:  0.597D+00 0.403D+00
 Coeff:      0.597D+00 0.403D+00
 Gap=     0.165 Goal=   None    Shift=    0.000
 RMSDP=4.58D-06 MaxDP=1.09D-04 DE= 3.68D-07 OVMax= 3.28D-04

 Cycle  11  Pass 1  IDiag  1:
 RMSU=  4.51D-06    CP:  1.00D+00  9.68D-01
 E= -1010.63322923145     Delta-E=       -0.000000580327 Rises=F Damp=F
 DIIS: error= 1.99D-05 at cycle   3 NSaved=   3.
 NSaved= 3 IEnMin= 3 EnMin= -1010.63322923145     IErMin= 3 ErrMin= 1.99D-05
 ErrMax= 1.99D-05  0.00D+00 EMaxC= 1.00D-01 BMatC= 7.08D-08 BMatP= 3.01D-07
 IDIUse=1 WtCom= 1.00D+00 WtEn= 0.00D+00
 Coeff-Com:  0.108D+00 0.257D+00 0.635D+00
 Coeff:      0.108D+00 0.257D+00 0.635D+00
 Gap=     0.165 Goal=   None    Shift=    0.000
 RMSDP=1.55D-06 MaxDP=5.98D-05 DE=-5.80D-07 OVMax= 1.01D-04

 Cycle  12  Pass 1  IDiag  1:
 RMSU=  1.23D-06    CP:  1.00D+00  9.79D-01  7.98D-01
 E= -1010.63322927517     Delta-E=       -0.000000043714 Rises=F Damp=F
 DIIS: error= 1.42D-05 at cycle   4 NSaved=   4.
 NSaved= 4 IEnMin= 4 EnMin= -1010.63322927517     IErMin= 4 ErrMin= 1.42D-05
 ErrMax= 1.42D-05  0.00D+00 EMaxC= 1.00D-01 BMatC= 2.91D-08 BMatP= 7.08D-08
 IDIUse=1 WtCom= 1.00D+00 WtEn= 0.00D+00
 Coeff-Com:  0.118D-01 0.148D+00 0.476D+00 0.365D+00
 Coeff:      0.118D-01 0.148D+00 0.476D+00 0.365D+00
 Gap=     0.165 Goal=   None    Shift=    0.000
 RMSDP=8.20D-07 MaxDP=3.41D-05 DE=-4.37D-08 OVMax= 4.95D-05

 Cycle  13  Pass 1  IDiag  1:
 RMSU=  2.73D-07    CP:  1.00D+00  9.82D-01  7.97D-01  3.75D-01
 E= -1010.63322929927     Delta-E=       -0.000000024108 Rises=F Damp=F
 DIIS: error= 2.18D-06 at cycle   5 NSaved=   5.
 NSaved= 5 IEnMin= 5 EnMin= -1010.63322929927     IErMin= 5 ErrMin= 2.18D-06
 ErrMax= 2.18D-06  0.00D+00 EMaxC= 1.00D-01 BMatC= 1.11D-09 BMatP= 2.91D-08
 IDIUse=1 WtCom= 1.00D+00 WtEn= 0.00D+00
 Coeff-Com: -0.172D-02 0.717D-01 0.243D+00 0.226D+00 0.461D+00
 Coeff:     -0.172D-02 0.717D-01 0.243D+00 0.226D+00 0.461D+00
 Gap=     0.165 Goal=   None    Shift=    0.000
 RMSDP=1.62D-07 MaxDP=8.79D-06 DE=-2.41D-08 OVMax= 7.85D-06

 Cycle  14  Pass 1  IDiag  1:
 RMSU=  8.34D-08    CP:  1.00D+00  9.83D-01  7.95D-01  4.00D-01  5.05D-01
 E= -1010.63322930027     Delta-E=       -0.000000001002 Rises=F Damp=F
 DIIS: error= 5.08D-07 at cycle   6 NSaved=   6.
 NSaved= 6 IEnMin= 6 EnMin= -1010.63322930027     IErMin= 6 ErrMin= 5.08D-07
 ErrMax= 5.08D-07  0.00D+00 EMaxC= 1.00D-01 BMatC= 5.87D-11 BMatP= 1.11D-09
 IDIUse=1 WtCom= 1.00D+00 WtEn= 0.00D+00
 Coeff-Com: -0.146D-02 0.386D-01 0.131D+00 0.124D+00 0.286D+00 0.421D+00
 Coeff:     -0.146D-02 0.386D-01 0.131D+00 0.124D+00 0.286D+00 0.421D+00
 Gap=     0.165 Goal=   None    Shift=    0.000
 RMSDP=4.43D-08 MaxDP=1.55D-06 DE=-1.00D-09 OVMax= 2.15D-06

 Cycle  15  Pass 1  IDiag  1:
 RMSU=  3.26D-08    CP:  1.00D+00  9.83D-01  7.94D-01  4.01D-01  5.26D-01
                    CP:  6.57D-01
 E= -1010.63322930032     Delta-E=       -0.000000000047 Rises=F Damp=F
 DIIS: error= 2.72D-07 at cycle   7 NSaved=   7.
 NSaved= 7 IEnMin= 7 EnMin= -1010.63322930032     IErMin= 7 ErrMin= 2.72D-07
 ErrMax= 2.72D-07  0.00D+00 EMaxC= 1.00D-01 BMatC= 7.64D-12 BMatP= 5.87D-11
 IDIUse=1 WtCom= 1.00D+00 WtEn= 0.00D+00
 Coeff-Com: -0.690D-03 0.126D-01 0.426D-01 0.402D-01 0.105D+00 0.280D+00
 Coeff-Com:  0.521D+00
 Coeff:     -0.690D-03 0.126D-01 0.426D-01 0.402D-01 0.105D+00 0.280D+00
 Coeff:      0.521D+00
 Gap=     0.165 Goal=   None    Shift=    0.000
 RMSDP=1.51D-08 MaxDP=8.74D-07 DE=-4.73D-11 OVMax= 6.70D-07

 Cycle  16  Pass 1  IDiag  1:
 RMSU=  1.06D-08    CP:  1.00D+00  9.83D-01  7.94D-01  4.00D-01  5.32D-01
                    CP:  7.52D-01  8.09D-01
 E= -1010.63322930032     Delta-E=        0.000000000001 Rises=F Damp=F
 DIIS: error= 7.53D-08 at cycle   8 NSaved=   8.
 NSaved= 8 IEnMin= 7 EnMin= -1010.63322930032     IErMin= 8 ErrMin= 7.53D-08
 ErrMax= 7.53D-08  0.00D+00 EMaxC= 1.00D-01 BMatC= 8.62D-13 BMatP= 7.64D-12
 IDIUse=1 WtCom= 1.00D+00 WtEn= 0.00D+00
 Coeff-Com: -0.918D-04-0.281D-03-0.127D-02-0.159D-02 0.496D-02 0.872D-01
 Coeff-Com:  0.293D+00 0.618D+00
 Coeff:     -0.918D-04-0.281D-03-0.127D-02-0.159D-02 0.496D-02 0.872D-01
 Coeff:      0.293D+00 0.618D+00
 Gap=     0.165 Goal=   None    Shift=    0.000
 RMSDP=6.39D-09 MaxDP=1.95D-07 DE= 1.36D-12 OVMax= 4.64D-07

 SCF Done:  E(RB3LYP) =  -1010.63322930     A.U. after   16 cycles
            NFock= 16  Conv=0.64D-08     -V/T= 2.0080
 KE= 1.002623476971D+03 PE=-4.473196239122D+03 EE= 1.407119360037D+03
 Leave Link  502 at Mon Oct 14 01:28:16 2019, MaxMem= 10737418240 cpu:             161.2 elap:               6.8
 (Enter /apps/cent7/gaussian/g16-A.03/g16-haswell/g16/l601.exe)
 Copying SCF densities to generalized density rwf, IOpCl= 0 IROHF=0.

 **********************************************************************

            Population analysis using the SCF density.

 **********************************************************************

 Orbital symmetries:
       Occupied  (A) (A) (A) (A) (A) (A) (A) (A) (A) (A) (A) (A)
                 (A) (A) (A) (A) (A) (A) (A) (A) (A) (A) (A) (A)
                 (A) (A) (A) (A) (A) (A) (A) (A) (A) (A) (A) (A)
                 (A) (A) (A) (A) (A) (A) (A) (A) (A) (A) (A) (A)
                 (A) (A) (A) (A) (A) (A) (A) (A)
       Virtual   (A) (A) (A) (A) (A) (A) (A) (A) (A) (A) (A) (A)
                 (A) (A) (A) (A) (A) (A) (A) (A) (A) (A) (A) (A)
                 (A) (A) (A) (A) (A) (A) (A) (A) (A) (A) (A) (A)
                 (A) (A) (A) (A) (A) (A) (A) (A) (A) (A) (A) (A)
                 (A) (A) (A) (A) (A) (A) (A) (A) (A) (A) (A) (A)
                 (A) (A) (A) (A) (A) (A) (A) (A) (A) (A) (A) (A)
                 (A) (A) (A) (A) (A) (A) (A) (A) (A) (A) (A) (A)
                 (A) (A) (A) (A) (A) (A) (A) (A) (A) (A) (A) (A)
                 (A) (A) (A) (A) (A) (A) (A) (A) (A) (A) (A) (A)
                 (A) (A) (A) (A) (A) (A) (A) (A) (A) (A) (A) (A)
                 (A) (A) (A) (A) (A) (A) (A) (A) (A) (A) (A) (A)
                 (A) (A) (A) (A) (A) (A) (A) (A) (A) (A) (A) (A)
                 (A) (A) (A) (A) (A) (A) (A) (A) (A) (A) (A) (A)
                 (A) (A) (A) (A) (A) (A) (A) (A) (A) (A) (A) (A)
                 (A) (A) (A) (A) (A) (A) (A) (A) (A) (A) (A) (A)
                 (A) (A) (A) (A) (A) (A) (A) (A) (A)
 The electronic state is 1-A.
 Alpha  occ. eigenvalues --  -89.09066 -19.13033 -19.13003 -10.24671 -10.24668
 Alpha  occ. eigenvalues --  -10.24013 -10.23974 -10.23472 -10.23468 -10.22914
 Alpha  occ. eigenvalues --  -10.22913 -10.22854 -10.22854 -10.22664 -10.22663
 Alpha  occ. eigenvalues --   -8.11983  -6.08360  -6.08358  -6.08313  -1.02711
 Alpha  occ. eigenvalues --   -0.92342  -0.91413  -0.87548  -0.82620  -0.79600
 Alpha  occ. eigenvalues --   -0.77562  -0.75214  -0.71241  -0.66416  -0.62566
 Alpha  occ. eigenvalues --   -0.61055  -0.61014  -0.54488  -0.53672  -0.50733
 Alpha  occ. eigenvalues --   -0.48661  -0.48366  -0.46034  -0.45690  -0.45634
 Alpha  occ. eigenvalues --   -0.44979  -0.44227  -0.40167  -0.40051  -0.39729
 Alpha  occ. eigenvalues --   -0.38611  -0.37963  -0.37848  -0.31749  -0.29665
 Alpha  occ. eigenvalues --   -0.29476  -0.29158  -0.27538  -0.26549  -0.25269
 Alpha  occ. eigenvalues --   -0.24792
 Alpha virt. eigenvalues --   -0.08307  -0.05960  -0.03267   0.00739   0.03425
 Alpha virt. eigenvalues --    0.05203   0.05737   0.06854   0.08023   0.10393
 Alpha virt. eigenvalues --    0.11564   0.13537   0.13658   0.15336   0.15561
 Alpha virt. eigenvalues --    0.16290   0.16493   0.20072   0.21878   0.22610
 Alpha virt. eigenvalues --    0.23956   0.26189   0.27427   0.29114   0.30868
 Alpha virt. eigenvalues --    0.32420   0.35060   0.36118   0.37738   0.38134
 Alpha virt. eigenvalues --    0.41168   0.42641   0.49435   0.49870   0.50336
 Alpha virt. eigenvalues --    0.50637   0.51668   0.52443   0.53542   0.53607
 Alpha virt. eigenvalues --    0.54615   0.55187   0.55508   0.57428   0.57599
 Alpha virt. eigenvalues --    0.58056   0.58379   0.58391   0.59126   0.59340
 Alpha virt. eigenvalues --    0.61032   0.63072   0.63526   0.68961   0.68981
 Alpha virt. eigenvalues --    0.71866   0.76531   0.76633   0.77287   0.77769
 Alpha virt. eigenvalues --    0.79519   0.80206   0.82241   0.82424   0.84766
 Alpha virt. eigenvalues --    0.84874   0.85942   0.86197   0.87216   0.87899
 Alpha virt. eigenvalues --    0.88202   0.89228   0.91100   0.92190   0.93782
 Alpha virt. eigenvalues --    0.95828   0.96081   0.97693   0.99149   1.02049
 Alpha virt. eigenvalues --    1.02780   1.03723   1.04976   1.05513   1.09961
 Alpha virt. eigenvalues --    1.10483   1.10755   1.13025   1.15717   1.19069
 Alpha virt. eigenvalues --    1.19690   1.23215   1.23310   1.23940   1.26242
 Alpha virt. eigenvalues --    1.28898   1.34967   1.36995   1.37529   1.39560
 Alpha virt. eigenvalues --    1.40072   1.41999   1.43559   1.45199   1.45442
 Alpha virt. eigenvalues --    1.46110   1.46593   1.49127   1.49246   1.50954
 Alpha virt. eigenvalues --    1.53870   1.59495   1.67051   1.69564   1.73360
 Alpha virt. eigenvalues --    1.76611   1.77362   1.78713   1.81467   1.83279
 Alpha virt. eigenvalues --    1.83486   1.84712   1.85111   1.86249   1.88094
 Alpha virt. eigenvalues --    1.90293   1.90558   1.91370   1.93074   1.94673
 Alpha virt. eigenvalues --    1.97950   1.99363   2.03440   2.03969   2.04184
 Alpha virt. eigenvalues --    2.05937   2.07237   2.09647   2.10488   2.12911
 Alpha virt. eigenvalues --    2.13037   2.13355   2.17071   2.18107   2.18751
 Alpha virt. eigenvalues --    2.20241   2.23625   2.25504   2.27382   2.29628
 Alpha virt. eigenvalues --    2.34653   2.42397   2.47026   2.48216   2.54190
 Alpha virt. eigenvalues --    2.54580   2.56065   2.59131   2.59407   2.62907
 Alpha virt. eigenvalues --    2.63344   2.66688   2.68036   2.71458   2.71553
 Alpha virt. eigenvalues --    2.73847   2.74551   2.75419   2.81093   2.94861
 Alpha virt. eigenvalues --    2.96830   3.22589   3.26136   3.39756   3.79201
 Alpha virt. eigenvalues --    3.90047   3.99704   4.04598   4.04672   4.07744
 Alpha virt. eigenvalues --    4.08835   4.11661   4.18039   4.26247   4.29206
 Alpha virt. eigenvalues --    4.38575   4.40798   4.61021   4.74355
          Condensed to atoms (all electrons):
               1          2          3          4          5          6
     1  O    8.295642   0.384026  -0.048687  -0.000007  -0.000024  -0.000002
     2  S    0.384026  14.349451  -0.004899  -0.045675   0.004364  -0.001486
     3  C   -0.048687  -0.004899   5.596436   0.438124  -0.086396  -0.042293
     4  C   -0.000007  -0.045675   0.438124   4.832350   0.500741   0.000398
     5  C   -0.000024   0.004364  -0.086396   0.500741   5.074201   0.498339
     6  C   -0.000002  -0.001486  -0.042293   0.000398   0.498339   4.875707
     7  C    0.000017   0.003631  -0.028093  -0.033558  -0.031719   0.528298
     8  C   -0.000804  -0.058517   0.476785  -0.009272  -0.048890  -0.017268
     9  C   -0.000005  -0.045685  -0.025402   0.313478  -0.061584   0.007700
    10  C   -0.048661  -0.004959  -0.030260  -0.025407   0.012799  -0.000177
    11  C   -0.000799  -0.058484   0.005713   0.009432  -0.000160   0.000002
    12  C    0.000017   0.003629  -0.000161   0.000289   0.000012   0.000000
    13  C   -0.000002  -0.001487  -0.000178   0.007698   0.000152  -0.000002
    14  C   -0.000024   0.004366   0.012795  -0.061534  -0.019279   0.000151
    15  O   -0.043579   0.384630  -0.048698  -0.000108  -0.000025  -0.000002
    16  H    0.000000  -0.000096   0.007220  -0.033880   0.349484  -0.044761
    17  H   -0.000000   0.000004   0.000697   0.002531  -0.036159   0.360478
    18  H    0.000000   0.000008   0.004304   0.000667   0.004113  -0.038624
    19  H    0.000375  -0.000699  -0.034793   0.002412   0.000737   0.003511
    20  H    0.000377  -0.000701   0.000134  -0.000218   0.000001  -0.000000
    21  H    0.000000   0.000008  -0.000000   0.000001  -0.000000   0.000000
    22  H   -0.000000   0.000004   0.000003  -0.000159  -0.000002  -0.000000
    23  H    0.000000  -0.000096  -0.000209  -0.013523   0.005188   0.000076
               7          8          9         10         11         12
     1  O    0.000017  -0.000804  -0.000005  -0.048661  -0.000799   0.000017
     2  S    0.003631  -0.058517  -0.045685  -0.004959  -0.058484   0.003629
     3  C   -0.028093   0.476785  -0.025402  -0.030260   0.005713  -0.000161
     4  C   -0.033558  -0.009272   0.313478  -0.025407   0.009432   0.000289
     5  C   -0.031719  -0.048890  -0.061584   0.012799  -0.000160   0.000012
     6  C    0.528298  -0.017268   0.007700  -0.000177   0.000002   0.000000
     7  C    4.873042   0.513084   0.000289  -0.000162   0.000000  -0.000000
     8  C    0.513084   4.960344   0.009433   0.005715  -0.000008   0.000000
     9  C    0.000289   0.009433   4.832372   0.438197  -0.009288  -0.033549
    10  C   -0.000162   0.005715   0.438197   5.596470   0.476747  -0.028102
    11  C    0.000000  -0.000008  -0.009288   0.476747   4.960429   0.513093
    12  C   -0.000000   0.000000  -0.033549  -0.028102   0.513093   4.873008
    13  C    0.000000   0.000002   0.000395  -0.042283  -0.017273   0.528311
    14  C    0.000012  -0.000160   0.500696  -0.086441  -0.048885  -0.031724
    15  O    0.000012  -0.000859  -0.000110  -0.048665  -0.000860   0.000011
    16  H    0.004042   0.000216  -0.013526  -0.000210   0.000003   0.000001
    17  H   -0.038329   0.004225  -0.000159   0.000003  -0.000000  -0.000000
    18  H    0.364161  -0.039970   0.000001  -0.000000  -0.000000   0.000000
    19  H   -0.036438   0.363014  -0.000218   0.000134   0.000001  -0.000000
    20  H   -0.000000   0.000001   0.002410  -0.034777   0.363009  -0.036427
    21  H    0.000000  -0.000000   0.000667   0.004303  -0.039966   0.364167
    22  H   -0.000000  -0.000000   0.002532   0.000697   0.004227  -0.038340
    23  H    0.000001   0.000003  -0.033883   0.007219   0.000216   0.004043
              13         14         15         16         17         18
     1  O   -0.000002  -0.000024  -0.043579   0.000000  -0.000000   0.000000
     2  S   -0.001487   0.004366   0.384630  -0.000096   0.000004   0.000008
     3  C   -0.000178   0.012795  -0.048698   0.007220   0.000697   0.004304
     4  C    0.007698  -0.061534  -0.000108  -0.033880   0.002531   0.000667
     5  C    0.000152  -0.019279  -0.000025   0.349484  -0.036159   0.004113
     6  C   -0.000002   0.000151  -0.000002  -0.044761   0.360478  -0.038624
     7  C    0.000000   0.000012   0.000012   0.004042  -0.038329   0.364161
     8  C    0.000002  -0.000160  -0.000859   0.000216   0.004225  -0.039970
     9  C    0.000395   0.500696  -0.000110  -0.013526  -0.000159   0.000001
    10  C   -0.042283  -0.086441  -0.048665  -0.000210   0.000003  -0.000000
    11  C   -0.017273  -0.048885  -0.000860   0.000003  -0.000000  -0.000000
    12  C    0.528311  -0.031724   0.000011   0.000001  -0.000000   0.000000
    13  C    4.875667   0.498342  -0.000002   0.000076  -0.000000   0.000000
    14  C    0.498342   5.074219  -0.000025   0.005194  -0.000002  -0.000000
    15  O   -0.000002  -0.000025   8.295098   0.000000  -0.000000   0.000000
    16  H    0.000076   0.005194   0.000000   0.580316  -0.004335  -0.000147
    17  H   -0.000000  -0.000002  -0.000000  -0.004335   0.562948  -0.004491
    18  H    0.000000  -0.000000   0.000000  -0.000147  -0.004491   0.558607
    19  H   -0.000000   0.000001   0.000326   0.000014  -0.000136  -0.004209
    20  H    0.003510   0.000738   0.000322   0.000000   0.000000  -0.000000
    21  H   -0.038635   0.004116   0.000000  -0.000000  -0.000000  -0.000000
    22  H    0.360485  -0.036161  -0.000000   0.000001   0.000000  -0.000000
    23  H   -0.044759   0.349505   0.000000   0.003300   0.000001  -0.000000
              19         20         21         22         23
     1  O    0.000375   0.000377   0.000000  -0.000000   0.000000
     2  S   -0.000699  -0.000701   0.000008   0.000004  -0.000096
     3  C   -0.034793   0.000134  -0.000000   0.000003  -0.000209
     4  C    0.002412  -0.000218   0.000001  -0.000159  -0.013523
     5  C    0.000737   0.000001  -0.000000  -0.000002   0.005188
     6  C    0.003511  -0.000000   0.000000  -0.000000   0.000076
     7  C   -0.036438  -0.000000   0.000000  -0.000000   0.000001
     8  C    0.363014   0.000001  -0.000000  -0.000000   0.000003
     9  C   -0.000218   0.002410   0.000667   0.002532  -0.033883
    10  C    0.000134  -0.034777   0.004303   0.000697   0.007219
    11  C    0.000001   0.363009  -0.039966   0.004227   0.000216
    12  C   -0.000000  -0.036427   0.364167  -0.038340   0.004043
    13  C   -0.000000   0.003510  -0.038635   0.360485  -0.044759
    14  C    0.000001   0.000738   0.004116  -0.036161   0.349505
    15  O    0.000326   0.000322   0.000000  -0.000000   0.000000
    16  H    0.000014   0.000000  -0.000000   0.000001   0.003300
    17  H   -0.000136   0.000000  -0.000000   0.000000   0.000001
    18  H   -0.004209  -0.000000  -0.000000  -0.000000  -0.000000
    19  H    0.519784   0.000000  -0.000000   0.000000   0.000000
    20  H    0.000000   0.519762  -0.004205  -0.000136   0.000014
    21  H   -0.000000  -0.004205   0.558606  -0.004495  -0.000147
    22  H    0.000000  -0.000136  -0.004495   0.562956  -0.004334
    23  H    0.000000   0.000014  -0.000147  -0.004334   0.580273
 Mulliken charges:
               1
     1  O   -0.537860
     2  S    1.088663
     3  C   -0.192141
     4  C    0.115219
     5  C   -0.165893
     6  C   -0.130043
     7  C   -0.118289
     8  C   -0.157073
     9  C    0.115239
    10  C   -0.192180
    11  C   -0.157148
    12  C   -0.118279
    13  C   -0.130017
    14  C   -0.165901
    15  O   -0.537467
    16  H    0.147088
    17  H    0.152722
    18  H    0.155578
    19  H    0.186182
    20  H    0.186188
    21  H    0.155580
    22  H    0.152720
    23  H    0.147113
 Sum of Mulliken charges =  -0.00000
 Mulliken charges with hydrogens summed into heavy atoms:
               1
     1  O   -0.537860
     2  S    1.088663
     3  C   -0.192141
     4  C    0.115219
     5  C   -0.018806
     6  C    0.022679
     7  C    0.037289
     8  C    0.029110
     9  C    0.115239
    10  C   -0.192180
    11  C    0.029041
    12  C    0.037301
    13  C    0.022703
    14  C   -0.018788
    15  O   -0.537467
 Electronic spatial extent (au):  <R**2>=           3066.3040
 Charge=             -0.0000 electrons
 Dipole moment (field-independent basis, Debye):
    X=             -0.0028    Y=             -7.0357    Z=             -0.0570  Tot=              7.0359
 Quadrupole moment (field-independent basis, Debye-Ang):
   XX=            -66.0071   YY=            -96.4664   ZZ=           -102.5005
   XY=             -0.0056   XZ=              0.0056   YZ=             -0.1462
 Traceless Quadrupole moment (field-independent basis, Debye-Ang):
   XX=             22.3176   YY=             -8.1417   ZZ=            -14.1758
   XY=             -0.0056   XZ=              0.0056   YZ=             -0.1462
 Octapole moment (field-independent basis, Debye-Ang**2):
  XXX=             -0.0094  YYY=            -51.9886  ZZZ=             -0.0871  XYY=             -0.0175
  XXY=             -1.5615  XXZ=             -1.0388  XZZ=             -0.0013  YZZ=             -4.5415
  YYZ=              0.0963  XYZ=              0.0361
 Hexadecapole moment (field-independent basis, Debye-Ang**3):
 XXXX=          -2043.5831 YYYY=          -1416.0387 ZZZZ=           -227.4878 XXXY=              0.0269
 XXXZ=              0.0614 YYYX=             -0.0369 YYYZ=             -0.7605 ZZZX=              0.0001
 ZZZY=             -0.2691 XXYY=           -555.3921 XXZZ=           -492.4982 YYZZ=           -317.1780
 XXYZ=             -0.0631 YYXZ=             -0.0285 ZZXY=              0.0003
 N-N= 1.052820172814D+03 E-N=-4.473196235945D+03  KE= 1.002623476971D+03
 No NMR shielding tensors so no spin-rotation constants.
 Leave Link  601 at Mon Oct 14 01:28:16 2019, MaxMem= 10737418240 cpu:               2.6 elap:               0.1
 (Enter /apps/cent7/gaussian/g16-A.03/g16-haswell/g16/l701.exe)
 ... and contract with generalized density number  0.
 Compute integral first derivatives.
 Leave Link  701 at Mon Oct 14 01:28:16 2019, MaxMem= 10737418240 cpu:               3.0 elap:               0.2
 (Enter /apps/cent7/gaussian/g16-A.03/g16-haswell/g16/l702.exe)
 L702 exits ... SP integral derivatives will be done elsewhere.
 Leave Link  702 at Mon Oct 14 01:28:16 2019, MaxMem= 10737418240 cpu:               0.4 elap:               0.0
 (Enter /apps/cent7/gaussian/g16-A.03/g16-haswell/g16/l703.exe)
 Integral derivatives from FoFJK, PRISM(SPDF).
 Compute integral first derivatives, UseDBF=F ICtDFT=           0.
 Calling FoFJK, ICntrl=      2127 FMM=F ISym2X=0 I1Cent= 0 IOpClX= 0 NMat=1 NMatS=1 NMatT=0.
 FoFJK:  IHMeth= 1 ICntrl=    2127 DoSepK=F KAlg= 0 I1Cent=           0 FoldK=F
 IRaf=         0 NMat=       1 IRICut=       1 DoRegI=T DoRafI=F ISym2E= 0 IDoP0=0 IntGTp=1.
 FoFCou: FMM=F IPFlag=           0 FMFlag=      100000 FMFlg1=         800
         NFxFlg=           0 DoJE=F BraDBF=F KetDBF=F FulRan=T
         wScrn=  0.000000 ICntrl=      2127 IOpCl=  0 I1Cent=           0 NGrid=           0
         NMat0=    1 NMatS0=      1 NMatT0=    0 NMatD0=    1 NMtDS0=    0 NMtDT0=    0
 Symmetry not used in FoFCou.
 Leave Link  703 at Mon Oct 14 01:28:18 2019, MaxMem= 10737418240 cpu:              43.1 elap:               1.8
 (Enter /apps/cent7/gaussian/g16-A.03/g16-haswell/g16/l716.exe)
 Dipole        =-1.10346830D-03-2.76805573D+00-2.24171046D-02
 ***** Axes restored to original set *****
 -------------------------------------------------------------------
 Center     Atomic                   Forces (Hartrees/Bohr)
 Number     Number              X              Y              Z
 -------------------------------------------------------------------
      1        8          -0.008133139    0.059147482    0.068983339
      2       16           0.018173923   -0.146238351    0.001774094
      3        6          -0.003361967    0.016621301   -0.000583333
      4        6          -0.039625622    0.005063877   -0.000607297
      5        6          -0.004663358   -0.006387166    0.000021215
      6        6           0.010211776   -0.006698457    0.000324457
      7        6           0.008024974    0.002413607    0.000295490
      8        6           0.006541686    0.003023518    0.000321304
      9        6           0.037054878    0.014934079    0.000349198
     10        6          -0.000696318    0.016711309   -0.000563952
     11        6          -0.007091088    0.001387073    0.000200217
     12        6          -0.008430278    0.000288179    0.000076301
     13        6          -0.008352325   -0.009033064    0.000126208
     14        6           0.006186847   -0.005090833    0.000084878
     15        8          -0.006332545    0.057620624   -0.070525421
     16        1          -0.001545400   -0.002745836   -0.000195873
     17        1           0.002367868   -0.002000815    0.000006961
     18        1           0.003247801    0.000257624    0.000138238
     19        1           0.001458904    0.003250104   -0.000028453
     20        1          -0.002227217    0.002808472   -0.000051421
     21        1          -0.003177271   -0.000577099    0.000069202
     22        1          -0.001783062   -0.002464869   -0.000058910
     23        1           0.002150935   -0.002290760   -0.000156441
 -------------------------------------------------------------------
 Cartesian Forces:  Max     0.146238351 RMS     0.024933334
 Leave Link  716 at Mon Oct 14 01:28:18 2019, MaxMem= 10737418240 cpu:               1.3 elap:               0.1
 (Enter /apps/cent7/gaussian/g16-A.03/g16-haswell/g16/l103.exe)

 GradGradGradGradGradGradGradGradGradGradGradGradGradGradGradGradGradGrad
 Berny optimization.
 FormGI is forming the generalized inverse of G from B-inverse, IUseBI=4.
 Internal  Forces:  Max     0.090726302 RMS     0.012461983
 Search for a local minimum.
 Step number   1 out of a maximum of  138
 All quantities printed in internal units (Hartrees-Bohrs-Radians)
 RMS Force = .12462D-01 SwitMx=.10000D-02 MixMth= 1
 Mixed Optimization -- RFO/linear search
 Second derivative matrix not updated -- first step.
 ITU=  0
     Eigenvalues ---    0.01065   0.01405   0.01534   0.01740   0.01795
     Eigenvalues ---    0.01872   0.01931   0.01932   0.01944   0.01944
     Eigenvalues ---    0.01944   0.01944   0.01962   0.01962   0.01989
     Eigenvalues ---    0.01991   0.02018   0.02020   0.08641   0.11301
     Eigenvalues ---    0.11591   0.12468   0.16000   0.16000   0.16000
     Eigenvalues ---    0.16000   0.16000   0.16000   0.16000   0.16000
     Eigenvalues ---    0.22000   0.22000   0.22595   0.22608   0.24501
     Eigenvalues ---    0.24533   0.24998   0.24998   0.28155   0.28188
     Eigenvalues ---    0.34804   0.34805   0.34806   0.34806   0.34812
     Eigenvalues ---    0.34812   0.34814   0.34815   0.37909   0.38311
     Eigenvalues ---    0.39957   0.40422   0.40432   0.42855   0.43544
     Eigenvalues ---    0.43743   0.43751   0.44072   0.44084   0.44807
     Eigenvalues ---    0.44820   0.50651   0.50732
 RFO step:  Lambda=-4.20783288D-02 EMin= 1.06490560D-02
 Linear search not attempted -- first point.
 Iteration  1 RMS(Cart)=  0.04203001 RMS(Int)=  0.00074168
 Iteration  2 RMS(Cart)=  0.00099369 RMS(Int)=  0.00023399
 Iteration  3 RMS(Cart)=  0.00000083 RMS(Int)=  0.00023399
 ITry= 1 IFail=0 DXMaxC= 1.48D-01 DCOld= 1.00D+10 DXMaxT= 3.00D-01 DXLimC= 3.00D+00 Rises=F
 Variable       Old X    -DE/DX   Delta X   Delta X   Delta X     New X
                                 (Linear)    (Quad)   (Total)
    R1        3.02834  -0.09065   0.00000  -0.16500  -0.16500   2.86334
    R2        3.34631   0.00587   0.00000   0.02030   0.02058   3.36689
    R3        3.34671   0.00580   0.00000   0.02010   0.02039   3.36710
    R4        3.02914  -0.09073   0.00000  -0.16538  -0.16538   2.86376
    R5        2.66763  -0.00352   0.00000  -0.00755  -0.00770   2.65992
    R6        2.65055  -0.01618   0.00000  -0.03237  -0.03234   2.61821
    R7        2.66968  -0.01194   0.00000  -0.02465  -0.02467   2.64500
    R8        2.71620   0.02112   0.00000   0.04545   0.04506   2.76127
    R9        2.66593  -0.01469   0.00000  -0.03094  -0.03097   2.63496
   R10        2.05993  -0.00306   0.00000  -0.00785  -0.00785   2.05208
   R11        2.66658  -0.00990   0.00000  -0.02135  -0.02135   2.64523
   R12        2.05994  -0.00308   0.00000  -0.00790  -0.00790   2.05203
   R13        2.66111  -0.01120   0.00000  -0.02345  -0.02343   2.63768
   R14        2.05991  -0.00322   0.00000  -0.00826  -0.00826   2.05165
   R15        2.05977  -0.00352   0.00000  -0.00903  -0.00903   2.05074
   R16        2.66713  -0.00337   0.00000  -0.00720  -0.00735   2.65978
   R17        2.66983  -0.01199   0.00000  -0.02475  -0.02477   2.64506
   R18        2.65072  -0.01624   0.00000  -0.03250  -0.03248   2.61824
   R19        2.66127  -0.01128   0.00000  -0.02362  -0.02360   2.63767
   R20        2.05982  -0.00354   0.00000  -0.00908  -0.00908   2.05073
   R21        2.66651  -0.00985   0.00000  -0.02125  -0.02125   2.64526
   R22        2.05980  -0.00318   0.00000  -0.00816  -0.00816   2.05164
   R23        2.66603  -0.01474   0.00000  -0.03105  -0.03107   2.63496
   R24        2.05977  -0.00302   0.00000  -0.00775  -0.00775   2.05202
   R25        2.05991  -0.00306   0.00000  -0.00784  -0.00784   2.05206
    A1        1.95207   0.00014   0.00000  -0.00886  -0.00994   1.94213
    A2        1.95244   0.00010   0.00000  -0.00912  -0.01019   1.94226
    A3        1.96451   0.00929   0.00000   0.07112   0.07130   2.03581
    A4        1.67636  -0.01272   0.00000  -0.05443  -0.05451   1.62185
    A5        1.94998  -0.00000   0.00000  -0.00929  -0.01034   1.93964
    A6        1.95029  -0.00006   0.00000  -0.00957  -0.01061   1.93969
    A7        1.86605   0.01423   0.00000   0.05433   0.05465   1.92070
    A8        2.26800  -0.01330   0.00000  -0.05027  -0.05046   2.21754
    A9        2.14911  -0.00093   0.00000  -0.00404  -0.00418   2.14493
   A10        2.05752   0.00191   0.00000   0.00857   0.00871   2.06623
   A11        2.00802  -0.00784   0.00000  -0.02704  -0.02732   1.98070
   A12        2.21761   0.00593   0.00000   0.01847   0.01862   2.23623
   A13        2.09569  -0.00311   0.00000  -0.01112  -0.01116   2.08452
   A14        2.09497   0.00232   0.00000   0.00935   0.00937   2.10434
   A15        2.09253   0.00079   0.00000   0.00177   0.00179   2.09432
   A16        2.10377   0.00201   0.00000   0.00643   0.00640   2.11017
   A17        2.08944  -0.00134   0.00000  -0.00486  -0.00485   2.08459
   A18        2.08998  -0.00067   0.00000  -0.00157  -0.00156   2.08842
   A19        2.10105   0.00126   0.00000   0.00364   0.00366   2.10472
   A20        2.09291  -0.00011   0.00000   0.00076   0.00075   2.09366
   A21        2.08922  -0.00115   0.00000  -0.00440  -0.00442   2.08480
   A22        2.05922  -0.00115   0.00000  -0.00347  -0.00342   2.05580
   A23        2.10869   0.00003   0.00000  -0.00096  -0.00098   2.10770
   A24        2.11528   0.00112   0.00000   0.00443   0.00440   2.11969
   A25        2.00831  -0.00789   0.00000  -0.02717  -0.02746   1.98085
   A26        2.21723   0.00600   0.00000   0.01869   0.01884   2.23607
   A27        2.05762   0.00188   0.00000   0.00849   0.00862   2.06624
   A28        1.86597   0.01422   0.00000   0.05432   0.05465   1.92062
   A29        2.26800  -0.01328   0.00000  -0.05025  -0.05044   2.21755
   A30        2.14920  -0.00093   0.00000  -0.00406  -0.00420   2.14500
   A31        2.05910  -0.00114   0.00000  -0.00343  -0.00338   2.05572
   A32        2.10878   0.00002   0.00000  -0.00100  -0.00103   2.10775
   A33        2.11530   0.00112   0.00000   0.00443   0.00441   2.11971
   A34        2.10106   0.00127   0.00000   0.00365   0.00367   2.10473
   A35        2.08942  -0.00119   0.00000  -0.00455  -0.00456   2.08486
   A36        2.09271  -0.00009   0.00000   0.00090   0.00089   2.09359
   A37        2.10379   0.00202   0.00000   0.00643   0.00641   2.11020
   A38        2.08988  -0.00067   0.00000  -0.00152  -0.00150   2.08838
   A39        2.08952  -0.00135   0.00000  -0.00492  -0.00491   2.08461
   A40        2.09557  -0.00310   0.00000  -0.01107  -0.01112   2.08446
   A41        2.09523   0.00229   0.00000   0.00919   0.00921   2.10444
   A42        2.09238   0.00081   0.00000   0.00189   0.00191   2.09429
    D1       -2.04291   0.00633   0.00000   0.04124   0.04079  -2.00211
    D2        1.09138   0.00643   0.00000   0.04289   0.04243   1.13380
    D3       -0.00983   0.00011   0.00000   0.00093   0.00089  -0.00894
    D4        3.12445   0.00021   0.00000   0.00258   0.00252   3.12698
    D5        2.02017  -0.00627   0.00000  -0.03977  -0.03932   1.98085
    D6       -1.12874  -0.00617   0.00000  -0.03813  -0.03769  -1.16642
    D7        2.04303  -0.00630   0.00000  -0.04113  -0.04068   2.00235
    D8       -1.09163  -0.00640   0.00000  -0.04279  -0.04232  -1.13395
    D9        0.01025  -0.00011   0.00000  -0.00100  -0.00097   0.00928
   D10       -3.12441  -0.00021   0.00000  -0.00266  -0.00261  -3.12701
   D11       -2.01949   0.00624   0.00000   0.03949   0.03903  -1.98046
   D12        1.12903   0.00614   0.00000   0.03784   0.03740   1.16643
   D13        3.14076  -0.00001   0.00000   0.00031   0.00034   3.14110
   D14        0.00682  -0.00005   0.00000  -0.00046  -0.00045   0.00637
   D15        0.00586  -0.00003   0.00000  -0.00093  -0.00095   0.00491
   D16       -3.12808  -0.00007   0.00000  -0.00171  -0.00174  -3.12982
   D17       -3.13569  -0.00019   0.00000  -0.00225  -0.00220  -3.13789
   D18        0.00580  -0.00013   0.00000  -0.00166  -0.00162   0.00418
   D19       -0.00245  -0.00003   0.00000  -0.00021  -0.00020  -0.00265
   D20        3.13904   0.00003   0.00000   0.00038   0.00038   3.13942
   D21       -0.00482   0.00007   0.00000   0.00133   0.00134  -0.00348
   D22        3.13664   0.00010   0.00000   0.00144   0.00143   3.13808
   D23        3.12808   0.00005   0.00000   0.00198   0.00203   3.13011
   D24       -0.01364   0.00008   0.00000   0.00209   0.00212  -0.01152
   D25        0.00082  -0.00001   0.00000  -0.00019  -0.00019   0.00063
   D26        3.13451   0.00001   0.00000   0.00053   0.00055   3.13506
   D27       -3.13230  -0.00004   0.00000  -0.00097  -0.00099  -3.13329
   D28        0.00139  -0.00002   0.00000  -0.00025  -0.00025   0.00114
   D29        0.00061  -0.00004   0.00000  -0.00057  -0.00057   0.00004
   D30       -3.14085  -0.00000   0.00000  -0.00017  -0.00017  -3.14103
   D31       -3.14085  -0.00007   0.00000  -0.00068  -0.00066  -3.14151
   D32        0.00087  -0.00003   0.00000  -0.00028  -0.00027   0.00060
   D33        0.00293  -0.00003   0.00000  -0.00064  -0.00065   0.00227
   D34       -3.13869  -0.00001   0.00000  -0.00025  -0.00025  -3.13894
   D35       -3.13880  -0.00006   0.00000  -0.00105  -0.00105  -3.13985
   D36        0.00277  -0.00005   0.00000  -0.00065  -0.00065   0.00213
   D37       -0.00202   0.00007   0.00000   0.00104   0.00105  -0.00098
   D38        3.13968   0.00001   0.00000   0.00045   0.00046   3.14014
   D39        3.13959   0.00005   0.00000   0.00065   0.00064   3.14024
   D40       -0.00189  -0.00001   0.00000   0.00005   0.00006  -0.00183
   D41       -0.00801   0.00006   0.00000   0.00070   0.00069  -0.00731
   D42        3.12724   0.00009   0.00000   0.00197   0.00201   3.12924
   D43        3.14072   0.00002   0.00000  -0.00002  -0.00004   3.14068
   D44       -0.00722   0.00005   0.00000   0.00125   0.00127  -0.00594
   D45       -3.12777  -0.00006   0.00000  -0.00211  -0.00216  -3.12994
   D46        0.01379  -0.00009   0.00000  -0.00215  -0.00218   0.01161
   D47        0.00572  -0.00008   0.00000  -0.00152  -0.00153   0.00419
   D48       -3.13590  -0.00010   0.00000  -0.00155  -0.00155  -3.13745
   D49        3.13708   0.00017   0.00000   0.00197   0.00191   3.13899
   D50       -0.00453   0.00012   0.00000   0.00144   0.00141  -0.00313
   D51        0.00341   0.00001   0.00000  -0.00007  -0.00008   0.00333
   D52       -3.13820  -0.00004   0.00000  -0.00060  -0.00059  -3.13879
   D53        0.00190  -0.00006   0.00000  -0.00093  -0.00094   0.00097
   D54       -3.13962  -0.00005   0.00000  -0.00060  -0.00060  -3.14021
   D55       -3.13967  -0.00001   0.00000  -0.00041  -0.00042  -3.14009
   D56        0.00200   0.00000   0.00000  -0.00008  -0.00009   0.00191
   D57       -0.00321   0.00003   0.00000   0.00065   0.00066  -0.00255
   D58        3.13820   0.00007   0.00000   0.00113   0.00113   3.13933
   D59        3.13831   0.00001   0.00000   0.00032   0.00032   3.13863
   D60       -0.00346   0.00005   0.00000   0.00079   0.00079  -0.00267
   D61       -0.00073   0.00004   0.00000   0.00060   0.00060  -0.00012
   D62        3.14090   0.00006   0.00000   0.00064   0.00062   3.14152
   D63        3.14104  -0.00000   0.00000   0.00013   0.00013   3.14118
   D64       -0.00052   0.00002   0.00000   0.00016   0.00015  -0.00037
         Item               Value     Threshold  Converged?
 Maximum Force            0.090726     0.000450     NO 
 RMS     Force            0.012462     0.000300     NO 
 Maximum Displacement     0.148246     0.001800     NO 
 RMS     Displacement     0.042218     0.001200     NO 
 Predicted change in Energy=-2.312829D-02
 Lowest energy point so far.  Saving SCF results.
 GradGradGradGradGradGradGradGradGradGradGradGradGradGradGradGradGradGrad

 Leave Link  103 at Mon Oct 14 01:28:19 2019, MaxMem= 10737418240 cpu:               1.5 elap:               0.1
 (Enter /apps/cent7/gaussian/g16-A.03/g16-haswell/g16/l202.exe)
                          Input orientation:                          
 ---------------------------------------------------------------------
 Center     Atomic      Atomic             Coordinates (Angstroms)
 Number     Number       Type             X           Y           Z
 ---------------------------------------------------------------------
      1          8           0       -0.967287   -2.148952   -1.280186
      2         16           0       -1.082127   -1.346764    0.000117
      3          6           0       -2.515577   -0.288969   -0.026120
      4          6           0       -2.118866    1.061527   -0.019849
      5          6           0       -3.112573    2.047061   -0.038794
      6          6           0       -4.453901    1.667234   -0.067325
      7          6           0       -4.818347    0.315748   -0.077187
      8          6           0       -3.843526   -0.683014   -0.055878
      9          6           0       -0.669017    1.242481   -0.002609
     10          6           0        0.047600    0.031093    0.003552
     11          6           0        1.432004   -0.024327    0.005235
     12          6           0        2.131518    1.183529    0.004667
     13          6           0        1.445814    2.403891    0.003634
     14          6           0        0.051984    2.442199    0.000092
     15          8           0       -1.000199   -2.123810    1.298591
     16          1           0       -2.846499    3.099846   -0.031408
     17          1           0       -5.224876    2.431775   -0.082558
     18          1           0       -5.867424    0.037290   -0.101964
     19          1           0       -4.110387   -1.734878   -0.061821
     20          1           0        1.949365   -0.978263    0.007425
     21          1           0        3.217137    1.171722    0.004646
     22          1           0        2.005308    3.334541    0.005336
     23          1           0       -0.464825    3.397237   -0.000596
 ---------------------------------------------------------------------
                    Distance matrix (angstroms):
                    1          2          3          4          5
     1  O    0.000000
     2  S    1.515213   0.000000
     3  C    2.725696   1.781684   0.000000
     4  C    3.636174   2.622040   1.407572   0.000000
     5  C    4.873380   3.955032   2.411141   1.399675   0.000000
     6  C    5.309500   4.523007   2.754184   2.412783   1.394361
     7  C    4.727856   4.090142   2.381395   2.801191   2.430757
     8  C    3.452631   2.840603   1.385499   2.453401   2.826286
     9  C    3.636342   2.621994   2.399098   1.461199   2.572864
    10  C    2.725908   1.781793   2.583253   2.399150   3.748682
    11  C    3.452960   2.840725   3.956566   3.713272   4.994574
    12  C    4.728517   4.090222   4.874904   4.252206   5.314892
    13  C    5.310332   4.523042   4.790093   3.809125   4.572529
    14  C    4.874083   3.955053   3.748644   2.572788   3.189368
    15  O    2.579110   1.515437   2.723577   3.624373   4.862807
    16  H    5.713210   4.783967   3.404938   2.164330   1.085913
    17  H    6.367451   5.607723   3.840043   3.395410   2.147496
    18  H    5.493560   4.982479   3.368542   3.886836   3.410626
    19  H    3.396314   3.053658   2.152986   3.433336   3.911422
    20  H    3.396368   3.053815   4.517959   4.551043   5.897283
    21  H    5.494276   4.982615   5.915958   5.337197   6.390097
    22  H    6.368483   5.607753   5.793894   4.709144   5.277524
    23  H    5.714021   4.783995   4.218335   2.862126   2.972374
                    6          7          8          9         10
     6  C    0.000000
     7  C    1.399797   0.000000
     8  C    2.428241   1.395799   0.000000
     9  C    3.809193   4.252215   3.713203   0.000000
    10  C    4.790146   4.874935   3.956558   1.407494   0.000000
    11  C    6.124583   6.260139   5.316844   2.453396   1.385514
    12  C    6.603552   7.004311   6.260097   2.801165   2.381349
    13  C    5.945951   6.603528   6.124512   2.412763   2.754119
    14  C    4.572539   5.314874   4.994505   1.399705   2.411112
    15  O    5.307146   4.735237   3.463378   3.624185   2.723714
[...]
 38,-0.01461903,-0.00030640,0.02944846,0.03250070,0.00027992,0.04111114
 ,-0.12986502,0.00067812,-0.03467440,0.72572729,0.00074376,0.00131669,0
 .00012167,-0.00012533,0.00005907,0.00564571,-0.00003649,0.00005440,0.0
 0147183,-0.00022681,-0.00038697,0.00228939,0.00000498,-0.00002855,0.00
 027315,0.00001820,0.00000959,-0.00018294,0.00001246,-0.00002612,0.0000
 3880,-0.00004450,-0.00001651,0.00041399,-0.00099170,-0.00010729,-0.062
 34380,0.00053352,-0.00011808,0.00700001,-0.00045890,-0.00029040,-0.005
 66839,-0.00045267,0.00085745,0.00639670,-0.00342566,-0.00012351,-0.058
 40880,0.00668907,-0.00197493,0.12963475,0.01962449,0.00011833,0.003344
 66,-0.07872653,0.01257015,-0.02300423,0.01089132,0.01296177,-0.0143283
 4,-0.00693421,-0.00043620,-0.00110462,0.00063032,0.00159400,0.00103277
 ,-0.00008416,0.00078231,-0.00012798,0.00110438,0.00027925,0.00069472,0
 .00136039,-0.00034248,0.00024366,-0.00637409,-0.00129633,0.00058645,0.
 01362655,-0.00915319,0.01027740,0.00085854,0.00121451,-0.00021247,0.00
 129476,0.00006896,-0.00032967,0.00010762,-0.00073890,0.00010237,0.0011
 1983,-0.00129415,-0.00071358,0.04145933,0.00067261,0.01652220,-0.02362
 471,0.01232225,-0.19669413,0.21799130,0.00229936,-0.00142715,0.0158451
 1,0.00135244,0.00049287,0.00141657,0.00050741,-0.00014325,-0.00109071,
 0.00003313,-0.00005058,0.00009597,0.00087319,-0.00006207,-0.00130280,-
 0.00076815,-0.00279007,-0.00002829,-0.00311650,-0.00018115,0.00157402,
 0.00112986,-0.00437905,0.01890140,0.00169326,-0.00228023,-0.00005540,-
 0.00049448,-0.00026211,-0.00144726,0.00000497,-0.00024712,0.00012410,-
 0.00016311,-0.00059520,-0.00131749,-0.01643537,0.19296048,-0.00252903,
 0.02341444,-0.01380963,-0.02037977,0.19698181,-0.43505039,0.00318972,0
 .00179237,0.00019948,-0.00409323,-0.00031507,-0.00070133,0.00064795,0.
 00078325,0.00012998,-0.00007397,-0.00012320,-0.00006893,-0.00091000,-0
 .00019903,0.00031014,-0.00015537,0.00220391,0.00029187,0.00390450,0.00
 067268,-0.00058682,-0.00321808,0.00072851,0.00041266,-0.00037370,0.002
 19551,0.00028402,0.00095247,0.00003092,0.00032015,0.00010619,-0.000119
 00,-0.00006413,-0.00079825,0.00056793,0.00009230,0.02378830,-0.2292043
 1,0.44951959,-0.00049179,0.00011041,0.00026014,0.00151108,0.00091127,0
 .00000892,-0.00315994,0.00293116,-0.00013057,0.01080144,0.02268000,0.0
 0004395,-0.07662012,-0.06418303,-0.00034067,-0.00257636,-0.03153960,0.
 00001731,-0.00554117,-0.00017665,-0.00015795,-0.00102258,0.00041235,-0
 .00000792,0.00061738,-0.00083190,0.00005029,0.00005431,0.00005315,0.00
 000260,0.00007202,-0.00015552,-0.00000096,0.00006823,-0.00000790,0.000
 00130,-0.00008526,-0.00029151,0.00000177,-0.00014257,0.00065310,-0.000
 00114,-0.00049052,0.00010941,-0.00027241,0.07710505,0.00053996,-0.0001
 9186,-0.00026325,-0.00207369,-0.00018547,-0.00002429,0.00396872,-0.001
 17947,0.00007017,-0.00648250,-0.01792634,-0.00002756,-0.06569026,-0.32
 359468,-0.00006532,0.00011091,-0.00433816,0.00001942,-0.00137430,0.001
 63676,-0.00000250,0.00043722,0.00039861,0.00000329,-0.00140348,0.00041
 223,-0.00002630,0.00040768,-0.00010724,0.00000484,-0.00017140,0.000091
 45,-0.00000183,-0.00002989,0.00007603,-0.00000064,0.00013146,0.0004143
 9,0.00000002,0.00017216,-0.00048789,0.00000264,0.00053421,-0.00018986,
 0.00027786,0.07107761,0.34376413,-0.00024106,0.00006488,-0.00002411,0.
 00001491,0.00001317,0.00061805,-0.00013346,0.00005429,0.00673533,0.000
 11904,0.00033827,0.00245320,-0.00033322,-0.00004826,-0.03557715,-0.000
 06734,-0.00037388,0.00265028,-0.00015485,0.00001331,0.00723007,-0.0000
 0628,0.00000244,-0.00047496,0.00005030,-0.00001985,-0.00327002,0.00000
 170,0.00000062,-0.00015804,-0.00000079,-0.00000176,0.00017594,0.000001
 31,-0.00000027,-0.00003585,0.00000071,-0.00000511,-0.00016242,-0.00000
 005,0.00000865,-0.00019273,0.00022737,-0.00006081,-0.00002579,0.000469
 30,0.00005003,0.02430405,0.00001312,0.00012256,0.00009575,-0.00004421,
 -0.00027758,0.00001119,-0.00025295,-0.00100882,0.00000341,-0.00463468,
 -0.00311098,-0.00013967,-0.01710511,0.02313428,-0.00030558,-0.20282710
 ,0.14042676,-0.00241902,0.00987275,-0.00750410,0.00010538,0.00044167,-
 0.00219088,-0.00007498,-0.00002036,0.00141499,-0.00000950,-0.00048069,
 -0.00018808,-0.00000290,0.00000997,0.00016509,0.00000025,-0.00001704,-
 0.00001365,0.00000027,0.00000224,-0.00003296,0.00000015,-0.00004445,0.
 00012278,-0.00000066,0.00001842,0.00011616,-0.00009453,0.00109316,-0.0
 0017982,0.00006221,0.21287523,0.00008920,-0.00002124,-0.00003175,-0.00
 022369,0.00009969,-0.00000553,-0.00121901,-0.00028872,-0.00001523,-0.0
 0237627,0.00040521,-0.00001136,-0.00804899,0.01002507,-0.00011914,0.14
 046370,-0.19903819,0.00215835,0.02387857,-0.01643346,0.00034646,-0.002
 82861,-0.00488638,-0.00000560,-0.00029868,0.00048017,-0.00000400,-0.00
 009201,-0.00010406,-0.00000125,0.00002299,0.00011283,-0.00000014,0.000
 03058,-0.00003261,0.00000034,-0.00002494,-0.00001760,-0.00000024,0.000
 07481,0.00004363,0.00000076,0.00008770,-0.00001990,0.00003394,0.000385
 04,0.00088558,-0.00000751,-0.15086902,0.20859645,0.00011697,-0.0002271
 7,-0.00006187,0.00001077,-0.00000596,-0.00086532,0.00000410,-0.0000127
 7,-0.00033326,-0.00014256,-0.00002009,0.00733794,-0.00022425,0.0002687
 4,0.00267808,-0.00241925,0.00215735,-0.03696563,0.00002516,-0.00004414
 ,0.00293643,-0.00007392,0.00000276,0.00691429,-0.00000460,0.00001770,0
 .00041398,-0.00000357,-0.00000262,-0.00019227,0.00000054,0.00000166,-0
 .00004482,0.00000015,-0.00000015,-0.00003620,0.00000012,-0.00000037,-0
 .00000119,-0.00000054,0.00000143,-0.00001384,-0.00011573,0.00022996,-0
 .00006911,0.00006088,-0.00001466,-0.00389347,0.00270804,-0.00234021,0.
 02589670,-0.00015727,0.00030648,0.00028795,0.00055973,-0.00141742,0.00
 000488,-0.00170788,0.00383621,-0.00011456,0.00052366,0.00044328,0.0000
 1379,0.00141715,-0.00116073,-0.00006545,-0.00337331,0.00027371,-0.0000
 7337,-0.32374291,-0.07082092,-0.00342443,-0.01685021,-0.00748864,-0.00
 022476,-0.00000791,-0.00001790,0.00000996,-0.00038213,0.00030958,-0.00
 000850,0.00003563,-0.00018417,0.00000577,-0.00004596,0.00002002,-0.000
 00037,0.00000278,-0.00001757,0.00000104,-0.00003227,-0.00001438,-0.000
 00100,-0.00014903,0.00030590,-0.00029437,-0.00024014,0.00010873,-0.000
 00571,0.00080204,-0.00024248,0.00005848,0.34244816,0.00003704,-0.00018
 566,-0.00021172,0.00028956,0.00101838,0.00000161,0.00334603,-0.0028042
 9,0.00006617,0.00058663,-0.00128201,0.00000876,-0.00030599,-0.00546164
 ,0.00002732,-0.03117117,-0.00313528,-0.00037510,-0.07068341,-0.0790489
 0,-0.00077454,0.02333816,0.00955582,0.00027440,0.00009641,0.00014910,-
 0.00000126,0.00040122,-0.00029600,0.00000640,-0.00006103,0.00019570,-0
 .00000219,0.00002800,0.00001645,0.00000022,0.00005571,0.00003042,0.000
 00039,-0.00003647,-0.00006330,-0.00000015,0.00003165,-0.00018455,0.000
 21405,-0.00156858,-0.00030883,-0.00001787,0.00036213,0.00102838,-0.000
 00775,0.07576999,0.07968320,0.00004577,0.00005987,0.00002240,0.0000000
 5,-0.00001812,0.00053095,-0.00011126,0.00007252,0.00663992,0.00001444,
 0.00000605,-0.00066499,-0.00006764,0.00001694,0.00686973,0.00000753,0.
 00001950,0.00244904,-0.00342625,-0.00077867,-0.03545486,-0.00030417,-0
 .00011032,0.00264544,0.00000904,-0.00000275,-0.00080032,-0.00000899,0.
 00000479,0.00022903,0.00000547,-0.00000372,-0.00039162,-0.00000050,-0.
 00000003,-0.00001550,0.00000066,-0.00000041,-0.00007671,-0.00000085,0.
 00000026,0.00005269,-0.00005031,-0.00005137,0.00001327,-0.00000168,0.0
 0000266,0.00019616,0.00005668,-0.00001528,-0.00382468,0.00377398,0.000
 80968,0.02520967,0.00043007,0.00074383,0.00036040,-0.00003738,-0.00263
 909,0.00002429,-0.00335029,-0.03049837,0.00001741,-0.00511096,0.000253
 70,-0.00015696,-0.00104873,0.00042757,-0.00001109,-0.00329026,0.002941
 96,-0.00013692,0.01082861,0.02280924,0.00003798,-0.07750853,-0.0672779
 1,-0.00035662,0.00022594,-0.00161471,-0.00000145,0.00012172,-0.0000542
 6,0.00000149,-0.00001418,0.00013517,-0.00000098,-0.00001520,0.00000803
 ,0.00000027,0.00001053,-0.00013349,0.00000096,-0.00048721,0.00024329,-
 0.00000231,0.00043275,0.00071542,-0.00033924,0.00018524,-0.00007655,0.
 00001925,0.00039191,0.00121807,0.00000122,0.00091126,-0.00054152,0.000
 06019,0.07739623,-0.00009985,0.00017712,0.00034016,0.00065063,-0.00064
 194,0.00000656,-0.00259593,-0.00314040,-0.00002067,-0.00075811,0.00157
 729,0.00000428,0.00051758,0.00050024,0.00000463,0.00373611,-0.00083971
 ,0.00006578,-0.00748508,-0.01573925,-0.00004570,-0.06655542,-0.3272074
 2,-0.00011298,0.00006224,-0.00034829,0.00000333,-0.00010664,0.00003125
 ,-0.00000160,0.00001922,-0.00002370,0.00000038,-0.00002407,-0.00002070
 ,-0.00000032,-0.00002184,-0.00001013,-0.00000033,-0.00004515,0.0000654
 2,-0.00000152,-0.00009041,0.00017959,-0.00034621,-0.00006962,-0.000041
 44,-0.00000401,-0.00044643,-0.00082231,-0.00000340,0.00001131,0.001009
 29,-0.00001157,0.07332103,0.34529888,-0.00008654,-0.00098127,-0.000555
 03,0.00002005,-0.00003403,-0.00167373,-0.00005292,-0.00036720,0.001577
 59,-0.00015314,0.00001729,0.00738177,-0.00001241,0.00000388,-0.0002446
 1,-0.00013803,0.00005790,0.00705401,0.00011422,0.00033195,0.00325097,-
 0.00035953,-0.00012457,-0.03599114,-0.00000569,-0.00001785,0.00066471,
 0.00000161,-0.00000097,0.00006315,-0.00000065,0.00000198,0.00003492,0.
 00000041,0.00000002,-0.00004244,0.00000067,-0.00000176,-0.00003851,-0.
 00000206,0.00000203,-0.00033138,0.00010853,0.00099476,-0.00056582,0.00
 001903,-0.00000435,-0.00133365,0.00000548,0.00001748,0.00004584,0.0000
 5882,-0.00001895,-0.00379415,0.00048397,0.00012322,0.02441820,0.000570
 03,-0.00062154,-0.00040853,-0.00054768,0.00266309,0.00000860,0.0000779
 4,0.00006611,-0.00000051,-0.00017863,0.00165766,-0.00001424,-0.0004066
 2,-0.00036300,-0.00000017,-0.00002773,0.00012903,-0.00000023,-0.000019
 36,-0.00000769,0.00000033,0.00002203,-0.00012357,0.00000020,-0.0048269
 6,-0.00187882,-0.00013900,-0.01122233,0.02844792,-0.00022679,-0.124480
 68,0.11867737,-0.00134241,0.01287451,-0.01555267,0.00015324,-0.0015510
 3,-0.00312322,-0.00009321,-0.00072998,-0.00073959,-0.00000386,0.000564
 47,-0.00064026,0.00043848,0.00002450,0.00000068,0.00000002,-0.00005495
 ,-0.00001807,-0.00000125,0.00000516,-0.00001213,0.00000006,-0.00004236
 ,-0.00000526,-0.00000055,0.12851972,0.00019243,0.00004096,0.00024734,-
 0.00062666,-0.00013145,-0.00000957,0.00011849,0.00007507,0.00000087,-0
 .00001930,0.00005643,0.00000135,-0.00007456,-0.00001521,-0.00000172,0.
 00001738,0.00002814,0.00000005,0.00002441,-0.00001654,0.00000027,-0.00
 000763,-0.00005992,0.00000015,-0.00086702,0.00129299,0.00000479,0.0005
 4535,0.00473462,-0.00000240,0.11795478,-0.28021851,0.00201338,0.014741
 89,-0.01778579,0.00022837,-0.00391733,-0.00257974,-0.00002198,-0.00082
 958,0.00018133,-0.00001087,0.00019529,0.00004393,-0.00024598,0.0000031
 7,-0.00000599,0.00000011,-0.00000190,-0.00000315,0.00000012,0.00000899
 ,-0.00000409,0.00000013,-0.00000690,0.00000559,-0.00000010,-0.12828235
 ,0.29415718,0.00035185,-0.00094285,-0.00055892,0.00001330,0.00002839,-
 0.00167391,-0.00000060,0.00000034,0.00006310,-0.00000983,0.00002100,0.
 00066457,-0.00000047,-0.00000509,-0.00033135,0.00000009,0.00000135,-0.
 00003852,0.00000021,-0.00000018,-0.00004244,-0.00000018,-0.00000109,0.
 00003493,-0.00014285,-0.00000753,0.00738208,-0.00015562,0.00032961,0.0
 0157455,-0.00133823,0.00201985,-0.03600776,0.00007497,-0.00013047,0.00
 325159,-0.00009250,-0.00001083,0.00705483,-0.00000253,-0.00000917,-0.0
 0024445,-0.00032306,0.00092469,-0.00056180,0.,0.00000008,0.00002401,-0
 .00000128,-0.00000007,0.00005213,0.,-0.00000011,0.00000265,-0.00000046
 ,-0.00000007,0.00000051,0.00155233,-0.00220086,0.02443630,-0.00007041,
 -0.00027929,-0.00023001,0.00031876,0.00123999,-0.00000653,-0.00020759,
 -0.00028719,-0.00000433,0.00002026,-0.00001469,0.00000973,-0.00004626,
 0.00001869,-0.00000125,0.00001353,0.00001329,0.00000104,-0.00003075,-0
 .00003198,-0.00000014,-0.00001312,0.00013126,0.00000416,0.00065996,0.0
 0004931,0.00001552,-0.00006284,-0.00314173,-0.00007058,-0.01147854,0.0
 0215348,-0.00017254,-0.34267140,0.00394318,-0.00363909,-0.01072028,-0.
 00219842,-0.00015003,0.00065215,0.00271045,-0.00008025,-0.00007750,-0.
 00027674,0.00022979,0.00002244,-0.00000849,-0.00000019,-0.00001109,0.0
 0000593,-0.00000020,-0.00001975,0.00000814,-0.00000164,0.00000385,-0.0
 0000698,0.00000004,0.00079083,-0.00006628,0.00005431,0.36267565,-0.000
 00292,-0.00026517,-0.00027699,-0.00046697,0.00125949,-0.00000849,-0.00
 037885,-0.00047064,-0.00000254,-0.00012900,0.00012092,-0.00000397,0.00
 004078,-0.00004931,0.00000076,-0.00005999,0.00001966,-0.00000100,-0.00
 003997,0.00000124,-0.00000059,0.00000811,0.00024448,-0.00000148,-0.000
 09406,-0.00141832,0.00000071,-0.00265156,-0.00445007,-0.00000181,-0.02
 867354,0.00418178,-0.00034259,0.00380562,-0.06011794,0.00010765,0.0292
 4674,0.00421442,0.00034121,0.00185572,-0.00469644,0.00005190,-0.000009
 41,-0.00026352,0.00027891,-0.00004201,0.00005094,-0.00000054,-0.000000
 50,0.00000301,0.,-0.00001968,0.00002570,-0.00000001,0.00001415,-0.0000
 0279,0.00000021,0.00048657,0.00112985,-0.00000709,-0.00397751,0.059453
 16,-0.00006125,0.00003945,0.00001499,-0.00000195,0.00001348,0.00053082
 ,-0.00000373,-0.00000192,0.00022912,0.00001073,-0.00000254,-0.00080031
 ,-0.00000150,0.00000062,0.00005268,0.00000144,0.00000008,-0.00007670,0
 .00000004,-0.00000067,-0.00001549,0.00000439,0.,-0.00039165,0.00001505
 ,0.00000137,-0.00066498,-0.00007374,-0.00000811,0.00664065,-0.00009137
 ,0.00002229,0.00264783,-0.00363691,0.00010753,-0.03545726,-0.00023321,
 -0.00002913,0.00244631,-0.00007806,0.00006235,0.00686953,0.00005927,-0
 .00004468,0.00002076,-0.00000015,-0.00000011,0.00004150,-0.00000018,0.
 00000007,0.00000403,-0.00000164,0.00000032,0.00011637,-0.00000002,-0.0
 0000007,0.00000265,0.00005282,-0.00001317,-0.00379428,0.00399656,-0.00
 013541,0.02521211,0.00006476,-0.00009550,-0.00008232,-0.00015495,0.000
 21308,0.00000767,-0.00052466,0.00008139,-0.00000439,0.00027584,-0.0014
 6683,0.00000262,0.00000795,-0.00013182,0.00000061,-0.00001275,0.000034
 19,-0.00000026,-0.00001395,0.00001838,0.00000022,0.00006099,-0.0001782
 2,0.00000175,-0.00563737,0.00157746,-0.00015942,-0.00078591,0.00088271
 ,-0.00000751,-0.00107608,0.00315632,-0.00010292,0.01218464,0.01476196,
 0.00007150,-0.13567354,-0.12436941,-0.00085102,-0.01187170,-0.02868835
 ,-0.00009785,0.00006140,-0.00010077,0.00008603,-0.00000553,0.00003341,
 -0.00000039,-0.00003449,-0.00000040,-0.00000044,-0.00000894,-0.0000025
 3,-0.00000015,-0.00005657,-0.00001166,-0.00000131,0.00050240,0.0007823
 9,0.00000331,0.00084418,-0.00040839,0.00005644,0.14072483,-0.00006676,
 -0.00006874,-0.00005590,0.00015920,0.00021049,-0.00000126,-0.00001468,
 -0.00006008,-0.00000045,0.00024686,0.00018385,0.00000353,-0.00008385,-
 0.00000879,-0.00000104,0.00002617,-0.00000260,0.00000033,-0.00002584,-
 0.00003570,-0.00000033,-0.00003613,0.00006179,-0.00000073,0.00084276,0
 .00140818,0.00002556,0.00109290,0.00024443,0.00001157,0.00379408,-0.00
 336816,0.00007126,-0.01662096,-0.01874619,-0.00014096,-0.12440631,-0.2
 6621941,-0.00088402,0.00249512,0.00478943,0.00002401,-0.00006770,-0.00
 006706,0.00005459,0.00001765,-0.00000610,0.00000029,-0.00000983,0.0000
 0583,-0.00000013,-0.00000896,0.00000086,-0.00000010,0.00000451,-0.0000
 0152,0.00000020,-0.00088212,-0.00093283,-0.00000781,0.00019622,0.00098
 630,-0.00001007,0.13367041,0.28077672,-0.00005477,-0.00025126,-0.00006
 601,0.00000799,-0.00000039,-0.00086538,-0.00000369,0.00000062,-0.00019
 229,-0.00000236,-0.00001660,0.00041412,0.00000042,-0.00000154,-0.00001
 382,-0.00000021,0.00000041,-0.00000119,0.00000034,0.00000023,-0.000036
 20,0.00000141,-0.00000237,-0.00004480,-0.00015673,0.00003507,0.0073376
 9,-0.00000804,0.00000888,-0.00033346,-0.00010413,0.00006424,0.00691381
 ,0.00015316,0.00023150,0.00293722,-0.00085049,-0.00088411,-0.03693785,
 -0.00018063,-0.00034670,0.00268029,0.00005845,0.00024909,-0.00006493,-
 0.00000039,0.00000045,0.00002152,-0.00000039,-0.00000002,0.00000071,-0
 .00000013,-0.00000002,0.00000404,-0.00000134,0.,0.00005213,0.00000768,
 0.00001175,0.00004587,0.00005462,-0.00001730,-0.00382473,0.00101858,0.
 00092764,0.02586679,-0.00031919,-0.00014482,-0.00019468,0.00113159,-0.
 00057724,0.00000752,0.00015435,0.00001321,0.00000360,0.00007232,0.0007
 4603,0.00003778,0.00003318,-0.00052094,0.00000421,-0.00009320,0.000162
 80,0.00000038,0.00005970,0.00000377,0.00000114,-0.00000469,0.00013112,
 -0.00000244,0.01292483,-0.01485608,0.00016434,-0.00139629,-0.00298689,
 -0.00008887,-0.00073427,-0.00069964,-0.00000123,-0.00547686,-0.0016284
 6,-0.00014714,-0.01017069,0.03005952,-0.00023180,-0.12248319,0.1151722
 9,-0.00133927,-0.00031851,-0.00013999,0.00018852,-0.00117887,-0.000032
 38,-0.00002277,0.00000661,-0.00001443,-0.00000013,0.00001213,0.0000321
 7,-0.00000042,0.00002357,0.00000432,-0.00000002,0.00013671,0.00011494,
 0.00001722,-0.00059210,0.00149667,-0.00001304,0.00112946,-0.00032272,0
 .00006068,0.12708343,-0.00056518,-0.00036440,-0.00033332,0.00240776,0.
 00019415,0.00002895,-0.00034132,-0.00020731,-0.00000401,0.00131761,0.0
 0095750,0.00000522,-0.00004000,-0.00066371,0.00000061,-0.00026016,0.00
 042234,-0.00000478,0.00002576,0.00008457,0.00000001,0.00014700,0.00016
 819,0.00000187,0.01430673,-0.02005056,0.00022957,-0.00402454,-0.002943
 96,-0.00002204,-0.00072453,0.00011022,-0.00001003,-0.00043079,0.001572
 29,0.00000968,-0.00159116,0.00325905,-0.00002069,0.11667940,-0.2777143
 0,0.00202588,-0.00057398,-0.00036207,0.00032211,-0.00047802,0.00083321
 ,-0.00000616,-0.00003019,-0.00001824,-0.00000028,-0.00000135,0.0000612
 5,-0.00000005,0.00000681,-0.00000507,0.00000015,0.00012187,0.00000714,
 -0.00000210,-0.00018064,0.00004325,-0.00000167,0.00024216,0.00084933,-
 0.00000956,-0.12601322,0.29376712,0.00020915,0.00011779,-0.00002422,0.
 00000145,-0.00000554,0.00061792,0.00000454,0.00000041,-0.00015801,0.00
 003764,-0.00000180,-0.00327024,0.00000304,-0.00000526,-0.00019265,0.00
 000145,0.00000044,-0.00016243,0.00000111,-0.00000018,-0.00003585,-0.00
 000261,0.00000154,0.00017592,0.00008755,-0.00011399,0.00245400,-0.0000
 8552,-0.00001246,0.00673615,-0.00000249,-0.00001056,-0.00047487,-0.000
 15052,-0.00000374,0.00723026,-0.00014653,0.00035634,0.00264743,-0.0013
 4581,0.00200550,-0.03559449,-0.00021396,-0.00011915,-0.00002555,-0.000
 02165,-0.00000067,0.00069808,-0.00000014,-0.00000008,0.00002152,-0.000
 00037,0.00000034,0.00004149,-0.00000004,0.00000012,0.00002401,0.000016
 97,-0.00000203,-0.00133369,-0.00000897,0.00001848,0.00019604,0.0000592
 7,-0.00001618,-0.00389352,0.00155644,-0.00220934,0.02432271\\0.0000016
 0,-0.00001825,0.00002339,-0.00000909,0.00006036,-0.00003884,0.00001130
 ,-0.00005968,0.00000755,-0.00008241,0.00003223,0.00000623,-0.00000554,
 -0.00002212,-0.00000302,0.00000502,0.00000132,-0.00000207,-0.00000270,
 -0.00000679,0.00000394,0.00001537,0.00002422,-0.00000212,0.00007096,0.
 00005143,0.00000698,0.00000465,-0.00006054,0.00000662,-0.00002027,0.00
 002000,-0.00000129,0.00000428,-0.00000622,0.00000381,-0.00000540,0.000
 00001,-0.00000165,0.00001121,-0.00002007,-0.00000243,0.00000104,0.0000
 0353,-0.00000022,0.00000056,0.00000053,0.00000124,0.00000435,0.0000039
 1,0.00000089,0.00000743,0.,-0.00000124,0.00000061,-0.00000244,-0.00000
 411,0.00000016,-0.00000251,-0.00000421,-0.00000714,-0.00000182,-0.0000
 0135,-0.00000511,0.00000267,0.00000061,-0.00000087,0.00000022,0.000001
 30\\\@


 LOVE IS BLIND, THAT'S WHY ALL THE WORLD LOVES A LOUVER.
 Job cpu time:       0 days  0 hours 24 minutes 41.5 seconds.
 Elapsed time:       0 days  0 hours  1 minutes  2.4 seconds.
 File lengths (MBytes):  RWF=    177 Int=      0 D2E=      0 Chk=      6 Scr=      1
 Normal termination of Gaussian 16 at Mon Oct 14 01:30:02 2019.
real 114.24
user 2632.77
sys 15.03
Machine:
brown-a065
brown-a065
brown-a065
brown-a065
brown-a065
brown-a065
brown-a065
brown-a065
brown-a065
brown-a065
brown-a065
brown-a065
brown-a065
brown-a065
brown-a065
brown-a065
brown-a065
brown-a065
brown-a065
brown-a065
brown-a065
brown-a065
brown-a065
brown-a065
