 Entering Gaussian System, Link 0=/apps/cent7/gaussian/g16-A.03/g16-haswell/g16/g16
 Initial command:
 /apps/cent7/gaussian/g16-A.03/g16-haswell/g16/l1.exe "/scratch/brown/finej/gaussian/Gau-326919.inp" -scrdir="/scratch/brown/finej/gaussian/"
 Entering Link 1 = /apps/cent7/gaussian/g16-A.03/g16-haswell/g16/l1.exe PID=    326921.
  
 Copyright (c) 1988,1990,1992,1993,1995,1998,2003,2009,2016,
            Gaussian, Inc.  All Rights Reserved.
  
 This is part of the Gaussian(R) 16 program.  It is based on
 the Gaussian(R) 09 system (copyright 2009, Gaussian, Inc.),
 the Gaussian(R) 03 system (copyright 2003, Gaussian, Inc.),
 the Gaussian(R) 98 system (copyright 1998, Gaussian, Inc.),
 the Gaussian(R) 94 system (copyright 1995, Gaussian, Inc.),
 the Gaussian 92(TM) system (copyright 1992, Gaussian, Inc.),
 the Gaussian 90(TM) system (copyright 1990, Gaussian, Inc.),
 the Gaussian 88(TM) system (copyright 1988, Gaussian, Inc.),
 the Gaussian 86(TM) system (copyright 1986, Carnegie Mellon
 University), and the Gaussian 82(TM) system (copyright 1983,
 Carnegie Mellon University). Gaussian is a federally registered
 trademark of Gaussian, Inc.
  
 This software contains proprietary and confidential information,
 including trade secrets, belonging to Gaussian, Inc.
  
 This software is provided under written license and may be
 used, copied, transmitted, or stored only in accord with that
 written license.
  
 The following legend is applicable only to US Government
 contracts under FAR:
  
                    RESTRICTED RIGHTS LEGEND
  
 Use, reproduction and disclosure by the US Government is
 subject to restrictions as set forth in subparagraphs (a)
 and (c) of the Commercial Computer Software - Restricted
 Rights clause in FAR 52.227-19.
  
 Gaussian, Inc.
 340 Quinnipiac St., Bldg. 40, Wallingford CT 06492
  
  
 ---------------------------------------------------------------
 Warning -- This program may not be used in any manner that
 competes with the business of Gaussian, Inc. or will provide
 assistance to any competitor of Gaussian, Inc.  The licensee
 of this program is prohibited from giving any competitor of
 Gaussian, Inc. access to this program.  By using this program,
 the user acknowledges that Gaussian, Inc. is engaged in the
 business of creating and licensing software in the field of
 computational chemistry and represents and warrants to the
 licensee that it is not a competitor of Gaussian, Inc. and that
 it will not use this program in any manner prohibited above.
 ---------------------------------------------------------------
  

 Cite this work as:
 Gaussian 16, Revision A.03,
 M. J. Frisch, G. W. Trucks, H. B. Schlegel, G. E. Scuseria, 
 M. A. Robb, J. R. Cheeseman, G. Scalmani, V. Barone, 
 G. A. Petersson, H. Nakatsuji, X. Li, M. Caricato, A. V. Marenich, 
 J. Bloino, B. G. Janesko, R. Gomperts, B. Mennucci, H. P. Hratchian, 
 J. V. Ortiz, A. F. Izmaylov, J. L. Sonnenberg, D. Williams-Young, 
 F. Ding, F. Lipparini, F. Egidi, J. Goings, B. Peng, A. Petrone, 
 T. Henderson, D. Ranasinghe, V. G. Zakrzewski, J. Gao, N. Rega, 
 G. Zheng, W. Liang, M. Hada, M. Ehara, K. Toyota, R. Fukuda, 
 J. Hasegawa, M. Ishida, T. Nakajima, Y. Honda, O. Kitao, H. Nakai, 
 T. Vreven, K. Throssell, J. A. Montgomery, Jr., J. E. Peralta, 
 F. Ogliaro, M. J. Bearpark, J. J. Heyd, E. N. Brothers, K. N. Kudin, 
 V. N. Staroverov, T. A. Keith, R. Kobayashi, J. Normand, 
 K. Raghavachari, A. P. Rendell, J. C. Burant, S. S. Iyengar, 
 J. Tomasi, M. Cossi, J. M. Millam, M. Klene, C. Adamo, R. Cammi, 
 J. W. Ochterski, R. L. Martin, K. Morokuma, O. Farkas, 
 J. B. Foresman, and D. J. Fox, Gaussian, Inc., Wallingford CT, 2016.
 
 ******************************************
 Gaussian 16:  ES64L-G16RevA.03 25-Dec-2016
                14-Oct-2019 
 ******************************************
 %chk=24_p.chk
 %nprocshared=24
 Will use up to   24 processors via shared memory.
 %mem=80GB
 --------------------------------------------------------------
 #P opt freq b3lyp/6-31g(d) geom=connectivity temperature=0.001
 --------------------------------------------------------------
 1/18=20,19=15,26=3,38=1,57=2,112=-1000/1,3;
 2/9=110,12=2,17=6,18=5,40=1/2;
 3/5=1,6=6,7=1,11=2,25=1,30=1,71=1,74=-5/1,2,3;
 4//1;
 5/5=2,38=5/2;
 6/7=2,8=2,9=2,10=2,28=1/1;
 7//1,2,3,16;
 1/18=20,19=15,26=3/3(2);
 2/9=110/2;
 99//99;
 2/9=110/2;
 3/5=1,6=6,7=1,11=2,25=1,30=1,71=1,74=-5/1,2,3;
 4/5=5,16=3,69=1/1;
 5/5=2,38=5/2;
 7//1,2,3,16;
 1/18=20,19=15,26=3/3(-5);
 2/9=110/2;
 6/7=2,8=2,9=2,10=2,19=2,28=1/1;
 99/9=1/99;
 Leave Link    1 at Mon Oct 14 01:29:56 2019, MaxMem= 10737418240 cpu:               1.0 elap:               0.0
 (Enter /apps/cent7/gaussian/g16-A.03/g16-haswell/g16/l101.exe)
 -------------------
 Title Card Required
 -------------------
 Symbolic Z-matrix:
 Charge =  1 Multiplicity = 1
 O                    -0.9574   -2.2274   -1.3197 
 S                    -1.0842   -1.3307    0.0024 
 C                    -2.537    -0.3186   -0.0247 
 C                    -2.1022    1.0244   -0.0176 
 C                    -3.0864    2.0377   -0.0372 
 C                    -4.4543    1.6941   -0.0688 
 C                    -4.8535    0.3407   -0.0804 
 C                    -3.8902   -0.6862   -0.057 
 C                    -0.676     1.2023   -0.0006 
 C                     0.0756    0.0077    0.0054 
 C                     1.4781   -0.0159    0.0048 
 C                     2.1596    1.2165    0.0021 
 C                     1.4397    2.4301    0.0024 
 C                     0.0289    2.4267    0.0015 
 O                    -0.9915   -2.1998    1.3461 
 H                    -2.7898    3.0866   -0.0278 
 H                    -5.2088    2.4807   -0.0845 
 H                    -5.9132    0.0867   -0.1076 
 H                    -4.1837   -1.7359   -0.0638 
 H                     2.0208   -0.9612    0.0064 
 H                     3.2495    1.2312   -0.0003 
 H                     1.9778    3.378     0.0035 
 H                    -0.5165    3.3705    0.0024 
 H                    -0.09064  -2.45906  -1.66126 
 
 ITRead=  0  0  0  0  0  0  0  0  0  0  0  0  0  0  0  0  0  0  0  0
 ITRead=  0  0  0  0
 MicOpt= -1 -1 -1 -1 -1 -1 -1 -1 -1 -1 -1 -1 -1 -1 -1 -1 -1 -1 -1 -1
 MicOpt= -1 -1 -1 -1
 NAtoms=     24 NQM=       24 NQMF=       0 NMMI=      0 NMMIF=      0
                NMic=       0 NMicF=      0.
                    Isotopes and Nuclear Properties:
 (Nuclear quadrupole moments (NQMom) in fm**2, nuclear magnetic moments (NMagM)
  in nuclear magnetons)

  Atom         1           2           3           4           5           6           7           8           9          10
 IAtWgt=          16          32          12          12          12          12          12          12          12          12
 AtmWgt=  15.9949146  31.9720718  12.0000000  12.0000000  12.0000000  12.0000000  12.0000000  12.0000000  12.0000000  12.0000000
 NucSpn=           0           0           0           0           0           0           0           0           0           0
 AtZEff=  -0.0000000  -0.0000000  -0.0000000  -0.0000000  -0.0000000  -0.0000000  -0.0000000  -0.0000000  -0.0000000  -0.0000000
 NQMom=    0.0000000   0.0000000   0.0000000   0.0000000   0.0000000   0.0000000   0.0000000   0.0000000   0.0000000   0.0000000
 NMagM=    0.0000000   0.0000000   0.0000000   0.0000000   0.0000000   0.0000000   0.0000000   0.0000000   0.0000000   0.0000000
 AtZNuc=   8.0000000  16.0000000   6.0000000   6.0000000   6.0000000   6.0000000   6.0000000   6.0000000   6.0000000   6.0000000

  Atom        11          12          13          14          15          16          17          18          19          20
 IAtWgt=          12          12          12          12          16           1           1           1           1           1
 AtmWgt=  12.0000000  12.0000000  12.0000000  12.0000000  15.9949146   1.0078250   1.0078250   1.0078250   1.0078250   1.0078250
 NucSpn=           0           0           0           0           0           1           1           1           1           1
 AtZEff=  -0.0000000  -0.0000000  -0.0000000  -0.0000000  -0.0000000  -0.0000000  -0.0000000  -0.0000000  -0.0000000  -0.0000000
 NQMom=    0.0000000   0.0000000   0.0000000   0.0000000   0.0000000   0.0000000   0.0000000   0.0000000   0.0000000   0.0000000
 NMagM=    0.0000000   0.0000000   0.0000000   0.0000000   0.0000000   2.7928460   2.7928460   2.7928460   2.7928460   2.7928460
 AtZNuc=   6.0000000   6.0000000   6.0000000   6.0000000   8.0000000   1.0000000   1.0000000   1.0000000   1.0000000   1.0000000

  Atom        21          22          23          24
 IAtWgt=           1           1           1           1
 AtmWgt=   1.0078250   1.0078250   1.0078250   1.0078250
 NucSpn=           1           1           1           1
 AtZEff=  -0.0000000  -0.0000000  -0.0000000  -0.0000000
 NQMom=    0.0000000   0.0000000   0.0000000   0.0000000
 NMagM=    2.7928460   2.7928460   2.7928460   2.7928460
 AtZNuc=   1.0000000   1.0000000   1.0000000   1.0000000
 Leave Link  101 at Mon Oct 14 01:29:57 2019, MaxMem= 10737418240 cpu:              15.1 elap:               0.6
 (Enter /apps/cent7/gaussian/g16-A.03/g16-haswell/g16/l103.exe)

 GradGradGradGradGradGradGradGradGradGradGradGradGradGradGradGradGradGrad
 Berny optimization.
 Initialization pass.
                           ----------------------------
                           !    Initial Parameters    !
                           ! (Angstroms and Degrees)  !
 --------------------------                            --------------------------
 ! Name  Definition              Value          Derivative Info.                !
 --------------------------------------------------------------------------------
 ! R1    R(1,2)                  1.6025         estimate D2E/DX2                !
 ! R2    R(1,24)                 0.96           estimate D2E/DX2                !
 ! R3    R(2,3)                  1.7708         estimate D2E/DX2                !
 ! R4    R(2,10)                 1.771          estimate D2E/DX2                !
 ! R5    R(2,15)                 1.603          estimate D2E/DX2                !
 ! R6    R(3,4)                  1.4116         estimate D2E/DX2                !
 ! R7    R(3,8)                  1.4026         estimate D2E/DX2                !
 ! R8    R(4,5)                  1.4127         estimate D2E/DX2                !
 ! R9    R(4,9)                  1.4374         estimate D2E/DX2                !
 ! R10   R(5,6)                  1.4107         estimate D2E/DX2                !
 ! R11   R(5,16)                 1.0901         estimate D2E/DX2                !
 ! R12   R(6,7)                  1.4111         estimate D2E/DX2                !
 ! R13   R(6,17)                 1.0901         estimate D2E/DX2                !
 ! R14   R(7,8)                  1.4082         estimate D2E/DX2                !
 ! R15   R(7,18)                 1.0901         estimate D2E/DX2                !
 ! R16   R(8,19)                 1.09           estimate D2E/DX2                !
 ! R17   R(9,10)                 1.4114         estimate D2E/DX2                !
 ! R18   R(9,14)                 1.4128         estimate D2E/DX2                !
 ! R19   R(10,11)                1.4027         estimate D2E/DX2                !
 ! R20   R(11,12)                1.4083         estimate D2E/DX2                !
 ! R21   R(11,20)                1.09           estimate D2E/DX2                !
 ! R22   R(12,13)                1.4111         estimate D2E/DX2                !
 ! R23   R(12,21)                1.09           estimate D2E/DX2                !
 ! R24   R(13,14)                1.4108         estimate D2E/DX2                !
 ! R25   R(13,22)                1.09           estimate D2E/DX2                !
 ! R26   R(14,23)                1.0901         estimate D2E/DX2                !
 ! A1    A(2,1,24)             120.0            estimate D2E/DX2                !
 ! A2    A(1,2,3)              111.8454         estimate D2E/DX2                !
 ! A3    A(1,2,10)             111.8668         estimate D2E/DX2                !
 ! A4    A(1,2,15)             112.558          estimate D2E/DX2                !
 ! A5    A(3,2,10)              96.0484         estimate D2E/DX2                !
 ! A6    A(3,2,15)             111.7256         estimate D2E/DX2                !
 ! A7    A(10,2,15)            111.7436         estimate D2E/DX2                !
 ! A8    A(2,3,4)              106.9168         estimate D2E/DX2                !
 ! A9    A(2,3,8)              129.947          estimate D2E/DX2                !
 ! A10   A(4,3,8)              123.1348         estimate D2E/DX2                !
 ! A11   A(3,4,5)              117.8873         estimate D2E/DX2                !
 ! A12   A(3,4,9)              115.0512         estimate D2E/DX2                !
 ! A13   A(5,4,9)              127.0598         estimate D2E/DX2                !
 ! A14   A(4,5,6)              120.0741         estimate D2E/DX2                !
 ! A15   A(4,5,16)             120.0329         estimate D2E/DX2                !
 ! A16   A(6,5,16)             119.893          estimate D2E/DX2                !
 ! A17   A(5,6,7)              120.5369         estimate D2E/DX2                !
 ! A18   A(5,6,17)             119.7161         estimate D2E/DX2                !
 ! A19   A(7,6,17)             119.7469         estimate D2E/DX2                !
 ! A20   A(6,7,8)              120.3815         estimate D2E/DX2                !
 ! A21   A(6,7,18)             119.9151         estimate D2E/DX2                !
 ! A22   A(8,7,18)             119.7033         estimate D2E/DX2                !
 ! A23   A(3,8,7)              117.9844         estimate D2E/DX2                !
 ! A24   A(3,8,19)             120.8188         estimate D2E/DX2                !
 ! A25   A(7,8,19)             121.1968         estimate D2E/DX2                !
 ! A26   A(4,9,10)             115.0675         estimate D2E/DX2                !
 ! A27   A(4,9,14)             127.0379         estimate D2E/DX2                !
 ! A28   A(10,9,14)            117.8931         estimate D2E/DX2                !
 ! A29   A(2,10,9)             106.9119         estimate D2E/DX2                !
 ! A30   A(2,10,11)            129.9466         estimate D2E/DX2                !
 ! A31   A(9,10,11)            123.1402         estimate D2E/DX2                !
 ! A32   A(10,11,12)           117.9779         estimate D2E/DX2                !
 ! A33   A(10,11,20)           120.8242         estimate D2E/DX2                !
 ! A34   A(12,11,20)           121.1978         estimate D2E/DX2                !
 ! A35   A(11,12,13)           120.3818         estimate D2E/DX2                !
 ! A36   A(11,12,21)           119.7148         estimate D2E/DX2                !
 ! A37   A(13,12,21)           119.9034         estimate D2E/DX2                !
 ! A38   A(12,13,14)           120.5381         estimate D2E/DX2                !
 ! A39   A(12,13,22)           119.7413         estimate D2E/DX2                !
 ! A40   A(14,13,22)           119.7206         estimate D2E/DX2                !
 ! A41   A(9,14,13)            120.0676         estimate D2E/DX2                !
 ! A42   A(9,14,23)            120.0479         estimate D2E/DX2                !
 ! A43   A(13,14,23)           119.8845         estimate D2E/DX2                !
 ! D1    D(24,1,2,3)           148.7437         estimate D2E/DX2                !
 ! D2    D(24,1,2,10)           42.2919         estimate D2E/DX2                !
 ! D3    D(24,1,2,15)          -84.5032         estimate D2E/DX2                !
 ! D4    D(1,2,3,4)           -117.0499         estimate D2E/DX2                !
 ! D5    D(1,2,3,8)             62.5312         estimate D2E/DX2                !
 ! D6    D(10,2,3,4)            -0.5633         estimate D2E/DX2                !
 ! D7    D(10,2,3,8)           179.0178         estimate D2E/DX2                !
 ! D8    D(15,2,3,4)           115.7471         estimate D2E/DX2                !
 ! D9    D(15,2,3,8)           -64.6718         estimate D2E/DX2                !
 ! D10   D(1,2,10,9)           117.0568         estimate D2E/DX2                !
 ! D11   D(1,2,10,11)          -62.5459         estimate D2E/DX2                !
 ! D12   D(3,2,10,9)             0.5874         estimate D2E/DX2                !
 ! D13   D(3,2,10,11)         -179.0152         estimate D2E/DX2                !
 ! D14   D(15,2,10,9)         -115.7085         estimate D2E/DX2                !
 ! D15   D(15,2,10,11)          64.6889         estimate D2E/DX2                !
 ! D16   D(2,3,4,5)            179.9523         estimate D2E/DX2                !
 ! D17   D(2,3,4,9)              0.3909         estimate D2E/DX2                !
 ! D18   D(8,3,4,5)              0.3358         estimate D2E/DX2                !
 ! D19   D(8,3,4,9)           -179.2256         estimate D2E/DX2                !
 ! D20   D(2,3,8,7)           -179.6616         estimate D2E/DX2                !
 ! D21   D(2,3,8,19)             0.3323         estimate D2E/DX2                !
 ! D22   D(4,3,8,7)             -0.1401         estimate D2E/DX2                !
 ! D23   D(4,3,8,19)           179.8537         estimate D2E/DX2                !
 ! D24   D(3,4,5,6)             -0.2761         estimate D2E/DX2                !
 ! D25   D(3,4,5,16)           179.7164         estimate D2E/DX2                !
 ! D26   D(9,4,5,6)            179.226          estimate D2E/DX2                !
 ! D27   D(9,4,5,16)            -0.7815         estimate D2E/DX2                !
 ! D28   D(3,4,9,10)             0.0467         estimate D2E/DX2                !
 ! D29   D(3,4,9,14)           179.5939         estimate D2E/DX2                !
 ! D30   D(5,4,9,10)          -179.4675         estimate D2E/DX2                !
 ! D31   D(5,4,9,14)             0.0797         estimate D2E/DX2                !
 ! D32   D(4,5,6,7)              0.0349         estimate D2E/DX2                !
 ! D33   D(4,5,6,17)          -179.9577         estimate D2E/DX2                !
 ! D34   D(16,5,6,7)          -179.9576         estimate D2E/DX2                !
 ! D35   D(16,5,6,17)            0.0498         estimate D2E/DX2                !
 ! D36   D(5,6,7,8)              0.1676         estimate D2E/DX2                !
 ! D37   D(5,6,7,18)          -179.8337         estimate D2E/DX2                !
 ! D38   D(17,6,7,8)          -179.8398         estimate D2E/DX2                !
 ! D39   D(17,6,7,18)            0.1589         estimate D2E/DX2                !
 ! D40   D(6,7,8,3)             -0.116          estimate D2E/DX2                !
 ! D41   D(6,7,8,19)           179.8902         estimate D2E/DX2                !
 ! D42   D(18,7,8,3)           179.8854         estimate D2E/DX2                !
 ! D43   D(18,7,8,19)           -0.1085         estimate D2E/DX2                !
 ! D44   D(4,9,10,2)            -0.4587         estimate D2E/DX2                !
 ! D45   D(4,9,10,11)          179.1775         estimate D2E/DX2                !
 ! D46   D(14,9,10,2)          179.9502         estimate D2E/DX2                !
 ! D47   D(14,9,10,11)          -0.4136         estimate D2E/DX2                !
 ! D48   D(4,9,14,13)         -179.2082         estimate D2E/DX2                !
 ! D49   D(4,9,14,23)            0.7901         estimate D2E/DX2                !
 ! D50   D(10,9,14,13)           0.3277         estimate D2E/DX2                !
 ! D51   D(10,9,14,23)        -179.6739         estimate D2E/DX2                !
 ! D52   D(2,10,11,12)         179.7415         estimate D2E/DX2                !
 ! D53   D(2,10,11,20)          -0.2597         estimate D2E/DX2                !
 ! D54   D(9,10,11,12)           0.1955         estimate D2E/DX2                !
 ! D55   D(9,10,11,20)        -179.8057         estimate D2E/DX2                !
 ! D56   D(10,11,12,13)          0.1091         estimate D2E/DX2                !
 ! D57   D(10,11,12,21)       -179.8868         estimate D2E/DX2                !
 ! D58   D(20,11,12,13)       -179.8897         estimate D2E/DX2                !
 ! D59   D(20,11,12,21)          0.1144         estimate D2E/DX2                !
 ! D60   D(11,12,13,14)         -0.1841         estimate D2E/DX2                !
 ! D61   D(11,12,13,22)        179.8059         estimate D2E/DX2                !
 ! D62   D(21,12,13,14)        179.8119         estimate D2E/DX2                !
 ! D63   D(21,12,13,22)         -0.1982         estimate D2E/DX2                !
 ! D64   D(12,13,14,9)          -0.0415         estimate D2E/DX2                !
 ! D65   D(12,13,14,23)        179.9601         estimate D2E/DX2                !
 ! D66   D(22,13,14,9)         179.9685         estimate D2E/DX2                !
 ! D67   D(22,13,14,23)         -0.0299         estimate D2E/DX2                !
 --------------------------------------------------------------------------------
 Trust Radius=3.00D-01 FncErr=1.00D-07 GrdErr=1.00D-06 EigMax=2.50D+02 EigMin=1.00D-04
 Number of steps in this run=    144 maximum allowed number of steps=    144.
 GradGradGradGradGradGradGradGradGradGradGradGradGradGradGradGradGradGrad

 Leave Link  103 at Mon Oct 14 01:29:57 2019, MaxMem= 10737418240 cpu:               1.0 elap:               0.1
 (Enter /apps/cent7/gaussian/g16-A.03/g16-haswell/g16/l202.exe)
                          Input orientation:                          
 ---------------------------------------------------------------------
 Center     Atomic      Atomic             Coordinates (Angstroms)
 Number     Number       Type             X           Y           Z
 ---------------------------------------------------------------------
      1          8           0       -0.957400   -2.227400   -1.319700
      2         16           0       -1.084200   -1.330700    0.002400
      3          6           0       -2.537000   -0.318600   -0.024700
      4          6           0       -2.102200    1.024400   -0.017600
      5          6           0       -3.086400    2.037700   -0.037200
      6          6           0       -4.454300    1.694100   -0.068800
      7          6           0       -4.853500    0.340700   -0.080400
      8          6           0       -3.890200   -0.686200   -0.057000
      9          6           0       -0.676000    1.202300   -0.000600
     10          6           0        0.075600    0.007700    0.005400
     11          6           0        1.478100   -0.015900    0.004800
     12          6           0        2.159600    1.216500    0.002100
     13          6           0        1.439700    2.430100    0.002400
     14          6           0        0.028900    2.426700    0.001500
     15          8           0       -0.991500   -2.199800    1.346100
     16          1           0       -2.789800    3.086600   -0.027800
     17          1           0       -5.208800    2.480700   -0.084500
     18          1           0       -5.913200    0.086700   -0.107600
     19          1           0       -4.183700   -1.735900   -0.063800
     20          1           0        2.020800   -0.961200    0.006400
     21          1           0        3.249500    1.231200   -0.000300
     22          1           0        1.977800    3.378000    0.003500
     23          1           0       -0.516500    3.370500    0.002400
     24          1           0       -0.090642   -2.459061   -1.661262
 ---------------------------------------------------------------------
                    Distance matrix (angstroms):
                    1          2          3          4          5
     1  O    0.000000
     2  S    1.602528   0.000000
     3  C    2.795654   1.770793   0.000000
     4  C    3.685137   2.565779   1.411648   0.000000
     5  C    4.936449   3.918736   2.419534   1.412732   0.000000
     6  C    5.401039   4.529024   2.780098   2.446118   1.410748
     7  C    4.828105   4.124082   2.409139   2.835673   2.450371
     8  C    3.545564   2.879678   1.402613   2.474803   2.840091
     9  C    3.685384   2.565682   2.403547   1.437353   2.551325
    10  C    2.796185   1.771005   2.633070   2.403543   3.757786
    11  C    3.546363   2.879946   4.026602   3.728441   5.005367
    12  C    4.829419   4.124375   4.941184   4.266173   5.310031
    13  C    5.402439   4.529204   4.834276   3.810702   4.543251
    14  C    4.937510   3.918807   3.757819   2.551156   3.139731
    15  O    2.666161   1.602953   2.794025   3.672710   4.925295
    16  H    5.767607   4.735243   3.414572   2.173837   1.090069
    17  H    6.462687   5.616640   3.870164   3.431654   2.168656
    18  H    5.602160   5.033921   3.401451   3.925698   3.435427
    19  H    3.496837   3.126575   2.172991   3.457460   3.929991
    20  H    3.497353   3.126911   4.602982   4.576277   5.922735
    21  H    5.603636   5.034312   5.990497   5.355722   6.387130
    22  H    6.464268   5.616734   5.835158   4.710231   5.238720
    23  H    5.768780   4.735353   4.206259   2.831789   2.895222
    24  H    0.960000   2.242348   3.639309   4.345398   5.642074
                    6          7          8          9         10
     6  C    0.000000
     7  C    1.411094   0.000000
     8  C    2.446258   1.408197   0.000000
     9  C    3.810783   4.266173   3.728364   0.000000
    10  C    4.834195   4.941081   4.026532   1.411385   0.000000
    11  C    6.174373   6.342206   5.410339   2.474710   1.402699
    12  C    6.631501   7.068055   6.342227   2.835637   2.409204
    13  C    5.940202   6.631502   6.174357   2.446158   2.780072
    14  C    4.543207   5.309984   5.005289   1.412814   2.419454
    15  O    5.399572   4.837777   3.558390   3.672523   2.794501
    16  H    2.170552   3.435344   3.930108   2.831868   4.206096
    17  H    1.090072   2.169298   3.430556   4.710374   5.835126
    18  H    2.171089   1.090055   2.166210   5.355770   5.990387
    19  H    3.440661   2.182012   1.089981   4.576131   4.602887
    20  H    6.998799   6.997034   5.917733   3.457385   2.173148
    21  H    7.717999   8.152179   7.392899   3.925606   3.401562
    22  H    6.649260   7.476556   7.138264   3.431667   3.870050
    23  H    4.280380   5.291135   5.276570   2.174061   3.414530
    24  H    6.231066   5.746529   4.489246   4.062758   2.981662
                   11         12         13         14         15
    11  C    0.000000
    12  C    1.408282   0.000000
    13  C    2.446303   1.411057   0.000000
    14  C    2.840156   2.450401   1.410804   0.000000
    15  O    3.559133   4.838065   5.399281   4.924801   0.000000
    16  H    5.276508   5.291004   4.280254   2.895064   5.750436
    17  H    7.138320   7.476565   6.649260   5.238684   6.460597
    18  H    7.392867   8.152213   7.718080   6.387179   5.618225
    19  H    5.917693   6.997032   6.998755   5.922626   3.520392
    20  H    1.090008   2.182123   3.440728   3.930083   3.521772
    21  H    2.166366   1.090002   2.170886   3.435329   5.618775
    22  H    3.430490   2.169132   1.089985   2.168683   6.459967
    23  H    3.930158   3.435291   2.170500   1.090055   5.749730
    24  H    3.347499   4.619535   5.386428   5.162337   3.150077
                   16         17         18         19         20
    16  H    0.000000
    17  H    2.494372   0.000000
    18  H    4.331443   2.495586   0.000000
    19  H    5.020036   4.339467   2.512958   0.000000
    20  H    6.287108   8.007625   8.003715   6.253072   0.000000
    21  H    6.317943   8.550508   9.234526   8.003760   2.513238
    22  H    4.776600   7.242935   8.550607   8.007533   4.339414
    23  H    2.291158   4.776712   6.318213   6.287134   5.020113
    24  H    6.380282   7.285805   6.541937   4.452861   3.079427
                   21         22         23         24
    21  H    0.000000
    22  H    2.495192   0.000000
    23  H    4.331209   2.494312   0.000000
    24  H    5.247225   6.412578   6.077245   0.000000
 Stoichiometry    C12H9O2S(1+)
 Framework group  C1[X(C12H9O2S)]
 Deg. of freedom    66
 Full point group                 C1      NOp   1
 Largest Abelian subgroup         C1      NOp   1
 Largest concise Abelian subgroup C1      NOp   1
                         Standard orientation:                         
 ---------------------------------------------------------------------
 Center     Atomic      Atomic             Coordinates (Angstroms)
 Number     Number       Type             X           Y           Z
 ---------------------------------------------------------------------
      1          8           0       -0.023095    2.436533   -1.265056
      2         16           0       -0.009706    1.517345    0.047579
      3          6           0        1.319982    0.348216    0.019760
      4          6           0        0.736580   -0.937186    0.008185
      5          6           0        1.600469   -2.054745   -0.015662
      6          6           0        2.998598   -1.867276   -0.033058
      7          6           0        3.547839   -0.567479   -0.026131
      8          6           0        2.706215    0.561195    0.001829
      9          6           0       -0.700677   -0.953292    0.012447
     10          6           0       -1.312909    0.318313    0.026521
     11          6           0       -2.703759    0.499924    0.015675
     12          6           0       -3.519733   -0.647667   -0.006279
     13          6           0       -2.941193   -1.934642   -0.014509
     14          6           0       -1.539041   -2.090346   -0.004791
     15          8           0       -0.015634    2.377119    1.400432
     16          1           0        1.187500   -3.063548   -0.020525
     17          1           0        3.659769   -2.733732   -0.052127
     18          1           0        4.629608   -0.434326   -0.042467
     19          1           0        3.116171    1.571115    0.009278
     20          1           0       -3.136482    1.500323    0.024055
     21          1           0       -4.604286   -0.539342   -0.017020
     22          1           0       -3.582663   -2.815774   -0.028323
     23          1           0       -1.103489   -3.089586   -0.010633
     24          1           0       -0.855210    2.768052   -1.610427
 ---------------------------------------------------------------------
 Rotational constants (GHZ):           0.8484748           0.5306664           0.3537423
 Leave Link  202 at Mon Oct 14 01:29:57 2019, MaxMem= 10737418240 cpu:               0.3 elap:               0.0
 (Enter /apps/cent7/gaussian/g16-A.03/g16-haswell/g16/l301.exe)
 Standard basis: 6-31G(d) (6D, 7F)
 Ernie: Thresh=  0.10000D-02 Tol=  0.10000D-05 Strict=F.
 There are   247 symmetry adapted cartesian basis functions of A   symmetry.
 There are   247 symmetry adapted basis functions of A   symmetry.
   247 basis functions,   480 primitive gaussians,   247 cartesian basis functions
    56 alpha electrons       56 beta electrons
       nuclear repulsion energy      1071.7692170158 Hartrees.
 IExCor=  402 DFT=T Ex+Corr=B3LYP ExCW=0 ScaHFX=  0.200000
 ScaDFX=  0.800000  0.720000  1.000000  0.810000 ScalE2=  1.000000  1.000000
 IRadAn=      5 IRanWt=     -1 IRanGd=            0 ICorTp=0 IEmpDi=  4
 NAtoms=   24 NActive=   24 NUniq=   24 SFac= 1.00D+00 NAtFMM=   60 NAOKFM=F Big=F
 Integral buffers will be    131072 words long.
 Raffenetti 2 integral format.
 Two-electron integral symmetry is turned on.
 Leave Link  301 at Mon Oct 14 01:29:57 2019, MaxMem= 10737418240 cpu:               1.6 elap:               0.1
 (Enter /apps/cent7/gaussian/g16-A.03/g16-haswell/g16/l302.exe)
 NPDir=0 NMtPBC=     1 NCelOv=     1 NCel=       1 NClECP=     1 NCelD=      1
         NCelK=      1 NCelE2=     1 NClLst=     1 CellRange=     0.0.
 One-electron integrals computed using PRISM.
 One-electron integral symmetry used in STVInt
 NBasis=   247 RedAO= T EigKep=  4.04D-04  NBF=   247
 NBsUse=   247 1.00D-06 EigRej= -1.00D+00 NBFU=   247
 Precomputing XC quadrature grid using
 IXCGrd= 4 IRadAn=           5 IRanWt=          -1 IRanGd=           0 AccXCQ= 0.00D+00.
 Generated NRdTot=       0 NPtTot=           0 NUsed=           0 NTot=          32
 NSgBfM=   246   246   246   246   246 MxSgAt=    24 MxSgA2=    24.
 Leave Link  302 at Mon Oct 14 01:29:57 2019, MaxMem= 10737418240 cpu:               4.2 elap:               0.2
 (Enter /apps/cent7/gaussian/g16-A.03/g16-haswell/g16/l303.exe)
 DipDrv:  MaxL=1.
 Leave Link  303 at Mon Oct 14 01:29:58 2019, MaxMem= 10737418240 cpu:               1.2 elap:               0.1
 (Enter /apps/cent7/gaussian/g16-A.03/g16-haswell/g16/l401.exe)
 ExpMin= 1.17D-01 ExpMax= 2.19D+04 ExpMxC= 3.30D+03 IAcc=3 IRadAn=         5 AccDes= 0.00D+00
 Harris functional with IExCor=  402 and IRadAn=       5 diagonalized for initial guess.
 HarFok:  IExCor=  402 AccDes= 0.00D+00 IRadAn=         5 IDoV= 1 UseB2=F ITyADJ=14
 ICtDFT=  3500011 ScaDFX=  1.000000  1.000000  1.000000  1.000000
 FoFCou: FMM=F IPFlag=           0 FMFlag=      100000 FMFlg1=           0
         NFxFlg=           0 DoJE=T BraDBF=F KetDBF=T FulRan=T
         wScrn=  0.000000 ICntrl=       500 IOpCl=  0 I1Cent=   200000004 NGrid=           0
         NMat0=    1 NMatS0=      1 NMatT0=    0 NMatD0=    1 NMtDS0=    0 NMtDT0=    0
 Petite list used in FoFCou.
 Harris En= -1011.05522375290    
 JPrj=0 DoOrth=F DoCkMO=F.
 Leave Link  401 at Mon Oct 14 01:29:58 2019, MaxMem= 10737418240 cpu:              10.6 elap:               0.5
 (Enter /apps/cent7/gaussian/g16-A.03/g16-haswell/g16/l502.exe)
 Integral symmetry usage will be decided dynamically.
 Closed shell SCF:
 Using DIIS extrapolation, IDIIS=  1040.
 NGot= 10737418240 LenX= 10737287570 LenY= 10737226120
 Requested convergence on RMS density matrix=1.00D-08 within 128 cycles.
 Requested convergence on MAX density matrix=1.00D-06.
 Requested convergence on             energy=1.00D-06.
 No special actions if energy rises.
 Fock matrices will be formed incrementally for  20 cycles.
 Integral accuracy reduced to 1.0D-05 until final iterations.

 Cycle   1  Pass 0  IDiag  1:
 FoFJK:  IHMeth= 1 ICntrl=       0 DoSepK=F KAlg= 0 I1Cent=           0 FoldK=F
 IRaf= 870000000 NMat=       1 IRICut=       1 DoRegI=T DoRafI=F ISym2E= 0 IDoP0=0 IntGTp=1.
 FoFCou: FMM=F IPFlag=           0 FMFlag=      100000 FMFlg1=           0
         NFxFlg=           0 DoJE=F BraDBF=F KetDBF=F FulRan=T
         wScrn=  0.000000 ICntrl=         0 IOpCl=  0 I1Cent=           0 NGrid=           0
         NMat0=    1 NMatS0=      1 NMatT0=    0 NMatD0=    1 NMtDS0=    0 NMtDT0=    0
 Symmetry not used in FoFCou.
 E= -1010.44534007233    
 DIIS: error= 4.50D-02 at cycle   1 NSaved=   1.
 NSaved= 1 IEnMin= 1 EnMin= -1010.44534007233     IErMin= 1 ErrMin= 4.50D-02
 ErrMax= 4.50D-02  0.00D+00 EMaxC= 1.00D-01 BMatC= 5.52D-01 BMatP= 5.52D-01
 IDIUse=3 WtCom= 5.50D-01 WtEn= 4.50D-01
 Coeff-Com:  0.100D+01
 Coeff-En:   0.100D+01
 Coeff:      0.100D+01
 Gap=     0.139 Goal=   None    Shift=    0.000
 GapD=    0.139 DampG=1.000 DampE=0.500 DampFc=0.5000 IDamp=-1.
 Damping current iteration by 5.00D-01
 RMSDP=1.21D-02 MaxDP=7.42D-01              OVMax= 4.98D-01

 Cycle   2  Pass 0  IDiag  1:
 RMSU=  6.03D-03    CP:  9.91D-01
 E= -1010.19303297703     Delta-E=        0.252307095302 Rises=F Damp=T
 DIIS: error= 6.66D-02 at cycle   2 NSaved=   2.
 NSaved= 2 IEnMin= 1 EnMin= -1010.44534007233     IErMin= 1 ErrMin= 4.50D-02
 ErrMax= 6.66D-02  0.00D+00 EMaxC= 1.00D-01 BMatC= 3.46D-01 BMatP= 5.52D-01
 IDIUse=3 WtCom= 3.34D-01 WtEn= 6.66D-01
 Coeff-Com:  0.427D+00 0.573D+00
 Coeff-En:   0.624D+00 0.376D+00
 Coeff:      0.558D+00 0.442D+00
 Gap=     0.096 Goal=   None    Shift=    0.000
 RMSDP=4.13D-03 MaxDP=1.10D-01 DE= 2.52D-01 OVMax= 3.91D-01

 Cycle   3  Pass 0  IDiag  1:
 RMSU=  3.25D-03    CP:  9.72D-01  5.84D-01
 E= -1010.82645319825     Delta-E=       -0.633420221226 Rises=F Damp=F
 DIIS: error= 2.04D-02 at cycle   3 NSaved=   3.
 NSaved= 3 IEnMin= 3 EnMin= -1010.82645319825     IErMin= 3 ErrMin= 2.04D-02
 ErrMax= 2.04D-02  0.00D+00 EMaxC= 1.00D-01 BMatC= 1.54D-01 BMatP= 3.46D-01
 IDIUse=3 WtCom= 7.96D-01 WtEn= 2.04D-01
 Coeff-Com:  0.287D+00 0.275D+00 0.438D+00
 Coeff-En:   0.167D+00 0.000D+00 0.833D+00
 Coeff:      0.262D+00 0.219D+00 0.519D+00
 Gap=     0.162 Goal=   None    Shift=    0.000
 RMSDP=2.53D-03 MaxDP=1.16D-01 DE=-6.33D-01 OVMax= 1.59D-01

 Cycle   4  Pass 0  IDiag  1:
 RMSU=  1.85D-03    CP:  9.75D-01  4.73D-01  5.09D-01
 E= -1010.93889183525     Delta-E=       -0.112438636995 Rises=F Damp=F
 DIIS: error= 1.40D-02 at cycle   4 NSaved=   4.
 NSaved= 4 IEnMin= 4 EnMin= -1010.93889183525     IErMin= 4 ErrMin= 1.40D-02
 ErrMax= 1.40D-02  0.00D+00 EMaxC= 1.00D-01 BMatC= 4.11D-02 BMatP= 1.54D-01
 IDIUse=3 WtCom= 8.60D-01 WtEn= 1.40D-01
 Coeff-Com:  0.107D+00 0.379D-01 0.344D+00 0.512D+00
 Coeff-En:   0.000D+00 0.000D+00 0.208D+00 0.792D+00
 Coeff:      0.918D-01 0.326D-01 0.325D+00 0.551D+00
 Gap=     0.153 Goal=   None    Shift=    0.000
 RMSDP=1.07D-03 MaxDP=3.75D-02 DE=-1.12D-01 OVMax= 6.91D-02

 Cycle   5  Pass 0  IDiag  1:
 RMSU=  5.46D-04    CP:  9.75D-01  4.62D-01  6.66D-01  5.87D-01
 E= -1010.96907597839     Delta-E=       -0.030184143140 Rises=F Damp=F
 DIIS: error= 3.95D-03 at cycle   5 NSaved=   5.
 NSaved= 5 IEnMin= 5 EnMin= -1010.96907597839     IErMin= 5 ErrMin= 3.95D-03
 ErrMax= 3.95D-03  0.00D+00 EMaxC= 1.00D-01 BMatC= 5.49D-03 BMatP= 4.11D-02
 IDIUse=3 WtCom= 9.61D-01 WtEn= 3.95D-02
 Coeff-Com:  0.229D-01-0.864D-02 0.148D+00 0.359D+00 0.479D+00
 Coeff-En:   0.000D+00 0.000D+00 0.000D+00 0.133D+00 0.867D+00
 Coeff:      0.220D-01-0.830D-02 0.142D+00 0.350D+00 0.494D+00
 Gap=     0.145 Goal=   None    Shift=    0.000
 RMSDP=4.10D-04 MaxDP=1.23D-02 DE=-3.02D-02 OVMax= 2.94D-02

 Cycle   6  Pass 0  IDiag  1:
 RMSU=  1.85D-04    CP:  9.75D-01  4.71D-01  6.53D-01  6.61D-01  3.92D-01
 E= -1010.97395766771     Delta-E=       -0.004881689321 Rises=F Damp=F
 DIIS: error= 1.31D-03 at cycle   6 NSaved=   6.
 NSaved= 6 IEnMin= 6 EnMin= -1010.97395766771     IErMin= 6 ErrMin= 1.31D-03
 ErrMax= 1.31D-03  0.00D+00 EMaxC= 1.00D-01 BMatC= 4.78D-04 BMatP= 5.49D-03
 IDIUse=3 WtCom= 9.87D-01 WtEn= 1.31D-02
 Coeff-Com:  0.213D-02-0.678D-02 0.386D-01 0.120D+00 0.293D+00 0.553D+00
 Coeff-En:   0.000D+00 0.000D+00 0.000D+00 0.000D+00 0.856D-01 0.914D+00
 Coeff:      0.210D-02-0.670D-02 0.381D-01 0.118D+00 0.290D+00 0.558D+00
 Gap=     0.145 Goal=   None    Shift=    0.000
 RMSDP=1.15D-04 MaxDP=5.73D-03 DE=-4.88D-03 OVMax= 7.73D-03

 Cycle   7  Pass 0  IDiag  1:
 RMSU=  5.80D-05    CP:  9.75D-01  4.68D-01  6.57D-01  6.61D-01  5.15D-01
                    CP:  6.30D-01
 E= -1010.97443747120     Delta-E=       -0.000479803485 Rises=F Damp=F
 DIIS: error= 5.08D-04 at cycle   7 NSaved=   7.
 NSaved= 7 IEnMin= 7 EnMin= -1010.97443747120     IErMin= 7 ErrMin= 5.08D-04
 ErrMax= 5.08D-04  0.00D+00 EMaxC= 1.00D-01 BMatC= 3.66D-05 BMatP= 4.78D-04
 IDIUse=3 WtCom= 9.95D-01 WtEn= 5.08D-03
 Coeff-Com: -0.280D-03-0.306D-02 0.849D-02 0.319D-01 0.118D+00 0.307D+00
 Coeff-Com:  0.538D+00
 Coeff-En:   0.000D+00 0.000D+00 0.000D+00 0.000D+00 0.000D+00 0.000D+00
 Coeff-En:   0.100D+01
 Coeff:     -0.279D-03-0.305D-02 0.844D-02 0.317D-01 0.118D+00 0.305D+00
 Coeff:      0.541D+00
 Gap=     0.145 Goal=   None    Shift=    0.000
 RMSDP=3.07D-05 MaxDP=1.11D-03 DE=-4.80D-04 OVMax= 2.12D-03

 Cycle   8  Pass 0  IDiag  1:
 RMSU=  1.98D-05    CP:  9.75D-01  4.68D-01  6.57D-01  6.60D-01  5.17D-01
                    CP:  6.75D-01  6.33D-01
 E= -1010.97447039956     Delta-E=       -0.000032928369 Rises=F Damp=F
 DIIS: error= 1.54D-04 at cycle   8 NSaved=   8.
 NSaved= 8 IEnMin= 8 EnMin= -1010.97447039956     IErMin= 8 ErrMin= 1.54D-04
 ErrMax= 1.54D-04  0.00D+00 EMaxC= 1.00D-01 BMatC= 4.12D-06 BMatP= 3.66D-05
 IDIUse=3 WtCom= 9.98D-01 WtEn= 1.54D-03
 Coeff-Com: -0.280D-03-0.886D-03 0.138D-03 0.339D-02 0.325D-01 0.108D+00
 Coeff-Com:  0.307D+00 0.551D+00
 Coeff-En:   0.000D+00 0.000D+00 0.000D+00 0.000D+00 0.000D+00 0.000D+00
 Coeff-En:   0.523D-01 0.948D+00
 Coeff:     -0.279D-03-0.884D-03 0.138D-03 0.338D-02 0.324D-01 0.108D+00
 Coeff:      0.306D+00 0.551D+00
 Gap=     0.145 Goal=   None    Shift=    0.000
 RMSDP=1.22D-05 MaxDP=3.29D-04 DE=-3.29D-05 OVMax= 7.75D-04

 Cycle   9  Pass 0  IDiag  1:
 RMSU=  7.65D-06    CP:  9.75D-01  4.68D-01  6.57D-01  6.60D-01  5.23D-01
                    CP:  6.69D-01  6.83D-01  5.78D-01
 E= -1010.97447406693     Delta-E=       -0.000003667362 Rises=F Damp=F
 DIIS: error= 5.36D-05 at cycle   9 NSaved=   9.
 NSaved= 9 IEnMin= 9 EnMin= -1010.97447406693     IErMin= 9 ErrMin= 5.36D-05
 ErrMax= 5.36D-05  0.00D+00 EMaxC= 1.00D-01 BMatC= 5.28D-07 BMatP= 4.12D-06
 IDIUse=1 WtCom= 1.00D+00 WtEn= 0.00D+00
 Coeff-Com: -0.144D-03-0.224D-03-0.736D-03-0.885D-03 0.741D-02 0.340D-01
 Coeff-Com:  0.127D+00 0.329D+00 0.505D+00
 Coeff:     -0.144D-03-0.224D-03-0.736D-03-0.885D-03 0.741D-02 0.340D-01
 Coeff:      0.127D+00 0.329D+00 0.505D+00
 Gap=     0.145 Goal=   None    Shift=    0.000
 RMSDP=4.36D-06 MaxDP=1.31D-04 DE=-3.67D-06 OVMax= 3.28D-04

 Initial convergence to 1.0D-05 achieved.  Increase integral accuracy.
 Cycle  10  Pass 1  IDiag  1:
 E= -1010.97450084359     Delta-E=       -0.000026776664 Rises=F Damp=F
 DIIS: error= 4.01D-05 at cycle   1 NSaved=   1.
 NSaved= 1 IEnMin= 1 EnMin= -1010.97450084359     IErMin= 1 ErrMin= 4.01D-05
 ErrMax= 4.01D-05  0.00D+00 EMaxC= 1.00D-01 BMatC= 2.51D-07 BMatP= 2.51D-07
 IDIUse=1 WtCom= 1.00D+00 WtEn= 0.00D+00
 Coeff-Com:  0.100D+01
 Coeff:      0.100D+01
 Gap=     0.145 Goal=   None    Shift=    0.000
 RMSDP=4.36D-06 MaxDP=1.31D-04 DE=-2.68D-05 OVMax= 2.86D-04

 Cycle  11  Pass 1  IDiag  1:
 RMSU=  2.45D-05    CP:  1.00D+00
 E= -1010.97450065389     Delta-E=        0.000000189697 Rises=F Damp=F
 DIIS: error= 3.27D-05 at cycle   2 NSaved=   2.
 NSaved= 2 IEnMin= 1 EnMin= -1010.97450084359     IErMin= 2 ErrMin= 3.27D-05
 ErrMax= 3.27D-05  0.00D+00 EMaxC= 1.00D-01 BMatC= 3.63D-07 BMatP= 2.51D-07
 IDIUse=1 WtCom= 1.00D+00 WtEn= 0.00D+00
 Coeff-Com:  0.559D+00 0.441D+00
 Coeff:      0.559D+00 0.441D+00
 Gap=     0.145 Goal=   None    Shift=    0.000
 RMSDP=4.00D-06 MaxDP=1.05D-04 DE= 1.90D-07 OVMax= 2.85D-04

 Cycle  12  Pass 1  IDiag  1:
 RMSU=  3.95D-06    CP:  1.00D+00  9.74D-01
 E= -1010.97450097387     Delta-E=       -0.000000319978 Rises=F Damp=F
 DIIS: error= 2.30D-05 at cycle   3 NSaved=   3.
 NSaved= 3 IEnMin= 3 EnMin= -1010.97450097387     IErMin= 3 ErrMin= 2.30D-05
 ErrMax= 2.30D-05  0.00D+00 EMaxC= 1.00D-01 BMatC= 8.02D-08 BMatP= 2.51D-07
 IDIUse=1 WtCom= 1.00D+00 WtEn= 0.00D+00
 Coeff-Com:  0.673D-01 0.313D+00 0.620D+00
 Coeff:      0.673D-01 0.313D+00 0.620D+00
 Gap=     0.145 Goal=   None    Shift=    0.000
 RMSDP=1.61D-06 MaxDP=5.42D-05 DE=-3.20D-07 OVMax= 8.91D-05

 Cycle  13  Pass 1  IDiag  1:
 RMSU=  9.22D-07    CP:  1.00D+00  9.90D-01  6.84D-01
 E= -1010.97450103710     Delta-E=       -0.000000063228 Rises=F Damp=F
 DIIS: error= 1.34D-05 at cycle   4 NSaved=   4.
 NSaved= 4 IEnMin= 4 EnMin= -1010.97450103710     IErMin= 4 ErrMin= 1.34D-05
 ErrMax= 1.34D-05  0.00D+00 EMaxC= 1.00D-01 BMatC= 2.12D-08 BMatP= 8.02D-08
 IDIUse=1 WtCom= 1.00D+00 WtEn= 0.00D+00
 Coeff-Com:  0.297D-02 0.192D+00 0.454D+00 0.350D+00
 Coeff:      0.297D-02 0.192D+00 0.454D+00 0.350D+00
 Gap=     0.145 Goal=   None    Shift=    0.000
 RMSDP=6.62D-07 MaxDP=2.54D-05 DE=-6.32D-08 OVMax= 4.86D-05

 Cycle  14  Pass 1  IDiag  1:
 RMSU=  2.13D-07    CP:  1.00D+00  9.91D-01  6.98D-01  3.29D-01
 E= -1010.97450105543     Delta-E=       -0.000000018335 Rises=F Damp=F
 DIIS: error= 1.82D-06 at cycle   5 NSaved=   5.
 NSaved= 5 IEnMin= 5 EnMin= -1010.97450105543     IErMin= 5 ErrMin= 1.82D-06
 ErrMax= 1.82D-06  0.00D+00 EMaxC= 1.00D-01 BMatC= 8.88D-10 BMatP= 2.12D-08
 IDIUse=1 WtCom= 1.00D+00 WtEn= 0.00D+00
 Coeff-Com: -0.232D-02 0.107D+00 0.260D+00 0.232D+00 0.403D+00
 Coeff:     -0.232D-02 0.107D+00 0.260D+00 0.232D+00 0.403D+00
 Gap=     0.145 Goal=   None    Shift=    0.000
 RMSDP=1.36D-07 MaxDP=4.19D-06 DE=-1.83D-08 OVMax= 8.43D-06

 Cycle  15  Pass 1  IDiag  1:
 RMSU=  5.66D-08    CP:  1.00D+00  9.91D-01  7.01D-01  3.73D-01  4.55D-01
 E= -1010.97450105625     Delta-E=       -0.000000000819 Rises=F Damp=F
 DIIS: error= 3.70D-07 at cycle   6 NSaved=   6.
 NSaved= 6 IEnMin= 6 EnMin= -1010.97450105625     IErMin= 6 ErrMin= 3.70D-07
 ErrMax= 3.70D-07  0.00D+00 EMaxC= 1.00D-01 BMatC= 2.30D-11 BMatP= 8.88D-10
 IDIUse=1 WtCom= 1.00D+00 WtEn= 0.00D+00
 Coeff-Com: -0.145D-02 0.538D-01 0.130D+00 0.121D+00 0.232D+00 0.465D+00
 Coeff:     -0.145D-02 0.538D-01 0.130D+00 0.121D+00 0.232D+00 0.465D+00
 Gap=     0.145 Goal=   None    Shift=    0.000
 RMSDP=2.39D-08 MaxDP=9.41D-07 DE=-8.19D-10 OVMax= 1.19D-06

 Cycle  16  Pass 1  IDiag  1:
 RMSU=  1.92D-08    CP:  1.00D+00  9.91D-01  7.00D-01  3.70D-01  4.79D-01
                    CP:  7.83D-01
 E= -1010.97450105627     Delta-E=       -0.000000000017 Rises=F Damp=F
 DIIS: error= 8.30D-08 at cycle   7 NSaved=   7.
 NSaved= 7 IEnMin= 7 EnMin= -1010.97450105627     IErMin= 7 ErrMin= 8.30D-08
 ErrMax= 8.30D-08  0.00D+00 EMaxC= 1.00D-01 BMatC= 1.26D-12 BMatP= 2.30D-11
 IDIUse=1 WtCom= 1.00D+00 WtEn= 0.00D+00
 Coeff-Com: -0.364D-03 0.111D-01 0.264D-01 0.273D-01 0.544D-01 0.203D+00
 Coeff-Com:  0.678D+00
 Coeff:     -0.364D-03 0.111D-01 0.264D-01 0.273D-01 0.544D-01 0.203D+00
 Coeff:      0.678D+00
 Gap=     0.145 Goal=   None    Shift=    0.000
 RMSDP=7.91D-09 MaxDP=4.22D-07 DE=-1.73D-11 OVMax= 4.99D-07

 SCF Done:  E(RB3LYP) =  -1010.97450106     A.U. after   16 cycles
            NFock= 16  Conv=0.79D-08     -V/T= 2.0078
 KE= 1.003110822608D+03 PE=-4.493636728176D+03 EE= 1.407782187496D+03
 Leave Link  502 at Mon Oct 14 01:30:05 2019, MaxMem= 10737418240 cpu:             159.2 elap:               6.7
 (Enter /apps/cent7/gaussian/g16-A.03/g16-haswell/g16/l601.exe)
 Copying SCF densities to generalized density rwf, IOpCl= 0 IROHF=0.

 **********************************************************************

            Population analysis using the SCF density.

 **********************************************************************

 Orbital symmetries:
       Occupied  (A) (A) (A) (A) (A) (A) (A) (A) (A) (A) (A) (A)
                 (A) (A) (A) (A) (A) (A) (A) (A) (A) (A) (A) (A)
                 (A) (A) (A) (A) (A) (A) (A) (A) (A) (A) (A) (A)
                 (A) (A) (A) (A) (A) (A) (A) (A) (A) (A) (A) (A)
                 (A) (A) (A) (A) (A) (A) (A) (A)
       Virtual   (A) (A) (A) (A) (A) (A) (A) (A) (A) (A) (A) (A)
                 (A) (A) (A) (A) (A) (A) (A) (A) (A) (A) (A) (A)
                 (A) (A) (A) (A) (A) (A) (A) (A) (A) (A) (A) (A)
                 (A) (A) (A) (A) (A) (A) (A) (A) (A) (A) (A) (A)
                 (A) (A) (A) (A) (A) (A) (A) (A) (A) (A) (A) (A)
                 (A) (A) (A) (A) (A) (A) (A) (A) (A) (A) (A) (A)
                 (A) (A) (A) (A) (A) (A) (A) (A) (A) (A) (A) (A)
                 (A) (A) (A) (A) (A) (A) (A) (A) (A) (A) (A) (A)
                 (A) (A) (A) (A) (A) (A) (A) (A) (A) (A) (A) (A)
                 (A) (A) (A) (A) (A) (A) (A) (A) (A) (A) (A) (A)
                 (A) (A) (A) (A) (A) (A) (A) (A) (A) (A) (A) (A)
                 (A) (A) (A) (A) (A) (A) (A) (A) (A) (A) (A) (A)
                 (A) (A) (A) (A) (A) (A) (A) (A) (A) (A) (A) (A)
                 (A) (A) (A) (A) (A) (A) (A) (A) (A) (A) (A) (A)
                 (A) (A) (A) (A) (A) (A) (A) (A) (A) (A) (A) (A)
                 (A) (A) (A) (A) (A) (A) (A) (A) (A) (A) (A)
 The electronic state is 1-A.
 Alpha  occ. eigenvalues --  -89.29313 -19.40441 -19.32325 -10.40502 -10.40280
 Alpha  occ. eigenvalues --  -10.38511 -10.38464 -10.37989 -10.37647 -10.36317
 Alpha  occ. eigenvalues --  -10.36230 -10.36140 -10.36034 -10.35941 -10.35680
 Alpha  occ. eigenvalues --   -8.32447  -6.29046  -6.28649  -6.28633  -1.29530
 Alpha  occ. eigenvalues --   -1.16100  -1.06990  -1.01606  -0.97915  -0.94572
 Alpha  occ. eigenvalues --   -0.91766  -0.89002  -0.88862  -0.81479  -0.79628
 Alpha  occ. eigenvalues --   -0.77130  -0.75052  -0.73534  -0.68738  -0.67681
 Alpha  occ. eigenvalues --   -0.65294  -0.63334  -0.63239  -0.61019  -0.60406
 Alpha  occ. eigenvalues --   -0.59845  -0.59011  -0.58760  -0.56355  -0.55082
 Alpha  occ. eigenvalues --   -0.53102  -0.52437  -0.52281  -0.51474  -0.51175
 Alpha  occ. eigenvalues --   -0.47255  -0.45493  -0.45022  -0.42585  -0.41861
 Alpha  occ. eigenvalues --   -0.38751
 Alpha virt. eigenvalues --   -0.24250  -0.19685  -0.18820  -0.17199  -0.13633
 Alpha virt. eigenvalues --   -0.12717  -0.11420  -0.09280  -0.07123  -0.04153
 Alpha virt. eigenvalues --   -0.02252  -0.01166   0.00018   0.01329   0.01559
 Alpha virt. eigenvalues --    0.01751   0.04110   0.04317   0.07239   0.08347
 Alpha virt. eigenvalues --    0.08966   0.09653   0.12876   0.13649   0.13772
 Alpha virt. eigenvalues --    0.16802   0.17704   0.20630   0.20826   0.21475
 Alpha virt. eigenvalues --    0.22476   0.26016   0.27308   0.34367   0.35829
 Alpha virt. eigenvalues --    0.36694   0.36802   0.38308   0.38612   0.38773
 Alpha virt. eigenvalues --    0.39158   0.39968   0.41249   0.42153   0.43960
 Alpha virt. eigenvalues --    0.44153   0.45177   0.45565   0.45739   0.45840
 Alpha virt. eigenvalues --    0.46123   0.47849   0.49556   0.50165   0.55276
 Alpha virt. eigenvalues --    0.56473   0.57441   0.59373   0.60784   0.62247
 Alpha virt. eigenvalues --    0.62531   0.65105   0.66146   0.67086   0.68836
 Alpha virt. eigenvalues --    0.69722   0.70226   0.70609   0.71578   0.72085
 Alpha virt. eigenvalues --    0.72779   0.73133   0.75005   0.76270   0.77188
 Alpha virt. eigenvalues --    0.77809   0.78346   0.80260   0.82102   0.82726
 Alpha virt. eigenvalues --    0.82959   0.84935   0.88174   0.89653   0.90919
 Alpha virt. eigenvalues --    0.92058   0.93709   0.96369   0.96816   0.99856
 Alpha virt. eigenvalues --    1.02903   1.04312   1.05259   1.05493   1.09356
 Alpha virt. eigenvalues --    1.09808   1.11713   1.13813   1.20877   1.21904
 Alpha virt. eigenvalues --    1.23772   1.24770   1.26274   1.28743   1.29331
 Alpha virt. eigenvalues --    1.31490   1.31717   1.32582   1.33048   1.33483
 Alpha virt. eigenvalues --    1.34783   1.36101   1.40135   1.41416   1.47469
 Alpha virt. eigenvalues --    1.54943   1.55275   1.59158   1.60860   1.63365
 Alpha virt. eigenvalues --    1.64535   1.64926   1.67101   1.68499   1.70082
 Alpha virt. eigenvalues --    1.70220   1.71009   1.74423   1.74650   1.77279
 Alpha virt. eigenvalues --    1.77391   1.80704   1.84205   1.84531   1.89283
 Alpha virt. eigenvalues --    1.89814   1.90972   1.93408   1.94769   1.96009
 Alpha virt. eigenvalues --    1.96808   1.97964   1.99170   2.00279   2.02958
 Alpha virt. eigenvalues --    2.04537   2.06571   2.09868   2.11413   2.13081
 Alpha virt. eigenvalues --    2.15769   2.20461   2.21287   2.25964   2.32799
 Alpha virt. eigenvalues --    2.34529   2.36020   2.40412   2.42203   2.44292
 Alpha virt. eigenvalues --    2.45347   2.45985   2.49308   2.49470   2.54150
 Alpha virt. eigenvalues --    2.57636   2.57723   2.59898   2.60086   2.61290
 Alpha virt. eigenvalues --    2.67501   2.80731   2.82875   3.08376   3.12306
 Alpha virt. eigenvalues --    3.25790   3.60670   3.70163   3.80641   3.90792
 Alpha virt. eigenvalues --    3.91414   3.93570   3.94621   3.97984   4.03599
 Alpha virt. eigenvalues --    4.12347   4.15263   4.25004   4.26306   4.46722
 Alpha virt. eigenvalues --    4.60252
          Condensed to atoms (all electrons):
               1          2          3          4          5          6
     1  O    8.272317   0.154424  -0.034754   0.000072  -0.000010  -0.000001
     2  S    0.154424  14.233705   0.131189  -0.051919   0.006706  -0.001208
     3  C   -0.034754   0.131189   5.539013   0.422679  -0.087254  -0.041237
     4  C    0.000072  -0.051919   0.422679   4.796407   0.518779   0.001839
     5  C   -0.000010   0.006706  -0.087254   0.518779   5.036376   0.488121
     6  C   -0.000001  -0.001208  -0.041237   0.001839   0.488121   4.858511
     7  C    0.000025   0.003615  -0.030701  -0.031549  -0.032514   0.523950
     8  C    0.000685  -0.053471   0.458222  -0.009142  -0.047983  -0.018735
     9  C    0.000473  -0.050302  -0.017409   0.318555  -0.058017   0.007840
    10  C   -0.034426   0.117909  -0.058843  -0.020498   0.012771  -0.000229
    11  C   -0.000816  -0.052181   0.004041   0.008775  -0.000138   0.000001
    12  C    0.000009   0.003082  -0.000107   0.000231   0.000009   0.000000
    13  C    0.000000  -0.000950  -0.000241   0.007777   0.000183  -0.000002
    14  C   -0.000025   0.005435   0.012990  -0.057195  -0.017719   0.000180
    15  O   -0.036423   0.408449  -0.048092  -0.000386  -0.000011  -0.000001
    16  H    0.000000  -0.000183   0.006880  -0.034535   0.356272  -0.038149
    17  H   -0.000000   0.000010   0.000698   0.002342  -0.032139   0.363515
    18  H    0.000000  -0.000051   0.003881   0.000614   0.003746  -0.033044
    19  H    0.000057  -0.002662  -0.037838   0.001966   0.000695   0.003309
    20  H    0.000185  -0.001443   0.000073  -0.000191   0.000001  -0.000000
    21  H    0.000000  -0.000045   0.000000  -0.000000  -0.000000   0.000000
    22  H   -0.000000   0.000009   0.000002  -0.000139  -0.000002  -0.000000
    23  H    0.000000  -0.000202  -0.000133  -0.012811   0.004888   0.000080
    24  H    0.241903   0.002759   0.001065   0.000058   0.000002  -0.000000
               7          8          9         10         11         12
     1  O    0.000025   0.000685   0.000473  -0.034426  -0.000816   0.000009
     2  S    0.003615  -0.053471  -0.050302   0.117909  -0.052181   0.003082
     3  C   -0.030701   0.458222  -0.017409  -0.058843   0.004041  -0.000107
     4  C   -0.031549  -0.009142   0.318555  -0.020498   0.008775   0.000231
     5  C   -0.032514  -0.047983  -0.058017   0.012771  -0.000138   0.000009
     6  C    0.523950  -0.018735   0.007840  -0.000229   0.000001   0.000000
     7  C    4.845149   0.519750   0.000170  -0.000121   0.000001  -0.000000
     8  C    0.519750   4.943955   0.009390   0.004022  -0.000015   0.000001
     9  C    0.000170   0.009390   4.790022   0.425730  -0.010337  -0.030952
    10  C   -0.000121   0.004022   0.425730   5.580508   0.454044  -0.031956
    11  C    0.000001  -0.000015  -0.010337   0.454044   4.960147   0.524632
    12  C   -0.000000   0.000001  -0.030952  -0.031956   0.524632   4.836525
    13  C    0.000000   0.000001   0.001005  -0.040963  -0.020450   0.526349
    14  C    0.000010  -0.000136   0.517153  -0.088587  -0.046997  -0.032481
    15  O    0.000015  -0.000200  -0.000394  -0.046306  -0.000071   0.000016
    16  H    0.003718   0.000222  -0.012729  -0.000115   0.000004   0.000001
    17  H   -0.033154   0.003964  -0.000138   0.000002  -0.000000  -0.000000
    18  H    0.367601  -0.035969   0.000000   0.000000  -0.000000   0.000000
    19  H   -0.026553   0.364873  -0.000188   0.000075   0.000001  -0.000000
    20  H   -0.000000   0.000000   0.001845  -0.044297   0.364665  -0.025032
    21  H    0.000000  -0.000000   0.000642   0.003966  -0.036531   0.367224
    22  H   -0.000000  -0.000000   0.002275   0.000732   0.004030  -0.033243
    23  H    0.000001   0.000005  -0.033829   0.006973   0.000259   0.003705
    24  H    0.000000  -0.000058  -0.000141  -0.001375   0.001258  -0.000005
              13         14         15         16         17         18
     1  O    0.000000  -0.000025  -0.036423   0.000000  -0.000000   0.000000
     2  S   -0.000950   0.005435   0.408449  -0.000183   0.000010  -0.000051
     3  C   -0.000241   0.012990  -0.048092   0.006880   0.000698   0.003881
     4  C    0.007777  -0.057195  -0.000386  -0.034535   0.002342   0.000614
     5  C    0.000183  -0.017719  -0.000011   0.356272  -0.032139   0.003746
     6  C   -0.000002   0.000180  -0.000001  -0.038149   0.363515  -0.033044
     7  C    0.000000   0.000010   0.000015   0.003718  -0.033154   0.367601
     8  C    0.000001  -0.000136  -0.000200   0.000222   0.003964  -0.035969
     9  C    0.001005   0.517153  -0.000394  -0.012729  -0.000138   0.000000
    10  C   -0.040963  -0.088587  -0.046306  -0.000115   0.000002   0.000000
    11  C   -0.020450  -0.046997  -0.000071   0.000004  -0.000000  -0.000000
    12  C    0.526349  -0.032481   0.000016   0.000001  -0.000000   0.000000
    13  C    4.858286   0.489381  -0.000001   0.000077  -0.000000   0.000000
    14  C    0.489381   5.037435  -0.000015   0.004864  -0.000002  -0.000000
    15  O   -0.000001  -0.000015   8.160588   0.000000  -0.000000   0.000000
    16  H    0.000077   0.004864   0.000000   0.526795  -0.003669  -0.000127
    17  H   -0.000000  -0.000002  -0.000000  -0.003669   0.500091  -0.003743
    18  H    0.000000  -0.000000   0.000000  -0.000127  -0.003743   0.498055
    19  H   -0.000000   0.000001   0.000199   0.000011  -0.000116  -0.003859
    20  H    0.003402   0.000715   0.000214   0.000000   0.000000  -0.000000
    21  H   -0.032745   0.003732   0.000000  -0.000000  -0.000000  -0.000000
    22  H    0.363465  -0.031951  -0.000000   0.000001   0.000000  -0.000000
    23  H   -0.038347   0.355610   0.000000   0.003281   0.000001  -0.000000
    24  H    0.000001  -0.000010   0.000055  -0.000000   0.000000  -0.000000
              19         20         21         22         23         24
     1  O    0.000057   0.000185   0.000000  -0.000000   0.000000   0.241903
     2  S   -0.002662  -0.001443  -0.000045   0.000009  -0.000202   0.002759
     3  C   -0.037838   0.000073   0.000000   0.000002  -0.000133   0.001065
     4  C    0.001966  -0.000191  -0.000000  -0.000139  -0.012811   0.000058
     5  C    0.000695   0.000001  -0.000000  -0.000002   0.004888   0.000002
     6  C    0.003309  -0.000000   0.000000  -0.000000   0.000080  -0.000000
     7  C   -0.026553  -0.000000   0.000000  -0.000000   0.000001   0.000000
     8  C    0.364873   0.000000  -0.000000  -0.000000   0.000005  -0.000058
     9  C   -0.000188   0.001845   0.000642   0.002275  -0.033829  -0.000141
    10  C    0.000075  -0.044297   0.003966   0.000732   0.006973  -0.001375
    11  C    0.000001   0.364665  -0.036531   0.004030   0.000259   0.001258
    12  C   -0.000000  -0.025032   0.367224  -0.033243   0.003705  -0.000005
    13  C   -0.000000   0.003402  -0.032745   0.363465  -0.038347   0.000001
    14  C    0.000001   0.000715   0.003732  -0.031951   0.355610  -0.000010
    15  O    0.000199   0.000214   0.000000  -0.000000   0.000000   0.000055
    16  H    0.000011   0.000000  -0.000000   0.000001   0.003281  -0.000000
    17  H   -0.000116   0.000000  -0.000000   0.000000   0.000001   0.000000
    18  H   -0.003859  -0.000000  -0.000000  -0.000000  -0.000000  -0.000000
    19  H    0.485177   0.000000  -0.000000   0.000000   0.000000  -0.000009
    20  H    0.000000   0.505479  -0.003945  -0.000122   0.000012   0.000383
    21  H   -0.000000  -0.003945   0.500199  -0.003763  -0.000127   0.000000
    22  H    0.000000  -0.000122  -0.003763   0.500099  -0.003667  -0.000000
    23  H    0.000000   0.000012  -0.000127  -0.003667   0.526734   0.000000
    24  H   -0.000009   0.000383   0.000000  -0.000000   0.000000   0.264098
 Mulliken charges:
               1
     1  O   -0.563698
     2  S    1.147327
     3  C   -0.224125
     4  C    0.138271
     5  C   -0.152765
     6  C   -0.114739
     7  C   -0.109412
     8  C   -0.139382
     9  C    0.139336
    10  C   -0.239017
    11  C   -0.154320
    12  C   -0.108007
    13  C   -0.116228
    14  C   -0.152387
    15  O   -0.437634
    16  H    0.187382
    17  H    0.202338
    18  H    0.202894
    19  H    0.214861
    20  H    0.198056
    21  H    0.201393
    22  H    0.202274
    23  H    0.187567
    24  H    0.490015
 Sum of Mulliken charges =   1.00000
 Mulliken charges with hydrogens summed into heavy atoms:
               1
     1  O   -0.073683
     2  S    1.147327
     3  C   -0.224125
     4  C    0.138271
     5  C    0.034617
     6  C    0.087599
     7  C    0.093482
     8  C    0.075479
     9  C    0.139336
    10  C   -0.239017
    11  C    0.043736
    12  C    0.093386
    13  C    0.086046
    14  C    0.035180
    15  O   -0.437634
 Electronic spatial extent (au):  <R**2>=           3060.7424
 Charge=              1.0000 electrons
 Dipole moment (field-independent basis, Debye):
    X=             -1.2218    Y=             -1.7045    Z=             -3.1781  Tot=              3.8077
 Quadrupole moment (field-independent basis, Debye-Ang):
   XX=            -44.6651   YY=            -65.8074   ZZ=            -93.7771
   XY=             -4.4755   XZ=              2.9258   YZ=             -9.0415
 Traceless Quadrupole moment (field-independent basis, Debye-Ang):
   XX=             23.4181   YY=              2.2758   ZZ=            -25.6939
   XY=             -4.4755   XZ=              2.9258   YZ=             -9.0415
 Octapole moment (field-independent basis, Debye-Ang**2):
  XXX=              3.3703  YYY=             -9.2555  ZZZ=            -10.1622  XYY=            -14.3497
  XXY=            -17.8686  XXZ=             -3.9250  XZZ=             -5.5239  YZZ=             15.9035
  YYZ=            -26.4956  XYZ=              9.1924
 Hexadecapole moment (field-independent basis, Debye-Ang**3):
 XXXX=          -1715.8932 YYYY=          -1180.1536 ZZZZ=           -206.8891 XXXY=             -1.9192
 XXXZ=              0.8471 YYYX=            -41.3980 YYYZ=            -74.8488 ZZZX=             11.0870
 ZZZY=            -29.5031 XXYY=           -472.9191 XXZZ=           -475.6869 YYZZ=           -259.5515
 XXYZ=             -7.7116 YYXZ=             25.7006 ZZXY=            -16.2254
 N-N= 1.071769217016D+03 E-N=-4.493636717491D+03  KE= 1.003110822608D+03
 No NMR shielding tensors so no spin-rotation constants.
 Leave Link  601 at Mon Oct 14 01:30:05 2019, MaxMem= 10737418240 cpu:               3.2 elap:               0.2
 (Enter /apps/cent7/gaussian/g16-A.03/g16-haswell/g16/l701.exe)
 ... and contract with generalized density number  0.
 Compute integral first derivatives.
 Leave Link  701 at Mon Oct 14 01:30:05 2019, MaxMem= 10737418240 cpu:               2.7 elap:               0.1
 (Enter /apps/cent7/gaussian/g16-A.03/g16-haswell/g16/l702.exe)
 L702 exits ... SP integral derivatives will be done elsewhere.
 Leave Link  702 at Mon Oct 14 01:30:05 2019, MaxMem= 10737418240 cpu:               0.5 elap:               0.0
 (Enter /apps/cent7/gaussian/g16-A.03/g16-haswell/g16/l703.exe)
 Integral derivatives from FoFJK, PRISM(SPDF).
 Compute integral first derivatives, UseDBF=F ICtDFT=           0.
 Calling FoFJK, ICntrl=      2127 FMM=F ISym2X=0 I1Cent= 0 IOpClX= 0 NMat=1 NMatS=1 NMatT=0.
 FoFJK:  IHMeth= 1 ICntrl=    2127 DoSepK=F KAlg= 0 I1Cent=           0 FoldK=F
 IRaf=         0 NMat=       1 IRICut=       1 DoRegI=T DoRafI=F ISym2E= 0 IDoP0=0 IntGTp=1.
 FoFCou: FMM=F IPFlag=           0 FMFlag=      100000 FMFlg1=         800
         NFxFlg=           0 DoJE=F BraDBF=F KetDBF=F FulRan=T
         wScrn=  0.000000 ICntrl=      2127 IOpCl=  0 I1Cent=           0 NGrid=           0
         NMat0=    1 NMatS0=      1 NMatT0=    0 NMatD0=    1 NMtDS0=    0 NMtDT0=    0
 Symmetry not used in FoFCou.
 Leave Link  703 at Mon Oct 14 01:30:07 2019, MaxMem= 10737418240 cpu:              43.6 elap:               1.9
 (Enter /apps/cent7/gaussian/g16-A.03/g16-haswell/g16/l716.exe)
 Dipole        =-4.80681296D-01-6.70618937D-01-1.25037762D+00
 ***** Axes restored to original set *****
 -------------------------------------------------------------------
 Center     Atomic                   Forces (Hartrees/Bohr)
 Number     Number              X              Y              Z
 -------------------------------------------------------------------
      1        8          -0.035545581    0.007210398   -0.005453595
      2       16           0.019540513   -0.058965906    0.119544800
      3        6          -0.009604606    0.007614032   -0.015528581
      4        6          -0.032206126    0.007330631   -0.002303217
      5        6          -0.002067182   -0.008305625    0.001322173
      6        6           0.008867005   -0.007868787    0.000126028
      7        6           0.007502535    0.002639936    0.001342890
      8        6           0.003763218   -0.002489345    0.000046325
      9        6           0.031738271    0.016388455   -0.000710130
     10        6           0.003844281    0.013427604   -0.010437443
     11        6          -0.004247346   -0.001875051   -0.000085514
     12        6          -0.007261868    0.000415323    0.000390436
     13        6          -0.007077015   -0.009707813    0.000162586
     14        6           0.004111035   -0.007019462    0.000824431
     15        8          -0.005313778    0.048872858   -0.091991886
     16        1          -0.001182845   -0.003676572    0.000137108
     17        1           0.002680491   -0.002358141   -0.000184069
     18        1           0.004000045   -0.000230730    0.000295647
     19        1           0.000072197    0.003450428   -0.000265125
     20        1           0.000050049    0.003283616    0.000829378
     21        1          -0.003720547   -0.001093266    0.000243003
     22        1          -0.001941833   -0.002947609   -0.000136399
     23        1           0.002194215   -0.003136941    0.000004642
     24        1           0.021804871   -0.000958032    0.001826509
 -------------------------------------------------------------------
 Cartesian Forces:  Max     0.119544800 RMS     0.021927407
 Leave Link  716 at Mon Oct 14 01:30:07 2019, MaxMem= 10737418240 cpu:               0.6 elap:               0.0
 (Enter /apps/cent7/gaussian/g16-A.03/g16-haswell/g16/l103.exe)

 GradGradGradGradGradGradGradGradGradGradGradGradGradGradGradGradGradGrad
 Berny optimization.
 FormGI is forming the generalized inverse of G from B-inverse, IUseBI=4.
 GSVD:  received Info=                   1 from GESDD.
 Internal  Forces:  Max     0.103919229 RMS     0.010511664
 Search for a local minimum.
 Step number   1 out of a maximum of  144
 All quantities printed in internal units (Hartrees-Bohrs-Radians)
 RMS Force = .10512D-01 SwitMx=.10000D-02 MixMth= 1
 Mixed Optimization -- RFO/linear search
 Second derivative matrix not updated -- first step.
 ITU=  0
     Eigenvalues ---    0.01065   0.01405   0.01534   0.01740   0.01795
     Eigenvalues ---    0.01872   0.01931   0.01932   0.01944   0.01944
     Eigenvalues ---    0.01944   0.01944   0.01962   0.01962   0.01989
     Eigenvalues ---    0.01991   0.02018   0.02020   0.02585   0.08341
     Eigenvalues ---    0.09007   0.11263   0.12416   0.16000   0.16000
     Eigenvalues ---    0.16000   0.16000   0.16000   0.16000   0.16000
     Eigenvalues ---    0.16000   0.16000   0.22000   0.22000   0.22595
     Eigenvalues ---    0.22595   0.23658   0.24501   0.24622   0.24998
     Eigenvalues ---    0.27972   0.28186   0.34804   0.34805   0.34806
     Eigenvalues ---    0.34806   0.34812   0.34812   0.34814   0.34815
     Eigenvalues ---    0.37909   0.38081   0.39931   0.40421   0.40431
     Eigenvalues ---    0.42855   0.43516   0.43743   0.43751   0.44072
     Eigenvalues ---    0.44084   0.44806   0.44818   0.50651   0.50732
     Eigenvalues ---    0.55473
 RFO step:  Lambda=-3.49079353D-02 EMin= 1.06496272D-02
 Linear search not attempted -- first point.
 Iteration  1 RMS(Cart)=  0.04865254 RMS(Int)=  0.00117325
 Iteration  2 RMS(Cart)=  0.00150384 RMS(Int)=  0.00036639
 Iteration  3 RMS(Cart)=  0.00000203 RMS(Int)=  0.00036639
 Iteration  4 RMS(Cart)=  0.00000000 RMS(Int)=  0.00036639
 ITry= 1 IFail=0 DXMaxC= 1.98D-01 DCOld= 1.00D+10 DXMaxT= 3.00D-01 DXLimC= 3.00D+00 Rises=F
 Variable       Old X    -DE/DX   Delta X   Delta X   Delta X     New X
                                 (Linear)    (Quad)   (Total)
    R1        3.02834  -0.00159   0.00000  -0.00294  -0.00294   3.02540
    R2        1.81414   0.01927   0.00000   0.03268   0.03268   1.84682
    R3        3.34631  -0.00416   0.00000  -0.01430  -0.01401   3.33230
    R4        3.34671  -0.00085   0.00000  -0.00403  -0.00372   3.34299
    R5        3.02914  -0.10392   0.00000  -0.19194  -0.19194   2.83720
    R6        2.66763  -0.00166   0.00000  -0.00239  -0.00254   2.66509
    R7        2.65055  -0.01302   0.00000  -0.02634  -0.02631   2.62425
    R8        2.66968  -0.01520   0.00000  -0.03210  -0.03210   2.63757
    R9        2.71620   0.02377   0.00000   0.05605   0.05565   2.77185
   R10        2.66593  -0.01123   0.00000  -0.02410  -0.02413   2.64179
   R11        2.05993  -0.00386   0.00000  -0.01008  -0.01008   2.04986
   R12        2.66658  -0.00905   0.00000  -0.01970  -0.01973   2.64685
   R13        2.05994  -0.00355   0.00000  -0.00928  -0.00928   2.05066
   R14        2.66111  -0.01279   0.00000  -0.02696  -0.02696   2.63415
   R15        2.05991  -0.00384   0.00000  -0.01003  -0.01003   2.04987
   R16        2.05977  -0.00334   0.00000  -0.00872  -0.00872   2.05104
   R17        2.66713  -0.00261   0.00000  -0.00444  -0.00457   2.66256
   R18        2.66983  -0.01468   0.00000  -0.03100  -0.03101   2.63882
   R19        2.65072  -0.01236   0.00000  -0.02502  -0.02498   2.62573
   R20        2.66127  -0.01248   0.00000  -0.02631  -0.02630   2.63497
   R21        2.05982  -0.00282   0.00000  -0.00737  -0.00737   2.05245
   R22        2.66651  -0.00910   0.00000  -0.01978  -0.01980   2.64671
   R23        2.05980  -0.00374   0.00000  -0.00975  -0.00975   2.05005
   R24        2.66603  -0.01171   0.00000  -0.02510  -0.02513   2.64090
   R25        2.05977  -0.00352   0.00000  -0.00919  -0.00919   2.05058
   R26        2.05991  -0.00381   0.00000  -0.00996  -0.00996   2.04995
    A1        2.09440  -0.01860   0.00000  -0.09544  -0.09544   1.99896
    A2        1.95207  -0.01126   0.00000  -0.08541  -0.08613   1.86594
    A3        1.95244  -0.00048   0.00000  -0.01237  -0.01431   1.93813
    A4        1.96451  -0.00112   0.00000  -0.00623  -0.00540   1.95910
    A5        1.67636   0.00049   0.00000  -0.00279  -0.00388   1.67248
    A6        1.94998   0.00678   0.00000   0.05304   0.05180   2.00178
    A7        1.95029   0.00588   0.00000   0.05481   0.05403   2.00432
    A8        1.86605   0.00455   0.00000   0.01538   0.01564   1.88169
    A9        2.26800  -0.01067   0.00000  -0.03879  -0.03904   2.22896
   A10        2.14911   0.00613   0.00000   0.02353   0.02335   2.17246
   A11        2.05752  -0.00341   0.00000  -0.01197  -0.01181   2.04571
   A12        2.00802  -0.00411   0.00000  -0.01170  -0.01197   1.99605
   A13        2.21761   0.00752   0.00000   0.02366   0.02378   2.24139
   A14        2.09569  -0.00222   0.00000  -0.00848  -0.00851   2.08718
   A15        2.09497   0.00125   0.00000   0.00495   0.00496   2.09993
   A16        2.09253   0.00097   0.00000   0.00353   0.00354   2.09607
   A17        2.10377   0.00428   0.00000   0.01552   0.01548   2.11925
   A18        2.08944  -0.00245   0.00000  -0.00933  -0.00931   2.08013
   A19        2.08998  -0.00183   0.00000  -0.00619  -0.00617   2.08381
   A20        2.10105   0.00059   0.00000   0.00145   0.00145   2.10250
   A21        2.09291   0.00090   0.00000   0.00540   0.00539   2.09831
   A22        2.08922  -0.00149   0.00000  -0.00684  -0.00684   2.08238
   A23        2.05922  -0.00537   0.00000  -0.02009  -0.02005   2.03917
   A24        2.10869   0.00358   0.00000   0.01462   0.01456   2.12325
   A25        2.11528   0.00179   0.00000   0.00547   0.00542   2.12070
   A26        2.00831  -0.00606   0.00000  -0.01852  -0.01878   1.98953
   A27        2.21723   0.00802   0.00000   0.02550   0.02561   2.24284
   A28        2.05762  -0.00197   0.00000  -0.00702  -0.00687   2.05075
   A29        1.86597   0.00507   0.00000   0.01708   0.01742   1.88339
   A30        2.26800  -0.00948   0.00000  -0.03450  -0.03478   2.23322
   A31        2.14920   0.00441   0.00000   0.01751   0.01734   2.16654
   A32        2.05910  -0.00449   0.00000  -0.01672  -0.01668   2.04242
   A33        2.10878   0.00397   0.00000   0.01722   0.01713   2.12591
   A34        2.11530   0.00052   0.00000  -0.00050  -0.00059   2.11471
   A35        2.10106   0.00053   0.00000   0.00122   0.00124   2.10230
   A36        2.08942  -0.00134   0.00000  -0.00612  -0.00614   2.08328
   A37        2.09271   0.00081   0.00000   0.00490   0.00488   2.09759
   A38        2.10379   0.00402   0.00000   0.01459   0.01457   2.11835
   A39        2.08988  -0.00177   0.00000  -0.00606  -0.00605   2.08383
   A40        2.08952  -0.00225   0.00000  -0.00853  -0.00852   2.08100
   A41        2.09557  -0.00252   0.00000  -0.00963  -0.00966   2.08592
   A42        2.09523   0.00160   0.00000   0.00656   0.00657   2.10180
   A43        2.09238   0.00092   0.00000   0.00307   0.00308   2.09546
    D1        2.59607  -0.00064   0.00000  -0.00189  -0.00153   2.59454
    D2        0.73813   0.00508   0.00000   0.05395   0.05284   0.79097
    D3       -1.47486  -0.00158   0.00000  -0.00505  -0.00431  -1.47917
    D4       -2.04291  -0.00067   0.00000   0.00409   0.00307  -2.03984
    D5        1.09138   0.00106   0.00000   0.02412   0.02276   1.11413
    D6       -0.00983  -0.00455   0.00000  -0.03837  -0.03858  -0.04842
    D7        3.12445  -0.00282   0.00000  -0.01834  -0.01889   3.10556
    D8        2.02017   0.00443   0.00000   0.03845   0.03934   2.05951
    D9       -1.12874   0.00616   0.00000   0.05847   0.05903  -1.06970
   D10        2.04303  -0.00788   0.00000  -0.06339  -0.06348   1.97954
   D11       -1.09163  -0.00858   0.00000  -0.08006  -0.07986  -1.17150
   D12        0.01025   0.00468   0.00000   0.03790   0.03819   0.04845
   D13       -3.12441   0.00398   0.00000   0.02123   0.02181  -3.10259
   D14       -2.01949  -0.00503   0.00000  -0.03750  -0.03801  -2.05750
   D15        1.12903  -0.00572   0.00000  -0.05417  -0.05439   1.07464
   D16        3.14076   0.00236   0.00000   0.02887   0.02917  -3.11325
   D17        0.00682   0.00323   0.00000   0.02884   0.02893   0.03575
   D18        0.00586   0.00086   0.00000   0.01085   0.01060   0.01646
   D19       -3.12808   0.00173   0.00000   0.01082   0.01036  -3.11772
   D20       -3.13569  -0.00277   0.00000  -0.03375  -0.03339   3.11411
   D21        0.00580  -0.00180   0.00000  -0.02155  -0.02136  -0.01556
   D22       -0.00245  -0.00081   0.00000  -0.01096  -0.01074  -0.01318
   D23        3.13904   0.00016   0.00000   0.00124   0.00129   3.14033
   D24       -0.00482  -0.00039   0.00000  -0.00555  -0.00528  -0.01009
   D25        3.13664   0.00003   0.00000  -0.00332  -0.00325   3.13339
   D26        3.12808  -0.00144   0.00000  -0.00572  -0.00521   3.12288
   D27       -0.01364  -0.00102   0.00000  -0.00349  -0.00318  -0.01682
   D28        0.00082   0.00023   0.00000  -0.00099  -0.00099  -0.00018
   D29        3.13451  -0.00158   0.00000  -0.00616  -0.00600   3.12851
   D30       -3.13230   0.00125   0.00000  -0.00082  -0.00106  -3.13336
   D31        0.00139  -0.00056   0.00000  -0.00599  -0.00606  -0.00467
   D32        0.00061  -0.00004   0.00000   0.00106   0.00112   0.00173
   D33       -3.14085   0.00020   0.00000   0.00228   0.00220  -3.13865
   D34       -3.14085  -0.00046   0.00000  -0.00116  -0.00090   3.14143
   D35        0.00087  -0.00022   0.00000   0.00006   0.00018   0.00105
   D36        0.00293   0.00010   0.00000  -0.00113  -0.00128   0.00164
   D37       -3.13869  -0.00006   0.00000  -0.00199  -0.00208  -3.14077
   D38       -3.13880  -0.00014   0.00000  -0.00236  -0.00237  -3.14117
   D39        0.00277  -0.00030   0.00000  -0.00321  -0.00317  -0.00040
   D40       -0.00202   0.00031   0.00000   0.00585   0.00577   0.00374
   D41        3.13968  -0.00066   0.00000  -0.00639  -0.00624   3.13344
   D42        3.13959   0.00048   0.00000   0.00671   0.00656  -3.13703
   D43       -0.00189  -0.00050   0.00000  -0.00554  -0.00545  -0.00734
   D44       -0.00801  -0.00355   0.00000  -0.02738  -0.02739  -0.03540
   D45        3.12724  -0.00298   0.00000  -0.01238  -0.01204   3.11519
   D46        3.14072  -0.00197   0.00000  -0.02288  -0.02314   3.11758
   D47       -0.00722  -0.00140   0.00000  -0.00787  -0.00779  -0.01501
   D48       -3.12777   0.00240   0.00000   0.00926   0.00898  -3.11879
   D49        0.01379   0.00169   0.00000   0.00577   0.00560   0.01939
   D50        0.00572   0.00054   0.00000   0.00392   0.00378   0.00950
   D51       -3.13590  -0.00017   0.00000   0.00043   0.00041  -3.13549
   D52        3.13708   0.00210   0.00000   0.02637   0.02609  -3.12001
   D53       -0.00453   0.00059   0.00000   0.00850   0.00824   0.00371
   D54        0.00341   0.00131   0.00000   0.00737   0.00731   0.01072
   D55       -3.13820  -0.00019   0.00000  -0.01050  -0.01054   3.13444
   D56        0.00190  -0.00040   0.00000  -0.00303  -0.00302  -0.00111
   D57       -3.13962  -0.00075   0.00000  -0.00793  -0.00784   3.13573
   D58       -3.13967   0.00111   0.00000   0.01490   0.01471  -3.12496
   D59        0.00200   0.00076   0.00000   0.01001   0.00989   0.01189
   D60       -0.00321  -0.00038   0.00000  -0.00050  -0.00045  -0.00366
   D61        3.13820   0.00010   0.00000   0.00047   0.00048   3.13868
   D62        3.13831  -0.00003   0.00000   0.00440   0.00441  -3.14046
   D63       -0.00346   0.00045   0.00000   0.00538   0.00534   0.00188
   D64       -0.00073   0.00029   0.00000  -0.00002  -0.00003  -0.00076
   D65        3.14090   0.00100   0.00000   0.00345   0.00333  -3.13896
   D66        3.14104  -0.00020   0.00000  -0.00100  -0.00096   3.14009
   D67       -0.00052   0.00051   0.00000   0.00248   0.00241   0.00189
         Item               Value     Threshold  Converged?
 Maximum Force            0.103919     0.000450     NO 
 RMS     Force            0.010512     0.000300     NO 
 Maximum Displacement     0.198256     0.001800     NO 
 RMS     Displacement     0.049033     0.001200     NO 
 Predicted change in Energy=-1.943633D-02
 Lowest energy point so far.  Saving SCF results.
 GradGradGradGradGradGradGradGradGradGradGradGradGradGradGradGradGradGrad

 Leave Link  103 at Mon Oct 14 01:30:07 2019, MaxMem= 10737418240 cpu:               1.4 elap:               0.1
 (Enter /apps/cent7/gaussian/g16-A.03/g16-haswell/g16/l202.exe)
                          Input orientation:                          
 ---------------------------------------------------------------------
 Center     Atomic      Atomic             Coordinates (Angstroms)
 Number     Number       Type             X           Y           Z
 ---------------------------------------------------------------------
      1          8           0       -1.037154   -2.143243   -1.297523
      2         16           0       -1.087254   -1.294828    0.059238
      3          6           0       -2.531009   -0.285474   -0.019989
      4          6           0       -2.115970    1.062364   -0.014194
      5          6           0       -3.114182    2.037641   -0.036631
      6          6           0       -4.456862    1.650306   -0.075660
      7          6           0       -4.827084    0.299552   -0.090838
      8          6           0       -3.855673   -0.699823   -0.065169
      9          6           0       -0.661022    1.247435    0.005364
     10          6           0        0.069634    0.042766    0.015198
     11          6           0        1.457280   -0.027587    0.003492
     12          6           0        2.152811    1.180885   -0.006096
     13          6           0        1.460510    2.398396   -0.005137
     14          6           0        0.063670    2.441061    0.000991
     15          8           0       -0.997461   -2.166470    1.278389
     16          1           0       -2.851770    3.090103   -0.025687
     17          1           0       -5.227506    2.414032   -0.095710
     18          1           0       -5.874964    0.020893   -0.121981
     19          1           0       -4.123671   -1.751575   -0.068835
     20          1           0        1.982389   -0.978205    0.018323
[...]
 005714,-0.00031617,0.00000550,-0.00010616,0.00072203,-0.00000416,-0.00
 063643,0.00015850,-0.00023196,0.07475164,0.00029335,-0.00012466,-0.000
 09599,-0.00134440,-0.00047187,0.00006129,0.00315695,-0.00050407,0.0001
 7089,-0.00493563,-0.01657061,0.00037241,-0.06178276,-0.33289911,0.0054
 0232,-0.00019161,-0.00373034,0.00014143,-0.00109905,0.00132609,0.00010
 839,0.00018341,0.00043023,-0.00002547,-0.00102200,0.00033560,-0.000096
 45,0.00037995,-0.00002610,-0.00003205,-0.00024459,0.00002340,-0.000008
 94,-0.00004133,0.00012812,-0.00000416,0.00012480,0.00028653,0.00000482
 ,0.00013281,-0.00028128,0.00001374,0.00038591,-0.00009013,0.00008889,0
 .06589065,0.35086945,-0.00038579,0.00034487,0.00002883,0.00018217,-0.0
 0010102,0.00112789,-0.00014399,0.00028713,0.00636273,0.00017389,0.0003
 4772,0.00302258,0.00097933,0.00540599,-0.03787416,0.00001982,0.0000565
 9,0.00387681,-0.00003877,0.00009281,0.00684799,-0.00004363,-0.00001848
 ,-0.00057108,0.00007177,-0.00010431,-0.00366846,-0.00001929,-0.0000222
 6,-0.00017693,0.00002038,0.00001251,0.00012650,-0.00000022,-0.00002309
 ,0.00000203,-0.00001656,-0.00000815,-0.00012464,0.00001712,0.00003637,
 -0.00003288,0.00035980,-0.00026130,-0.00005752,-0.00107075,-0.00596007
 ,0.02524490,0.00006828,0.00001439,0.00003687,-0.00031792,-0.00002044,-
 0.00000217,-0.00001741,-0.00112289,0.00004088,-0.00450089,-0.00256379,
 0.00002367,-0.01694739,0.02127813,-0.00040519,-0.21110320,0.14370069,-
 0.00282362,0.01054245,-0.00749759,0.00014736,0.00032308,-0.00251126,0.
 00004717,-0.00013713,0.00129200,-0.00002017,-0.00037719,-0.00020520,-0
 .00001082,-0.00001822,0.00016173,-0.00000348,0.00000085,-0.00000134,0.
 00000101,0.00000101,-0.00003600,-0.00000100,-0.00000612,0.00009550,0.0
 0000229,0.00005435,0.00003751,-0.00004308,0.00105337,0.00002408,0.0000
 0701,0.22027005,0.00002307,0.00003745,0.00001371,0.00010623,-0.0001360
 2,-0.00002772,-0.00145497,-0.00023765,-0.00000481,-0.00276165,0.000141
 19,0.00011098,-0.00904707,0.01101772,-0.00010544,0.14374161,-0.1981521
 4,0.00304758,0.02287222,-0.01578303,0.00040704,-0.00200274,-0.00499513
 ,0.00024405,-0.00035887,0.00059847,-0.00001390,-0.00022397,-0.00014847
 ,-0.00000652,0.00006349,0.00012200,-0.00000079,0.00001438,-0.00006770,
 0.00000099,-0.00005008,0.00000055,-0.00000194,0.00007509,0.00006611,0.
 00000286,0.00001171,0.00004645,-0.00000954,0.00022060,0.00080606,-0.00
 008337,-0.15230350,0.20641022,0.00021646,-0.00029367,-0.00007075,0.000
 01986,0.00004732,-0.00112812,0.00005617,0.00001470,0.00032192,0.000043
 78,0.00012277,0.00693376,0.00007926,-0.00009491,0.00482960,-0.00277735
 ,0.00306517,-0.04205042,-0.00043803,0.00038133,0.00526606,0.00003922,0
 .00023071,0.00693732,-0.00003699,-0.00000033,0.00012824,0.00000995,-0.
 00005446,-0.00014131,0.00000981,-0.00000330,-0.00003146,0.00000571,0.0
 0000172,-0.00007205,0.00000225,-0.00000241,0.00004256,-0.00000324,-0.0
 0001081,-0.00001840,-0.00018436,0.00029534,-0.00001571,0.00000582,-0.0
 0008763,-0.00379067,0.00300816,-0.00348684,0.02716215,-0.00008413,0.00
 012645,0.00009119,0.00000078,-0.00072040,0.00002164,-0.00100291,0.0031
 6936,-0.00004963,0.00046326,0.00027551,-0.00000928,0.00122678,-0.00057
 157,0.00002267,-0.00153338,-0.00004858,0.00000872,-0.32897071,-0.07574
 530,0.00176717,-0.01632337,-0.00655784,0.00013483,-0.00007165,-0.00001
 282,0.00000047,-0.00028049,0.00023177,0.00001285,0.00009142,-0.0001051
 0,0.00001458,-0.00002220,-0.00002905,-0.00000432,-0.00001760,-0.000014
 06,-0.00000090,0.00000226,-0.00002689,-0.00000282,-0.00006116,0.000174
 39,-0.00011372,-0.00010099,0.00013940,-0.00000387,0.00073325,-0.000033
 31,-0.00000483,0.34507709,0.00004555,-0.00008864,-0.00007066,0.0009274
 7,0.00066939,-0.00006553,0.00262830,-0.00248294,0.00017866,0.00058544,
 -0.00132394,0.00002005,-0.00044248,-0.00538897,0.00023870,-0.03062599,
 -0.00384910,0.00017075,-0.07596265,-0.08083350,0.00093426,0.02393097,0
 .00905396,-0.00013352,0.00014833,0.00012977,-0.00001388,0.00054027,-0.
 00030793,-0.00002139,-0.00014838,0.00019711,-0.00002833,0.00004942,0.0
 0008416,0.00000727,0.00009180,-0.00000793,0.00000256,-0.00006085,-0.00
 006417,0.00000344,0.00000855,-0.00020647,0.00017051,-0.00148178,-0.000
 23352,-0.00000851,0.00016342,0.00099064,-0.00009363,0.07996165,0.08252
 098,-0.00001148,0.00002752,-0.00004402,-0.00011789,0.00002692,0.001063
 30,-0.00005178,0.00014130,0.00616690,-0.00009129,0.00002778,-0.0006968
 3,0.00003020,0.00023213,0.00684786,0.00057157,0.00013369,0.00372271,0.
 00183839,0.00092336,-0.03792586,-0.00043998,-0.00007807,0.00339873,0.0
 0008728,0.00000265,-0.00068652,0.00004885,0.00009747,0.00018782,-0.000
 03799,-0.00004174,-0.00041508,0.00000659,0.00005690,-0.00003653,0.0000
 5371,-0.00002583,-0.00007281,-0.00004422,-0.00003448,0.00005182,0.0000
 3304,-0.00011374,-0.00002322,0.00003225,0.00000246,-0.00008516,-0.0000
 0282,-0.00009726,-0.00389919,-0.00189371,-0.00118721,0.02616996,0.0003
 1866,0.00052990,0.00011994,-0.00005515,-0.00287605,0.00007911,-0.00349
 510,-0.02944518,0.00062419,-0.00483633,0.00087173,-0.00004736,-0.00073
 608,0.00035778,-0.00000398,-0.00366381,0.00299641,-0.00003282,0.011264
 99,0.02303916,-0.00044602,-0.07562992,-0.06536150,0.00131007,0.0001302
 2,-0.00161211,0.00002884,0.00020677,-0.00015466,-0.00004696,-0.0001205
 1,0.00014324,-0.00000490,0.00000878,0.00006896,0.00000156,0.00000631,-
 0.00015574,0.00000026,-0.00041608,0.00026625,-0.00000429,0.00041838,0.
 00075300,-0.00021494,0.00017607,-0.00005415,0.00000178,0.00045469,0.00
 116214,-0.00002949,0.00088089,-0.00039432,0.00000076,0.07531716,0.0000
 6214,0.00006111,0.00019889,0.00024333,-0.00023416,-0.00015810,-0.00161
 183,-0.00248021,0.00008433,-0.00050863,0.00184851,0.00008791,0.0008358
 1,0.00031411,-0.00001757,0.00329249,-0.00112110,0.00017018,-0.00675670
 ,-0.01449326,0.00040947,-0.06430885,-0.33380679,0.00599293,-0.00006620
 ,-0.00023952,0.00003141,-0.00009246,-0.00007106,0.00003214,0.00004619,
 0.00002728,-0.00000032,-0.00000844,-0.00006763,-0.00000293,-0.00006909
 ,0.00001122,-0.00000608,0.00006066,0.00008201,-0.00000707,-0.00016591,
 0.00005979,-0.00021749,-0.00006734,-0.00002701,-0.00002015,-0.00046988
 ,-0.00071032,0.00000539,-0.00016294,0.00102185,-0.00010925,0.06977729,
 0.34978249,0.00020489,-0.00103203,-0.00038853,0.00006290,0.00013774,-0
 .00182794,0.00004298,-0.00010972,0.00141316,-0.00013448,0.00016409,0.0
 0670297,0.00007777,-0.00002756,-0.00047982,-0.00008247,0.00009215,0.00
 707819,0.00009750,0.00039724,0.00493503,0.00138158,0.00616138,-0.03683
 077,-0.00001390,0.00003274,0.00117431,0.00000562,0.00002714,0.00013554
 ,0.00000430,-0.00001104,-0.00000313,0.00001069,0.00000625,-0.00008458,
 0.00002457,-0.00001223,-0.00010543,-0.00001041,-0.00002524,-0.00042393
 ,-0.00021017,0.00085896,-0.00036103,0.00000042,-0.00001887,-0.00110508
 ,0.00000723,0.00000026,-0.00040919,-0.00000404,-0.00009937,-0.00393906
 ,-0.00150290,-0.00651185,0.02459344,0.00019627,-0.00023610,-0.00015763
 ,-0.00051421,0.00266366,-0.00035859,0.00014049,0.00020017,0.00005123,-
 0.00030681,0.00160275,-0.00007383,-0.00030223,-0.00037122,0.00002530,-
 0.00004793,0.00014371,0.00000159,0.00002188,-0.00005154,0.00000207,-0.
 00007463,-0.00016292,-0.00001044,-0.00429979,-0.00253203,-0.00051194,-
 0.01117911,0.02703482,-0.00120779,-0.12606760,0.12137448,-0.00794487,0
 .01351351,-0.01532424,0.00073914,-0.00183055,-0.00319220,-0.00047621,-
 0.00038807,-0.00055602,0.00001648,0.00076656,-0.00076164,0.00037053,0.
 00002008,-0.00000152,-0.00000234,-0.00004443,-0.00002303,-0.00000423,0
 .00000951,-0.00001645,0.00000119,-0.00004229,-0.00000298,0.00000229,0.
 12929123,0.00010683,-0.00005925,0.00015787,-0.00033441,0.00030471,-0.0
 0018828,0.00015147,0.00001204,0.00008091,0.00003605,0.00019333,0.00003
 464,-0.00015311,-0.00002881,-0.00003505,0.00004949,0.00006634,-0.00000
 458,0.00003451,-0.00007405,-0.00000699,-0.00006919,-0.00003392,0.00000
 347,-0.00109970,0.00128289,0.00023560,-0.00072051,0.00524893,-0.000035
 63,0.11985867,-0.28105161,0.01215896,0.01463922,-0.01723332,0.00124897
 ,-0.00362730,-0.00291262,0.00008819,-0.00100274,-0.00003318,-0.0000626
 5,0.00028365,0.00001658,-0.00022215,0.00000731,-0.00000529,0.00000138,
 -0.00000765,-0.00000118,0.00000716,0.00000327,-0.00000434,-0.00000039,
 -0.00000765,0.00000305,0.00000254,-0.12913345,0.29390002,0.00018417,-0
 .00094471,-0.00077570,0.00010450,0.00003580,-0.00184454,0.00004635,0.0
 0012315,0.00014725,-0.00005896,0.00010856,0.00117777,-0.00002203,-0.00
 002606,-0.00042882,0.00000128,0.00001079,-0.00010476,0.00000812,-0.000
 00082,-0.00008961,0.00001058,-0.00002374,0.00000512,-0.00038321,-0.000
 02001,0.00667628,-0.00060375,0.00088712,0.00134069,-0.00818548,0.01311
 050,-0.03717052,0.00024004,-0.00040458,0.00482127,-0.00031211,-0.00008
 992,0.00704989,-0.00005625,-0.00011980,-0.00046221,-0.00012374,0.00088
 112,-0.00033960,-0.00000127,0.00000189,0.00003286,-0.00000231,0.000000
 26,0.00009102,0.00000116,-0.00000202,0.00002038,-0.00000272,0.00000028
 ,0.00001441,0.00934575,-0.01323431,0.02525643,-0.00003617,-0.00010475,
 -0.00010861,0.00011823,0.00057096,-0.00003928,-0.00008641,-0.00017544,
 -0.00001772,-0.00002067,-0.00003145,0.00002992,-0.00002635,0.00003856,
 -0.00000123,0.00000399,0.00001756,0.00000291,-0.00001070,0.00000310,0.
 00000319,0.00003636,0.00006232,0.00001936,0.00055299,0.00023985,0.0000
 6549,0.00035894,-0.00243120,-0.00023760,-0.01016270,0.00137574,-0.0006
 8197,-0.34945836,0.00268297,-0.01501575,-0.00941453,-0.00146939,-0.000
 60739,0.00052229,0.00217335,-0.00035870,-0.00002971,-0.00012650,0.0000
 7149,0.00001155,-0.00000567,-0.00000219,-0.00000044,-0.00000017,-0.000
 00027,-0.00000632,0.00000674,-0.00000603,0.00000536,-0.00000048,-0.000
 00161,0.00074052,0.00009070,0.00021664,0.36660993,-0.00003066,-0.00016
 311,-0.00020964,-0.00102736,0.00061440,-0.00006118,-0.00047412,-0.0005
 0004,0.00000088,-0.00018380,0.00007781,-0.00002661,0.00006860,-0.00003
 577,0.00000447,-0.00008673,-0.00002710,-0.00000105,-0.00007532,0.00007
 064,-0.00000063,0.00010698,0.00025095,-0.00001726,-0.00008015,-0.00140
 942,0.00003931,-0.00187760,-0.00389880,0.00005849,-0.02907353,0.002898
 70,-0.00140202,0.00290300,-0.05951364,0.00058246,0.02906333,0.00410268
 ,0.00138373,0.00204269,-0.00469071,0.00025721,0.00003396,-0.00022370,0
 .00018970,-0.00004440,0.00003550,-0.00000087,0.00000173,0.00000105,-0.
 00000026,-0.00001638,0.00002929,0.00000209,0.00001886,0.00000002,0.000
 00027,0.00031011,0.00116112,-0.00009023,-0.00271881,0.06010040,0.00005
 258,0.00011041,0.00002417,-0.00004872,0.00006497,0.00101083,-0.0000317
 3,-0.00000763,0.00017165,0.00001575,-0.00000374,-0.00067150,-0.0000111
 1,0.00000380,0.00005227,0.00000651,0.00000315,-0.00007500,-0.00000152,
 -0.00000622,-0.00003628,-0.00000327,-0.00000222,-0.00040573,0.00008509
 ,0.00014526,-0.00072633,-0.00009182,-0.00003857,0.00617879,-0.00037612
 ,-0.00008223,0.00329470,-0.01515007,0.00081578,-0.03855100,-0.00096780
 ,-0.00022414,0.00368559,-0.00033380,0.00027735,0.00683276,0.00003894,-
 0.00009854,-0.00001379,0.00000102,-0.00000121,0.00004646,0.00000020,0.
 00000013,0.00000132,-0.00000049,0.00000242,0.00011653,0.,0.00000060,0.
 00002032,0.00026327,-0.00015684,-0.00391676,0.01642316,-0.00068413,0.0
 2691699,0.00006455,0.00000115,-0.00001526,-0.00027314,-0.00000320,0.00
 002768,-0.00046352,0.00012603,0.00001270,0.00014866,-0.00141681,-0.000
 02298,0.00004013,-0.00009986,0.00000570,-0.00001997,0.00003110,-0.0000
 0089,0.00000021,0.00001875,0.,0.00004745,-0.00018145,0.00000555,-0.005
 50574,0.00104082,-0.00038715,-0.00069690,0.00098798,-0.00007704,-0.001
 14451,0.00352018,-0.00046425,0.01260314,0.01519647,0.00013943,-0.13747
 623,-0.12728672,-0.00232590,-0.01192079,-0.02750115,-0.00042773,0.0000
 6609,-0.00004589,0.00004646,-0.00001384,0.00001586,-0.00000254,-0.0000
 2124,-0.00000818,0.00000035,0.00000004,-0.00000200,0.00000054,-0.00004
 916,-0.00000418,-0.00000287,0.00054308,0.00083006,0.00004384,0.0007737
 3,-0.00021835,0.00021861,0.14221085,-0.00000010,0.00002200,0.00000090,
 -0.00014854,-0.00015448,-0.00000042,0.00013810,-0.00005759,0.00000151,
 0.00023308,0.00031056,0.00000762,-0.00008015,0.00001831,-0.00000189,0.
 00004406,0.00002194,0.00000005,0.00000410,-0.00006631,0.00000030,-0.00
 008418,0.00005502,0.00000013,0.00122122,0.00116911,0.00009132,0.001318
 54,0.00041776,0.00004349,0.00302785,-0.00344874,0.00031461,-0.01515322
 ,-0.01789128,-0.00037146,-0.12732054,-0.27181199,-0.00236699,0.0028048
 7,0.00600675,0.00012720,-0.00002160,0.00004242,-0.00000671,0.00000828,
 -0.00000361,0.00000065,0.00000177,0.00000252,-0.00000015,-0.00000009,0
 .00000059,-0.00000060,0.00000986,0.00000348,0.00000125,-0.00081074,-0.
 00082814,-0.00004588,-0.00001993,0.00094094,-0.00007773,0.13494405,0.2
 8447542,-0.00005376,-0.00035498,-0.00019273,0.00002652,0.00001053,-0.0
 0106271,-0.00003219,-0.00000821,-0.00012720,0.00003745,-0.00006668,0.0
 0011999,-0.00000400,-0.00001224,-0.00001345,0.00000643,0.00000884,0.00
 004317,0.00000507,-0.00000874,-0.00007179,-0.00000833,-0.00001150,-0.0
 0003324,-0.00049424,0.00002138,0.00694914,-0.00002777,0.00004420,0.000
 24948,-0.00049902,0.00032287,0.00692733,0.00048617,0.00107014,0.005169
 12,-0.00239667,-0.00246365,-0.04186777,-0.00055981,-0.00112091,0.00474
 080,0.00006635,0.00031132,-0.00000077,-0.00000010,0.00000125,-0.000007
 48,-0.00000102,-0.00000044,-0.00000085,0.00000065,-0.00000076,0.000001
 31,-0.00000282,0.00000189,0.00008981,0.00006151,0.00004579,-0.00037378
 ,0.00023575,-0.00007844,-0.00389038,0.00306247,0.00232480,0.02716187,-
 0.00036835,-0.00010620,-0.00025288,0.00130942,-0.00100956,-0.00002538,
 0.00003241,0.00007618,-0.00004057,0.00015906,0.00067072,0.00014936,0.0
 0009895,-0.00062263,0.00000943,-0.00008287,0.00021564,0.00000048,0.000
 04431,0.00001171,0.00000777,0.00004515,0.00015390,-0.00000213,0.012769
 85,-0.01621694,0.00036511,-0.00129966,-0.00252427,-0.00027167,-0.00083
 568,-0.00072358,-0.00001008,-0.00543855,-0.00135547,-0.00043188,-0.010
 17614,0.02943929,-0.00066639,-0.12243508,0.11743292,-0.00349166,-0.000
 46901,-0.00026434,0.00027437,-0.00110054,-0.00001326,-0.00004075,-0.00
 000721,-0.00000935,-0.00000237,0.00000060,0.00003490,-0.00000391,0.000
 02017,-0.00000177,-0.00000324,0.00012891,0.00011656,0.00004689,-0.0004
 4865,0.00142409,-0.00006784,0.00109361,-0.00013998,0.00016289,0.126985
 55,-0.00035819,-0.00014256,-0.00023409,0.00185314,-0.00044511,0.000107
 19,-0.00036866,-0.00010123,-0.00006996,0.00097609,0.00078430,-0.000032
 23,-0.00003183,-0.00048055,0.00003013,-0.00022306,0.00031065,-0.000007
 22,0.00001890,0.00014313,0.00000047,0.00025246,0.00012893,0.00000112,0
 .01288474,-0.01964125,0.00060238,-0.00334413,-0.00209535,-0.00012607,-
 0.00054141,0.00019127,-0.00001911,-0.00074399,0.00125252,-0.00001931,-
 0.00157400,0.00434198,-0.00003981,0.11890611,-0.28412165,0.00568247,-0
 .00050393,-0.00029193,0.00020133,-0.00047012,0.00069740,-0.00001646,-0
 .00001668,-0.00001042,-0.00000076,-0.00000382,0.00004624,-0.00000020,0
 .00000893,-0.00000603,-0.00000266,0.00009811,0.00001767,-0.00000295,-0
 .00019908,0.00011712,-0.00002308,0.00005595,0.00076108,-0.00001740,-0.
 12663477,0.29848176,0.00027202,0.00033671,0.00012131,-0.00013345,-0.00
 008936,0.00109662,0.00003881,-0.00003915,-0.00017526,0.00004722,-0.000
 00921,-0.00363583,-0.00003498,0.00000968,-0.00004300,0.00002025,0.0000
 2172,-0.00012590,0.00000779,-0.00002112,-0.00000101,-0.00002179,0.0000
 0938,0.00012133,0.00009517,-0.00079157,0.00308617,-0.00027550,0.000138
 76,0.00640258,0.00013288,0.00007114,-0.00056364,-0.00046131,-0.0000783
 9,0.00684493,-0.00080313,0.00110164,0.00387497,-0.00309469,0.00578681,
 -0.03800928,-0.00027761,-0.00033830,-0.00009040,-0.00003874,-0.0000003
 2,0.00062582,0.00000115,0.,-0.00000539,0.00000012,0.00000121,0.0000479
 7,0.00000065,0.00000066,0.00003375,0.00006858,-0.00002882,-0.00111642,
 -0.00000767,0.00002266,-0.00008683,0.00017285,-0.00005520,-0.00378818,
 0.00424947,-0.00607107,0.02533502,-0.14886680,0.21692495,-0.00067726,0
 .00000272,-0.00087422,-0.00028932,0.00073035,0.00142987,0.00180988,-0.
 00104503,-0.00019782,0.00024672,0.00023577,0.00006439,-0.00007539,-0.0
 0005564,-0.00003056,0.00005140,-0.00007467,-0.00005351,0.00000430,0.00
 038355,0.00027026,-0.00015672,0.00007938,0.00017902,-0.00008764,-0.000
 28792,-0.00091980,-0.00240744,0.00067812,-0.00066956,-0.00004119,-0.00
 019271,0.00001880,0.00036865,0.00021990,-0.00016093,-0.00005211,-0.000
 56002,-0.00026309,0.00022775,-0.00109347,-0.00098632,-0.00172243,-0.00
 003333,0.00000879,-0.00006239,-0.00000259,-0.00001365,-0.00001563,-0.0
 0001098,0.00001209,-0.00000327,-0.00016402,-0.00002021,0.00004336,-0.0
 0027437,-0.00005208,-0.00049748,-0.00003285,-0.00006613,-0.00002084,-0
 .00000649,0.00002331,-0.00007153,-0.00002625,-0.00004079,0.00004190,0.
 15039737,0.20886276,-0.31480591,-0.01334919,0.00764431,-0.01345640,-0.
 00821983,0.00049643,0.00091312,0.00096222,-0.00076024,0.00015470,-0.00
 039772,0.00026953,0.00004439,0.00005854,-0.00008691,0.00000601,-0.0000
 0515,-0.00003886,-0.00027318,0.00011103,-0.00026185,0.00046877,-0.0002
 4039,0.00117657,-0.00002707,-0.00006800,-0.00108639,-0.00008655,0.0004
 1770,-0.00031073,0.00014954,-0.00015947,-0.00003351,0.00013472,0.00007
 118,0.00021390,-0.00007910,0.00000227,-0.00041773,0.00002949,0.0000023
 5,-0.00088239,-0.00006550,0.00452080,-0.00002641,0.00002923,0.00004201
 ,-0.00001473,0.00000163,-0.00004247,-0.00003366,0.00004746,0.00001451,
 0.00005787,0.00004219,-0.00003143,-0.00025174,0.00005901,-0.00015443,0
 .00002101,0.00006169,-0.00001762,-0.00000060,0.00001426,-0.00001904,0.
 00004618,0.00006201,0.00002213,-0.21458281,0.32657549,-0.02410395,0.02
 221827,-0.03187935,0.02314002,-0.04270246,-0.00877232,-0.00039118,-0.0
 0244662,-0.00413062,0.00081370,-0.00004921,-0.00082894,0.00019242,-0.0
 0027993,0.00049452,-0.00011420,-0.00007030,-0.00011473,0.00007160,-0.0
 0017624,0.00044643,-0.00044928,-0.00012177,-0.00002416,0.00091941,0.00
 002660,-0.00030502,-0.00091314,0.00059106,-0.00102609,-0.00016301,-0.0
 0008235,-0.00002042,-0.00008988,0.00019635,0.00007100,0.00019655,-0.00
 000371,-0.00000415,-0.00034945,0.00005827,0.00010570,-0.00224769,0.006
 34853,0.00331700,0.00007265,-0.00003861,0.00014865,-0.00000731,0.00001
 069,-0.00008044,0.00001154,-0.00000501,0.00002898,0.00017204,0.0000347
 3,-0.00023246,-0.00020106,-0.00008981,-0.00001064,0.00001810,0.0000310
 6,0.00002123,-0.00000955,0.00001319,-0.00002168,0.00004500,0.00005730,
 0.00005067,0.00338668,0.01647997,0.04276685\\-0.00000630,-0.00000020,0
 .00001298,0.00000268,-0.00001012,-0.00001047,0.00000490,-0.00000284,0.
 00001044,0.00000464,-0.00000266,0.00000553,0.00000370,0.00000196,-0.00
 000476,-0.00000386,0.00000115,0.00000302,-0.00000016,0.00000139,0.0000
 0221,-0.00000078,0.00000324,-0.00001075,-0.00000661,-0.00000235,-0.000
 00658,-0.00000666,-0.00000309,-0.00000676,0.00000542,0.00000453,0.0000
 1148,0.00000199,-0.00000251,-0.00000283,0.00000355,-0.00000002,0.00000
 419,-0.00000710,0.00000226,0.00000534,0.00000124,0.00000804,-0.0000035
 9,0.00000001,-0.00000004,0.00000059,-0.00000132,-0.00000024,-0.0000008
 3,-0.00000084,-0.00000079,0.00000036,0.00000068,-0.00000094,0.00000175
 ,0.00000112,-0.00000009,-0.00000290,0.00000073,0.00000081,-0.00000082,
 0.00000161,0.00000054,-0.00000023,0.00000102,-0.00000105,-0.00000149,0
 .00000034,0.00000302,-0.00000589\\\@


 OF ALL THE WONDERS OF THE UNIVERSE, THE GREATEST IS MAN.

                                    -- ARISTOTLE
 Job cpu time:       0 days  0 hours 26 minutes  1.2 seconds.
 Elapsed time:       0 days  0 hours  1 minutes  5.7 seconds.
 File lengths (MBytes):  RWF=    186 Int=      0 D2E=      0 Chk=      6 Scr=      1
 Normal termination of Gaussian 16 at Mon Oct 14 01:32:55 2019.
real 178.52
user 4086.13
sys 29.06
Machine:
brown-a380
brown-a380
brown-a380
brown-a380
brown-a380
brown-a380
brown-a380
brown-a380
brown-a380
brown-a380
brown-a380
brown-a380
brown-a380
brown-a380
brown-a380
brown-a380
brown-a380
brown-a380
brown-a380
brown-a380
brown-a380
brown-a380
brown-a380
brown-a380
