Title Card Required                                                     
Freq      RB3LYP                                                      6-31G(d)            
Number of atoms                            I               24
Info1-9                                    I   N=           9
          58          58        1002           0           0         100
           6          18        -502
Full Title                                 C   N=           2
Title Card Required     
Route                                      C   N=           6
#P opt freq b3lyp/6-31g(d) geom=connectivity temperature=0.0
01          
Charge                                     I                1
Multiplicity                               I                1
Number of electrons                        I              112
Number of alpha electrons                  I               56
Number of beta electrons                   I               56
Number of basis functions                  I              247
Number of independent functions            I              247
Number of point charges in /Mol/           I                0
Number of translation vectors              I                0
Atomic numbers                             I   N=          24
           8          16           6           6           6           6
           6           6           6           6           6           6
           6           6           8           1           1           1
           1           1           1           1           1           1
Nuclear charges                            R   N=          24
  8.00000000E+00  1.60000000E+01  6.00000000E+00  6.00000000E+00  6.00000000E+00
  6.00000000E+00  6.00000000E+00  6.00000000E+00  6.00000000E+00  6.00000000E+00
  6.00000000E+00  6.00000000E+00  6.00000000E+00  6.00000000E+00  8.00000000E+00
  1.00000000E+00  1.00000000E+00  1.00000000E+00  1.00000000E+00  1.00000000E+00
  1.00000000E+00  1.00000000E+00  1.00000000E+00  1.00000000E+00
Current cartesian coordinates              R   N=          72
  2.91346074E-01  4.12665354E+00 -2.58028796E+00  9.18918333E-03  2.81157446E+00
  1.70815294E-01  2.45235297E+00  5.51862174E-01  1.05879400E-01  1.38341719E+00
 -1.88042475E+00 -1.58077145E-02  3.03165092E+00 -3.93020912E+00 -7.09458891E-02
  5.64259598E+00 -3.49410499E+00  4.15524962E-03  6.63889633E+00 -1.04940925E+00
  1.33354094E-01  5.02875120E+00  1.04488270E+00  1.84624447E-01 -1.41274569E+00
 -1.87016888E+00 -4.45026560E-02 -2.46405676E+00  5.70821747E-01  6.09393922E-02
 -5.03769338E+00  1.07539542E+00  1.51458873E-01 -6.66232459E+00 -1.00783306E+00
  8.95746430E-02 -5.68224501E+00 -3.45864929E+00 -4.23906668E-02 -3.07372303E+00
 -3.90997388E+00 -9.99061191E-02 -1.10884122E-01  4.71607411E+00  2.16085989E+00
  2.31418690E+00 -5.84872407E+00 -1.68377756E-01  6.92076193E+00 -5.09812341E+00
 -3.52625463E-02  8.66846442E+00 -7.67794343E-01  1.95560756E-01  5.76350999E+00
  2.95662207E+00  2.87136919E-01 -5.76665862E+00  2.98827713E+00  2.81680145E-01
 -8.68997440E+00 -7.12773420E-01  1.53409561E-01 -6.97032964E+00 -5.05453719E+00
 -8.56508767E-02 -2.36667400E+00 -5.83341171E+00 -1.75294558E-01 -5.33265872E-01
  5.79031943E+00 -2.56942015E+00
Number of symbols in /Mol/                 I                0
Force Field                                I                0
Atom Types                                 C   N=          24
                                                            
                                                            
                                                            
                                                            
                                                
Int Atom Types                             I   N=          24
           0           0           0           0           0           0
           0           0           0           0           0           0
           0           0           0           0           0           0
           0           0           0           0           0           0
MM charges                                 R   N=          24
  0.00000000E+00  0.00000000E+00  0.00000000E+00  0.00000000E+00  0.00000000E+00
  0.00000000E+00  0.00000000E+00  0.00000000E+00  0.00000000E+00  0.00000000E+00
  0.00000000E+00  0.00000000E+00  0.00000000E+00  0.00000000E+00  0.00000000E+00
  0.00000000E+00  0.00000000E+00  0.00000000E+00  0.00000000E+00  0.00000000E+00
  0.00000000E+00  0.00000000E+00  0.00000000E+00  0.00000000E+00
Integer atomic weights                     I   N=          24
          16          32          12          12          12          12
          12          12          12          12          12          12
          12          12          16           1           1           1
           1           1           1           1           1           1
Real atomic weights                        R   N=          24
  1.59949146E+01  3.19720718E+01  1.20000000E+01  1.20000000E+01  1.20000000E+01
  1.20000000E+01  1.20000000E+01  1.20000000E+01  1.20000000E+01  1.20000000E+01
  1.20000000E+01  1.20000000E+01  1.20000000E+01  1.20000000E+01  1.59949146E+01
  1.00782504E+00  1.00782504E+00  1.00782504E+00  1.00782504E+00  1.00782504E+00
  1.00782504E+00  1.00782504E+00  1.00782504E+00  1.00782504E+00
Atom fragment info                         I   N=          24
           0           0           0           0           0           0
           0           0           0           0           0           0
           0           0           0           0           0           0
           0           0           0           0           0           0
Atom residue num                           I   N=          24
           0           0           0           0           0           0
           0           0           0           0           0           0
           0           0           0           0           0           0
           0           0           0           0           0           0
Nuclear spins                              I   N=          24
           0           0           0           0           0           0
           0           0           0           0           0           0
           0           0           0           1           1           1
           1           1           1           1           1           1
Nuclear ZEff                               R   N=          24
 -5.60000000E+00 -1.36000000E+01 -3.60000000E+00 -3.60000000E+00 -3.60000000E+00
 -3.60000000E+00 -3.60000000E+00 -3.60000000E+00 -3.60000000E+00 -3.60000000E+00
 -3.60000000E+00 -3.60000000E+00 -3.60000000E+00 -3.60000000E+00 -5.60000000E+00
 -1.00000000E+00 -1.00000000E+00 -1.00000000E+00 -1.00000000E+00 -1.00000000E+00
 -1.00000000E+00 -1.00000000E+00 -1.00000000E+00 -1.00000000E+00
Nuclear ZNuc                               R   N=          24
  8.00000000E+00  1.60000000E+01  6.00000000E+00  6.00000000E+00  6.00000000E+00
  6.00000000E+00  6.00000000E+00  6.00000000E+00  6.00000000E+00  6.00000000E+00
  6.00000000E+00  6.00000000E+00  6.00000000E+00  6.00000000E+00  8.00000000E+00
  1.00000000E+00  1.00000000E+00  1.00000000E+00  1.00000000E+00  1.00000000E+00
  1.00000000E+00  1.00000000E+00  1.00000000E+00  1.00000000E+00
Nuclear QMom                               R   N=          24
  0.00000000E+00  0.00000000E+00  0.00000000E+00  0.00000000E+00  0.00000000E+00
  0.00000000E+00  0.00000000E+00  0.00000000E+00  0.00000000E+00  0.00000000E+00
  0.00000000E+00  0.00000000E+00  0.00000000E+00  0.00000000E+00  0.00000000E+00
  0.00000000E+00  0.00000000E+00  0.00000000E+00  0.00000000E+00  0.00000000E+00
  0.00000000E+00  0.00000000E+00  0.00000000E+00  0.00000000E+00
Nuclear GFac                               R   N=          24
  0.00000000E+00  0.00000000E+00  0.00000000E+00  0.00000000E+00  0.00000000E+00
  0.00000000E+00  0.00000000E+00  0.00000000E+00  0.00000000E+00  0.00000000E+00
  0.00000000E+00  0.00000000E+00  0.00000000E+00  0.00000000E+00  0.00000000E+00
  2.79284600E+00  2.79284600E+00  2.79284600E+00  2.79284600E+00  2.79284600E+00
  2.79284600E+00  2.79284600E+00  2.79284600E+00  2.79284600E+00
MicOpt                                     I   N=          24
          -1          -1          -1          -1          -1          -1
          -1          -1          -1          -1          -1          -1
          -1          -1          -1          -1          -1          -1
          -1          -1          -1          -1          -1          -1
Number of residues                         I                0
Number of secondary structures             I                0
Redundant internal dimensions              I   N=           4
         136          26          43          67
Redundant internal coordinate indices      I   N=         544
           1           2           0           0           1          24
           0           0           2           3           0           0
           2          10           0           0           2          15
           0           0           3           4           0           0
           3           8           0           0           4           5
           0           0           4           9           0           0
           5           6           0           0           5          16
           0           0           6           7           0           0
           6          17           0           0           7           8
           0           0           7          18           0           0
           8          19           0           0           9          10
           0           0           9          14           0           0
          10          11           0           0          11          12
           0           0          11          20           0           0
          12          13           0           0          12          21
           0           0          13          14           0           0
          13          22           0           0          14          23
           0           0           2           1          24           0
           1           2           3           0           1           2
          10           0           1           2          15           0
           3           2          10           0           3           2
          15           0          10           2          15           0
           2           3           4           0           2           3
           8           0           4           3           8           0
           3           4           5           0           3           4
           9           0           5           4           9           0
           4           5           6           0           4           5
          16           0           6           5          16           0
           5           6           7           0           5           6
          17           0           7           6          17           0
           6           7           8           0           6           7
          18           0           8           7          18           0
           3           8           7           0           3           8
          19           0           7           8          19           0
           4           9          10           0           4           9
          14           0          10           9          14           0
           2          10           9           0           2          10
          11           0           9          10          11           0
          10          11          12           0          10          11
          20           0          12          11          20           0
          11          12          13           0          11          12
          21           0          13          12          21           0
          12          13          14           0          12          13
          22           0          14          13          22           0
           9          14          13           0           9          14
          23           0          13          14          23           0
          24           1           2           3          24           1
           2          10          24           1           2          15
           1           2           3           4           1           2
           3           8          10           2           3           4
          10           2           3           8          15           2
           3           4          15           2           3           8
           1           2          10           9           1           2
          10          11           3           2          10           9
           3           2          10          11          15           2
          10           9          15           2          10          11
           2           3           4           5           2           3
           4           9           8           3           4           5
           8           3           4           9           2           3
           8           7           2           3           8          19
           4           3           8           7           4           3
           8          19           3           4           5           6
           3           4           5          16           9           4
           5           6           9           4           5          16
           3           4           9          10           3           4
           9          14           5           4           9          10
           5           4           9          14           4           5
           6           7           4           5           6          17
          16           5           6           7          16           5
           6          17           5           6           7           8
           5           6           7          18          17           6
           7           8          17           6           7          18
           6           7           8           3           6           7
           8          19          18           7           8           3
          18           7           8          19           4           9
          10           2           4           9          10          11
          14           9          10           2          14           9
          10          11           4           9          14          13
           4           9          14          23          10           9
          14          13          10           9          14          23
           2          10          11          12           2          10
          11          20           9          10          11          12
           9          10          11          20          10          11
          12          13          10          11          12          21
          20          11          12          13          20          11
          12          21          11          12          13          14
          11          12          13          22          21          12
          13          14          21          12          13          22
          12          13          14           9          12          13
          14          23          22          13          14           9
          22          13          14          23
Redundant internal coordinates             R   N=         136
  3.06228911E+00  1.85684872E+00  3.32859814E+00  3.33916022E+00  2.75713873E+00
  2.65959605E+00  2.62432807E+00  2.63084219E+00  2.79632892E+00  2.64818072E+00
  2.05059679E+00  2.64307472E+00  2.05137443E+00  2.64220642E+00  2.04995689E+00
  2.05064055E+00  2.65985117E+00  2.63110617E+00  2.62419393E+00  2.64255504E+00
  2.05121046E+00  2.64281498E+00  2.04999971E+00  2.64790272E+00  2.05131461E+00
  2.05066205E+00  1.91621258E+00  1.77867434E+00  1.90377880E+00  1.93457326E+00
  1.65835557E+00  2.11178374E+00  2.04319655E+00  1.90365395E+00  2.20490953E+00
  2.17457614E+00  2.05070913E+00  1.98123116E+00  2.25120343E+00  2.08150087E+00
  2.10684754E+00  2.09483601E+00  2.12392732E+00  2.07716428E+00  2.08209157E+00
  2.09945682E+00  2.09641332E+00  2.08731499E+00  2.03618969E+00  2.12751502E+00
  2.11947537E+00  1.98033633E+00  2.25057386E+00  2.05193886E+00  1.90115911E+00
  2.20961287E+00  2.17178819E+00  2.03819263E+00  2.12944042E+00  2.11551077E+00
  2.09929892E+00  2.08736197E+00  2.09651368E+00  2.12289979E+00  2.08248436E+00
  2.07776589E+00  2.08208072E+00  2.10630706E+00  2.09477939E+00 -2.79027980E+00
  1.75379916E+00 -5.20459175E-01 -1.92555760E+00  1.22597497E+00  6.92873725E-03
 -3.12472400E+00  2.20335259E+00 -9.28300151E-01  1.81488347E+00 -1.36355766E+00
 -8.15935326E-03  3.09658483E+00 -2.25460183E+00  8.50142349E-01 -3.13657655E+00
 -3.89951590E-03 -4.71130495E-03  3.12796573E+00  3.13207885E+00 -6.08508685E-03
  1.89829339E-03 -3.13626565E+00  3.58216033E-03 -3.13944718E+00 -3.12749329E+00
  1.26626854E-02 -2.24001232E-03 -3.11492515E+00  3.12917853E+00  1.64933954E-02
  2.55938668E-05  3.13937770E+00 -3.14014045E+00 -7.88344930E-04 -2.93558967E-03
  3.13801000E+00  3.14090377E+00 -1.33593808E-03  1.95666616E-03  3.14013757E+00
 -3.13899230E+00 -8.11397926E-04  7.21079992E-03 -3.09851551E+00  3.12344320E+00
  1.77168998E-02  3.10868254E+00 -2.64379544E-02 -2.99670265E-03 -3.13811720E+00
 -3.11857726E+00  1.33333826E-02 -1.92486946E-02  3.11266195E+00  6.31766812E-03
 -3.14024666E+00 -3.12567562E+00  1.09453574E-02  7.29516728E-03  3.13977404E+00
 -3.12929962E+00  3.17924882E-03 -8.94516407E-03  3.12621887E+00 -3.14144802E+00
 -6.28398405E-03
ZRed-IntVec                                I   N=         136
           0           0           0           0           0           0
           0           0           0           0           0           0
           0           0           0           0           0           0
           0           0           0           0           0           0
           0           0           0           0           0           0
           0           0           0           0           0           0
           0           0           0           0           0           0
           0           0           0           0           0           0
           0           0           0           0           0           0
           0           0           0           0           0           0
           0           0           0           0           0           0
           0           0           0           0           0           0
           0           0           0           0           0           0
           0           0           0           0           0           0
           0           0           0           0           0           0
           0           0           0           0           0           0
           0           0           0           0           0           0
           0           0           0           0           0           0
           0           0           0           0           0           0
           0           0           0           0           0           0
           0           0           0           0           0           0
           0           0           0           0           0           0
           0           0           0           0
ZRed-FPVec                                 R   N=         136
  0.00000000E+00  0.00000000E+00  0.00000000E+00  0.00000000E+00  0.00000000E+00
  0.00000000E+00  0.00000000E+00  0.00000000E+00  0.00000000E+00  0.00000000E+00
  0.00000000E+00  0.00000000E+00  0.00000000E+00  0.00000000E+00  0.00000000E+00
  0.00000000E+00  0.00000000E+00  0.00000000E+00  0.00000000E+00  0.00000000E+00
  0.00000000E+00  0.00000000E+00  0.00000000E+00  0.00000000E+00  0.00000000E+00
  0.00000000E+00  0.00000000E+00  0.00000000E+00  0.00000000E+00  0.00000000E+00
  0.00000000E+00  0.00000000E+00  0.00000000E+00  0.00000000E+00  0.00000000E+00
  0.00000000E+00  0.00000000E+00  0.00000000E+00  0.00000000E+00  0.00000000E+00
  0.00000000E+00  0.00000000E+00  0.00000000E+00  0.00000000E+00  0.00000000E+00
  0.00000000E+00  0.00000000E+00  0.00000000E+00  0.00000000E+00  0.00000000E+00
  0.00000000E+00  0.00000000E+00  0.00000000E+00  0.00000000E+00  0.00000000E+00
  0.00000000E+00  0.00000000E+00  0.00000000E+00  0.00000000E+00  0.00000000E+00
  0.00000000E+00  0.00000000E+00  0.00000000E+00  0.00000000E+00  0.00000000E+00
  0.00000000E+00  0.00000000E+00  0.00000000E+00  0.00000000E+00  0.00000000E+00
  0.00000000E+00  0.00000000E+00  0.00000000E+00  0.00000000E+00  0.00000000E+00
  0.00000000E+00  0.00000000E+00  0.00000000E+00  0.00000000E+00  0.00000000E+00
  0.00000000E+00  0.00000000E+00  0.00000000E+00  0.00000000E+00  0.00000000E+00
  0.00000000E+00  0.00000000E+00  0.00000000E+00  0.00000000E+00  0.00000000E+00
  0.00000000E+00  0.00000000E+00  0.00000000E+00  0.00000000E+00  0.00000000E+00
  0.00000000E+00  0.00000000E+00  0.00000000E+00  0.00000000E+00  0.00000000E+00
  0.00000000E+00  0.00000000E+00  0.00000000E+00  0.00000000E+00  0.00000000E+00
  0.00000000E+00  0.00000000E+00  0.00000000E+00  0.00000000E+00  0.00000000E+00
  0.00000000E+00  0.00000000E+00  0.00000000E+00  0.00000000E+00  0.00000000E+00
  0.00000000E+00  0.00000000E+00  0.00000000E+00  0.00000000E+00  0.00000000E+00
  0.00000000E+00  0.00000000E+00  0.00000000E+00  0.00000000E+00  0.00000000E+00
  0.00000000E+00  0.00000000E+00  0.00000000E+00  0.00000000E+00  0.00000000E+00
  0.00000000E+00  0.00000000E+00  0.00000000E+00  0.00000000E+00  0.00000000E+00
  0.00000000E+00
ZRed-Constraint1                           R   N=         136
  3.06228911E+00  1.85684872E+00  3.32859814E+00  3.33916022E+00  2.75713873E+00
  2.65959605E+00  2.62432807E+00  2.63084219E+00  2.79632892E+00  2.64818072E+00
  2.05059679E+00  2.64307472E+00  2.05137443E+00  2.64220642E+00  2.04995689E+00
  2.05064055E+00  2.65985117E+00  2.63110617E+00  2.62419393E+00  2.64255504E+00
  2.05121046E+00  2.64281498E+00  2.04999971E+00  2.64790272E+00  2.05131461E+00
  2.05066205E+00  1.91621258E+00  1.77867434E+00  1.90377880E+00  1.93457326E+00
  1.65835557E+00  2.11178374E+00  2.04319655E+00  1.90365395E+00  2.20490953E+00
  2.17457614E+00  2.05070913E+00  1.98123116E+00  2.25120343E+00  2.08150087E+00
  2.10684754E+00  2.09483601E+00  2.12392732E+00  2.07716428E+00  2.08209157E+00
  2.09945682E+00  2.09641332E+00  2.08731499E+00  2.03618969E+00  2.12751502E+00
  2.11947537E+00  1.98033633E+00  2.25057386E+00  2.05193886E+00  1.90115911E+00
  2.20961287E+00  2.17178819E+00  2.03819263E+00  2.12944042E+00  2.11551077E+00
  2.09929892E+00  2.08736197E+00  2.09651368E+00  2.12289979E+00  2.08248436E+00
  2.07776589E+00  2.08208072E+00  2.10630706E+00  2.09477939E+00 -2.79027980E+00
  1.75379916E+00 -5.20459175E-01 -1.92555760E+00  1.22597497E+00  6.92873725E-03
 -3.12472400E+00  2.20335259E+00 -9.28300151E-01  1.81488347E+00 -1.36355766E+00
 -8.15935326E-03  3.09658483E+00 -2.25460183E+00  8.50142349E-01 -3.13657655E+00
 -3.89951590E-03 -4.71130495E-03  3.12796573E+00  3.13207885E+00 -6.08508685E-03
  1.89829339E-03 -3.13626565E+00  3.58216033E-03 -3.13944718E+00 -3.12749329E+00
  1.26626854E-02 -2.24001232E-03 -3.11492515E+00  3.12917853E+00  1.64933954E-02
  2.55938668E-05  3.13937770E+00 -3.14014045E+00 -7.88344930E-04 -2.93558967E-03
  3.13801000E+00  3.14090377E+00 -1.33593808E-03  1.95666616E-03  3.14013757E+00
 -3.13899230E+00 -8.11397926E-04  7.21079992E-03 -3.09851551E+00  3.12344320E+00
  1.77168998E-02  3.10868254E+00 -2.64379544E-02 -2.99670265E-03 -3.13811720E+00
 -3.11857726E+00  1.33333826E-02 -1.92486946E-02  3.11266195E+00  6.31766812E-03
 -3.14024666E+00 -3.12567562E+00  1.09453574E-02  7.29516728E-03  3.13977404E+00
 -3.12929962E+00  3.17924882E-03 -8.94516407E-03  3.12621887E+00 -3.14144802E+00
 -6.28398405E-03
ZRed-Constraint2                           R   N=         136
  3.02833994E+00  1.81413707E+00  3.34631423E+00  3.34671489E+00  3.02914185E+00
  2.66762835E+00  2.65055447E+00  2.66967589E+00  2.71620365E+00  2.66592736E+00
  2.05993248E+00  2.66658152E+00  2.05993696E+00  2.66110617E+00  2.05990543E+00
  2.05976557E+00  2.66713117E+00  2.66983178E+00  2.65071633E+00  2.66126803E+00
  2.05981703E+00  2.66651074E+00  2.05980482E+00  2.66603390E+00  2.05977307E+00
  2.05990585E+00  2.09439510E+00  1.95207085E+00  1.95244453E+00  1.96450724E+00
  1.67636066E+00  1.94998004E+00  1.95029409E+00  1.86605025E+00  2.26800365E+00
  2.14910800E+00  2.05752165E+00  2.00802291E+00  2.21761135E+00  2.09568904E+00
  2.09496858E+00  2.09252768E+00  2.10376594E+00  2.08944092E+00  2.08997844E+00
  2.10105372E+00  2.09291403E+00  2.08921756E+00  2.05921662E+00  2.10868628E+00
  2.11528240E+00  2.00830726E+00  2.21722894E+00  2.05762356E+00  1.86596537E+00
  2.26799671E+00  2.14920216E+00  2.05910359E+00  2.10878065E+00  2.11530107E+00
  2.10105831E+00  2.08941828E+00  2.09270872E+00  2.10378597E+00  2.08988007E+00
  2.08951925E+00  2.09557476E+00  2.09523164E+00  2.09237892E+00  2.59606664E+00
  7.38132246E-01 -1.47485857E+00 -2.04290629E+00  1.09137563E+00 -9.83108965E-03
  3.12445083E+00  2.02016810E+00 -1.12873529E+00  2.04302658E+00 -1.09163104E+00
  1.02522875E-02 -3.12440533E+00 -2.01949363E+00  1.12903407E+00  3.14075998E+00
  6.82193124E-03  5.86038376E-03 -3.12807766E+00 -3.13568566E+00  5.79970719E-03
 -2.44566472E-03  3.13903970E+00 -4.81876713E-03  3.13664257E+00  3.12808405E+00
 -1.36399279E-02  8.15189469E-04  3.13450562E+00 -3.13229924E+00  1.39119764E-03
  6.08439110E-04 -3.14085476E+00 -3.14085308E+00  8.69030819E-04  2.92530173E-03
 -3.13869033E+00 -3.13879685E+00  2.77282974E-03 -2.02374505E-03  3.13967662E+00
  3.13959184E+00 -1.89310441E-03 -8.00592507E-03  3.12723719E+00  3.14072373E+00
 -7.21845859E-03 -3.12777369E+00  1.37895895E-02  5.72015477E-03 -3.13590188E+00
  3.13708111E+00 -4.53238882E-03  3.41256202E-03 -3.13820093E+00  1.90457460E-03
 -3.13961757E+00 -3.13966716E+00  1.99601108E-03 -3.21316765E-03  3.13820476E+00
  3.13830884E+00 -3.45853841E-03 -7.25008285E-04  3.14089698E+00  3.14104233E+00
 -5.20989303E-04
SymInf integers                            I   N=          26
           1           1           1           1           1           0
           0           0           0           0           0           0
           0           0           0           0           0           0
           0           0           0           0           0           0
           0           0
RotTr to input orientation                 R   N=          12
 -9.90585802E-01 -1.35292257E-01 -2.08752034E-02  1.35778037E-01 -9.90450237E-01
 -2.39301506E-02 -1.74382861E-02 -2.65392616E-02  9.99495660E-01 -2.36286396E+00
  3.89660481E-01 -1.09499182E-01
Number of contracted shells                I               79
Number of primitive shells                 I              207
Pure/Cartesian d shells                    I                1
Pure/Cartesian f shells                    I                0
Highest angular momentum                   I                2
Largest degree of contraction              I                6
Shell types                                I   N=          79
           0          -1          -1           2           0          -1
          -1          -1           2           0          -1          -1
           2           0          -1          -1           2           0
          -1          -1           2           0          -1          -1
           2           0          -1          -1           2           0
          -1          -1           2           0          -1          -1
           2           0          -1          -1           2           0
          -1          -1           2           0          -1          -1
           2           0          -1          -1           2           0
          -1          -1           2           0          -1          -1
           2           0           0           0           0           0
           0           0           0           0           0           0
           0           0           0           0           0           0
           0
Number of primitives per shell             I   N=          79
           6           3           1           1           6           6
           3           1           1           6           3           1
           1           6           3           1           1           6
           3           1           1           6           3           1
           1           6           3           1           1           6
           3           1           1           6           3           1
           1           6           3           1           1           6
           3           1           1           6           3           1
           1           6           3           1           1           6
           3           1           1           6           3           1
           1           3           1           3           1           3
           1           3           1           3           1           3
           1           3           1           3           1           3
           1
Shell to atom map                          I   N=          79
           1           1           1           1           2           2
           2           2           2           3           3           3
           3           4           4           4           4           5
           5           5           5           6           6           6
           6           7           7           7           7           8
           8           8           8           9           9           9
           9          10          10          10          10          11
          11          11          11          12          12          12
          12          13          13          13          13          14