Title Card Required                                                     
Freq      RB3LYP                                                      6-31G(d)            
Number of atoms                            I               11
Info1-9                                    I   N=           9
          32          32        1002           0           0         100
           6          18        -502
Full Title                                 C   N=           2
Title Card Required     
Route                                      C   N=           6
#P opt freq b3lyp/6-31g(d) geom=connectivity temperature=0.0
01          
Charge                                     I                0
Multiplicity                               I                1
Number of electrons                        I               50
Number of alpha electrons                  I               25
Number of beta electrons                   I               25
Number of basis functions                  I               91
Number of independent functions            I               91
Number of point charges in /Mol/           I                0
Number of translation vectors              I                0
Atomic numbers                             I   N=          11
           6          16           8           6           8           1
           1           1           1           1           1
Nuclear charges                            R   N=          11
  6.00000000E+00  1.60000000E+01  8.00000000E+00  6.00000000E+00  8.00000000E+00
  1.00000000E+00  1.00000000E+00  1.00000000E+00  1.00000000E+00  1.00000000E+00
  1.00000000E+00
Current cartesian coordinates              R   N=          33
  2.68531813E+00 -1.74993432E+00  2.34667099E-04  4.63107727E-07  3.68140995E-01
  3.10907398E-05 -5.10590366E-04  1.73978887E+00  2.41583220E+00 -2.68535057E+00
 -1.74989167E+00 -6.22136050E-04  5.49313420E-04  1.74043500E+00 -2.41542194E+00
  2.65288686E+00 -2.91195858E+00  1.70527554E+00  2.65296834E+00 -2.91184727E+00
 -1.70490792E+00  4.36042202E+00 -5.42816064E-01  1.20532395E-04 -2.65305985E+00
 -2.91222000E+00  1.70424364E+00 -4.36043376E+00 -5.42744796E-01 -2.47924996E-04
 -2.65290621E+00 -2.91150428E+00 -1.70593861E+00
Number of symbols in /Mol/                 I                0
Force Field                                I                0
Atom Types                                 C   N=          11
                                                            
                                                            
            
Int Atom Types                             I   N=          11
           0           0           0           0           0           0
           0           0           0           0           0
MM charges                                 R   N=          11
  0.00000000E+00  0.00000000E+00  0.00000000E+00  0.00000000E+00  0.00000000E+00
  0.00000000E+00  0.00000000E+00  0.00000000E+00  0.00000000E+00  0.00000000E+00
  0.00000000E+00
Integer atomic weights                     I   N=          11
          12          32          16          12          16           1
           1           1           1           1           1
Real atomic weights                        R   N=          11
  1.20000000E+01  3.19720718E+01  1.59949146E+01  1.20000000E+01  1.59949146E+01
  1.00782504E+00  1.00782504E+00  1.00782504E+00  1.00782504E+00  1.00782504E+00
  1.00782504E+00
Atom fragment info                         I   N=          11
           0           0           0           0           0           0
           0           0           0           0           0
Atom residue num                           I   N=          11
           0           0           0           0           0           0
           0           0           0           0           0
Nuclear spins                              I   N=          11
           0           0           0           0           0           1
           1           1           1           1           1
Nuclear ZEff                               R   N=          11
 -3.60000000E+00 -1.36000000E+01 -5.60000000E+00 -3.60000000E+00 -5.60000000E+00
 -1.00000000E+00 -1.00000000E+00 -1.00000000E+00 -1.00000000E+00 -1.00000000E+00
 -1.00000000E+00
Nuclear ZNuc                               R   N=          11
  6.00000000E+00  1.60000000E+01  8.00000000E+00  6.00000000E+00  8.00000000E+00
  1.00000000E+00  1.00000000E+00  1.00000000E+00  1.00000000E+00  1.00000000E+00
  1.00000000E+00
Nuclear QMom                               R   N=          11
  0.00000000E+00  0.00000000E+00  0.00000000E+00  0.00000000E+00  0.00000000E+00
  0.00000000E+00  0.00000000E+00  0.00000000E+00  0.00000000E+00  0.00000000E+00
  0.00000000E+00
Nuclear GFac                               R   N=          11
  0.00000000E+00  0.00000000E+00  0.00000000E+00  0.00000000E+00  0.00000000E+00
  2.79284600E+00  2.79284600E+00  2.79284600E+00  2.79284600E+00  2.79284600E+00
  2.79284600E+00
MicOpt                                     I   N=          11
          -1          -1          -1          -1          -1          -1
          -1          -1          -1          -1          -1
Number of residues                         I                0
Number of secondary structures             I                0
Redundant internal dimensions              I   N=           4
          46          10          18          18
Redundant internal coordinate indices      I   N=         184
           1           2           0           0           1           6
           0           0           1           7           0           0
           1           8           0           0           2           3
           0           0           2           4           0           0
           2           5           0           0           4           9
           0           0           4          10           0           0
           4          11           0           0           2           1
           6           0           2           1           7           0
           2           1           8           0           6           1
           7           0           6           1           8           0
           7           1           8           0           1           2
           3           0           1           2           4           0
           1           2           5           0           3           2
           4           0           3           2           5           0
           4           2           5           0           2           4
           9           0           2           4          10           0
           2           4          11           0           9           4
          10           0           9           4          11           0
          10           4          11           0           6           1
           2           3           6           1           2           4
           6           1           2           5           7           1
           2           3           7           1           2           4
           7           1           2           5           8           1
           2           3           8           1           2           4
           8           1           2           5           1           2
           4           9           1           2           4          10
           1           2           4          11           3           2
           4           9           3           2           4          10
           3           2           4          11           5           2
           4           9           5           2           4          10
           5           2           4          11
Redundant internal coordinates             R   N=          46
  3.42011317E+00  2.06361735E+00  2.06363743E+00  2.06472941E+00  2.77804125E+00
  3.42011300E+00  2.77805768E+00  2.06364173E+00  2.06472938E+00  2.06361353E+00
  1.91392816E+00  1.91381768E+00  1.84930891E+00  1.94486903E+00  1.91984662E+00
  1.91967823E+00  1.88164812E+00  1.80590737E+00  1.88159159E+00  1.88156706E+00
  2.10854319E+00  1.88168221E+00  1.91385024E+00  1.84930760E+00  1.91390013E+00
  1.91967540E+00  1.94486773E+00  1.91984758E+00  9.19690877E-01 -1.07052331E+00
 -3.06084422E+00  3.06048096E+00  1.07026678E+00 -9.20054133E-01 -1.15163512E+00
  3.14133600E+00  1.15101509E+00  1.07025198E+00  3.14133408E+00 -1.07053945E+00
 -9.20020595E-01  1.15106151E+00 -3.06081202E+00  3.06050761E+00 -1.15159560E+00
  9.19716185E-01
ZRed-IntVec                                I   N=          46
           0           0           0           0           0           0
           0           0           0           0           0           0
           0           0           0           0           0           0
           0           0           0           0           0           0
           0           0           0           0           0           0
           0           0           0           0           0           0
           0           0           0           0           0           0
           0           0           0           0
ZRed-FPVec                                 R   N=          46
  0.00000000E+00  0.00000000E+00  0.00000000E+00  0.00000000E+00  0.00000000E+00
  0.00000000E+00  0.00000000E+00  0.00000000E+00  0.00000000E+00  0.00000000E+00
  0.00000000E+00  0.00000000E+00  0.00000000E+00  0.00000000E+00  0.00000000E+00
  0.00000000E+00  0.00000000E+00  0.00000000E+00  0.00000000E+00  0.00000000E+00
  0.00000000E+00  0.00000000E+00  0.00000000E+00  0.00000000E+00  0.00000000E+00
  0.00000000E+00  0.00000000E+00  0.00000000E+00  0.00000000E+00  0.00000000E+00
  0.00000000E+00  0.00000000E+00  0.00000000E+00  0.00000000E+00  0.00000000E+00
  0.00000000E+00  0.00000000E+00  0.00000000E+00  0.00000000E+00  0.00000000E+00
  0.00000000E+00  0.00000000E+00  0.00000000E+00  0.00000000E+00  0.00000000E+00
  0.00000000E+00
ZRed-Constraint1                           R   N=          46
  3.42011317E+00  2.06361735E+00  2.06363743E+00  2.06472941E+00  2.77804125E+00
  3.42011300E+00  2.77805768E+00  2.06364173E+00  2.06472938E+00  2.06361353E+00
  1.91392816E+00  1.91381768E+00  1.84930891E+00  1.94486903E+00  1.91984662E+00
  1.91967823E+00  1.88164812E+00  1.80590737E+00  1.88159159E+00  1.88156706E+00
  2.10854319E+00  1.88168221E+00  1.91385024E+00  1.84930760E+00  1.91390013E+00
  1.91967540E+00  1.94486773E+00  1.91984758E+00  9.19690877E-01 -1.07052331E+00
 -3.06084422E+00  3.06048096E+00  1.07026678E+00 -9.20054133E-01 -1.15163512E+00
  3.14133600E+00  1.15101509E+00  1.07025198E+00  3.14133408E+00 -1.07053945E+00
 -9.20020595E-01  1.15106151E+00 -3.06081202E+00  3.06050761E+00 -1.15159560E+00
  9.19716185E-01
ZRed-Constraint2                           R   N=          46
  3.45569175E+00  2.05989373E+00  2.05968179E+00  2.05971935E+00  3.03056677E+00
  3.45555917E+00  3.03038205E+00  2.05986254E+00  2.05972237E+00  2.05984200E+00
  1.91056299E+00  1.91068099E+00  1.91062077E+00  1.91062298E+00  1.91058705E+00
  1.91072463E+00  1.91245215E+00  1.90938274E+00  1.91247312E+00  1.91254569E+00
  1.90437785E+00  1.91256868E+00  1.91058404E+00  1.91060672E+00  1.91064175E+00
  1.91065918E+00  1.91062916E+00  1.91067858E+00  9.75981299E-01 -1.12110459E+00
  3.06495376E+00  3.07035007E+00  9.73264175E-01 -1.12386278E+00 -1.11830659E+00
  3.06779282E+00  9.70665869E-01  9.85088301E-01  3.07946881E+00 -1.10927690E+00
 -1.11194032E+00  9.82440187E-01  3.07687979E+00  3.08215675E+00 -1.10664805E+00
  9.87791553E-01
SymInf integers                            I   N=          26
           1           1           1           1           1           0
           0           0           0           0           0           0
           0           0           0           0           0           0
           0           0           0           0           0           0
           0           0
RotTr to input orientation                 R   N=          12
 -8.79467266E-01  4.60656917E-01  1.19718559E-01 -4.40416938E-01 -6.92254170E-01
 -5.71679180E-01 -1.80472297E-01 -5.55499206E-01  8.11695991E-01  1.96048064E-01
  1.25090210E-01 -4.63869462E-01
Number of contracted shells                I               33
Number of primitive shells                 I               85
Pure/Cartesian d shells                    I                1
Pure/Cartesian f shells                    I                0
Highest angular momentum                   I                2
Largest degree of contraction              I                6
Shell types                                I   N=          33
           0          -1          -1           2           0          -1
          -1          -1           2           0          -1          -1
           2           0          -1          -1           2           0
          -1          -1           2           0           0           0
           0           0           0           0           0           0
           0           0           0
Number of primitives per shell             I   N=          33
           6           3           1           1           6           6
           3           1           1           6           3           1
           1           6           3           1           1           6
           3           1           1           3           1           3
           1           3           1           3           1           3
           1           3           1
Shell to atom map                          I   N=          33
           1           1           1           1           2           2
           2           2           2           3           3           3
           3           4           4           4           4           5
           5           5           5           6           6           7
           7           8           8           9           9          10
          10          11          11
Primitive exponents                        R   N=          85
  3.04752488E+03  4.57369518E+02  1.03948685E+02  2.92101553E+01  9.28666296E+00
  3.16392696E+00  7.86827235E+00  1.88128854E+00  5.44249258E-01  1.68714478E-01
  8.00000000E-01  2.19171000E+04  3.30149000E+03  7.54146000E+02  2.12711000E+02
  6.79896000E+01  2.30515000E+01  4.23735000E+02  1.00710000E+02  3.21599000E+01
  1.18079000E+01  4.63110000E+00  1.87025000E+00  2.61584000E+00  9.22167000E-01
  3.41287000E-01  1.17167000E-01  6.50000000E-01  5.48467166E+03  8.25234946E+02
  1.88046958E+02  5.29645000E+01  1.68975704E+01  5.79963534E+00  1.55396162E+01
  3.59993359E+00  1.01376175E+00  2.70005823E-01  8.00000000E-01  3.04752488E+03
  4.57369518E+02  1.03948685E+02  2.92101553E+01  9.28666296E+00  3.16392696E+00
  7.86827235E+00  1.88128854E+00  5.44249258E-01  1.68714478E-01  8.00000000E-01
  5.48467166E+03  8.25234946E+02  1.88046958E+02  5.29645000E+01  1.68975704E+01
  5.79963534E+00  1.55396162E+01  3.59993359E+00  1.01376175E+00  2.70005823E-01
  8.00000000E-01  1.87311370E+01  2.82539436E+00  6.40121692E-01  1.61277759E-01
  1.87311370E+01  2.82539436E+00  6.40121692E-01  1.61277759E-01  1.87311370E+01
  2.82539436E+00  6.40121692E-01  1.61277759E-01  1.87311370E+01  2.82539436E+00
  6.40121692E-01  1.61277759E-01  1.87311370E+01  2.82539436E+00  6.40121692E-01
  1.61277759E-01  1.87311370E+01  2.82539436E+00  6.40121692E-01  1.61277759E-01
Contraction coefficients                   R   N=          85
  1.83473713E-03  1.40373228E-02  6.88426223E-02  2.32184443E-01  4.67941348E-01
  3.62311985E-01 -1.19332420E-01 -1.60854152E-01  1.14345644E+00  1.00000000E+00
  1.00000000E+00  1.86924085E-03  1.42303065E-02  6.96962317E-02  2.38487108E-01
  4.83307220E-01  3.38074154E-01 -2.37677050E-03 -3.16930067E-02 -1.13317024E-01
  5.60900118E-02  5.92255124E-01  4.55006095E-01 -2.50373114E-01  6.69567631E-02
  1.05450627E+00  1.00000000E+00  1.00000000E+00  1.83107443E-03  1.39501722E-02
  6.84450781E-02  2.32714336E-01  4.70192898E-01  3.58520853E-01 -1.10777550E-01
 -1.48026263E-01  1.13076702E+00  1.00000000E+00  1.00000000E+00  1.83473713E-03
  1.40373228E-02  6.88426223E-02  2.32184443E-01  4.67941348E-01  3.62311985E-01
 -1.19332420E-01 -1.60854152E-01  1.14345644E+00  1.00000000E+00  1.00000000E+00
  1.83107443E-03  1.39501722E-02  6.84450781E-02  2.32714336E-01  4.70192898E-01
  3.58520853E-01 -1.10777550E-01 -1.48026263E-01  1.13076702E+00  1.00000000E+00
  1.00000000E+00  3.34946043E-02  2.34726953E-01  8.13757326E-01  1.00000000E+00
  3.34946043E-02  2.34726953E-01  8.13757326E-01  1.00000000E+00  3.34946043E-02
  2.34726953E-01  8.13757326E-01  1.00000000E+00  3.34946043E-02  2.34726953E-01
  8.13757326E-01  1.00000000E+00  3.34946043E-02  2.34726953E-01  8.13757326E-01
  1.00000000E+00  3.34946043E-02  2.34726953E-01  8.13757326E-01  1.00000000E+00
P(S=P) Contraction coefficients            R   N=          85
  0.00000000E+00  0.00000000E+00  0.00000000E+00  0.00000000E+00  0.00000000E+00
  0.00000000E+00  6.89990666E-02  3.16423961E-01  7.44308291E-01  1.00000000E+00
  0.00000000E+00  0.00000000E+00  0.00000000E+00  0.00000000E+00  0.00000000E+00
  0.00000000E+00  0.00000000E+00  4.06100998E-03  3.06812999E-02  1.30451999E-01
  3.27204999E-01  4.52850998E-01  2.56041999E-01 -1.45104895E-02  3.10262776E-01
  7.54482456E-01  1.00000000E+00  0.00000000E+00  0.00000000E+00  0.00000000E+00
  0.00000000E+00  0.00000000E+00  0.00000000E+00  0.00000000E+00  7.08742682E-02
  3.39752839E-01  7.27158577E-01  1.00000000E+00  0.00000000E+00  0.00000000E+00
  0.00000000E+00  0.00000000E+00  0.00000000E+00  0.00000000E+00  0.00000000E+00
  6.89990666E-02  3.16423961E-01  7.44308291E-01  1.00000000E+00  0.00000000E+00
  0.00000000E+00  0.00000000E+00  0.00000000E+00  0.00000000E+00  0.00000000E+00
  0.00000000E+00  7.08742682E-02  3.39752839E-01  7.27158577E-01  1.00000000E+00
  0.00000000E+00  0.00000000E+00  0.00000000E+00  0.00000000E+00  0.00000000E+00
  0.00000000E+00  0.00000000E+00  0.00000000E+00  0.00000000E+00  0.00000000E+00
  0.00000000E+00  0.00000000E+00  0.00000000E+00  0.00000000E+00  0.00000000E+00
  0.00000000E+00  0.00000000E+00  0.00000000E+00  0.00000000E+00  0.00000000E+00
  0.00000000E+00  0.00000000E+00  0.00000000E+00  0.00000000E+00  0.00000000E+00
Coordinates of each shell                  R   N=          99
  2.68531813E+00 -1.74993432E+00  2.34667099E-04  2.68531813E+00 -1.74993432E+00
  2.34667099E-04  2.68531813E+00 -1.74993432E+00  2.34667099E-04  2.68531813E+00
 -1.74993432E+00  2.34667099E-04  4.63107727E-07  3.68140995E-01  3.10907398E-05
  4.63107727E-07  3.68140995E-01  3.10907398E-05  4.63107727E-07  3.68140995E-01
  3.10907398E-05  4.63107727E-07  3.68140995E-01  3.10907398E-05  4.63107727E-07
  3.68140995E-01  3.10907398E-05 -5.10590366E-04  1.73978887E+00  2.41583220E+00
 -5.10590366E-04  1.73978887E+00  2.41583220E+00 -5.10590366E-04  1.73978887E+00
  2.41583220E+00 -5.10590366E-04  1.73978887E+00  2.41583220E+00 -2.68535057E+00
 -1.74989167E+00 -6.22136050E-04 -2.68535057E+00 -1.74989167E+00 -6.22136050E-04
 -2.68535057E+00 -1.74989167E+00 -6.22136050E-04 -2.68535057E+00 -1.74989167E+00
 -6.22136050E-04  5.49313420E-04  1.74043500E+00 -2.41542194E+00  5.49313420E-04
  1.74043500E+00 -2.41542194E+00  5.49313420E-04  1.74043500E+00 -2.41542194E+00
  5.49313420E-04  1.74043500E+00 -2.41542194E+00  2.65288686E+00 -2.91195858E+00
  1.70527554E+00  2.65288686E+00 -2.91195858E+00  1.70527554E+00  2.65296834E+00
 -2.91184727E+00 -1.70490792E+00  2.65296834E+00 -2.91184727E+00 -1.70490792E+00
  4.36042202E+00 -5.42816064E-01  1.20532395E-04  4.36042202E+00 -5.42816064E-01
  1.20532395E-04 -2.65305985E+00 -2.91222000E+00  1.70424364E+00 -2.65305985E+00
 -2.91222000E+00  1.70424364E+00 -4.36043376E+00 -5.42744796E-01 -2.47924996E-04
 -4.36043376E+00 -5.42744796E-01 -2.47924996E-04 -2.65290621E+00 -2.91150428E+00
 -1.70593861E+00 -2.65290621E+00 -2.91150428E+00 -1.70593861E+00
Num ILSW                                   I              100
ILSW                                       I   N=         100
           0           1           0           0           2           0
           0           0           0           0         402          -1
           5           0           0           0           2           0
           0           0           0           0           1           0
           1           0           0           0           0           0
           0           0      100000           0          -1           0
           0           0           0           0           0           0
           0           0           0           1           0           0
           0 -2000000000           1           0           0           0
           0           0           4          52           0           0
           0           0           5           0           0           0
           0           0           0          11           0           1
           0           0           0           0           0           0
           0           0           0           0           0           0
           0           0           0           0           0           0
           0           0           0           0           0           0
           0           0           0           0
Num RLSW                                   I               52
RLSW                                       R   N=          52
  8.00000000E-01  7.20000000E-01  1.00000000E+00  8.10000000E-01  2.00000000E-01
  0.00000000E+00  0.00000000E+00  1.00000000E+00  0.00000000E+00  0.00000000E+00
  0.00000000E+00  0.00000000E+00  1.00000000E+00  0.00000000E+00  0.00000000E+00
  0.00000000E+00  0.00000000E+00  1.00000000E+00  0.00000000E+00  0.00000000E+00
  0.00000000E+00  0.00000000E+00  1.00000000E+00  0.00000000E+00  0.00000000E+00
  0.00000000E+00  0.00000000E+00  1.00000000E+00  0.00000000E+00  0.00000000E+00
  0.00000000E+00  0.00000000E+00  1.00000000E+00  0.00000000E+00  0.00000000E+00
  0.00000000E+00  0.00000000E+00  0.00000000E+00  1.00000000E+00  1.00000000E+00
  0.00000000E+00  1.00000000E+00  0.00000000E+00  0.00000000E+00  0.00000000E+00
  0.00000000E+00  0.00000000E+00  0.00000000E+00  0.00000000E+00  0.00000000E+00
  0.00000000E+00  0.00000000E+00
MxBond                                     I                4
NBond                                      I   N=          11
           4           4           1           4           1           1
           1           1           1           1           1
IBond                                      I   N=          44
           2           6           7           8           1           3
           4           5           2           0           0           0
           2           9          10          11           2           0
           0           0           1           0           0           0
           1           0           0           0           1           0
           0           0           4           0           0           0
           4           0           0           0           4           0
           0           0
RBond                                      R   N=          44
  1.00000000E+00  1.00000000E+00  1.00000000E+00  1.00000000E+00  1.00000000E+00
  2.00000000E+00  1.00000000E+00  2.00000000E+00  2.00000000E+00  0.00000000E+00
  0.00000000E+00  0.00000000E+00  1.00000000E+00  1.00000000E+00  1.00000000E+00
  1.00000000E+00  2.00000000E+00  0.00000000E+00  0.00000000E+00  0.00000000E+00
  1.00000000E+00  0.00000000E+00  0.00000000E+00  0.00000000E+00  1.00000000E+00
  0.00000000E+00  0.00000000E+00  0.00000000E+00  1.00000000E+00  0.00000000E+00
  0.00000000E+00  0.00000000E+00  1.00000000E+00  0.00000000E+00  0.00000000E+00
  0.00000000E+00  1.00000000E+00  0.00000000E+00  0.00000000E+00  0.00000000E+00
  1.00000000E+00  0.00000000E+00  0.00000000E+00  0.00000000E+00
Virial Ratio                               R      2.005721637871525E+00
SCF Energy                                 R     -6.284008233926370E+02
Total Energy                               R     -6.284008233926370E+02
RMS Force                                  R      7.457743954869239E-06
RMS Density                                R      1.622493315526551E-09
NImag                                      I                0
Job Status                                 I                1
Nuclear derivative order                   I                2
External E-field                           R   N=          35
  0.00000000E+00  0.00000000E+00  0.00000000E+00  0.00000000E+00  0.00000000E+00
  0.00000000E+00  0.00000000E+00  0.00000000E+00  0.00000000E+00  0.00000000E+00
  0.00000000E+00  0.00000000E+00  0.00000000E+00  0.00000000E+00  0.00000000E+00
  0.00000000E+00  0.00000000E+00  0.00000000E+00  0.00000000E+00  0.00000000E+00
  0.00000000E+00  0.00000000E+00  0.00000000E+00  0.00000000E+00  0.00000000E+00
  0.00000000E+00  0.00000000E+00  0.00000000E+00  0.00000000E+00  0.00000000E+00
  0.00000000E+00  0.00000000E+00  0.00000000E+00  0.00000000E+00  0.00000000E+00
IOpCl                                      I                0
IROHF                                      I                0
Alpha Orbital Energies                     R   N=          91
 -8.90957428E+01 -1.91366312E+01 -1.91366251E+01 -1.02310032E+01 -1.02309986E+01
 -8.12500554E+00 -6.08902076E+00 -6.08858382E+00 -6.08849998E+00 -1.09609747E+00
 -9.92245010E-01 -7.97509576E-01 -7.49836579E-01 -6.03960640E-01 -5.04583583E-01
 -4.88203613E-01 -4.81652695E-01 -4.50197387E-01 -4.42598650E-01 -4.23393863E-01
 -4.21494278E-01 -3.24860371E-01 -3.10902450E-01 -2.94355829E-01 -2.89480251E-01
  5.92820067E-02  7.17364559E-02  8.19506320E-02  8.55317110E-02  9.34947392E-02
  1.31731065E-01  1.40679090E-01  1.47532484E-01  1.49535733E-01  1.57481878E-01
  3.68805845E-01  3.71564961E-01  4.26795430E-01  4.34394189E-01  4.97051222E-01
  5.01351066E-01  5.36818277E-01  5.38839115E-01  6.50143660E-01  6.99446470E-01
  7.25869107E-01  7.71672448E-01  8.10397918E-01  8.17919796E-01  8.39181469E-01
  8.54660072E-01  8.70042572E-01  8.81602217E-01  8.81833162E-01  9.02237036E-01
  9.72385891E-01  1.01888516E+00  1.03236879E+00  1.05871391E+00  1.16086087E+00
  1.16909826E+00  1.19448336E+00  1.23803099E+00  1.27004720E+00  1.38495769E+00
  1.61286877E+00  1.62107974E+00  1.64241564E+00  1.73889251E+00  1.74805899E+00
  1.81209805E+00  1.81446144E+00  1.86285652E+00  1.86820844E+00  2.01834348E+00
  2.05678743E+00  2.07152213E+00  2.09551069E+00  2.17100709E+00  2.17789857E+00
  2.19138925E+00  2.21781998E+00  2.27727912E+00  2.29878342E+00  2.74289547E+00
  2.81650177E+00  3.82684635E+00  3.85995575E+00  3.92955322E+00  4.18298299E+00
  4.18669081E+00
Alpha MO coefficients                      R   N=        8281
 -1.52349489E-05  2.97804087E-05 -1.01372775E-04  7.41540633E-05 -3.24806217E-09
  5.14324912E-04  5.28298270E-05  3.36947015E-05 -4.39348034E-08 -6.02897556E-05
 -3.86204035E-05 -3.39276550E-05  2.81322370E-05 -4.84719081E-09  4.28540186E-09
  9.96120611E-01  1.48517091E-02 -1.74535278E-10 -1.09675434E-05 -1.85412086E-09
 -2.42301119E-02  7.93504041E-10  9.73486509E-05  1.33915471E-08  2.42096185E-03
 -4.83674338E-09 -2.06756609E-04 -2.58663190E-08  8.52333851E-03  8.55196828E-03
  8.64004414E-03  4.06373086E-10 -2.13417770E-08 -1.13762339E-08  2.62961603E-05
  5.58656862E-05 -2.21624978E-08  4.43374424E-05  1.03053921E-04  1.28712235E-04
  4.67946293E-08 -5.53613618E-05 -2.12981268E-04  9.02621120E-05  9.98357454E-06
 -1.15528962E-04  2.94283718E-08  5.10890026E-08 -1.45378444E-04 -1.52348449E-05
  2.97809477E-05  1.01374066E-04  7.41523817E-05  2.11262132E-08  5.14321564E-04
 -5.28312445E-05  3.36949699E-05  3.01139363E-08 -6.02904165E-05 -3.86195445E-05
 -3.39276577E-05 -2.81319208E-05 -1.31040511E-08 -3.51776737E-09  2.62956188E-05
  5.58686080E-05  2.32737167E-08  4.43612830E-05 -1.03036379E-04  1.28713820E-04
 -4.75703200E-08 -5.54178033E-05  2.12966895E-04  9.02600306E-05  9.91511303E-06
 -1.15463018E-04 -3.19842035E-08  5.52628785E-08  1.45415883E-04 -4.29715906E-05
 -1.91598537E-04 -4.29851292E-05 -1.91645030E-04 -5.63500334E-05 -2.13042293E-04
 -4.29816449E-05 -1.91631947E-04 -5.63499226E-05 -2.13043645E-04 -4.29747067E-05
 -1.91610890E-04 -7.32955356E-06 -4.46796223E-05 -5.88536835E-06  1.29356130E-05
  1.36564208E-05  3.52320158E-04 -1.83402164E-04  1.22797769E-04 -4.05044238E-04
  8.31522877E-06  4.82689155E-06 -1.42059493E-05 -1.06139155E-05  6.04893040E-05
  1.25099238E-05  9.00588182E-06 -1.50605533E-05 -4.27230790E-09  7.32916337E-06
  1.45260046E-05  4.42659997E-04  8.32086595E-08 -3.66888621E-06 -3.40789116E-04
 -2.03245707E-03 -6.22764338E-07 -2.34131143E-04  2.70519033E-03 -5.92069471E-05
 -6.70443347E-05 -3.86802476E-05  1.49683043E-08 -7.45799791E-09 -8.05078236E-05
 -3.72413618E-01 -9.66958481E-03 -7.26864506E-08  1.31655698E-04  3.37180696E-04
 -4.55197020E-03  3.23893710E-08  3.08095617E-04 -1.32614076E-04  3.04477122E-03
  2.99583698E-03  3.05174476E-03 -2.68480882E-09 -2.50133745E-09  2.14677641E-05
 -7.33821689E-06 -4.47420289E-05  5.84104890E-06  1.29664360E-05  1.36790728E-05
  3.52376512E-04  1.83701277E-04  1.22584266E-04 -4.05119893E-04  8.32912530E-06
  4.81847183E-06 -1.42152907E-05  1.06377493E-05 -6.04872604E-05  1.25110409E-05
  9.20254543E-01  2.38639416E-02 -1.79651013E-07 -4.26275137E-04  7.79743280E-04
  1.14738906E-02 -8.41031853E-08 -4.32684658E-04  3.31703285E-04 -7.49447101E-03
 -7.45671530E-03 -7.48330510E-03  4.43729884E-09 -2.24761842E-09 -3.81256159E-06
  6.82327404E-05 -1.08964876E-04 -7.43329289E-05  1.07982339E-04 -1.79934251E-05
  9.17417396E-05  6.82168403E-05 -1.09045422E-04 -1.80202429E-05  9.19605248E-05
 -7.43652974E-05  1.07780114E-04 -1.73159697E-05 -1.05539258E-04 -1.38182441E-05
  3.05787081E-05 -5.81065809E-06  8.31759892E-04 -4.33337048E-04  2.89315045E-04
  1.71767665E-04  1.96304390E-05  1.13589353E-05 -3.35548503E-05 -2.50575496E-05