 Entering Gaussian System, Link 0=/apps/cent7/gaussian/g16-A.03/g16-haswell/g16/g16
 Initial command:
 /apps/cent7/gaussian/g16-A.03/g16-haswell/g16/l1.exe "/scratch/brown/finej/gaussian/Gau-47277.inp" -scrdir="/scratch/brown/finej/gaussian/"
 Entering Link 1 = /apps/cent7/gaussian/g16-A.03/g16-haswell/g16/l1.exe PID=     47278.
  
 Copyright (c) 1988,1990,1992,1993,1995,1998,2003,2009,2016,
            Gaussian, Inc.  All Rights Reserved.
  
 This is part of the Gaussian(R) 16 program.  It is based on
 the Gaussian(R) 09 system (copyright 2009, Gaussian, Inc.),
 the Gaussian(R) 03 system (copyright 2003, Gaussian, Inc.),
 the Gaussian(R) 98 system (copyright 1998, Gaussian, Inc.),
 the Gaussian(R) 94 system (copyright 1995, Gaussian, Inc.),
 the Gaussian 92(TM) system (copyright 1992, Gaussian, Inc.),
 the Gaussian 90(TM) system (copyright 1990, Gaussian, Inc.),
 the Gaussian 88(TM) system (copyright 1988, Gaussian, Inc.),
 the Gaussian 86(TM) system (copyright 1986, Carnegie Mellon
 University), and the Gaussian 82(TM) system (copyright 1983,
 Carnegie Mellon University). Gaussian is a federally registered
 trademark of Gaussian, Inc.
  
 This software contains proprietary and confidential information,
 including trade secrets, belonging to Gaussian, Inc.
  
 This software is provided under written license and may be
 used, copied, transmitted, or stored only in accord with that
 written license.
  
 The following legend is applicable only to US Government
 contracts under FAR:
  
                    RESTRICTED RIGHTS LEGEND
  
 Use, reproduction and disclosure by the US Government is
 subject to restrictions as set forth in subparagraphs (a)
 and (c) of the Commercial Computer Software - Restricted
 Rights clause in FAR 52.227-19.
  
 Gaussian, Inc.
 340 Quinnipiac St., Bldg. 40, Wallingford CT 06492
  
  
 ---------------------------------------------------------------
 Warning -- This program may not be used in any manner that
 competes with the business of Gaussian, Inc. or will provide
 assistance to any competitor of Gaussian, Inc.  The licensee
 of this program is prohibited from giving any competitor of
 Gaussian, Inc. access to this program.  By using this program,
 the user acknowledges that Gaussian, Inc. is engaged in the
 business of creating and licensing software in the field of
 computational chemistry and represents and warrants to the
 licensee that it is not a competitor of Gaussian, Inc. and that
 it will not use this program in any manner prohibited above.
 ---------------------------------------------------------------
  

 Cite this work as:
 Gaussian 16, Revision A.03,
 M. J. Frisch, G. W. Trucks, H. B. Schlegel, G. E. Scuseria, 
 M. A. Robb, J. R. Cheeseman, G. Scalmani, V. Barone, 
 G. A. Petersson, H. Nakatsuji, X. Li, M. Caricato, A. V. Marenich, 
 J. Bloino, B. G. Janesko, R. Gomperts, B. Mennucci, H. P. Hratchian, 
 J. V. Ortiz, A. F. Izmaylov, J. L. Sonnenberg, D. Williams-Young, 
 F. Ding, F. Lipparini, F. Egidi, J. Goings, B. Peng, A. Petrone, 
 T. Henderson, D. Ranasinghe, V. G. Zakrzewski, J. Gao, N. Rega, 
 G. Zheng, W. Liang, M. Hada, M. Ehara, K. Toyota, R. Fukuda, 
 J. Hasegawa, M. Ishida, T. Nakajima, Y. Honda, O. Kitao, H. Nakai, 
 T. Vreven, K. Throssell, J. A. Montgomery, Jr., J. E. Peralta, 
 F. Ogliaro, M. J. Bearpark, J. J. Heyd, E. N. Brothers, K. N. Kudin, 
 V. N. Staroverov, T. A. Keith, R. Kobayashi, J. Normand, 
 K. Raghavachari, A. P. Rendell, J. C. Burant, S. S. Iyengar, 
 J. Tomasi, M. Cossi, J. M. Millam, M. Klene, C. Adamo, R. Cammi, 
 J. W. Ochterski, R. L. Martin, K. Morokuma, O. Farkas, 
 J. B. Foresman, and D. J. Fox, Gaussian, Inc., Wallingford CT, 2016.
 
 ******************************************
 Gaussian 16:  ES64L-G16RevA.03 25-Dec-2016
                14-Oct-2019 
 ******************************************
 %chk=25.chk
 %nprocshared=24
 Will use up to   24 processors via shared memory.
 %mem=80GB
 --------------------------------------------------------------
 #P opt freq b3lyp/6-31g(d) geom=connectivity temperature=0.001
 --------------------------------------------------------------
 1/18=20,19=15,26=3,38=1,57=2,112=-1000/1,3;
 2/9=110,12=2,17=6,18=5,40=1/2;
 3/5=1,6=6,7=1,11=2,25=1,30=1,71=1,74=-5/1,2,3;
 4//1;
 5/5=2,38=5/2;
 6/7=2,8=2,9=2,10=2,28=1/1;
 7//1,2,3,16;
 1/18=20,19=15,26=3/3(2);
 2/9=110/2;
 99//99;
 2/9=110/2;
 3/5=1,6=6,7=1,11=2,25=1,30=1,71=1,74=-5/1,2,3;
 4/5=5,16=3,69=1/1;
 5/5=2,38=5/2;
 7//1,2,3,16;
 1/18=20,19=15,26=3/3(-5);
 2/9=110/2;
 6/7=2,8=2,9=2,10=2,19=2,28=1/1;
 99/9=1/99;
 Leave Link    1 at Mon Oct 14 01:30:04 2019, MaxMem= 10737418240 cpu:               1.8 elap:               0.1
 (Enter /apps/cent7/gaussian/g16-A.03/g16-haswell/g16/l101.exe)
 -------------------
 Title Card Required
 -------------------
 Symbolic Z-matrix:
 Charge =  0 Multiplicity = 1
 C                    -0.7976    1.3965    0.4798 
 S                     0.0515   -0.0164   -0.3119 
 O                    -0.5829   -1.3904    0.2187 
 C                     1.8321    0.0362    0.101 
 O                    -0.1341    0.0679   -1.9025 
 H                    -0.7371    1.2958    1.5635 
 H                    -0.3181    2.3263    0.174 
 H                    -1.8437    1.4094    0.174 
 H                     1.9539    0.0398    1.1842 
 H                     2.3281   -0.8395   -0.3175 
 H                     2.2756    0.9397   -0.3175 
 
 ITRead=  0  0  0  0  0  0  0  0  0  0  0
 MicOpt= -1 -1 -1 -1 -1 -1 -1 -1 -1 -1 -1
 NAtoms=     11 NQM=       11 NQMF=       0 NMMI=      0 NMMIF=      0
                NMic=       0 NMicF=      0.
                    Isotopes and Nuclear Properties:
 (Nuclear quadrupole moments (NQMom) in fm**2, nuclear magnetic moments (NMagM)
  in nuclear magnetons)

  Atom         1           2           3           4           5           6           7           8           9          10
 IAtWgt=          12          32          16          12          16           1           1           1           1           1
 AtmWgt=  12.0000000  31.9720718  15.9949146  12.0000000  15.9949146   1.0078250   1.0078250   1.0078250   1.0078250   1.0078250
 NucSpn=           0           0           0           0           0           1           1           1           1           1
 AtZEff=  -0.0000000  -0.0000000  -0.0000000  -0.0000000  -0.0000000  -0.0000000  -0.0000000  -0.0000000  -0.0000000  -0.0000000
 NQMom=    0.0000000   0.0000000   0.0000000   0.0000000   0.0000000   0.0000000   0.0000000   0.0000000   0.0000000   0.0000000
 NMagM=    0.0000000   0.0000000   0.0000000   0.0000000   0.0000000   2.7928460   2.7928460   2.7928460   2.7928460   2.7928460
 AtZNuc=   6.0000000  16.0000000   8.0000000   6.0000000   8.0000000   1.0000000   1.0000000   1.0000000   1.0000000   1.0000000

  Atom        11
 IAtWgt=           1
 AtmWgt=   1.0078250
 NucSpn=           1
 AtZEff=  -0.0000000
 NQMom=    0.0000000
 NMagM=    2.7928460
 AtZNuc=   1.0000000
 Leave Link  101 at Mon Oct 14 01:30:04 2019, MaxMem= 10737418240 cpu:               8.2 elap:               0.4
 (Enter /apps/cent7/gaussian/g16-A.03/g16-haswell/g16/l103.exe)

 GradGradGradGradGradGradGradGradGradGradGradGradGradGradGradGradGradGrad
 Berny optimization.
 Initialization pass.
                           ----------------------------
                           !    Initial Parameters    !
                           ! (Angstroms and Degrees)  !
 --------------------------                            --------------------------
 ! Name  Definition              Value          Derivative Info.                !
 --------------------------------------------------------------------------------
 ! R1    R(1,2)                  1.8287         estimate D2E/DX2                !
 ! R2    R(1,6)                  1.09           estimate D2E/DX2                !
 ! R3    R(1,7)                  1.0899         estimate D2E/DX2                !
 ! R4    R(1,8)                  1.09           estimate D2E/DX2                !
 ! R5    R(2,3)                  1.6037         estimate D2E/DX2                !
 ! R6    R(2,4)                  1.8286         estimate D2E/DX2                !
 ! R7    R(2,5)                  1.6036         estimate D2E/DX2                !
 ! R8    R(4,9)                  1.09           estimate D2E/DX2                !
 ! R9    R(4,10)                 1.09           estimate D2E/DX2                !
 ! R10   R(4,11)                 1.09           estimate D2E/DX2                !
 ! A1    A(2,1,6)              109.4672         estimate D2E/DX2                !
 ! A2    A(2,1,7)              109.474          estimate D2E/DX2                !
 ! A3    A(2,1,8)              109.4705         estimate D2E/DX2                !
 ! A4    A(6,1,7)              109.4706         estimate D2E/DX2                !
 ! A5    A(6,1,8)              109.4686         estimate D2E/DX2                !
 ! A6    A(7,1,8)              109.4765         estimate D2E/DX2                !
 ! A7    A(1,2,3)              109.5754         estimate D2E/DX2                !
 ! A8    A(1,2,4)              109.3996         estimate D2E/DX2                !
 ! A9    A(1,2,5)              109.5766         estimate D2E/DX2                !
 ! A10   A(3,2,4)              109.5808         estimate D2E/DX2                !
 ! A11   A(3,2,5)              109.1128         estimate D2E/DX2                !
 ! A12   A(4,2,5)              109.5821         estimate D2E/DX2                !
 ! A13   A(2,4,9)              109.4684         estimate D2E/DX2                !
 ! A14   A(2,4,10)             109.4697         estimate D2E/DX2                !
 ! A15   A(2,4,11)             109.4717         estimate D2E/DX2                !
 ! A16   A(9,4,10)             109.4727         estimate D2E/DX2                !
 ! A17   A(9,4,11)             109.471          estimate D2E/DX2                !
 ! A18   A(10,4,11)            109.4738         estimate D2E/DX2                !
 ! D1    D(6,1,2,3)             55.9196         estimate D2E/DX2                !
 ! D2    D(6,1,2,4)            -64.2346         estimate D2E/DX2                !
 ! D3    D(6,1,2,5)            175.6089         estimate D2E/DX2                !
 ! D4    D(7,1,2,3)            175.9181         estimate D2E/DX2                !
 ! D5    D(7,1,2,4)             55.7639         estimate D2E/DX2                !
 ! D6    D(7,1,2,5)            -64.3926         estimate D2E/DX2                !
 ! D7    D(8,1,2,3)            -64.0742         estimate D2E/DX2                !
 ! D8    D(8,1,2,4)            175.7716         estimate D2E/DX2                !
 ! D9    D(8,1,2,5)             55.6151         estimate D2E/DX2                !
 ! D10   D(1,2,4,9)             56.4414         estimate D2E/DX2                !
 ! D11   D(1,2,4,10)           176.4406         estimate D2E/DX2                !
 ! D12   D(1,2,4,11)           -63.5569         estimate D2E/DX2                !
 ! D13   D(3,2,4,9)            -63.7095         estimate D2E/DX2                !
 ! D14   D(3,2,4,10)            56.2897         estimate D2E/DX2                !
 ! D15   D(3,2,4,11)           176.2922         estimate D2E/DX2                !
 ! D16   D(5,2,4,9)            176.5946         estimate D2E/DX2                !
 ! D17   D(5,2,4,10)           -63.4063         estimate D2E/DX2                !
 ! D18   D(5,2,4,11)            56.5963         estimate D2E/DX2                !
 --------------------------------------------------------------------------------
 Trust Radius=3.00D-01 FncErr=1.00D-07 GrdErr=1.00D-06 EigMax=2.50D+02 EigMin=1.00D-04
 Number of steps in this run=     56 maximum allowed number of steps=    100.
 GradGradGradGradGradGradGradGradGradGradGradGradGradGradGradGradGradGrad

 Leave Link  103 at Mon Oct 14 01:30:04 2019, MaxMem= 10737418240 cpu:               0.2 elap:               0.0
 (Enter /apps/cent7/gaussian/g16-A.03/g16-haswell/g16/l202.exe)
                          Input orientation:                          
 ---------------------------------------------------------------------
 Center     Atomic      Atomic             Coordinates (Angstroms)
 Number     Number       Type             X           Y           Z
 ---------------------------------------------------------------------
      1          6           0       -0.797600    1.396500    0.479800
      2         16           0        0.051500   -0.016400   -0.311900
      3          8           0       -0.582900   -1.390400    0.218700
      4          6           0        1.832100    0.036200    0.101000
      5          8           0       -0.134100    0.067900   -1.902500
      6          1           0       -0.737100    1.295800    1.563500
      7          1           0       -0.318100    2.326300    0.174000
      8          1           0       -1.843700    1.409400    0.174000
      9          1           0        1.953900    0.039800    1.184200
     10          1           0        2.328100   -0.839500   -0.317500
     11          1           0        2.275600    0.939700   -0.317500
 ---------------------------------------------------------------------
                    Distance matrix (angstroms):
                    1          2          3          4          5
     1  C    0.000000
     2  S    1.828673   0.000000
     3  O    2.807326   1.603707   0.000000
     4  C    2.984833   1.828603   2.807359   0.000000
     5  O    2.807270   1.603609   2.612958   2.807305   0.000000
     6  H    1.090049   2.420926   3.007979   3.213454   3.726192
     7  H    1.089937   2.420939   3.726389   3.142172   3.073447
     8  H    1.089957   2.420906   3.070911   3.924604   3.005696
     9  H    3.147629   2.420867   3.068064   1.090032   3.726694
    10  H    3.924969   2.420833   3.010801   1.089958   3.065620
    11  H    3.207633   2.420905   3.726647   1.090021   3.013124
                    6          7          8          9         10
     6  H    0.000000
     7  H    1.779944   0.000000
     8  H    1.779938   1.779933   0.000000
     9  H    2.993808   3.377954   4.161499   0.000000
    10  H    4.182478   4.155266   4.764771   1.779971   0.000000
    11  H    3.569500   2.981864   4.175024   1.780004   1.779974
                   11
    11  H    0.000000
 Stoichiometry    C2H6O2S
 Framework group  C1[X(C2H6O2S)]
 Deg. of freedom    27
 Full point group                 C1      NOp   1
 Largest Abelian subgroup         C1      NOp   1
 Largest concise Abelian subgroup C1      NOp   1
                         Standard orientation:                         
 ---------------------------------------------------------------------
 Center     Atomic      Atomic             Coordinates (Angstroms)
 Number     Number       Type             X           Y           Z
 ---------------------------------------------------------------------
      1          6           0        1.492368   -0.948760    0.000030
      2         16           0       -0.000035    0.108019   -0.000035
      3          8           0        0.000115    1.038098    1.306421
      4          6           0       -1.492465   -0.948599    0.000089
      5          8           0        0.000066    1.037866   -1.306537
      6          1           0        1.530691   -1.523206    0.925637
      7          1           0        1.454800   -1.630634   -0.849441
      8          1           0        2.381106   -0.322345   -0.075814
      9          1           0       -1.460686   -1.622109    0.856560
     10          1           0       -2.381617   -0.321420    0.063850
     11          1           0       -1.524600   -1.532137   -0.920019
 ---------------------------------------------------------------------
 Rotational constants (GHZ):           4.0764412           3.8382458           3.6084961
 Leave Link  202 at Mon Oct 14 01:30:04 2019, MaxMem= 10737418240 cpu:               0.7 elap:               0.0
 (Enter /apps/cent7/gaussian/g16-A.03/g16-haswell/g16/l301.exe)
 Standard basis: 6-31G(d) (6D, 7F)
 Ernie: Thresh=  0.10000D-02 Tol=  0.10000D-05 Strict=F.
 There are    91 symmetry adapted cartesian basis functions of A   symmetry.
 There are    91 symmetry adapted basis functions of A   symmetry.
    91 basis functions,   188 primitive gaussians,    91 cartesian basis functions
    25 alpha electrons       25 beta electrons
       nuclear repulsion energy       258.3989075843 Hartrees.
 IExCor=  402 DFT=T Ex+Corr=B3LYP ExCW=0 ScaHFX=  0.200000
 ScaDFX=  0.800000  0.720000  1.000000  0.810000 ScalE2=  1.000000  1.000000
 IRadAn=      5 IRanWt=     -1 IRanGd=            0 ICorTp=0 IEmpDi=  4
 NAtoms=   11 NActive=   11 NUniq=   11 SFac= 1.00D+00 NAtFMM=   60 NAOKFM=F Big=F
 Integral buffers will be    131072 words long.
 Raffenetti 2 integral format.
 Two-electron integral symmetry is turned on.
 Leave Link  301 at Mon Oct 14 01:30:05 2019, MaxMem= 10737418240 cpu:               1.7 elap:               0.1
 (Enter /apps/cent7/gaussian/g16-A.03/g16-haswell/g16/l302.exe)
 NPDir=0 NMtPBC=     1 NCelOv=     1 NCel=       1 NClECP=     1 NCelD=      1
         NCelK=      1 NCelE2=     1 NClLst=     1 CellRange=     0.0.
 One-electron integrals computed using PRISM.
 One-electron integral symmetry used in STVInt
 NBasis=    91 RedAO= T EigKep=  4.95D-03  NBF=    91
 NBsUse=    91 1.00D-06 EigRej= -1.00D+00 NBFU=    91
 Precomputing XC quadrature grid using
 IXCGrd= 4 IRadAn=           5 IRanWt=          -1 IRanGd=           0 AccXCQ= 0.00D+00.
 Generated NRdTot=       0 NPtTot=           0 NUsed=           0 NTot=          32
 NSgBfM=    91    91    91    91    91 MxSgAt=    11 MxSgA2=    11.
 Leave Link  302 at Mon Oct 14 01:30:05 2019, MaxMem= 10737418240 cpu:               2.9 elap:               0.1
 (Enter /apps/cent7/gaussian/g16-A.03/g16-haswell/g16/l303.exe)
 DipDrv:  MaxL=1.
 Leave Link  303 at Mon Oct 14 01:30:05 2019, MaxMem= 10737418240 cpu:               0.8 elap:               0.1
 (Enter /apps/cent7/gaussian/g16-A.03/g16-haswell/g16/l401.exe)
 ExpMin= 1.17D-01 ExpMax= 2.19D+04 ExpMxC= 3.30D+03 IAcc=3 IRadAn=         5 AccDes= 0.00D+00
 Harris functional with IExCor=  402 and IRadAn=       5 diagonalized for initial guess.
 HarFok:  IExCor=  402 AccDes= 0.00D+00 IRadAn=         5 IDoV= 1 UseB2=F ITyADJ=14
 ICtDFT=  3500011 ScaDFX=  1.000000  1.000000  1.000000  1.000000
 FoFCou: FMM=F IPFlag=           0 FMFlag=      100000 FMFlg1=           0
         NFxFlg=           0 DoJE=T BraDBF=F KetDBF=T FulRan=T
         wScrn=  0.000000 ICntrl=       500 IOpCl=  0 I1Cent=   200000004 NGrid=           0
         NMat0=    1 NMatS0=      1 NMatT0=    0 NMatD0=    1 NMtDS0=    0 NMtDT0=    0
 Petite list used in FoFCou.
 Harris En= -628.466800200803    
 JPrj=0 DoOrth=F DoCkMO=F.
 Leave Link  401 at Mon Oct 14 01:30:05 2019, MaxMem= 10737418240 cpu:               4.6 elap:               0.2
 (Enter /apps/cent7/gaussian/g16-A.03/g16-haswell/g16/l502.exe)
 Keep R1 ints in memory in canonical form, NReq=30675798.
 FoFCou: FMM=F IPFlag=           0 FMFlag=           0 FMFlg1=           0
         NFxFlg=           0 DoJE=F BraDBF=F KetDBF=F FulRan=T
         wScrn=  0.000000 ICntrl=       600 IOpCl=  0 I1Cent=           0 NGrid=           0
         NMat0=    1 NMatS0=   4186 NMatT0=    0 NMatD0=    1 NMtDS0=    0 NMtDT0=    0
 Symmetry not used in FoFCou.
 Two-electron integral symmetry not used.
 Closed shell SCF:
 Using DIIS extrapolation, IDIIS=  1040.
 NGot= 10737418240 LenX= 10728634920 LenY= 10728626198
 Requested convergence on RMS density matrix=1.00D-08 within 128 cycles.
 Requested convergence on MAX density matrix=1.00D-06.
 Requested convergence on             energy=1.00D-06.
 No special actions if energy rises.
 Integral accuracy reduced to 1.0D-05 until final iterations.

 Cycle   1  Pass 0  IDiag  1:
 E= -627.979307486099    
 DIIS: error= 6.01D-02 at cycle   1 NSaved=   1.
 NSaved= 1 IEnMin= 1 EnMin= -627.979307486099     IErMin= 1 ErrMin= 6.01D-02
 ErrMax= 6.01D-02  0.00D+00 EMaxC= 1.00D-01 BMatC= 4.48D-01 BMatP= 4.48D-01
 IDIUse=3 WtCom= 3.99D-01 WtEn= 6.01D-01
 Coeff-Com:  0.100D+01
 Coeff-En:   0.100D+01
 Coeff:      0.100D+01
 Gap=     0.095 Goal=   None    Shift=    0.000
 GapD=    0.095 DampG=0.500 DampE=0.500 DampFc=0.2500 IDamp=-1.
 Damping current iteration by 2.50D-01
 RMSDP=2.68D-02 MaxDP=6.45D-01              OVMax= 4.08D-01

 Cycle   2  Pass 0  IDiag  1:
 E= -628.096989189695     Delta-E=       -0.117681703596 Rises=F Damp=T
 DIIS: error= 2.66D-02 at cycle   2 NSaved=   2.
 NSaved= 2 IEnMin= 2 EnMin= -628.096989189695     IErMin= 2 ErrMin= 2.66D-02
 ErrMax= 2.66D-02  0.00D+00 EMaxC= 1.00D-01 BMatC= 4.69D-02 BMatP= 4.48D-01
 IDIUse=3 WtCom= 7.34D-01 WtEn= 2.66D-01
 Coeff-Com: -0.261D+00 0.126D+01
 Coeff-En:   0.134D+00 0.866D+00
 Coeff:     -0.156D+00 0.116D+01
 Gap=     0.279 Goal=   None    Shift=    0.000
 RMSDP=4.69D-03 MaxDP=7.06D-02 DE=-1.18D-01 OVMax= 3.37D-01

 Cycle   3  Pass 0  IDiag  1:
 E= -628.313031286112     Delta-E=       -0.216042096417 Rises=F Damp=F
 DIIS: error= 3.12D-02 at cycle   3 NSaved=   3.
 NSaved= 3 IEnMin= 3 EnMin= -628.313031286112     IErMin= 2 ErrMin= 2.66D-02
 ErrMax= 3.12D-02  0.00D+00 EMaxC= 1.00D-01 BMatC= 4.74D-02 BMatP= 4.69D-02
 IDIUse=3 WtCom= 6.88D-01 WtEn= 3.12D-01
 Coeff-Com: -0.167D+00 0.733D+00 0.434D+00
 Coeff-En:   0.000D+00 0.000D+00 0.100D+01
 Coeff:     -0.115D+00 0.504D+00 0.611D+00
 Gap=     0.271 Goal=   None    Shift=    0.000
 RMSDP=3.78D-03 MaxDP=5.40D-02 DE=-2.16D-01 OVMax= 7.82D-02

 Cycle   4  Pass 0  IDiag  1:
 E= -628.351822985363     Delta-E=       -0.038791699251 Rises=F Damp=F
 DIIS: error= 1.36D-02 at cycle   4 NSaved=   4.
 NSaved= 4 IEnMin= 4 EnMin= -628.351822985363     IErMin= 4 ErrMin= 1.36D-02
 ErrMax= 1.36D-02  0.00D+00 EMaxC= 1.00D-01 BMatC= 1.20D-02 BMatP= 4.69D-02
 IDIUse=3 WtCom= 8.64D-01 WtEn= 1.36D-01
 Coeff-Com:  0.175D-01-0.325D-02 0.328D+00 0.657D+00
 Coeff-En:   0.000D+00 0.000D+00 0.199D+00 0.801D+00
 Coeff:      0.152D-01-0.281D-02 0.311D+00 0.677D+00
 Gap=     0.270 Goal=   None    Shift=    0.000
 RMSDP=1.34D-03 MaxDP=1.84D-02 DE=-3.88D-02 OVMax= 2.92D-02

 Cycle   5  Pass 0  IDiag  1:
 E= -628.363072926007     Delta-E=       -0.011249940644 Rises=F Damp=F
 DIIS: error= 1.50D-03 at cycle   5 NSaved=   5.
 NSaved= 5 IEnMin= 5 EnMin= -628.363072926007     IErMin= 5 ErrMin= 1.50D-03
 ErrMax= 1.50D-03  0.00D+00 EMaxC= 1.00D-01 BMatC= 1.39D-04 BMatP= 1.20D-02
 IDIUse=3 WtCom= 9.85D-01 WtEn= 1.50D-02
 Coeff-Com:  0.640D-02-0.107D-01 0.105D+00 0.262D+00 0.637D+00
 Coeff-En:   0.000D+00 0.000D+00 0.000D+00 0.000D+00 0.100D+01
 Coeff:      0.630D-02-0.106D-01 0.104D+00 0.258D+00 0.643D+00
 Gap=     0.269 Goal=   None    Shift=    0.000
 RMSDP=1.80D-04 MaxDP=4.85D-03 DE=-1.12D-02 OVMax= 3.07D-03

 Cycle   6  Pass 0  IDiag  1:
 E= -628.363183224365     Delta-E=       -0.000110298359 Rises=F Damp=F
 DIIS: error= 3.16D-04 at cycle   6 NSaved=   6.
 NSaved= 6 IEnMin= 6 EnMin= -628.363183224365     IErMin= 6 ErrMin= 3.16D-04
 ErrMax= 3.16D-04  0.00D+00 EMaxC= 1.00D-01 BMatC= 6.66D-06 BMatP= 1.39D-04
 IDIUse=3 WtCom= 9.97D-01 WtEn= 3.16D-03
 Coeff-Com:  0.158D-02-0.378D-02 0.848D-02 0.257D-01 0.207D+00 0.761D+00
 Coeff-En:   0.000D+00 0.000D+00 0.000D+00 0.000D+00 0.000D+00 0.100D+01
 Coeff:      0.158D-02-0.377D-02 0.845D-02 0.256D-01 0.206D+00 0.762D+00
 Gap=     0.270 Goal=   None    Shift=    0.000
 RMSDP=5.23D-05 MaxDP=6.06D-04 DE=-1.10D-04 OVMax= 9.04D-04

 Cycle   7  Pass 0  IDiag  1:
 E= -628.363189255149     Delta-E=       -0.000006030784 Rises=F Damp=F
 DIIS: error= 1.08D-04 at cycle   7 NSaved=   7.
 NSaved= 7 IEnMin= 7 EnMin= -628.363189255149     IErMin= 7 ErrMin= 1.08D-04
 ErrMax= 1.08D-04  0.00D+00 EMaxC= 1.00D-01 BMatC= 9.41D-07 BMatP= 6.66D-06
 IDIUse=3 WtCom= 9.99D-01 WtEn= 1.08D-03
 Coeff-Com:  0.605D-03-0.170D-02 0.161D-02 0.668D-02 0.920D-01 0.433D+00
 Coeff-Com:  0.468D+00
 Coeff-En:   0.000D+00 0.000D+00 0.000D+00 0.000D+00 0.000D+00 0.000D+00
 Coeff-En:   0.100D+01
 Coeff:      0.604D-03-0.169D-02 0.161D-02 0.667D-02 0.919D-01 0.432D+00
 Coeff:      0.469D+00
 Gap=     0.270 Goal=   None    Shift=    0.000
 RMSDP=1.67D-05 MaxDP=2.33D-04 DE=-6.03D-06 OVMax= 4.13D-04

 Cycle   8  Pass 0  IDiag  1:
 E= -628.363189721451     Delta-E=       -0.000000466302 Rises=F Damp=F
 DIIS: error= 7.07D-05 at cycle   8 NSaved=   8.
 NSaved= 8 IEnMin= 8 EnMin= -628.363189721451     IErMin= 8 ErrMin= 7.07D-05
 ErrMax= 7.07D-05  0.00D+00 EMaxC= 1.00D-01 BMatC= 3.99D-07 BMatP= 9.41D-07
 IDIUse=1 WtCom= 1.00D+00 WtEn= 0.00D+00
 Coeff-Com: -0.100D-03-0.395D-04-0.127D-02-0.238D-02 0.618D-02 0.107D+00
 Coeff-Com:  0.387D+00 0.504D+00
 Coeff:     -0.100D-03-0.395D-04-0.127D-02-0.238D-02 0.618D-02 0.107D+00
 Coeff:      0.387D+00 0.504D+00
 Gap=     0.270 Goal=   None    Shift=    0.000
 RMSDP=7.27D-06 MaxDP=1.05D-04 DE=-4.66D-07 OVMax= 1.69D-04

 Initial convergence to 1.0D-05 achieved.  Increase integral accuracy.
 Cycle   9  Pass 1  IDiag  1:
 E= -628.363200270279     Delta-E=       -0.000010548829 Rises=F Damp=F
 DIIS: error= 6.31D-06 at cycle   1 NSaved=   1.
 NSaved= 1 IEnMin= 1 EnMin= -628.363200270279     IErMin= 1 ErrMin= 6.31D-06
 ErrMax= 6.31D-06  0.00D+00 EMaxC= 1.00D-01 BMatC= 5.19D-09 BMatP= 5.19D-09
 IDIUse=1 WtCom= 1.00D+00 WtEn= 0.00D+00
 Coeff-Com:  0.100D+01
 Coeff:      0.100D+01
 Gap=     0.270 Goal=   None    Shift=    0.000
 RMSDP=7.27D-06 MaxDP=1.05D-04 DE=-1.05D-05 OVMax= 4.18D-05

 Cycle  10  Pass 1  IDiag  1:
 E= -628.363200261395     Delta-E=        0.000000008884 Rises=F Damp=F
 DIIS: error= 1.43D-05 at cycle   2 NSaved=   2.
 NSaved= 2 IEnMin= 1 EnMin= -628.363200270279     IErMin= 1 ErrMin= 6.31D-06
 ErrMax= 1.43D-05  0.00D+00 EMaxC= 1.00D-01 BMatC= 1.75D-08 BMatP= 5.19D-09
 IDIUse=1 WtCom= 1.00D+00 WtEn= 0.00D+00
 Coeff-Com:  0.663D+00 0.337D+00
 Coeff:      0.663D+00 0.337D+00
 Gap=     0.270 Goal=   None    Shift=    0.000
 RMSDP=1.70D-06 MaxDP=2.95D-05 DE= 8.88D-09 OVMax= 3.44D-05

 Cycle  11  Pass 1  IDiag  1:
 E= -628.363200275364     Delta-E=       -0.000000013969 Rises=F Damp=F
 DIIS: error= 1.71D-06 at cycle   3 NSaved=   3.
 NSaved= 3 IEnMin= 3 EnMin= -628.363200275364     IErMin= 3 ErrMin= 1.71D-06
 ErrMax= 1.71D-06  0.00D+00 EMaxC= 1.00D-01 BMatC= 3.33D-10 BMatP= 5.19D-09
 IDIUse=1 WtCom= 1.00D+00 WtEn= 0.00D+00
 Coeff-Com:  0.619D-01 0.130D+00 0.808D+00
 Coeff:      0.619D-01 0.130D+00 0.808D+00
 Gap=     0.270 Goal=   None    Shift=    0.000
 RMSDP=2.64D-07 MaxDP=3.97D-06 DE=-1.40D-08 OVMax= 5.12D-06

 Cycle  12  Pass 1  IDiag  1:
 E= -628.363200275585     Delta-E=       -0.000000000221 Rises=F Damp=F
 DIIS: error= 8.18D-07 at cycle   4 NSaved=   4.
 NSaved= 4 IEnMin= 4 EnMin= -628.363200275585     IErMin= 4 ErrMin= 8.18D-07
 ErrMax= 8.18D-07  0.00D+00 EMaxC= 1.00D-01 BMatC= 6.19D-11 BMatP= 3.33D-10
 IDIUse=1 WtCom= 1.00D+00 WtEn= 0.00D+00
 Coeff-Com:  0.103D-01 0.649D-01 0.474D+00 0.450D+00
 Coeff:      0.103D-01 0.649D-01 0.474D+00 0.450D+00
 Gap=     0.270 Goal=   None    Shift=    0.000
 RMSDP=1.26D-07 MaxDP=1.85D-06 DE=-2.21D-10 OVMax= 3.02D-06

 Cycle  13  Pass 1  IDiag  1:
 E= -628.363200275624     Delta-E=       -0.000000000039 Rises=F Damp=F
 DIIS: error= 4.88D-07 at cycle   5 NSaved=   5.
 NSaved= 5 IEnMin= 5 EnMin= -628.363200275624     IErMin= 5 ErrMin= 4.88D-07
 ErrMax= 4.88D-07  0.00D+00 EMaxC= 1.00D-01 BMatC= 1.88D-11 BMatP= 6.19D-11
 IDIUse=1 WtCom= 1.00D+00 WtEn= 0.00D+00
 Coeff-Com: -0.816D-02 0.192D-01 0.167D+00 0.346D+00 0.476D+00
 Coeff:     -0.816D-02 0.192D-01 0.167D+00 0.346D+00 0.476D+00
 Gap=     0.270 Goal=   None    Shift=    0.000
 RMSDP=5.35D-08 MaxDP=8.08D-07 DE=-3.89D-11 OVMax= 1.30D-06

 Cycle  14  Pass 1  IDiag  1:
 E= -628.363200275638     Delta-E=       -0.000000000014 Rises=F Damp=F
 DIIS: error= 7.58D-08 at cycle   6 NSaved=   6.
 NSaved= 6 IEnMin= 6 EnMin= -628.363200275638     IErMin= 6 ErrMin= 7.58D-08
 ErrMax= 7.58D-08  0.00D+00 EMaxC= 1.00D-01 BMatC= 4.81D-13 BMatP= 1.88D-11
 IDIUse=1 WtCom= 1.00D+00 WtEn= 0.00D+00
 Coeff-Com: -0.451D-02 0.539D-02 0.449D-01 0.129D+00 0.227D+00 0.598D+00
 Coeff:     -0.451D-02 0.539D-02 0.449D-01 0.129D+00 0.227D+00 0.598D+00
 Gap=     0.270 Goal=   None    Shift=    0.000
 RMSDP=7.55D-09 MaxDP=1.33D-07 DE=-1.35D-11 OVMax= 1.32D-07

 SCF Done:  E(RB3LYP) =  -628.363200276     A.U. after   14 cycles
            NFock= 14  Conv=0.76D-08     -V/T= 2.0065
 KE= 6.243041568325D+02 PE=-2.000184556315D+03 EE= 4.891182916229D+02
 Leave Link  502 at Mon Oct 14 01:30:06 2019, MaxMem= 10737418240 cpu:              19.2 elap:               1.0
 (Enter /apps/cent7/gaussian/g16-A.03/g16-haswell/g16/l601.exe)
 Copying SCF densities to generalized density rwf, IOpCl= 0 IROHF=0.

 **********************************************************************

            Population analysis using the SCF density.

 **********************************************************************

 Orbital symmetries:
       Occupied  (A) (A) (A) (A) (A) (A) (A) (A) (A) (A) (A) (A)
                 (A) (A) (A) (A) (A) (A) (A) (A) (A) (A) (A) (A)
                 (A)
       Virtual   (A) (A) (A) (A) (A) (A) (A) (A) (A) (A) (A) (A)
                 (A) (A) (A) (A) (A) (A) (A) (A) (A) (A) (A) (A)
                 (A) (A) (A) (A) (A) (A) (A) (A) (A) (A) (A) (A)
                 (A) (A) (A) (A) (A) (A) (A) (A) (A) (A) (A) (A)
                 (A) (A) (A) (A) (A) (A) (A) (A) (A) (A) (A) (A)
                 (A) (A) (A) (A) (A) (A)
 The electronic state is 1-A.
 Alpha  occ. eigenvalues --  -89.09553 -19.12821 -19.12819 -10.25095 -10.25093
 Alpha  occ. eigenvalues --   -8.12511  -6.08886  -6.08871  -6.08835  -1.02350
 Alpha  occ. eigenvalues --   -0.92126  -0.80887  -0.76323  -0.62842  -0.49810
 Alpha  occ. eigenvalues --   -0.48869  -0.48753  -0.46085  -0.44215  -0.42820
 Alpha  occ. eigenvalues --   -0.40086  -0.29423  -0.27777  -0.27282  -0.25562
 Alpha virt. eigenvalues --    0.01405   0.02638   0.04411   0.06517   0.07334
 Alpha virt. eigenvalues --    0.11801   0.12252   0.12848   0.13766   0.14941
 Alpha virt. eigenvalues --    0.36025   0.37922   0.38755   0.41555   0.46406
 Alpha virt. eigenvalues --    0.48142   0.53928   0.54839   0.64467   0.69199
 Alpha virt. eigenvalues --    0.72202   0.76675   0.79871   0.81619   0.82671
 Alpha virt. eigenvalues --    0.84027   0.85519   0.85858   0.86268   0.90702
 Alpha virt. eigenvalues --    0.95845   0.98335   1.03083   1.03865   1.11397
 Alpha virt. eigenvalues --    1.12464   1.15941   1.22939   1.23168   1.34343
 Alpha virt. eigenvalues --    1.60898   1.62199   1.62698   1.71985   1.74452
 Alpha virt. eigenvalues --    1.84393   1.85597   1.85951   1.86901   1.93722
 Alpha virt. eigenvalues --    1.97450   2.04096   2.06325   2.09736   2.13943
 Alpha virt. eigenvalues --    2.19337   2.20584   2.23008   2.23573   2.54136
 Alpha virt. eigenvalues --    2.66419   3.68205   3.85427   3.91486   4.15660
 Alpha virt. eigenvalues --    4.16399
          Condensed to atoms (all electrons):
               1          2          3          4          5          6
     1  C    5.638205   0.083662  -0.041815  -0.046200  -0.041805   0.330983
     2  S    0.083662  14.106886   0.356424   0.083626   0.356411  -0.001281
     3  O   -0.041815   0.356424   8.336429  -0.041765  -0.051065  -0.000151
     4  C   -0.046200   0.083626  -0.041765   5.638178  -0.041809  -0.000153
     5  O   -0.041805   0.356411  -0.051065  -0.041809   8.336358   0.001327
     6  H    0.330983  -0.001281  -0.000151  -0.000153   0.001327   0.508352
     7  H    0.330590  -0.001936   0.001316  -0.000059  -0.000142  -0.028244
     8  H    0.371721  -0.015701  -0.000771   0.001975  -0.000530  -0.020410
     9  H   -0.000094  -0.001855  -0.000142   0.330608   0.001317   0.000108
    10  H    0.001976  -0.015708  -0.000554   0.371747  -0.000761  -0.000034
    11  H   -0.000132  -0.001316   0.001327   0.330884  -0.000158   0.000203
               7          8          9         10         11
     1  C    0.330590   0.371721  -0.000094   0.001976  -0.000132
     2  S   -0.001936  -0.015701  -0.001855  -0.015708  -0.001316
     3  O    0.001316  -0.000771  -0.000142  -0.000554   0.001327
     4  C   -0.000059   0.001975   0.330608   0.371747   0.330884
     5  O   -0.000142  -0.000530   0.001317  -0.000761  -0.000158
     6  H   -0.028244  -0.020410   0.000108  -0.000034   0.000203
     7  H    0.513520  -0.020518   0.000248  -0.000029   0.000110
     8  H   -0.020518   0.437893  -0.000031  -0.000025  -0.000033
     9  H    0.000248  -0.000031   0.513162  -0.020519  -0.028266
    10  H   -0.000029  -0.000025  -0.020519   0.437889  -0.020417
    11  H    0.000110  -0.000033  -0.028266  -0.020417   0.508857
 Mulliken charges:
               1
     1  C   -0.627091
     2  S    1.050787
     3  O   -0.559232
     4  C   -0.627032
     5  O   -0.559144
     6  H    0.209299
     7  H    0.205144
     8  H    0.246429
     9  H    0.205464
    10  H    0.246435
    11  H    0.208942
 Sum of Mulliken charges =  -0.00000
 Mulliken charges with hydrogens summed into heavy atoms:
               1
     1  C    0.033781
     2  S    1.050787
     3  O   -0.559232
     4  C    0.033809
     5  O   -0.559144
 Electronic spatial extent (au):  <R**2>=            497.2474
 Charge=             -0.0000 electrons
 Dipole moment (field-independent basis, Debye):
    X=             -0.0007    Y=             -6.0553    Z=             -0.0001  Tot=              6.0553
 Quadrupole moment (field-independent basis, Debye-Ang):
   XX=            -29.7613   YY=            -38.8107   ZZ=            -43.7648
   XY=             -0.0007   XZ=             -0.0257   YZ=             -0.0028
 Traceless Quadrupole moment (field-independent basis, Debye-Ang):
   XX=              7.6843   YY=             -1.3651   ZZ=             -6.3192
   XY=             -0.0007   XZ=             -0.0257   YZ=             -0.0028
 Octapole moment (field-independent basis, Debye-Ang**2):
  XXX=             -0.0027  YYY=             -3.6794  ZZZ=              0.0288  XYY=             -0.0021
  XXY=             -2.1636  XXZ=             -0.0162  XZZ=              0.0040  YZZ=             -7.8751
  YYZ=             -0.0151  XYZ=             -0.1699
 Hexadecapole moment (field-independent basis, Debye-Ang**3):
 XXXX=           -217.9352 YYYY=           -206.4420 ZZZZ=           -175.2571 XXXY=             -0.0109
 XXXZ=             -0.8968 YYYX=              0.0025 YYYZ=              0.0529 ZZZX=              0.5880
 ZZZY=             -0.0389 XXYY=            -73.0873 XXZZ=            -69.2345 YYZZ=            -61.5431
 XXYZ=             -0.0385 YYXZ=              0.0299 ZZXY=              0.0039
 N-N= 2.583989075843D+02 E-N=-2.000184552869D+03  KE= 6.243041568325D+02
 No NMR shielding tensors so no spin-rotation constants.
 Leave Link  601 at Mon Oct 14 01:30:06 2019, MaxMem= 10737418240 cpu:               2.0 elap:               0.1
 (Enter /apps/cent7/gaussian/g16-A.03/g16-haswell/g16/l701.exe)
 ... and contract with generalized density number  0.
 Compute integral first derivatives.
 Leave Link  701 at Mon Oct 14 01:30:06 2019, MaxMem= 10737418240 cpu:               3.5 elap:               0.2
 (Enter /apps/cent7/gaussian/g16-A.03/g16-haswell/g16/l702.exe)
 L702 exits ... SP integral derivatives will be done elsewhere.
 Leave Link  702 at Mon Oct 14 01:30:07 2019, MaxMem= 10737418240 cpu:               0.4 elap:               0.0
 (Enter /apps/cent7/gaussian/g16-A.03/g16-haswell/g16/l703.exe)
 Integral derivatives from FoFJK, PRISM(SPDF).
 Compute integral first derivatives, UseDBF=F ICtDFT=           0.
 Calling FoFJK, ICntrl=      2127 FMM=F ISym2X=0 I1Cent= 0 IOpClX= 0 NMat=1 NMatS=1 NMatT=0.
 FoFJK:  IHMeth= 1 ICntrl=    2127 DoSepK=F KAlg= 0 I1Cent=           0 FoldK=F
 IRaf=         0 NMat=       1 IRICut=       1 DoRegI=T DoRafI=F ISym2E= 0 IDoP0=0 IntGTp=1.
 FoFCou: FMM=F IPFlag=           0 FMFlag=      100000 FMFlg1=         800
         NFxFlg=           0 DoJE=F BraDBF=F KetDBF=F FulRan=T
         wScrn=  0.000000 ICntrl=      2127 IOpCl=  0 I1Cent=           0 NGrid=           0
         NMat0=    1 NMatS0=      1 NMatT0=    0 NMatD0=    1 NMtDS0=    0 NMtDT0=    0
 Symmetry not used in FoFCou.
 Leave Link  703 at Mon Oct 14 01:30:07 2019, MaxMem= 10737418240 cpu:               9.2 elap:               0.4
 (Enter /apps/cent7/gaussian/g16-A.03/g16-haswell/g16/l716.exe)
 Dipole        =-2.57074275D-04-2.38233440D+00-3.89570159D-05
 ***** Axes restored to original set *****
 -------------------------------------------------------------------
 Center     Atomic                   Forces (Hartrees/Bohr)
 Number     Number              X              Y              Z
 -------------------------------------------------------------------
      1        6           0.012083042    0.002355614    0.004802619
      2       16          -0.065268264   -0.102612673   -0.084287974
      3        8           0.042179834    0.084651118   -0.010316587
      4        6          -0.003555429    0.011026384    0.006393115
      5        8           0.020818741    0.014416662    0.091659637
      6        1           0.000772806   -0.002579745    0.001956314
      7        1           0.001638996    0.001272653   -0.002680079
      8        1           0.001102406   -0.006762287   -0.004677572
      9        1          -0.001608737   -0.001161503    0.002679431
     10        1          -0.007148317   -0.002744127   -0.003178534
     11        1          -0.001015079    0.002137902   -0.002350371
 -------------------------------------------------------------------
 Cartesian Forces:  Max     0.102612673 RMS     0.035041090
 Leave Link  716 at Mon Oct 14 01:30:07 2019, MaxMem= 10737418240 cpu:               0.6 elap:               0.0
 (Enter /apps/cent7/gaussian/g16-A.03/g16-haswell/g16/l103.exe)

 GradGradGradGradGradGradGradGradGradGradGradGradGradGradGradGradGradGrad
 Berny optimization.
 FormGI is forming the generalized inverse of G from B-inverse, IUseBI=4.
 Internal  Forces:  Max     0.092625093 RMS     0.020431615
 Search for a local minimum.
 Step number   1 out of a maximum of   56
 All quantities printed in internal units (Hartrees-Bohrs-Radians)
 RMS Force = .20432D-01 SwitMx=.10000D-02 MixMth= 1
 Mixed Optimization -- RFO/linear search
 Second derivative matrix not updated -- first step.
 ITU=  0
     Eigenvalues ---    0.00230   0.00230   0.05715   0.05715   0.05716
     Eigenvalues ---    0.05716   0.05878   0.07047   0.11889   0.16000
     Eigenvalues ---    0.16000   0.16000   0.16000   0.16000   0.16000
     Eigenvalues ---    0.18247   0.23982   0.23987   0.25000   0.34807
     Eigenvalues ---    0.34809   0.34810   0.34817   0.34818   0.34820
     Eigenvalues ---    0.50507   0.50526
 RFO step:  Lambda=-4.57193144D-02 EMin= 2.30000000D-03
 Linear search not attempted -- first point.
 Maximum step size (   0.300) exceeded in Quadratic search.
    -- Step size scaled by   0.958
 Iteration  1 RMS(Cart)=  0.06782034 RMS(Int)=  0.00256236
 Iteration  2 RMS(Cart)=  0.00353275 RMS(Int)=  0.00088534
 Iteration  3 RMS(Cart)=  0.00000692 RMS(Int)=  0.00088533
 Iteration  4 RMS(Cart)=  0.00000001 RMS(Int)=  0.00088533
 ITry= 1 IFail=0 DXMaxC= 1.48D-01 DCOld= 1.00D+10 DXMaxT= 3.00D-01 DXLimC= 3.00D+00 Rises=F
 Variable       Old X    -DE/DX   Delta X   Delta X   Delta X     New X
                                 (Linear)    (Quad)   (Total)
    R1        3.45569  -0.01192   0.00000  -0.03998  -0.03998   3.41571
    R2        2.05989   0.00223   0.00000   0.00542   0.00542   2.06531
    R3        2.05968   0.00256   0.00000   0.00622   0.00622   2.06590
    R4        2.05972   0.00017   0.00000   0.00042   0.00042   2.06014
    R5        3.03057  -0.09263   0.00000  -0.16112  -0.16112   2.86945
    R6        3.45556  -0.01191   0.00000  -0.03996  -0.03996   3.41560
    R7        3.03038  -0.09257   0.00000  -0.16096  -0.16096   2.86942
    R8        2.05986   0.00248   0.00000   0.00603   0.00603   2.06589
    R9        2.05972   0.00017   0.00000   0.00042   0.00042   2.06014
   R10        2.05984   0.00226   0.00000   0.00550   0.00550   2.06534
    A1        1.91056  -0.00092   0.00000  -0.00234  -0.00257   1.90799
    A2        1.91068  -0.00012   0.00000   0.00141   0.00122   1.91190
    A3        1.91062  -0.01192   0.00000  -0.05940  -0.05981   1.85081
    A4        1.91062   0.00262   0.00000   0.01999   0.01996   1.93059
    A5        1.91059   0.00536   0.00000   0.02106   0.02058   1.93116
    A6        1.91072   0.00497   0.00000   0.01927   0.01889   1.92961
    A7        1.91245  -0.00117   0.00000  -0.01407  -0.01637   1.89609
    A8        1.90938  -0.01100   0.00000  -0.07719  -0.08024   1.82914
    A9        1.91247  -0.00112   0.00000  -0.01389  -0.01620   1.89627
   A10        1.91255  -0.00113   0.00000  -0.01394  -0.01623   1.89631
   A11        1.90438   0.01567   0.00000   0.13378   0.13429   2.03866
   A12        1.91257  -0.00119   0.00000  -0.01424  -0.01653   1.89604
   A13        1.91058  -0.00017   0.00000   0.00116   0.00097   1.91156
   A14        1.91061  -0.01191   0.00000  -0.05937  -0.05979   1.85082
   A15        1.91064  -0.00086   0.00000  -0.00206  -0.00229   1.90835
   A16        1.91066   0.00500   0.00000   0.01939   0.01900   1.92966
   A17        1.91063   0.00261   0.00000   0.01999   0.01996   1.93059
   A18        1.91068   0.00533   0.00000   0.02089   0.02041   1.93109
    D1        0.97598  -0.01007   0.00000  -0.08321  -0.08251   0.89347
    D2       -1.12110  -0.00119   0.00000  -0.00994  -0.00982  -1.13092
    D3        3.06495   0.00773   0.00000   0.06358   0.06314   3.12810
    D4        3.07035  -0.00751   0.00000  -0.05929  -0.05882   3.01153
    D5        0.97326   0.00137   0.00000   0.01398   0.01387   0.98714
    D6       -1.12386   0.01030   0.00000   0.08750   0.08683  -1.03703
    D7       -1.11831  -0.00879   0.00000  -0.07121  -0.07067  -1.18898
    D8        3.06779   0.00009   0.00000   0.00206   0.00202   3.06982
    D9        0.97067   0.00902   0.00000   0.07558   0.07498   1.04565
   D10        0.98509   0.00136   0.00000   0.01367   0.01356   0.99865
   D11        3.07947   0.00008   0.00000   0.00177   0.00174   3.08121
   D12       -1.10928  -0.00121   0.00000  -0.01027  -0.01015  -1.11942
   D13       -1.11194   0.01026   0.00000   0.08702   0.08635  -1.02559
   D14        0.98244   0.00899   0.00000   0.07513   0.07453   1.05697
   D15        3.07688   0.00769   0.00000   0.06309   0.06264   3.13952
   D16        3.08216  -0.00752   0.00000  -0.05966  -0.05918   3.02298
   D17       -1.10665  -0.00880   0.00000  -0.07155  -0.07100  -1.17765
   D18        0.98779  -0.01009   0.00000  -0.08359  -0.08289   0.90490
         Item               Value     Threshold  Converged?
 Maximum Force            0.092625     0.000450     NO 
 RMS     Force            0.020432     0.000300     NO 
 Maximum Displacement     0.147693     0.001800     NO 
 RMS     Displacement     0.069476     0.001200     NO 
 Predicted change in Energy=-2.625664D-02
 Lowest energy point so far.  Saving SCF results.
 GradGradGradGradGradGradGradGradGradGradGradGradGradGradGradGradGradGrad

 Leave Link  103 at Mon Oct 14 01:30:07 2019, MaxMem= 10737418240 cpu:               0.7 elap:               0.1
 (Enter /apps/cent7/gaussian/g16-A.03/g16-haswell/g16/l202.exe)
                          Input orientation:                          
 ---------------------------------------------------------------------
 Center     Atomic      Atomic             Coordinates (Angstroms)
 Number     Number       Type             X           Y           Z
 ---------------------------------------------------------------------
      1          6           0       -0.747092    1.364816    0.468852
      2         16           0        0.028520   -0.052498   -0.341555
      3          8           0       -0.544481   -1.325946    0.254833
      4          6           0        1.776287    0.059562    0.105276
      5          8           0       -0.099808    0.117701   -1.844950
      6          1           0       -0.673065    1.246647    1.552835
      7          1           0       -0.252909    2.285467    0.147392
      8          1           0       -1.790173    1.359456    0.151918
      9          1           0        1.875744    0.060306    1.193966
     10          1           0        2.253717   -0.822369   -0.322216
     11          1           0        2.200960    0.972156   -0.320551
 ---------------------------------------------------------------------
                    Distance matrix (angstroms):
                    1          2          3          4          5
     1  C    0.000000
     2  S    1.807515   0.000000
     3  O    2.706853   1.518446   0.000000
     4  C    2.864143   1.807458   2.707021   0.000000
     5  O    2.707019   1.518430   2.586684   2.706749   0.000000
     6  H    1.092915   2.401815   2.884368   3.082844   3.626029
     7  H    1.093230   2.405068   3.624756   3.012318   2.948232
     8  H    1.090181   2.354735   2.962047   3.796253   2.895992
     9  H    3.017748   2.404742   2.942984   1.093224   3.625066
    10  H    3.796633   2.354692   2.901118   1.090180   2.956608
    11  H    3.077068   2.402051   3.626263   1.092933   2.889190
                    6          7          8          9         10
     6  H    0.000000
     7  H    1.797483   0.000000
     8  H    1.795335   1.794630   0.000000
     9  H    2.834188   3.252356   4.026488   0.000000
    10  H    4.045083   4.020243   4.619330   1.794655   0.000000
    11  H    3.441648   2.822274   4.037620   1.797497   1.795301
                   11
    11  H    0.000000
 Stoichiometry    C2H6O2S
 Framework group  C1[X(C2H6O2S)]
 Deg. of freedom    27
 Full point group                 C1      NOp   1
 RotChk:  IX=3 Diff= 2.34D-04
 Largest Abelian subgroup         C1      NOp   1
 Largest concise Abelian subgroup C1      NOp   1
                         Standard orientation:                         
 ---------------------------------------------------------------------
 Center     Atomic      Atomic             Coordinates (Angstroms)
 Number     Number       Type             X           Y           Z
 ---------------------------------------------------------------------
      1          6           0        1.432196   -0.936331    0.000152
      2         16           0       -0.000027    0.166326   -0.000015
      3          8           0        0.000085    0.962137    1.293184
      4          6           0       -1.431947   -0.936628    0.000148
      5          8           0       -0.000326    0.961641   -1.293500
      6          1           0        1.450784   -1.504769    0.933424
      7          1           0        1.375635   -1.609428   -0.859436
      8          1           0        2.308434   -0.292094   -0.075081
      9          1           0       -1.380965   -1.601417    0.866517
     10          1           0       -2.308824   -0.291962    0.063279
     11          1           0       -1.444199   -1.514014   -0.927740
 ---------------------------------------------------------------------
 Rotational constants (GHZ):           4.2911531           4.0500911           3.9170371
 Leave Link  202 at Mon Oct 14 01:30:07 2019, MaxMem= 10737418240 cpu:               0.5 elap:               0.0
 (Enter /apps/cent7/gaussian/g16-A.03/g16-haswell/g16/l301.exe)
 Standard basis: 6-31G(d) (6D, 7F)
 Ernie: Thresh=  0.10000D-02 Tol=  0.10000D-05 Strict=F.
 There are    91 symmetry adapted cartesian basis functions of A   symmetry.
 There are    91 symmetry adapted basis functions of A   symmetry.
    91 basis functions,   188 primitive gaussians,    91 cartesian basis functions
    25 alpha electrons       25 beta electrons
       nuclear repulsion energy       266.6319534703 Hartrees.
 IExCor=  402 DFT=T Ex+Corr=B3LYP ExCW=0 ScaHFX=  0.200000
 ScaDFX=  0.800000  0.720000  1.000000  0.810000 ScalE2=  1.000000  1.000000
 IRadAn=      5 IRanWt=     -1 IRanGd=            0 ICorTp=0 IEmpDi=  4
 NAtoms=   11 NActive=   11 NUniq=   11 SFac= 1.00D+00 NAtFMM=   60 NAOKFM=F Big=F
 Integral buffers will be    131072 words long.
 Raffenetti 2 integral format.
 Two-electron integral symmetry is turned on.
 Leave Link  301 at Mon Oct 14 01:30:07 2019, MaxMem= 10737418240 cpu:               1.2 elap:               0.1
 (Enter /apps/cent7/gaussian/g16-A.03/g16-haswell/g16/l302.exe)
 NPDir=0 NMtPBC=     1 NCelOv=     1 NCel=       1 NClECP=     1 NCelD=      1
         NCelK=      1 NCelE2=     1 NClLst=     1 CellRange=     0.0.
 One-electron integrals computed using PRISM.
 One-electron integral symmetry used in STVInt
 NBasis=    91 RedAO= T EigKep=  3.98D-03  NBF=    91
 NBsUse=    91 1.00D-06 EigRej= -1.00D+00 NBFU=    91
 Precomputing XC quadrature grid using
 IXCGrd= 4 IRadAn=           5 IRanWt=          -1 IRanGd=           0 AccXCQ= 0.00D+00.
 Generated NRdTot=       0 NPtTot=           0 NUsed=           0 NTot=          32
 NSgBfM=    91    91    91    91    91 MxSgAt=    11 MxSgA2=    11.
 Leave Link  302 at Mon Oct 14 01:30:07 2019, MaxMem= 10737418240 cpu:               2.6 elap:               0.1
 (Enter /apps/cent7/gaussian/g16-A.03/g16-haswell/g16/l303.exe)
 DipDrv:  MaxL=1.
 Leave Link  303 at Mon Oct 14 01:30:07 2019, MaxMem= 10737418240 cpu:               0.5 elap:               0.0
 (Enter /apps/cent7/gaussian/g16-A.03/g16-haswell/g16/l401.exe)
 Initial guess from the checkpoint file:  "25.chk"
 B after Tr=    -0.000000   -0.000000   -0.000000
         Rot=    1.000000    0.000038   -0.000022   -0.000086 Ang=   0.01 deg.
 Guess basis will be translated and rotated to current coordinates.
 JPrj=2 DoOrth=T DoCkMO=T.
 Generating alternative initial guess.
 ExpMin= 1.17D-01 ExpMax= 2.19D+04 ExpMxC= 3.30D+03 IAcc=2 IRadAn=         4 AccDes= 0.00D+00
 Harris functional with IExCor=  402 and IRadAn=       4 diagonalized for initial guess.
 HarFok:  IExCor=  402 AccDes= 0.00D+00 IRadAn=         4 IDoV= 1 UseB2=F ITyADJ=14
 ICtDFT=  3500011 ScaDFX=  1.000000  1.000000  1.000000  1.000000
 FoFCou: FMM=F IPFlag=           0 FMFlag=      100000 FMFlg1=           0
         NFxFlg=           0 DoJE=T BraDBF=F KetDBF=T FulRan=T
         wScrn=  0.000000 ICntrl=       500 IOpCl=  0 I1Cent=   200000004 NGrid=           0
         NMat0=    1 NMatS0=      1 NMatT0=    0 NMatD0=    1 NMtDS0=    0 NMtDT0=    0
 Petite list used in FoFCou.
 Harris En= -628.476088102130    
 Leave Link  401 at Mon Oct 14 01:30:08 2019, MaxMem= 10737418240 cpu:               5.4 elap:               0.2
 (Enter /apps/cent7/gaussian/g16-A.03/g16-haswell/g16/l502.exe)
 Keep R1 ints in memory in canonical form, NReq=30675798.
 FoFCou: FMM=F IPFlag=           0 FMFlag=           0 FMFlg1=           0
         NFxFlg=           0 DoJE=F BraDBF=F KetDBF=F FulRan=T
         wScrn=  0.000000 ICntrl=       600 IOpCl=  0 I1Cent=           0 NGrid=           0
         NMat0=    1 NMatS0=   4186 NMatT0=    0 NMatD0=    1 NMtDS0=    0 NMtDT0=    0
 Symmetry not used in FoFCou.
 Two-electron integral symmetry not used.
 Closed shell SCF:
 Using DIIS extrapolation, IDIIS=  1040.
 NGot= 10737418240 LenX= 10728634920 LenY= 10728626198
 Requested convergence on RMS density matrix=1.00D-08 within 128 cycles.
 Requested convergence on MAX density matrix=1.00D-06.
 Requested convergence on             energy=1.00D-06.
 No special actions if energy rises.
 Integral accuracy reduced to 1.0D-05 until final iterations.

 Cycle   1  Pass 0  IDiag  1:
 E= -628.380628007358    
 DIIS: error= 1.24D-02 at cycle   1 NSaved=   1.
 NSaved= 1 IEnMin= 1 EnMin= -628.380628007358     IErMin= 1 ErrMin= 1.24D-02
 ErrMax= 1.24D-02  0.00D+00 EMaxC= 1.00D-01 BMatC= 8.49D-03 BMatP= 8.49D-03
 IDIUse=3 WtCom= 8.76D-01 WtEn= 1.24D-01
 Coeff-Com:  0.100D+01
 Coeff-En:   0.100D+01
 Coeff:      0.100D+01
 Recover alternate guess density for next cycle.
 RMSDP=7.80D-03 MaxDP=1.83D-01              OVMax= 0.00D+00

 Cycle   2  Pass 0  IDiag  1:
 E= -628.058302436132     Delta-E=        0.322325571226 Rises=F Damp=F
 Switch densities from cycles 1 and 2 for lowest energy.
 DIIS: error= 5.36D-02 at cycle   2 NSaved=   2.
 NSaved= 2 IEnMin= 1 EnMin= -628.380628007358     IErMin= 1 ErrMin= 1.24D-02
 ErrMax= 5.36D-02  0.00D+00 EMaxC= 1.00D+00 BMatC= 4.11D-01 BMatP= 8.49D-03
 IDIUse=1 WtCom= 1.00D+00 WtEn= 0.00D+00
 Coeff-Com:  0.958D+00 0.422D-01
 Coeff:      0.958D+00 0.422D-01
 Gap=     0.346 Goal=   None    Shift=    0.000
 RMSDP=2.31D-03 MaxDP=2.95D-02 DE= 3.22D-01 OVMax= 1.03D-01

 Cycle   3  Pass 0  IDiag  1:
 E= -628.394289682657     Delta-E=       -0.335987246525 Rises=F Damp=F
 DIIS: error= 2.92D-03 at cycle   3 NSaved=   3.
 NSaved= 3 IEnMin= 3 EnMin= -628.394289682657     IErMin= 3 ErrMin= 2.92D-03
 ErrMax= 2.92D-03  0.00D+00 EMaxC= 1.00D+00 BMatC= 1.13D-03 BMatP= 8.49D-03
 IDIUse=1 WtCom= 1.00D+00 WtEn= 0.00D+00
 Coeff-Com:  0.157D+00 0.149D-01 0.828D+00
 Coeff:      0.157D+00 0.149D-01 0.828D+00
 Gap=     0.332 Goal=   None    Shift=    0.000
 RMSDP=7.56D-04 MaxDP=1.36D-02 DE=-3.36D-01 OVMax= 1.77D-02

 Cycle   4  Pass 0  IDiag  1:
 E= -628.394460458989     Delta-E=       -0.000170776332 Rises=F Damp=F
 DIIS: error= 3.30D-03 at cycle   4 NSaved=   4.
 NSaved= 4 IEnMin= 4 EnMin= -628.394460458989     IErMin= 3 ErrMin= 2.92D-03
 ErrMax= 3.30D-03  0.00D+00 EMaxC= 1.00D+00 BMatC= 1.09D-03 BMatP= 1.13D-03
 IDIUse=1 WtCom= 1.00D+00 WtEn= 0.00D+00
 Coeff-Com: -0.200D-01 0.109D-01 0.493D+00 0.517D+00
 Coeff:     -0.200D-01 0.109D-01 0.493D+00 0.517D+00
 Gap=     0.337 Goal=   None    Shift=    0.000
 RMSDP=4.58D-04 MaxDP=5.42D-03 DE=-1.71D-04 OVMax= 9.83D-03

 Cycle   5  Pass 0  IDiag  1:
 E= -628.395401093608     Delta-E=       -0.000940634619 Rises=F Damp=F
 DIIS: error= 7.25D-04 at cycle   5 NSaved=   5.
 NSaved= 5 IEnMin= 5 EnMin= -628.395401093608     IErMin= 5 ErrMin= 7.25D-04
 ErrMax= 7.25D-04  0.00D+00 EMaxC= 1.00D+00 BMatC= 3.23D-05 BMatP= 1.09D-03
 IDIUse=1 WtCom= 1.00D+00 WtEn= 0.00D+00
 Coeff-Com: -0.168D-01 0.148D-02 0.154D+00 0.223D+00 0.639D+00
 Coeff:     -0.168D-01 0.148D-02 0.154D+00 0.223D+00 0.639D+00
 Gap=     0.336 Goal=   None    Shift=    0.000
 RMSDP=7.08D-05 MaxDP=1.73D-03 DE=-9.41D-04 OVMax= 1.55D-03

 Cycle   6  Pass 0  IDiag  1:
 E= -628.395429234992     Delta-E=       -0.000028141383 Rises=F Damp=F
 DIIS: error= 1.48D-04 at cycle   6 NSaved=   6.
 NSaved= 6 IEnMin= 6 EnMin= -628.395429234992     IErMin= 6 ErrMin= 1.48D-04
 ErrMax= 1.48D-04  0.00D+00 EMaxC= 1.00D+00 BMatC= 1.70D-06 BMatP= 3.23D-05
 IDIUse=1 WtCom= 1.00D+00 WtEn= 0.00D+00
 Coeff-Com: -0.357D-02-0.113D-03 0.216D-01 0.449D-01 0.256D+00 0.681D+00
 Coeff:     -0.357D-02-0.113D-03 0.216D-01 0.449D-01 0.256D+00 0.681D+00
 Gap=     0.336 Goal=   None    Shift=    0.000
 RMSDP=1.92D-05 MaxDP=6.16D-04 DE=-2.81D-05 OVMax= 2.87D-04

 Cycle   7  Pass 0  IDiag  1:
 E= -628.395430981471     Delta-E=       -0.000001746479 Rises=F Damp=F
 DIIS: error= 1.46D-05 at cycle   7 NSaved=   7.
 NSaved= 7 IEnMin= 7 EnMin= -628.395430981471     IErMin= 7 ErrMin= 1.46D-05
 ErrMax= 1.46D-05  0.00D+00 EMaxC= 1.00D+00 BMatC= 2.42D-08 BMatP= 1.70D-06
 IDIUse=1 WtCom= 1.00D+00 WtEn= 0.00D+00
 Coeff-Com:  0.865D-04-0.871D-04-0.461D-02-0.465D-02 0.161D-01 0.122D+00
 Coeff-Com:  0.871D+00
 Coeff:      0.865D-04-0.871D-04-0.461D-02-0.465D-02 0.161D-01 0.122D+00
 Coeff:      0.871D+00
 Gap=     0.336 Goal=   None    Shift=    0.000
 RMSDP=2.87D-06 MaxDP=5.58D-05 DE=-1.75D-06 OVMax= 7.52D-05

 Initial convergence to 1.0D-05 achieved.  Increase integral accuracy.
 Cycle   8  Pass 1  IDiag  1:
 E= -628.395437740025     Delta-E=       -0.000006758554 Rises=F Damp=F
 DIIS: error= 9.17D-06 at cycle   1 NSaved=   1.
 NSaved= 1 IEnMin= 1 EnMin= -628.395437740025     IErMin= 1 ErrMin= 9.17D-06
 ErrMax= 9.17D-06  0.00D+00 EMaxC= 1.00D+00 BMatC= 8.60D-09 BMatP= 8.60D-09
 IDIUse=1 WtCom= 1.00D+00 WtEn= 0.00D+00
 Coeff-Com:  0.100D+01
 Coeff:      0.100D+01
 Gap=     0.336 Goal=   None    Shift=    0.000
 RMSDP=2.87D-06 MaxDP=5.58D-05 DE=-6.76D-06 OVMax= 7.79D-05

 Cycle   9  Pass 1  IDiag  1:
 E= -628.395437713188     Delta-E=        0.000000026837 Rises=F Damp=F
 DIIS: error= 2.21D-05 at cycle   2 NSaved=   2.
 NSaved= 2 IEnMin= 1 EnMin= -628.395437740025     IErMin= 1 ErrMin= 9.17D-06
 ErrMax= 2.21D-05  0.00D+00 EMaxC= 1.00D+00 BMatC= 4.37D-08 BMatP= 8.60D-09
 IDIUse=1 WtCom= 1.00D+00 WtEn= 0.00D+00
 Coeff-Com:  0.698D+00 0.302D+00
 Coeff:      0.698D+00 0.302D+00
 Gap=     0.336 Goal=   None    Shift=    0.000
 RMSDP=2.24D-06 MaxDP=3.24D-05 DE= 2.68D-08 OVMax= 5.63D-05

 Cycle  10  Pass 1  IDiag  1:
 E= -628.395437747400     Delta-E=       -0.000000034212 Rises=F Damp=F
 DIIS: error= 6.68D-07 at cycle   3 NSaved=   3.
 NSaved= 3 IEnMin= 3 EnMin= -628.395437747400     IErMin= 3 ErrMin= 6.68D-07
 ErrMax= 6.68D-07  0.00D+00 EMaxC= 1.00D+00 BMatC= 6.91D-11 BMatP= 8.60D-09
 IDIUse=1 WtCom= 1.00D+00 WtEn= 0.00D+00
 Coeff-Com:  0.734D-01 0.556D-01 0.871D+00
 Coeff:      0.734D-01 0.556D-01 0.871D+00
 Gap=     0.336 Goal=   None    Shift=    0.000
 RMSDP=1.64D-07 MaxDP=2.65D-06 DE=-3.42D-08 OVMax= 2.37D-06

 Cycle  11  Pass 1  IDiag  1:
 E= -628.395437747443     Delta-E=       -0.000000000043 Rises=F Damp=F
 DIIS: error= 4.04D-07 at cycle   4 NSaved=   4.
 NSaved= 4 IEnMin= 4 EnMin= -628.395437747443     IErMin= 4 ErrMin= 4.04D-07
 ErrMax= 4.04D-07  0.00D+00 EMaxC= 1.00D+00 BMatC= 2.40D-11 BMatP= 6.91D-11
 IDIUse=1 WtCom= 1.00D+00 WtEn= 0.00D+00
 Coeff-Com:  0.329D-03 0.123D-01 0.443D+00 0.545D+00
 Coeff:      0.329D-03 0.123D-01 0.443D+00 0.545D+00
 Gap=     0.336 Goal=   None    Shift=    0.000
 RMSDP=6.86D-08 MaxDP=2.37D-06 DE=-4.30D-11 OVMax= 1.12D-06

 Cycle  12  Pass 1  IDiag  1:
 E= -628.395437747459     Delta-E=       -0.000000000016 Rises=F Damp=F
 DIIS: error= 2.31D-07 at cycle   5 NSaved=   5.
 NSaved= 5 IEnMin= 5 EnMin= -628.395437747459     IErMin= 5 ErrMin= 2.31D-07
 ErrMax= 2.31D-07  0.00D+00 EMaxC= 1.00D+00 BMatC= 4.83D-12 BMatP= 2.40D-11
 IDIUse=1 WtCom= 1.00D+00 WtEn= 0.00D+00
 Coeff-Com: -0.866D-02 0.156D-02 0.191D+00 0.343D+00 0.473D+00
 Coeff:     -0.866D-02 0.156D-02 0.191D+00 0.343D+00 0.473D+00
 Gap=     0.336 Goal=   None    Shift=    0.000
 RMSDP=2.79D-08 MaxDP=4.88D-07 DE=-1.57D-11 OVMax= 6.01D-07

 Cycle  13  Pass 1  IDiag  1:
 E= -628.395437747465     Delta-E=       -0.000000000006 Rises=F Damp=F
 DIIS: error= 5.37D-08 at cycle   6 NSaved=   6.
 NSaved= 6 IEnMin= 6 EnMin= -628.395437747465     IErMin= 6 ErrMin= 5.37D-08
 ErrMax= 5.37D-08  0.00D+00 EMaxC= 1.00D+00 BMatC= 2.56D-13 BMatP= 4.83D-12
 IDIUse=1 WtCom= 1.00D+00 WtEn= 0.00D+00
 Coeff-Com: -0.447D-02 0.779D-04 0.714D-01 0.143D+00 0.265D+00 0.525D+00
 Coeff:     -0.447D-02 0.779D-04 0.714D-01 0.143D+00 0.265D+00 0.525D+00
 Gap=     0.336 Goal=   None    Shift=    0.000
 RMSDP=6.65D-09 MaxDP=1.05D-07 DE=-6.14D-12 OVMax= 1.44D-07

 SCF Done:  E(RB3LYP) =  -628.395437747     A.U. after   13 cycles
            NFock= 13  Conv=0.67D-08     -V/T= 2.0061
 KE= 6.246076314213D+02 PE=-2.016686620917D+03 EE= 4.970515982782D+02
 Leave Link  502 at Mon Oct 14 01:30:09 2019, MaxMem= 10737418240 cpu:              17.9 elap:               0.9
 (Enter /apps/cent7/gaussian/g16-A.03/g16-haswell/g16/l701.exe)
 ... and contract with generalized density number  0.
 Compute integral first derivatives.
 Leave Link  701 at Mon Oct 14 01:30:09 2019, MaxMem= 10737418240 cpu:               2.2 elap:               0.1
 (Enter /apps/cent7/gaussian/g16-A.03/g16-haswell/g16/l702.exe)
 L702 exits ... SP integral derivatives will be done elsewhere.
 Leave Link  702 at Mon Oct 14 01:30:09 2019, MaxMem= 10737418240 cpu:               1.1 elap:               0.1
 (Enter /apps/cent7/gaussian/g16-A.03/g16-haswell/g16/l703.exe)
 Integral derivatives from FoFJK, PRISM(SPDF).
 Compute integral first derivatives, UseDBF=F ICtDFT=           0.
 Calling FoFJK, ICntrl=      2127 FMM=F ISym2X=0 I1Cent= 0 IOpClX= 0 NMat=1 NMatS=1 NMatT=0.
 FoFJK:  IHMeth= 1 ICntrl=    2127 DoSepK=F KAlg= 0 I1Cent=           0 FoldK=F
 IRaf=         0 NMat=       1 IRICut=       1 DoRegI=T DoRafI=F ISym2E= 0 IDoP0=0 IntGTp=1.
 FoFCou: FMM=F IPFlag=           0 FMFlag=      100000 FMFlg1=         800
         NFxFlg=           0 DoJE=F BraDBF=F KetDBF=F FulRan=T
         wScrn=  0.000000 ICntrl=      2127 IOpCl=  0 I1Cent=           0 NGrid=           0
         NMat0=    1 NMatS0=      1 NMatT0=    0 NMatD0=    1 NMtDS0=    0 NMtDT0=    0
 Symmetry not used in FoFCou.
 Leave Link  703 at Mon Oct 14 01:30:09 2019, MaxMem= 10737418240 cpu:               8.8 elap:               0.4
 (Enter /apps/cent7/gaussian/g16-A.03/g16-haswell/g16/l716.exe)
 Dipole        = 2.52435089D-04-2.03149073D+00 2.33685808D-04
 ***** Axes restored to original set *****
 -------------------------------------------------------------------
 Center     Atomic                   Forces (Hartrees/Bohr)
 Number     Number              X              Y              Z
 -------------------------------------------------------------------
      1        6           0.004400700    0.001011987    0.001991170
      2       16          -0.027977181   -0.044003805   -0.036139638
      3        8           0.019368644    0.040367947   -0.009983747
      4        6          -0.001086861    0.004187491    0.002385268
      5        8           0.007844377    0.002440345    0.045118530
      6        1          -0.000780385   -0.000541091   -0.000451261
      7        1          -0.001013057   -0.000352772   -0.001023011
      8        1          -0.000836309   -0.000180207   -0.000283526
      9        1          -0.000107872   -0.001367570   -0.000447625
     10        1           0.000258522   -0.000731858   -0.000457045
     11        1          -0.000070579   -0.000830469   -0.000709115
 -------------------------------------------------------------------
 Cartesian Forces:  Max     0.045118530 RMS     0.015849348
 Leave Link  716 at Mon Oct 14 01:30:09 2019, MaxMem= 10737418240 cpu:               1.3 elap:               0.1
 (Enter /apps/cent7/gaussian/g16-A.03/g16-haswell/g16/l103.exe)

 GradGradGradGradGradGradGradGradGradGradGradGradGradGradGradGradGradGrad
 Berny optimization.
 Using GEDIIS/GDIIS optimizer.
 FormGI is forming the generalized inverse of G from B-inverse, IUseBI=4.
 Internal  Forces:  Max     0.045084859 RMS     0.009595260
 Search for a local minimum.
 Step number   2 out of a maximum of   56
 All quantities printed in internal units (Hartrees-Bohrs-Radians)
 RMS Force = .95953D-02 SwitMx=.10000D-02 MixMth= 1
 Mixed Optimization -- RFO/linear search
 Update second derivatives using D2CorX and points    1    2
 DE= -3.22D-02 DEPred=-2.63D-02 R= 1.23D+00
 TightC=F SS=  1.41D+00  RLast= 3.94D-01 DXNew= 5.0454D-01 1.1834D+00
 Trust test= 1.23D+00 RLast= 3.94D-01 DXMaxT set to 5.05D-01
 ITU=  1  0
 Use linear search instead of GDIIS.
     Eigenvalues ---    0.00230   0.00230   0.05738   0.05749   0.06110
     Eigenvalues ---    0.06110   0.07132   0.08254   0.10392   0.15999
     Eigenvalues ---    0.16000   0.16000   0.16000   0.16000   0.16863
     Eigenvalues ---    0.16977   0.23985   0.24300   0.25272   0.30695
     Eigenvalues ---    0.34808   0.34810   0.34816   0.34818   0.34828
     Eigenvalues ---    0.34934   0.50517
 RFO step:  Lambda=-3.96004626D-03 EMin= 2.29991631D-03
 Quartic linear search produced a step of  0.49802.
 Iteration  1 RMS(Cart)=  0.02857263 RMS(Int)=  0.00059606
 Iteration  2 RMS(Cart)=  0.00035857 RMS(Int)=  0.00046306
 Iteration  3 RMS(Cart)=  0.00000079 RMS(Int)=  0.00046306
 ITry= 1 IFail=0 DXMaxC= 1.22D-01 DCOld= 1.00D+10 DXMaxT= 5.05D-01 DXLimC= 3.00D+00 Rises=F
 Variable       Old X    -DE/DX   Delta X   Delta X   Delta X     New X
                                 (Linear)    (Quad)   (Total)
    R1        3.41571  -0.00070  -0.01991   0.02165   0.00174   3.41744
    R2        2.06531  -0.00044   0.00270  -0.00501  -0.00231   2.06300
    R3        2.06590  -0.00045   0.00310  -0.00552  -0.00242   2.06348
    R4        2.06014   0.00088   0.00021   0.00353   0.00374   2.06388
    R5        2.86945  -0.04508  -0.08024  -0.04880  -0.12904   2.74041
    R6        3.41560  -0.00070  -0.01990   0.02163   0.00173   3.41733
    R7        2.86942  -0.04506  -0.08016  -0.04877  -0.12893   2.74049
    R8        2.06589  -0.00046   0.00300  -0.00542  -0.00242   2.06347
    R9        2.06014   0.00088   0.00021   0.00354   0.00375   2.06389
   R10        2.06534  -0.00044   0.00274  -0.00507  -0.00233   2.06302
    A1        1.90799   0.00003  -0.00128   0.00279   0.00138   1.90937
    A2        1.91190  -0.00002   0.00061  -0.00106  -0.00054   1.91136
    A3        1.85081  -0.00050  -0.02979   0.04113   0.01113   1.86193
    A4        1.93059   0.00080   0.00994  -0.00696   0.00297   1.93355
    A5        1.93116  -0.00014   0.01025  -0.01656  -0.00658   1.92458
    A6        1.92961  -0.00022   0.00941  -0.01720  -0.00799   1.92162
    A7        1.89609  -0.00169  -0.00815   0.00093  -0.00841   1.88767
    A8        1.82914  -0.00030  -0.03996   0.04704   0.00550   1.83464
    A9        1.89627  -0.00182  -0.00807  -0.00042  -0.00969   1.88658
   A10        1.89631  -0.00182  -0.00809  -0.00030  -0.00957   1.88674
   A11        2.03866   0.00666   0.06688  -0.03855   0.02867   2.06733
   A12        1.89604  -0.00170  -0.00823   0.00086  -0.00856   1.88748
   A13        1.91156  -0.00001   0.00048  -0.00076  -0.00037   1.91118
   A14        1.85082  -0.00050  -0.02977   0.04112   0.01113   1.86195
   A15        1.90835   0.00002  -0.00114   0.00246   0.00120   1.90955
   A16        1.92966  -0.00022   0.00946  -0.01714  -0.00788   1.92178
   A17        1.93059   0.00080   0.00994  -0.00694   0.00299   1.93358
   A18        1.93109  -0.00015   0.01016  -0.01660  -0.00670   1.92439
    D1        0.89347  -0.00335  -0.04109   0.03545  -0.00526   0.88821
    D2       -1.13092  -0.00033  -0.00489   0.01166   0.00684  -1.12408
    D3        3.12810   0.00262   0.03145  -0.01285   0.01835  -3.13673
    D4        3.01153  -0.00237  -0.02929   0.02796  -0.00107   3.01046
    D5        0.98714   0.00066   0.00691   0.00417   0.01102   0.99816
    D6       -1.03703   0.00361   0.04324  -0.02034   0.02254  -1.01449
    D7       -1.18898  -0.00292  -0.03519   0.03040  -0.00450  -1.19348
    D8        3.06982   0.00010   0.00101   0.00660   0.00759   3.07741
    D9        1.04565   0.00305   0.03734  -0.01790   0.01911   1.06476
   D10        0.99865   0.00064   0.00675   0.00247   0.00917   1.00782
   D11        3.08121   0.00009   0.00087   0.00511   0.00596   3.08716
   D12       -1.11942  -0.00035  -0.00505   0.00996   0.00497  -1.11446
   D13       -1.02559   0.00357   0.04300  -0.02218   0.02046  -1.00513
   D14        1.05697   0.00302   0.03712  -0.01954   0.01725   1.07422
   D15        3.13952   0.00258   0.03120  -0.01470   0.01626  -3.12740
   D16        3.02298  -0.00239  -0.02947   0.02608  -0.00313   3.01985
   D17       -1.17765  -0.00294  -0.03536   0.02872  -0.00634  -1.18399
   D18        0.90490  -0.00338  -0.04128   0.03357  -0.00733   0.89757
         Item               Value     Threshold  Converged?
 Maximum Force            0.045085     0.000450     NO 
 RMS     Force            0.009595     0.000300     NO 
 Maximum Displacement     0.121820     0.001800     NO 
 RMS     Displacement     0.028599     0.001200     NO 
 Predicted change in Energy=-7.199426D-03
 Lowest energy point so far.  Saving SCF results.
 GradGradGradGradGradGradGradGradGradGradGradGradGradGradGradGradGradGrad

 Leave Link  103 at Mon Oct 14 01:30:09 2019, MaxMem= 10737418240 cpu:               0.4 elap:               0.0
 (Enter /apps/cent7/gaussian/g16-A.03/g16-haswell/g16/l202.exe)
                          Input orientation:                          
 ---------------------------------------------------------------------
 Center     Atomic      Atomic             Coordinates (Angstroms)
 Number     Number       Type             X           Y           Z
 ---------------------------------------------------------------------
      1          6           0       -0.755111    1.359432    0.462139
      2         16           0        0.025149   -0.057754   -0.346076
      3          8           0       -0.516288   -1.267772    0.241862
      4          6           0        1.774471    0.049419    0.099563
      5          8           0       -0.087405    0.123599   -1.780485
      6          1           0       -0.677958    1.246910    1.545273
      7          1           0       -0.269352    2.280206    0.132649
      8          1           0       -1.803257    1.357434    0.155219
      9          1           0        1.874913    0.040078    1.186837
     10          1           0        2.261812   -0.828468   -0.330124
     11          1           0        2.200727    0.962216   -0.321056
 ---------------------------------------------------------------------
                    Distance matrix (angstroms):
                    1          2          3          4          5
     1  C    0.000000
     2  S    1.808434   0.000000
     3  O    2.647218   1.450162   0.000000
     4  C    2.871651   1.808371   2.646284   0.000000
     5  O    2.646220   1.450203   2.491935   2.647011   0.000000
     6  H    1.091693   2.402855   2.837014   3.088441   3.559670
     7  H    1.091947   2.404572   3.558237   3.025676   2.888623
     8  H    1.092161   2.365824   2.924979   3.809742   2.865911
     9  H    3.030331   2.404375   2.884665   1.091944   3.558465
    10  H    3.810041   2.365780   2.870191   1.092162   2.920411
    11  H    3.083529   2.402936   3.559760   1.091702   2.840556
                    6          7          8          9         10
     6  H    0.000000
     7  H    1.797266   0.000000
     8  H    1.791861   1.790219   0.000000
     9  H    2.846414   3.275264   4.040866   0.000000
    10  H    4.057901   4.035443   4.640960   1.790317   0.000000
    11  H    3.442537   2.836236   4.051533   1.797285   1.791748
                   11
    11  H    0.000000
 Stoichiometry    C2H6O2S
 Framework group  C1[X(C2H6O2S)]
 Deg. of freedom    27
 Full point group                 C1      NOp   1
 RotChk:  IX=1 Diff= 3.54D-03
 Largest Abelian subgroup         C1      NOp   1
 Largest concise Abelian subgroup C1      NOp   1
                         Standard orientation:                         
 ---------------------------------------------------------------------
 Center     Atomic      Atomic             Coordinates (Angstroms)
 Number     Number       Type             X           Y           Z
 ---------------------------------------------------------------------
      1          6           0        1.435963   -0.916917    0.002771
      2         16           0       -0.000026    0.182337   -0.000012
      3          8           0       -0.003010    0.924988    1.245552
      4          6           0       -1.435683   -0.917250   -0.002015
      5          8           0        0.002733    0.923724   -1.246377
      6          1           0        1.451945   -1.490221    0.931674
      7          1           0        1.388031   -1.581758   -0.862122
      8          1           0        2.319628   -0.278471   -0.063089
      9          1           0       -1.392517   -1.574726    0.868734
     10          1           0       -2.319874   -0.278521    0.053200
     11          1           0       -1.446257   -1.498388   -0.926126
 ---------------------------------------------------------------------
 Rotational constants (GHZ):           4.5649499           4.1639005           4.0031745
 Leave Link  202 at Mon Oct 14 01:30:09 2019, MaxMem= 10737418240 cpu:               0.3 elap:               0.0
 (Enter /apps/cent7/gaussian/g16-A.03/g16-haswell/g16/l301.exe)
 Standard basis: 6-31G(d) (6D, 7F)
 Ernie: Thresh=  0.10000D-02 Tol=  0.10000D-05 Strict=F.
 There are    91 symmetry adapted cartesian basis functions of A   symmetry.
 There are    91 symmetry adapted basis functions of A   symmetry.
    91 basis functions,   188 primitive gaussians,    91 cartesian basis functions
    25 alpha electrons       25 beta electrons
       nuclear repulsion energy       272.3456550665 Hartrees.
 IExCor=  402 DFT=T Ex+Corr=B3LYP ExCW=0 ScaHFX=  0.200000
 ScaDFX=  0.800000  0.720000  1.000000  0.810000 ScalE2=  1.000000  1.000000
 IRadAn=      5 IRanWt=     -1 IRanGd=            0 ICorTp=0 IEmpDi=  4
 NAtoms=   11 NActive=   11 NUniq=   11 SFac= 1.00D+00 NAtFMM=   60 NAOKFM=F Big=F
 Integral buffers will be    131072 words long.
 Raffenetti 2 integral format.
 Two-electron integral symmetry is turned on.
 Leave Link  301 at Mon Oct 14 01:30:09 2019, MaxMem= 10737418240 cpu:               1.2 elap:               0.1
 (Enter /apps/cent7/gaussian/g16-A.03/g16-haswell/g16/l302.exe)
 NPDir=0 NMtPBC=     1 NCelOv=     1 NCel=       1 NClECP=     1 NCelD=      1
         NCelK=      1 NCelE2=     1 NClLst=     1 CellRange=     0.0.
 One-electron integrals computed using PRISM.
 One-electron integral symmetry used in STVInt
 NBasis=    91 RedAO= T EigKep=  3.68D-03  NBF=    91
 NBsUse=    91 1.00D-06 EigRej= -1.00D+00 NBFU=    91
 Precomputing XC quadrature grid using
 IXCGrd= 4 IRadAn=           5 IRanWt=          -1 IRanGd=           0 AccXCQ= 0.00D+00.
 Generated NRdTot=       0 NPtTot=           0 NUsed=           0 NTot=          32
 NSgBfM=    91    91    91    91    91 MxSgAt=    11 MxSgA2=    11.
 Leave Link  302 at Mon Oct 14 01:30:10 2019, MaxMem= 10737418240 cpu:               2.6 elap:               0.1
 (Enter /apps/cent7/gaussian/g16-A.03/g16-haswell/g16/l303.exe)
 DipDrv:  MaxL=1.
 Leave Link  303 at Mon Oct 14 01:30:10 2019, MaxMem= 10737418240 cpu:               0.5 elap:               0.0
 (Enter /apps/cent7/gaussian/g16-A.03/g16-haswell/g16/l401.exe)
 Initial guess from the checkpoint file:  "25.chk"
 B after Tr=     0.000000    0.000000    0.000000
         Rot=    0.999999    0.000099    0.001126   -0.000007 Ang=   0.13 deg.
 Guess basis will be translated and rotated to current coordinates.
 JPrj=2 DoOrth=T DoCkMO=T.
 Generating alternative initial guess.
 ExpMin= 1.17D-01 ExpMax= 2.19D+04 ExpMxC= 3.30D+03 IAcc=2 IRadAn=         4 AccDes= 0.00D+00
 Harris functional with IExCor=  402 and IRadAn=       4 diagonalized for initial guess.
 HarFok:  IExCor=  402 AccDes= 0.00D+00 IRadAn=         4 IDoV= 1 UseB2=F ITyADJ=14
 ICtDFT=  3500011 ScaDFX=  1.000000  1.000000  1.000000  1.000000
 FoFCou: FMM=F IPFlag=           0 FMFlag=      100000 FMFlg1=           0
         NFxFlg=           0 DoJE=T BraDBF=F KetDBF=T FulRan=T
         wScrn=  0.000000 ICntrl=       500 IOpCl=  0 I1Cent=   200000004 NGrid=           0
         NMat0=    1 NMatS0=      1 NMatT0=    0 NMatD0=    1 NMtDS0=    0 NMtDT0=    0
 Petite list used in FoFCou.
 Harris En= -628.472369148605    
 Leave Link  401 at Mon Oct 14 01:30:10 2019, MaxMem= 10737418240 cpu:               4.7 elap:               0.2
 (Enter /apps/cent7/gaussian/g16-A.03/g16-haswell/g16/l502.exe)
 Keep R1 ints in memory in canonical form, NReq=30675798.
 FoFCou: FMM=F IPFlag=           0 FMFlag=           0 FMFlg1=           0
         NFxFlg=           0 DoJE=F BraDBF=F KetDBF=F FulRan=T
         wScrn=  0.000000 ICntrl=       600 IOpCl=  0 I1Cent=           0 NGrid=           0
         NMat0=    1 NMatS0=   4186 NMatT0=    0 NMatD0=    1 NMtDS0=    0 NMtDT0=    0
 Symmetry not used in FoFCou.
 Two-electron integral symmetry not used.
 Closed shell SCF:
 Using DIIS extrapolation, IDIIS=  1040.
 NGot= 10737418240 LenX= 10728634920 LenY= 10728626198
 Requested convergence on RMS density matrix=1.00D-08 within 128 cycles.
 Requested convergence on MAX density matrix=1.00D-06.
 Requested convergence on             energy=1.00D-06.
 No special actions if energy rises.
 Integral accuracy reduced to 1.0D-05 until final iterations.

 Cycle   1  Pass 0  IDiag  1:
 E= -628.393072676687    
 DIIS: error= 5.74D-03 at cycle   1 NSaved=   1.
 NSaved= 1 IEnMin= 1 EnMin= -628.393072676687     IErMin= 1 ErrMin= 5.74D-03
 ErrMax= 5.74D-03  0.00D+00 EMaxC= 1.00D-01 BMatC= 4.28D-03 BMatP= 4.28D-03
 IDIUse=3 WtCom= 9.43D-01 WtEn= 5.74D-02
 Coeff-Com:  0.100D+01
 Coeff-En:   0.100D+01
 Coeff:      0.100D+01
 Gap=     1.557 Goal=   None    Shift=    0.000
 GapD=    1.557 DampG=2.000 DampE=1.000 DampFc=2.0000 IDamp=-1.
 RMSDP=1.67D-03 MaxDP=2.32D-02              OVMax= 2.54D-02

 Cycle   2  Pass 0  IDiag  1:
 E= -628.398013736702     Delta-E=       -0.004941060016 Rises=F Damp=F
 DIIS: error= 4.82D-03 at cycle   2 NSaved=   2.
 NSaved= 2 IEnMin= 2 EnMin= -628.398013736702     IErMin= 2 ErrMin= 4.82D-03
 ErrMax= 4.82D-03  0.00D+00 EMaxC= 1.00D-01 BMatC= 1.79D-03 BMatP= 4.28D-03
 IDIUse=3 WtCom= 9.52D-01 WtEn= 4.82D-02
 Coeff-Com:  0.346D+00 0.654D+00
 Coeff-En:   0.000D+00 0.100D+01
 Coeff:      0.330D+00 0.670D+00
 Gap=     0.347 Goal=   None    Shift=    0.000
 RMSDP=8.11D-04 MaxDP=1.23D-02 DE=-4.94D-03 OVMax= 1.91D-02

 Cycle   3  Pass 0  IDiag  1:
 E= -628.398288358167     Delta-E=       -0.000274621465 Rises=F Damp=F
 DIIS: error= 3.61D-03 at cycle   3 NSaved=   3.
 NSaved= 3 IEnMin= 3 EnMin= -628.398288358167     IErMin= 3 ErrMin= 3.61D-03
 ErrMax= 3.61D-03  0.00D+00 EMaxC= 1.00D-01 BMatC= 1.35D-03 BMatP= 1.79D-03
 IDIUse=3 WtCom= 9.64D-01 WtEn= 3.61D-02
 Coeff-Com:  0.145D-01 0.462D+00 0.523D+00
 Coeff-En:   0.000D+00 0.452D+00 0.548D+00
 Coeff:      0.140D-01 0.462D+00 0.524D+00
 Gap=     0.354 Goal=   None    Shift=    0.000
 RMSDP=4.44D-04 MaxDP=7.37D-03 DE=-2.75D-04 OVMax= 8.96D-03

 Cycle   4  Pass 0  IDiag  1:
 E= -628.399294207430     Delta-E=       -0.001005849262 Rises=F Damp=F
 DIIS: error= 7.48D-04 at cycle   4 NSaved=   4.
 NSaved= 4 IEnMin= 4 EnMin= -628.399294207430     IErMin= 4 ErrMin= 7.48D-04
 ErrMax= 7.48D-04  0.00D+00 EMaxC= 1.00D-01 BMatC= 2.82D-05 BMatP= 1.35D-03
 IDIUse=3 WtCom= 9.93D-01 WtEn= 7.48D-03
 Coeff-Com: -0.150D-01 0.148D+00 0.231D+00 0.635D+00
 Coeff-En:   0.000D+00 0.000D+00 0.000D+00 0.100D+01
 Coeff:     -0.149D-01 0.147D+00 0.230D+00 0.638D+00
 Gap=     0.352 Goal=   None    Shift=    0.000
 RMSDP=6.69D-05 MaxDP=2.57D-03 DE=-1.01D-03 OVMax= 1.10D-03

 Cycle   5  Pass 0  IDiag  1:
 E= -628.399318434900     Delta-E=       -0.000024227470 Rises=F Damp=F
 DIIS: error= 8.65D-05 at cycle   5 NSaved=   5.
 NSaved= 5 IEnMin= 5 EnMin= -628.399318434900     IErMin= 5 ErrMin= 8.65D-05
 ErrMax= 8.65D-05  0.00D+00 EMaxC= 1.00D-01 BMatC= 9.54D-07 BMatP= 2.82D-05
 IDIUse=1 WtCom= 1.00D+00 WtEn= 0.00D+00
 Coeff-Com: -0.452D-02 0.270D-01 0.538D-01 0.235D+00 0.689D+00
 Coeff:     -0.452D-02 0.270D-01 0.538D-01 0.235D+00 0.689D+00
 Gap=     0.352 Goal=   None    Shift=    0.000
 RMSDP=1.74D-05 MaxDP=5.61D-04 DE=-2.42D-05 OVMax= 2.67D-04

 Cycle   6  Pass 0  IDiag  1:
 E= -628.399319439149     Delta-E=       -0.000001004248 Rises=F Damp=F
 DIIS: error= 1.42D-05 at cycle   6 NSaved=   6.
 NSaved= 6 IEnMin= 6 EnMin= -628.399319439149     IErMin= 6 ErrMin= 1.42D-05
 ErrMax= 1.42D-05  0.00D+00 EMaxC= 1.00D-01 BMatC= 2.87D-08 BMatP= 9.54D-07
 IDIUse=1 WtCom= 1.00D+00 WtEn= 0.00D+00
 Coeff-Com: -0.453D-03-0.815D-03 0.422D-03 0.244D-01 0.173D+00 0.803D+00
 Coeff:     -0.453D-03-0.815D-03 0.422D-03 0.244D-01 0.173D+00 0.803D+00
 Gap=     0.352 Goal=   None    Shift=    0.000
 RMSDP=2.67D-06 MaxDP=6.84D-05 DE=-1.00D-06 OVMax= 5.32D-05

 Initial convergence to 1.0D-05 achieved.  Increase integral accuracy.
 Cycle   7  Pass 1  IDiag  1:
 E= -628.399333113683     Delta-E=       -0.000013674534 Rises=F Damp=F
 DIIS: error= 1.13D-05 at cycle   1 NSaved=   1.
 NSaved= 1 IEnMin= 1 EnMin= -628.399333113683     IErMin= 1 ErrMin= 1.13D-05
 ErrMax= 1.13D-05  0.00D+00 EMaxC= 1.00D-01 BMatC= 8.28D-09 BMatP= 8.28D-09
 IDIUse=1 WtCom= 1.00D+00 WtEn= 0.00D+00
 Coeff-Com:  0.100D+01
 Coeff:      0.100D+01
 Gap=     0.352 Goal=   None    Shift=    0.000
 RMSDP=2.67D-06 MaxDP=6.84D-05 DE=-1.37D-05 OVMax= 3.34D-05

 Cycle   8  Pass 1  IDiag  1:
 E= -628.399333111074     Delta-E=        0.000000002609 Rises=F Damp=F
 DIIS: error= 1.24D-05 at cycle   2 NSaved=   2.
 NSaved= 2 IEnMin= 1 EnMin= -628.399333113683     IErMin= 1 ErrMin= 1.13D-05
[...]
    A8        1.80591   0.00001   0.00000   0.00003   0.00003   1.80594
    A9        1.88159   0.00000   0.00000   0.00003   0.00003   1.88162
   A10        1.88157   0.00000   0.00000   0.00005   0.00005   1.88162
   A11        2.10854  -0.00000   0.00000  -0.00002  -0.00002   2.10853
   A12        1.88168  -0.00001   0.00000  -0.00006  -0.00006   1.88162
   A13        1.91385  -0.00000   0.00000   0.00002   0.00002   1.91387
   A14        1.84931  -0.00000   0.00000  -0.00001  -0.00001   1.84930
   A15        1.91390   0.00000   0.00000  -0.00003  -0.00003   1.91387
   A16        1.91968   0.00001   0.00000   0.00012   0.00012   1.91979
   A17        1.94487  -0.00000   0.00000  -0.00004  -0.00004   1.94483
   A18        1.91985  -0.00000   0.00000  -0.00006  -0.00006   1.91979
    D1        0.91969   0.00000   0.00000   0.00022   0.00022   0.91991
    D2       -1.07052  -0.00000   0.00000   0.00016   0.00016  -1.07037
    D3       -3.06084   0.00000   0.00000   0.00020   0.00020  -3.06065
    D4        3.06048  -0.00000   0.00000   0.00016   0.00016   3.06065
    D5        1.07027  -0.00001   0.00000   0.00010   0.00010   1.07037
    D6       -0.92005  -0.00000   0.00000   0.00014   0.00014  -0.91991
    D7       -1.15164   0.00001   0.00000   0.00032   0.00032  -1.15132
    D8        3.14134   0.00000   0.00000   0.00026   0.00026   3.14159
    D9        1.15102   0.00000   0.00000   0.00030   0.00030   1.15132
   D10        1.07025  -0.00000   0.00000   0.00012   0.00012   1.07037
   D11        3.14133   0.00000   0.00000   0.00026   0.00026   3.14159
   D12       -1.07054   0.00000   0.00000   0.00017   0.00017  -1.07037
   D13       -0.92002  -0.00000   0.00000   0.00011   0.00011  -0.91991
   D14        1.15106   0.00000   0.00000   0.00025   0.00025   1.15131
   D15       -3.06081  -0.00000   0.00000   0.00017   0.00017  -3.06065
   D16        3.06051  -0.00000   0.00000   0.00014   0.00014   3.06065
   D17       -1.15160   0.00000   0.00000   0.00028   0.00028  -1.15132
   D18        0.91972   0.00000   0.00000   0.00019   0.00019   0.91991
         Item               Value     Threshold  Converged?
 Maximum Force            0.000020     0.000450     YES
 RMS     Force            0.000004     0.000300     YES
 Maximum Displacement     0.000294     0.001800     YES
 RMS     Displacement     0.000125     0.001200     YES
 Predicted change in Energy=-4.123128D-09
 Optimization completed.
    -- Stationary point found.
                           ----------------------------
                           !   Optimized Parameters   !
                           ! (Angstroms and Degrees)  !
 --------------------------                            --------------------------
 ! Name  Definition              Value          Derivative Info.                !
 --------------------------------------------------------------------------------
 ! R1    R(1,2)                  1.8098         -DE/DX =    0.0                 !
 ! R2    R(1,6)                  1.092          -DE/DX =    0.0                 !
 ! R3    R(1,7)                  1.092          -DE/DX =    0.0                 !
 ! R4    R(1,8)                  1.0926         -DE/DX =    0.0                 !
 ! R5    R(2,3)                  1.4701         -DE/DX =    0.0                 !
 ! R6    R(2,4)                  1.8098         -DE/DX =    0.0                 !
 ! R7    R(2,5)                  1.4701         -DE/DX =    0.0                 !
 ! R8    R(4,9)                  1.092          -DE/DX =    0.0                 !
 ! R9    R(4,10)                 1.0926         -DE/DX =    0.0                 !
 ! R10   R(4,11)                 1.092          -DE/DX =    0.0                 !
 ! A1    A(2,1,6)              109.66           -DE/DX =    0.0                 !
 ! A2    A(2,1,7)              109.6537         -DE/DX =    0.0                 !
 ! A3    A(2,1,8)              105.9576         -DE/DX =    0.0                 !
 ! A4    A(6,1,7)              111.4328         -DE/DX =    0.0                 !
 ! A5    A(6,1,8)              109.9991         -DE/DX =    0.0                 !
 ! A6    A(7,1,8)              109.9895         -DE/DX =    0.0                 !
 ! A7    A(1,2,3)              107.8105         -DE/DX =    0.0                 !
 ! A8    A(1,2,4)              103.4709         -DE/DX =    0.0                 !
 ! A9    A(1,2,5)              107.8073         -DE/DX =    0.0                 !
 ! A10   A(3,2,4)              107.8059         -DE/DX =    0.0                 !
 ! A11   A(3,2,5)              120.8106         -DE/DX =    0.0                 !
 ! A12   A(4,2,5)              107.8124         -DE/DX =    0.0                 !
 ! A13   A(2,4,9)              109.6555         -DE/DX =    0.0                 !
 ! A14   A(2,4,10)             105.9575         -DE/DX =    0.0                 !
 ! A15   A(2,4,11)             109.6584         -DE/DX =    0.0                 !
 ! A16   A(9,4,10)             109.9893         -DE/DX =    0.0                 !
 ! A17   A(9,4,11)             111.4327         -DE/DX =    0.0                 !
 ! A18   A(10,4,11)            109.9992         -DE/DX =    0.0                 !
 ! D1    D(6,1,2,3)             52.6944         -DE/DX =    0.0                 !
 ! D2    D(6,1,2,4)            -61.3365         -DE/DX =    0.0                 !
 ! D3    D(6,1,2,5)           -175.3735         -DE/DX =    0.0                 !
 ! D4    D(7,1,2,3)            175.3526         -DE/DX =    0.0                 !
 ! D5    D(7,1,2,4)             61.3218         -DE/DX =    0.0                 !
 ! D6    D(7,1,2,5)            -52.7152         -DE/DX =    0.0                 !
 ! D7    D(8,1,2,3)            -65.9838         -DE/DX =    0.0                 !
 ! D8    D(8,1,2,4)            179.9853         -DE/DX =    0.0                 !
 ! D9    D(8,1,2,5)             65.9483         -DE/DX =    0.0                 !
 ! D10   D(1,2,4,9)             61.3209         -DE/DX =    0.0                 !
 ! D11   D(1,2,4,10)           179.9852         -DE/DX =    0.0                 !
 ! D12   D(1,2,4,11)           -61.3374         -DE/DX =    0.0                 !
 ! D13   D(3,2,4,9)            -52.7133         -DE/DX =    0.0                 !
 ! D14   D(3,2,4,10)            65.951          -DE/DX =    0.0                 !
 ! D15   D(3,2,4,11)          -175.3716         -DE/DX =    0.0                 !
 ! D16   D(5,2,4,9)            175.3542         -DE/DX =    0.0                 !
 ! D17   D(5,2,4,10)           -65.9816         -DE/DX =    0.0                 !
 ! D18   D(5,2,4,11)            52.6959         -DE/DX =    0.0                 !
 --------------------------------------------------------------------------------
 GradGradGradGradGradGradGradGradGradGradGradGradGradGradGradGradGradGrad

 Leave Link  103 at Mon Oct 14 01:30:27 2019, MaxMem= 10737418240 cpu:               0.4 elap:               0.0
 (Enter /apps/cent7/gaussian/g16-A.03/g16-haswell/g16/l9999.exe)

 ----------------------------------------------------------------------

 Electric dipole moment (input orientation):
 (Debye = 10**-18 statcoulomb cm , SI units = C m)
                  (au)            (Debye)         (10**-30 SI)
   Tot        0.181246D+01      0.460680D+01      0.153666D+02
   x          0.798298D+00      0.202907D+01      0.676825D+01
   y          0.125479D+01      0.318936D+01      0.106386D+02
   z          0.103596D+01      0.263314D+01      0.878322D+01

 Dipole polarizability, Alpha (input orientation).
 (esu units = cm**3 , SI units = C**2 m**2 J**-1)
 Alpha(0;0):
               (au)            (10**-24 esu)      (10**-40 SI)
   iso        0.437400D+02      0.648161D+01      0.721176D+01
   aniso      0.333904D+01      0.494795D+00      0.550534D+00
   xx         0.452245D+02      0.670158D+01      0.745652D+01
   yx        -0.132890D+01     -0.196923D+00     -0.219106D+00
   yy         0.433548D+02      0.642452D+01      0.714825D+01
   zx        -0.307159D+00     -0.455163D-01     -0.506437D-01
   zy         0.275402D+00      0.408104D-01      0.454076D-01
   zz         0.426408D+02      0.631871D+01      0.703051D+01

 ----------------------------------------------------------------------

 Dipole orientation:
     6         -2.10005533          1.46504991          1.65771167
    16          0.35189850          0.37005666         -0.46032662
     8         -0.63301222         -1.83566950         -1.83227275
     6          2.80379962         -0.72499338          1.65774308
     8          1.33680542          2.57577432         -1.83232241
     1         -2.76604558         -0.10503332          2.81952586
     1         -1.37502372          3.00855133          2.81983558
     1         -3.62932914          2.14859877          0.45057037
     1          2.07878858         -2.26851511          2.81986048
     1          4.33310039         -1.40851267          0.45061924
     1          3.46974410          0.84509794          2.81956578

 Electric dipole moment (dipole orientation):
 (Debye = 10**-18 statcoulomb cm , SI units = C m)
                  (au)            (Debye)         (10**-30 SI)
   Tot        0.181246D+01      0.460680D+01      0.153666D+02
   x          0.000000D+00      0.000000D+00      0.000000D+00
   y          0.000000D+00      0.000000D+00      0.000000D+00
   z          0.181246D+01      0.460680D+01      0.153666D+02

 Dipole polarizability, Alpha (dipole orientation).
 (esu units = cm**3 , SI units = C**2 m**2 J**-1)
 Alpha(0;0):
               (au)            (10**-24 esu)      (10**-40 SI)
   iso        0.437400D+02      0.648161D+01      0.721176D+01
   aniso      0.333904D+01      0.494795D+00      0.550534D+00
   xx         0.453892D+02      0.672598D+01      0.748367D+01
   yx        -0.128252D+01     -0.190050D+00     -0.211459D+00
   yy         0.430938D+02      0.638585D+01      0.710521D+01
   zx        -0.929147D-04     -0.137685D-04     -0.153196D-04
   zy        -0.383797D-03     -0.568728D-04     -0.632795D-04
   zz         0.427371D+02      0.633299D+01      0.704640D+01

 ----------------------------------------------------------------------
 1\1\GINC-BROWN-A226\Freq\RB3LYP\6-31G(d)\C2H6O2S1\FINEJ\14-Oct-2019\0\
 \#P Geom=AllCheck Guess=TCheck SCRF=Check GenChk RB3LYP/6-31G(d) Freq\
 \Title Card Required\\0,1\C,-0.7381720312,1.3617685236,0.4541422371\S,
 0.0179425555,-0.068673436,-0.3568256285\O,-0.5322073657,-1.2814100096,
 0.2658531533\C,1.7613770314,0.0528014599,0.1135169185\O,-0.0714576285,
 0.1387951595,-1.8094486895\H,-0.6150934721,1.2783318825,1.5359906976\H
 ,-0.2894785843,2.280760043,0.0711826019\H,-1.7990737864,1.3279429612,0
 .1950380289\H,1.8544219517,-0.0146950995,1.1994824448\H,2.2595790529,-
 0.7978503735,-0.3576283571\H,2.1798622768,0.987528889,-0.2655034069\\V
 ersion=ES64L-G16RevA.03\State=1-A\HF=-628.4008234\RMSD=1.622e-09\RMSF=
 7.458e-06\ZeroPoint=0.0856709\Thermal=0.085671\Dipole=0.7982983,1.2547
 925,1.0359583\DipoleDeriv=-0.2240705,0.09633,0.0346811,0.0840373,-0.24
 35298,-0.0907863,0.0262803,-0.0880749,-0.1379649,1.7378166,0.0331024,0
 .0161046,0.0331213,1.7778594,0.0143147,0.0160758,0.0143227,1.7810026,-
 0.7151634,-0.1557581,0.0372839,-0.1733294,-0.9865403,0.0648406,0.10470
 8,0.193584,-0.614145,-0.3505026,0.0177856,-0.0471543,0.0300745,-0.1394
 386,-0.0315637,-0.0387593,-0.0342944,-0.1156274,-0.6320551,0.0200476,-
 0.0285073,0.0375962,-0.583979,0.0656346,-0.0958906,-0.0631091,-1.09979
 48,0.0810171,0.0210814,-0.0135553,0.0316237,0.032983,-0.0166298,-0.007
 496,-0.0090629,-0.052228,0.0535192,-0.0317247,0.0369343,-0.0251167,-0.
 0435001,0.0131414,0.0426096,0.0017896,0.0517183,-0.0063471,0.0019079,-
 0.0235869,0.0286752,0.0685396,-0.0190391,-0.0052773,-0.0249931,0.08736
 3,0.0182647,-0.0069136,-0.0222923,-0.019411,0.0915677,-0.0006344,-0.02
 08239,0.0061791,-0.0480823,0.029221,0.0473022,0.0153966,0.0205366,0.03
 92195,-0.0408808,-0.002916,-0.0349274,0.0811147,0.0083001,-0.0431607,-
 0.0053043,-0.0478076,-0.0131814,0.0416027,-0.0185108,0.0385863,0.06664
 39\Polar=45.224528,-1.3289025,43.354842,-0.3071594,0.2754019,42.640779
 1\Quadrupole=3.2244885,-0.5104308,-2.7140577,-2.3475302,-0.0060576,1.8
 538224\PG=C01 [X(C2H6O2S1)]\NImag=0\\0.53865672,0.07927079,0.46167481,
 0.04035503,-0.07792118,0.55699962,-0.09407579,0.02522508,0.01216212,0.
 51747715,0.02719726,-0.11866216,-0.02650021,0.10603097,0.72068716,0.01
 351482,-0.02694012,-0.08654647,-0.04296295,-0.19349774,0.89584261,0.01
 252138,0.00657709,-0.00042604,-0.15583322,-0.14729825,0.07792113,0.129
 49490,-0.01688517,-0.01788471,0.01460260,-0.14590034,-0.41227413,0.170
 26807,0.17063240,0.42471989,-0.00140013,-0.00893194,0.00835777,0.07254
 213,0.15999454,-0.17176082,-0.08208448,-0.18259629,0.15058096,-0.00496
 618,-0.00131892,-0.00388104,-0.14519927,-0.00157043,-0.01752329,-0.001
 87846,-0.00203813,-0.00467248,0.38277651,0.02165238,0.00805964,0.00455
 031,0.00040637,-0.07658078,-0.00365403,-0.02989820,-0.00262088,-0.0012
 1959,-0.00239704,0.59007379,0.01183830,-0.00055297,0.01069097,-0.01617
 725,-0.00409143,-0.07750484,0.01124547,0.00749814,0.00748153,-0.050199
 79,-0.00827555,0.58447965,0.01204014,-0.00100409,0.01099296,-0.0907708
 6,0.00551062,-0.03176807,0.01857663,-0.00549648,0.01424570,0.00630978,
 0.00000556,-0.02940831,0.05572134,-0.00245221,0.00775657,-0.02182509,0
 .00411001,-0.09704505,0.05979786,-0.00037136,0.01039323,0.03230487,-0.
 00294077,0.00905391,-0.00018891,-0.00103710,0.06731901,-0.00508058,0.0
 0724442,-0.01681228,-0.02638440,0.07007115,-0.55202580,-0.00544078,-0.
 00528964,-0.00007607,0.00355200,0.00299524,-0.01236589,0.03617476,-0.0
 6899372,0.58172252,-0.05133945,0.00090151,-0.03201378,0.00144853,-0.00
 250750,0.01440410,-0.00058564,-0.00061044,-0.00123388,-0.00004753,-0.0
 0043777,-0.00115715,-0.00053985,0.00325015,0.00317805,0.05053317,0.000
 88310,-0.05013668,0.02412617,-0.00598917,0.00362589,-0.02463841,0.0003
 9305,0.00024973,0.00272879,-0.00021941,0.00034975,0.00177279,0.0034670
 1,-0.00390252,-0.00524529,-0.00330630,0.04919842,-0.03325814,0.0238661
 7,-0.32368219,-0.00265411,0.00405848,-0.01355853,-0.00007876,-0.000017
 93,0.00276618,-0.00002475,0.00015718,0.00071510,0.00164453,-0.00274448
 ,-0.00044475,0.03525226,-0.02522284,0.34492725,-0.09567947,-0.09838822
 ,0.04033255,0.00626810,0.01194320,-0.00576159,-0.00013836,0.00480928,0
 .00127382,-0.00027988,-0.00127221,-0.00000314,-0.00074269,-0.00091224,
 -0.00047157,0.00129716,0.00462566,-0.00156993,0.09925029,-0.09944001,-
 0.24438633,0.08402791,-0.01295730,-0.01901937,0.01134756,0.00276417,-0
 .00510061,-0.00234470,0.00029207,0.00156323,-0.00019405,0.00125334,0.0
 0345218,-0.00096426,0.00050164,0.00115851,-0.00048293,0.10592524,0.260
 07589,0.04084547,0.08452668,-0.08506536,-0.00812567,-0.01104303,0.0042
 6350,0.00155617,-0.00443656,0.00034960,0.00008415,0.00102499,-0.000263
 44,0.00054195,0.00107844,-0.00028045,0.01332413,0.02681483,-0.00693069
 ,-0.04546591,-0.09046617,0.08531731,-0.31331902,-0.01049307,-0.0662561
 5,-0.01558142,-0.00111293,-0.00424140,0.00229112,0.00013652,-0.0001081
 9,-0.00006133,0.00253499,0.00175218,0.00223442,-0.00065744,0.00102605,
 -0.00008986,-0.00038255,0.00034817,-0.00933782,0.00080404,-0.00288906,
 0.33390092,-0.00924257,-0.04603954,-0.00093021,0.02906814,0.00079842,0
 .00695861,-0.00346999,0.00076386,0.00008631,0.00096513,-0.00513286,-0.
 00320251,-0.00291027,0.00059910,0.00025816,0.00184639,-0.00041136,0.00
 059059,-0.02703915,0.00191193,-0.00742370,0.00943268,0.04693165,-0.065
 40421,-0.00120886,-0.06306196,0.01641380,0.00025086,0.00389093,-0.0010
 8412,0.00086288,-0.00049703,0.00067814,-0.00285463,-0.00194304,-0.0020
 0702,0.00078265,-0.00027188,-0.03166799,-0.00051189,-0.00442649,0.0115
 9997,-0.00062645,0.00249130,0.07069170,0.00338534,0.06308888,0.0010057
 5,-0.00005133,0.00206271,0.00110665,0.00132615,-0.03169881,0.00082093,
 0.00042836,0.00344160,-0.04771769,0.00030888,-0.02167781,-0.00764071,0
 .00029105,-0.00456801,-0.00090041,0.00097371,0.00046874,-0.00006503,-0
 .00005979,0.00003899,0.00027560,-0.00044520,0.00002728,0.04892436,-0.0
 0004868,-0.00022978,-0.00001161,0.00055335,-0.00171844,-0.00136143,-0.
 00009601,-0.00042435,0.00024661,0.00051866,-0.05063270,0.01844764,-0.0
 0027673,0.00155555,-0.00016939,0.00035642,0.00000185,-0.00012834,0.000
 04911,-0.00005458,0.00011328,-0.00006524,-0.00003296,-0.00010745,-0.00
 125048,0.04748966,0.00007764,-0.00002330,0.00024387,0.00176006,0.00124
 631,-0.00787479,0.00044016,-0.00053124,0.00203264,-0.02117007,0.017300
 15,-0.32677782,-0.00168540,-0.00009097,0.00119652,-0.00002021,0.000043
 59,0.00053051,0.00001932,-0.00005901,-0.00009092,-0.00003567,-0.000004
 96,0.00016132,0.02317914,-0.01900072,0.34822488,-0.00633979,-0.0023253
 3,-0.00296800,-0.01652415,0.02857683,0.01586324,0.00294436,-0.00306165
 ,-0.00096098,-0.10318782,0.10085799,0.05665886,0.00291919,-0.00261634,
 -0.00135437,0.00027559,-0.00042245,-0.00005664,0.00029048,-0.00017951,
 -0.00027652,-0.00066564,0.00191865,0.00107675,0.00248100,-0.00421493,-
 0.00167925,0.10998651,-0.00075601,0.00003443,-0.00004836,-0.00160819,0
 .00157655,0.00067329,0.00038386,0.00024420,-0.00003836,0.09960996,-0.2
 1908442,-0.09510437,-0.00020304,0.00001967,0.00108557,-0.00003915,-0.0
 0005818,-0.00004910,-0.00014922,0.00021602,-0.00002972,-0.00010644,0.0
 0047256,0.00002673,-0.00260972,0.00322136,0.00207262,-0.10789338,0.231
 32070,-0.00189329,-0.00039672,-0.00083187,-0.00478725,0.00737785,0.004
 05548,0.00062769,0.00035615,-0.00062693,0.05580371,-0.09482428,-0.1001
 4816,0.00106671,-0.00061028,-0.00038097,-0.00013468,0.00002609,0.00018
 637,0.00008410,-0.00019670,-0.00010250,-0.00030931,0.00047610,0.000656
 40,0.01561149,-0.02494239,-0.01063722,-0.05937337,0.10344019,0.1026142
 6,0.00149573,0.00160650,-0.00036037,-0.00831571,-0.02809592,0.01225282
 ,-0.00821365,-0.00201436,-0.00104311,-0.08574812,-0.09176096,0.0371286
 6,0.00189260,0.00333624,-0.00063115,-0.00005170,-0.00002265,-0.0000713
 6,-0.00086278,0.00109610,0.00036632,0.00035303,-0.00012380,-0.00032430
 ,0.00170953,0.00447451,-0.00088571,0.00782027,0.01337134,-0.00669580,0
 .08992079,-0.00017888,-0.00018624,-0.00007032,0.00106108,-0.00138810,0
 .00104634,0.00038323,0.00193377,-0.00023024,-0.09090113,-0.25504869,0.
 08389122,0.00069118,0.00079836,-0.00099224,0.00004504,-0.00007543,-0.0
 0002681,0.00040855,0.00018313,-0.00015904,-0.00009055,0.00013921,0.000
 00082,0.00108837,0.00082438,-0.00095249,-0.01063989,-0.01796290,0.0092
 9399,0.09813300,0.27078250,0.00040510,0.00033782,-0.00029210,-0.001786
 49,-0.00786679,0.00121872,-0.00267644,-0.00071619,0.00139217,0.0373534
 2,0.08480021,-0.08436407,0.00020220,0.00048961,-0.00026095,0.00006915,
 0.00010618,-0.00008276,-0.00003761,-0.00004120,0.00031165,0.00002169,-
 0.00019374,-0.00008842,0.01311468,0.02691381,-0.00700899,-0.00692971,-
 0.01202848,0.00521513,-0.03973599,-0.09180124,0.08395963\\0.00000860,-
 0.00001035,0.00001740,-0.00000553,-0.00001149,-0.00000965,0.00001109,0
 .00001631,-0.00000473,-0.00000449,0.00001627,-0.00000420,-0.00000319,0
 .00000065,0.00000767,-0.00000062,0.00000069,-0.00000303,-0.00000392,-0
 .00000065,-0.00000609,-0.00000094,0.00000565,-0.00000651,0.00000266,-0
 .00000735,0.00000151,0.00000052,-0.00000608,0.00000647,-0.00000419,-0.
 00000365,0.00000116\\\@


 YOU KNOW YOU'RE A TEACHER WHEN YOU SAY 2, WRITE 3, AND MEAN 4.
 -- RONALD ANSTROM, HIGH SCHOOL TEACHER, UNDERWOOD, N.D. 1974
 Job cpu time:       0 days  0 hours  2 minutes 43.4 seconds.
 Elapsed time:       0 days  0 hours  0 minutes  7.3 seconds.
 File lengths (MBytes):  RWF=     16 Int=      0 D2E=      0 Chk=      2 Scr=      1
 Normal termination of Gaussian 16 at Mon Oct 14 01:30:27 2019.
real 23.34
user 447.82
sys 9.35
Machine:
brown-a226
brown-a226
brown-a226
brown-a226
brown-a226
brown-a226
brown-a226
brown-a226
brown-a226
brown-a226
brown-a226
brown-a226
brown-a226
brown-a226
brown-a226
brown-a226
brown-a226
brown-a226
brown-a226
brown-a226
brown-a226
brown-a226
brown-a226
brown-a226
