 Entering Gaussian System, Link 0=/apps/cent7/gaussian/g16-A.03/g16-haswell/g16/g16
 Initial command:
 /apps/cent7/gaussian/g16-A.03/g16-haswell/g16/l1.exe "/scratch/brown/finej/gaussian/Gau-411652.inp" -scrdir="/scratch/brown/finej/gaussian/"
 Entering Link 1 = /apps/cent7/gaussian/g16-A.03/g16-haswell/g16/l1.exe PID=    411653.
  
 Copyright (c) 1988,1990,1992,1993,1995,1998,2003,2009,2016,
            Gaussian, Inc.  All Rights Reserved.
  
 This is part of the Gaussian(R) 16 program.  It is based on
 the Gaussian(R) 09 system (copyright 2009, Gaussian, Inc.),
 the Gaussian(R) 03 system (copyright 2003, Gaussian, Inc.),
 the Gaussian(R) 98 system (copyright 1998, Gaussian, Inc.),
 the Gaussian(R) 94 system (copyright 1995, Gaussian, Inc.),
 the Gaussian 92(TM) system (copyright 1992, Gaussian, Inc.),
 the Gaussian 90(TM) system (copyright 1990, Gaussian, Inc.),
 the Gaussian 88(TM) system (copyright 1988, Gaussian, Inc.),
 the Gaussian 86(TM) system (copyright 1986, Carnegie Mellon
 University), and the Gaussian 82(TM) system (copyright 1983,
 Carnegie Mellon University). Gaussian is a federally registered
 trademark of Gaussian, Inc.
  
 This software contains proprietary and confidential information,
 including trade secrets, belonging to Gaussian, Inc.
  
 This software is provided under written license and may be
 used, copied, transmitted, or stored only in accord with that
 written license.
  
 The following legend is applicable only to US Government
 contracts under FAR:
  
                    RESTRICTED RIGHTS LEGEND
  
 Use, reproduction and disclosure by the US Government is
 subject to restrictions as set forth in subparagraphs (a)
 and (c) of the Commercial Computer Software - Restricted
 Rights clause in FAR 52.227-19.
  
 Gaussian, Inc.
 340 Quinnipiac St., Bldg. 40, Wallingford CT 06492
  
  
 ---------------------------------------------------------------
 Warning -- This program may not be used in any manner that
 competes with the business of Gaussian, Inc. or will provide
 assistance to any competitor of Gaussian, Inc.  The licensee
 of this program is prohibited from giving any competitor of
 Gaussian, Inc. access to this program.  By using this program,
 the user acknowledges that Gaussian, Inc. is engaged in the
 business of creating and licensing software in the field of
 computational chemistry and represents and warrants to the
 licensee that it is not a competitor of Gaussian, Inc. and that
 it will not use this program in any manner prohibited above.
 ---------------------------------------------------------------
  

 Cite this work as:
 Gaussian 16, Revision A.03,
 M. J. Frisch, G. W. Trucks, H. B. Schlegel, G. E. Scuseria, 
 M. A. Robb, J. R. Cheeseman, G. Scalmani, V. Barone, 
 G. A. Petersson, H. Nakatsuji, X. Li, M. Caricato, A. V. Marenich, 
 J. Bloino, B. G. Janesko, R. Gomperts, B. Mennucci, H. P. Hratchian, 
 J. V. Ortiz, A. F. Izmaylov, J. L. Sonnenberg, D. Williams-Young, 
 F. Ding, F. Lipparini, F. Egidi, J. Goings, B. Peng, A. Petrone, 
 T. Henderson, D. Ranasinghe, V. G. Zakrzewski, J. Gao, N. Rega, 
 G. Zheng, W. Liang, M. Hada, M. Ehara, K. Toyota, R. Fukuda, 
 J. Hasegawa, M. Ishida, T. Nakajima, Y. Honda, O. Kitao, H. Nakai, 
 T. Vreven, K. Throssell, J. A. Montgomery, Jr., J. E. Peralta, 
 F. Ogliaro, M. J. Bearpark, J. J. Heyd, E. N. Brothers, K. N. Kudin, 
 V. N. Staroverov, T. A. Keith, R. Kobayashi, J. Normand, 
 K. Raghavachari, A. P. Rendell, J. C. Burant, S. S. Iyengar, 
 J. Tomasi, M. Cossi, J. M. Millam, M. Klene, C. Adamo, R. Cammi, 
 J. W. Ochterski, R. L. Martin, K. Morokuma, O. Farkas, 
 J. B. Foresman, and D. J. Fox, Gaussian, Inc., Wallingford CT, 2016.
 
 ******************************************
 Gaussian 16:  ES64L-G16RevA.03 25-Dec-2016
                14-Oct-2019 
 ******************************************
 %chk=25_p.chk
 %nprocshared=24
 Will use up to   24 processors via shared memory.
 %mem=80GB
 --------------------------------------------------------------
 #P opt freq b3lyp/6-31g(d) geom=connectivity temperature=0.001
 --------------------------------------------------------------
 1/18=20,19=15,26=3,38=1,57=2,112=-1000/1,3;
 2/9=110,12=2,17=6,18=5,40=1/2;
 3/5=1,6=6,7=1,11=2,25=1,30=1,71=1,74=-5/1,2,3;
 4//1;
 5/5=2,38=5/2;
 6/7=2,8=2,9=2,10=2,28=1/1;
 7//1,2,3,16;
 1/18=20,19=15,26=3/3(2);
 2/9=110/2;
 99//99;
 2/9=110/2;
 3/5=1,6=6,7=1,11=2,25=1,30=1,71=1,74=-5/1,2,3;
 4/5=5,16=3,69=1/1;
 5/5=2,38=5/2;
 7//1,2,3,16;
 1/18=20,19=15,26=3/3(-5);
 2/9=110/2;
 6/7=2,8=2,9=2,10=2,19=2,28=1/1;
 99/9=1/99;
 Leave Link    1 at Mon Oct 14 01:31:23 2019, MaxMem= 10737418240 cpu:               1.2 elap:               0.1
 (Enter /apps/cent7/gaussian/g16-A.03/g16-haswell/g16/l101.exe)
 -------------------
 Title Card Required
 -------------------
 Symbolic Z-matrix:
 Charge =  1 Multiplicity = 1
 C                    -0.7976    1.3965    0.4798 
 S                     0.0515   -0.0164   -0.3119 
 O                    -0.5829   -1.3904    0.2187 
 C                     1.8321    0.0362    0.101 
 O                    -0.1341    0.0679   -1.9025 
 H                    -0.7371    1.2958    1.5635 
 H                    -0.3181    2.3263    0.174 
 H                    -1.8437    1.4094    0.174 
 H                     1.9539    0.0398    1.1842 
 H                     2.3281   -0.8395   -0.3175 
 H                     2.2756    0.9397   -0.3175 
 H                    -0.00921  -2.10845   0.49599 
 
 ITRead=  0  0  0  0  0  0  0  0  0  0  0  0
 MicOpt= -1 -1 -1 -1 -1 -1 -1 -1 -1 -1 -1 -1
 NAtoms=     12 NQM=       12 NQMF=       0 NMMI=      0 NMMIF=      0
                NMic=       0 NMicF=      0.
                    Isotopes and Nuclear Properties:
 (Nuclear quadrupole moments (NQMom) in fm**2, nuclear magnetic moments (NMagM)
  in nuclear magnetons)

  Atom         1           2           3           4           5           6           7           8           9          10
 IAtWgt=          12          32          16          12          16           1           1           1           1           1
 AtmWgt=  12.0000000  31.9720718  15.9949146  12.0000000  15.9949146   1.0078250   1.0078250   1.0078250   1.0078250   1.0078250
 NucSpn=           0           0           0           0           0           1           1           1           1           1
 AtZEff=  -0.0000000  -0.0000000  -0.0000000  -0.0000000  -0.0000000  -0.0000000  -0.0000000  -0.0000000  -0.0000000  -0.0000000
 NQMom=    0.0000000   0.0000000   0.0000000   0.0000000   0.0000000   0.0000000   0.0000000   0.0000000   0.0000000   0.0000000
 NMagM=    0.0000000   0.0000000   0.0000000   0.0000000   0.0000000   2.7928460   2.7928460   2.7928460   2.7928460   2.7928460
 AtZNuc=   6.0000000  16.0000000   8.0000000   6.0000000   8.0000000   1.0000000   1.0000000   1.0000000   1.0000000   1.0000000

  Atom        11          12
 IAtWgt=           1           1
 AtmWgt=   1.0078250   1.0078250
 NucSpn=           1           1
 AtZEff=  -0.0000000  -0.0000000
 NQMom=    0.0000000   0.0000000
 NMagM=    2.7928460   2.7928460
 AtZNuc=   1.0000000   1.0000000
 Leave Link  101 at Mon Oct 14 01:31:23 2019, MaxMem= 10737418240 cpu:               8.3 elap:               0.4
 (Enter /apps/cent7/gaussian/g16-A.03/g16-haswell/g16/l103.exe)

 GradGradGradGradGradGradGradGradGradGradGradGradGradGradGradGradGradGrad
 Berny optimization.
 Initialization pass.
                           ----------------------------
                           !    Initial Parameters    !
                           ! (Angstroms and Degrees)  !
 --------------------------                            --------------------------
 ! Name  Definition              Value          Derivative Info.                !
 --------------------------------------------------------------------------------
 ! R1    R(1,2)                  1.8287         estimate D2E/DX2                !
 ! R2    R(1,6)                  1.09           estimate D2E/DX2                !
 ! R3    R(1,7)                  1.0899         estimate D2E/DX2                !
 ! R4    R(1,8)                  1.09           estimate D2E/DX2                !
 ! R5    R(2,3)                  1.6037         estimate D2E/DX2                !
 ! R6    R(2,4)                  1.8286         estimate D2E/DX2                !
 ! R7    R(2,5)                  1.6036         estimate D2E/DX2                !
 ! R8    R(3,12)                 0.96           estimate D2E/DX2                !
 ! R9    R(4,9)                  1.09           estimate D2E/DX2                !
 ! R10   R(4,10)                 1.09           estimate D2E/DX2                !
 ! R11   R(4,11)                 1.09           estimate D2E/DX2                !
 ! A1    A(2,1,6)              109.4672         estimate D2E/DX2                !
 ! A2    A(2,1,7)              109.474          estimate D2E/DX2                !
 ! A3    A(2,1,8)              109.4705         estimate D2E/DX2                !
 ! A4    A(6,1,7)              109.4706         estimate D2E/DX2                !
 ! A5    A(6,1,8)              109.4686         estimate D2E/DX2                !
 ! A6    A(7,1,8)              109.4765         estimate D2E/DX2                !
 ! A7    A(1,2,3)              109.5754         estimate D2E/DX2                !
 ! A8    A(1,2,4)              109.3996         estimate D2E/DX2                !
 ! A9    A(1,2,5)              109.5766         estimate D2E/DX2                !
 ! A10   A(3,2,4)              109.5808         estimate D2E/DX2                !
 ! A11   A(3,2,5)              109.1128         estimate D2E/DX2                !
 ! A12   A(4,2,5)              109.5821         estimate D2E/DX2                !
 ! A13   A(2,3,12)             120.0            estimate D2E/DX2                !
 ! A14   A(2,4,9)              109.4684         estimate D2E/DX2                !
 ! A15   A(2,4,10)             109.4697         estimate D2E/DX2                !
 ! A16   A(2,4,11)             109.4717         estimate D2E/DX2                !
 ! A17   A(9,4,10)             109.4727         estimate D2E/DX2                !
 ! A18   A(9,4,11)             109.471          estimate D2E/DX2                !
 ! A19   A(10,4,11)            109.4738         estimate D2E/DX2                !
 ! D1    D(6,1,2,3)             55.9196         estimate D2E/DX2                !
 ! D2    D(6,1,2,4)            -64.2346         estimate D2E/DX2                !
 ! D3    D(6,1,2,5)            175.6089         estimate D2E/DX2                !
 ! D4    D(7,1,2,3)            175.9181         estimate D2E/DX2                !
 ! D5    D(7,1,2,4)             55.7639         estimate D2E/DX2                !
 ! D6    D(7,1,2,5)            -64.3926         estimate D2E/DX2                !
 ! D7    D(8,1,2,3)            -64.0742         estimate D2E/DX2                !
 ! D8    D(8,1,2,4)            175.7716         estimate D2E/DX2                !
 ! D9    D(8,1,2,5)             55.6151         estimate D2E/DX2                !
 ! D10   D(1,2,3,12)          -133.6097         estimate D2E/DX2                !
 ! D11   D(4,2,3,12)           -13.5661         estimate D2E/DX2                !
 ! D12   D(5,2,3,12)           106.4171         estimate D2E/DX2                !
 ! D13   D(1,2,4,9)             56.4414         estimate D2E/DX2                !
 ! D14   D(1,2,4,10)           176.4406         estimate D2E/DX2                !
 ! D15   D(1,2,4,11)           -63.5569         estimate D2E/DX2                !
 ! D16   D(3,2,4,9)            -63.7095         estimate D2E/DX2                !
 ! D17   D(3,2,4,10)            56.2897         estimate D2E/DX2                !
 ! D18   D(3,2,4,11)           176.2922         estimate D2E/DX2                !
 ! D19   D(5,2,4,9)            176.5946         estimate D2E/DX2                !
 ! D20   D(5,2,4,10)           -63.4063         estimate D2E/DX2                !
 ! D21   D(5,2,4,11)            56.5963         estimate D2E/DX2                !
 --------------------------------------------------------------------------------
 Trust Radius=3.00D-01 FncErr=1.00D-07 GrdErr=1.00D-06 EigMax=2.50D+02 EigMin=1.00D-04
 Number of steps in this run=     61 maximum allowed number of steps=    100.
 GradGradGradGradGradGradGradGradGradGradGradGradGradGradGradGradGradGrad

 Leave Link  103 at Mon Oct 14 01:31:23 2019, MaxMem= 10737418240 cpu:               0.4 elap:               0.0
 (Enter /apps/cent7/gaussian/g16-A.03/g16-haswell/g16/l202.exe)
                          Input orientation:                          
 ---------------------------------------------------------------------
 Center     Atomic      Atomic             Coordinates (Angstroms)
 Number     Number       Type             X           Y           Z
 ---------------------------------------------------------------------
      1          6           0       -0.797600    1.396500    0.479800
      2         16           0        0.051500   -0.016400   -0.311900
      3          8           0       -0.582900   -1.390400    0.218700
      4          6           0        1.832100    0.036200    0.101000
      5          8           0       -0.134100    0.067900   -1.902500
      6          1           0       -0.737100    1.295800    1.563500
      7          1           0       -0.318100    2.326300    0.174000
      8          1           0       -1.843700    1.409400    0.174000
      9          1           0        1.953900    0.039800    1.184200
     10          1           0        2.328100   -0.839500   -0.317500
     11          1           0        2.275600    0.939700   -0.317500
     12          1           0       -0.009212   -2.108447    0.495990
 ---------------------------------------------------------------------
                    Distance matrix (angstroms):
                    1          2          3          4          5
     1  C    0.000000
     2  S    1.828673   0.000000
     3  O    2.807326   1.603707   0.000000
     4  C    2.984833   1.828603   2.807359   0.000000
     5  O    2.807270   1.603609   2.612958   2.807305   0.000000
     6  H    1.090049   2.420926   3.007979   3.213454   3.726192
     7  H    1.089937   2.420939   3.726389   3.142172   3.073447
     8  H    1.089957   2.420906   3.070911   3.924604   3.005696
     9  H    3.147629   2.420867   3.068064   1.090032   3.726694
    10  H    3.924969   2.420833   3.010801   1.089958   3.065620
    11  H    3.207633   2.420905   3.726647   1.090021   3.013124
    12  H    3.592558   2.243443   0.960000   2.854113   3.241117
                    6          7          8          9         10
     6  H    0.000000
     7  H    1.779944   0.000000
     8  H    1.779938   1.779933   0.000000
     9  H    2.993808   3.377954   4.161499   0.000000
    10  H    4.182478   4.155266   4.764771   1.779971   0.000000
    11  H    3.569500   2.981864   4.175024   1.780004   1.779974
    12  H    3.641195   4.457137   3.980487   2.990386   2.781190
                   11         12
    11  H    0.000000
    12  H    3.895296   0.000000
 Stoichiometry    C2H7O2S(1+)
 Framework group  C1[X(C2H7O2S)]
 Deg. of freedom    30
 Full point group                 C1      NOp   1
 Largest Abelian subgroup         C1      NOp   1
 Largest concise Abelian subgroup C1      NOp   1
                         Standard orientation:                         
 ---------------------------------------------------------------------
 Center     Atomic      Atomic             Coordinates (Angstroms)
 Number     Number       Type             X           Y           Z
 ---------------------------------------------------------------------
      1          6           0        1.617735    0.687817   -0.357349
      2         16           0        0.008136   -0.074455    0.057597
      3          8           0       -0.271504   -1.308998   -0.927076
      4          6           0       -1.318933    1.169892   -0.127538
      5          8           0        0.039340   -0.605938    1.570249
      6          1           0        1.622129    0.978091   -1.408029
      7          1           0        1.773007    1.569814    0.263887
      8          1           0        2.417390   -0.030152   -0.175477
      9          1           0       -1.299506    1.573882   -1.139756
     10          1           0       -2.285173    0.700893    0.058012
     11          1           0       -1.163061    1.976642    0.588706
     12          1           0       -1.130471   -1.404663   -1.344956
 ---------------------------------------------------------------------
 Rotational constants (GHZ):           3.9443595           3.7350169           3.5479464
 Leave Link  202 at Mon Oct 14 01:31:23 2019, MaxMem= 10737418240 cpu:               0.5 elap:               0.0
 (Enter /apps/cent7/gaussian/g16-A.03/g16-haswell/g16/l301.exe)
 Standard basis: 6-31G(d) (6D, 7F)
 Ernie: Thresh=  0.10000D-02 Tol=  0.10000D-05 Strict=F.
 There are    93 symmetry adapted cartesian basis functions of A   symmetry.
 There are    93 symmetry adapted basis functions of A   symmetry.
    93 basis functions,   192 primitive gaussians,    93 cartesian basis functions
    25 alpha electrons       25 beta electrons
       nuclear repulsion energy       270.7852350888 Hartrees.
 IExCor=  402 DFT=T Ex+Corr=B3LYP ExCW=0 ScaHFX=  0.200000
 ScaDFX=  0.800000  0.720000  1.000000  0.810000 ScalE2=  1.000000  1.000000
 IRadAn=      5 IRanWt=     -1 IRanGd=            0 ICorTp=0 IEmpDi=  4
 NAtoms=   12 NActive=   12 NUniq=   12 SFac= 1.00D+00 NAtFMM=   60 NAOKFM=F Big=F
 Integral buffers will be    131072 words long.
 Raffenetti 2 integral format.
 Two-electron integral symmetry is turned on.
 Leave Link  301 at Mon Oct 14 01:31:23 2019, MaxMem= 10737418240 cpu:               1.7 elap:               0.1
 (Enter /apps/cent7/gaussian/g16-A.03/g16-haswell/g16/l302.exe)
 NPDir=0 NMtPBC=     1 NCelOv=     1 NCel=       1 NClECP=     1 NCelD=      1
         NCelK=      1 NCelE2=     1 NClLst=     1 CellRange=     0.0.
 One-electron integrals computed using PRISM.
 One-electron integral symmetry used in STVInt
 NBasis=    93 RedAO= T EigKep=  4.93D-03  NBF=    93
 NBsUse=    93 1.00D-06 EigRej= -1.00D+00 NBFU=    93
 Precomputing XC quadrature grid using
 IXCGrd= 4 IRadAn=           5 IRanWt=          -1 IRanGd=           0 AccXCQ= 0.00D+00.
 Generated NRdTot=       0 NPtTot=           0 NUsed=           0 NTot=          32
 NSgBfM=    93    93    93    93    93 MxSgAt=    12 MxSgA2=    12.
 Leave Link  302 at Mon Oct 14 01:31:23 2019, MaxMem= 10737418240 cpu:               2.9 elap:               0.1
 (Enter /apps/cent7/gaussian/g16-A.03/g16-haswell/g16/l303.exe)
 DipDrv:  MaxL=1.
 Leave Link  303 at Mon Oct 14 01:31:24 2019, MaxMem= 10737418240 cpu:               0.6 elap:               0.1
 (Enter /apps/cent7/gaussian/g16-A.03/g16-haswell/g16/l401.exe)
 ExpMin= 1.17D-01 ExpMax= 2.19D+04 ExpMxC= 3.30D+03 IAcc=3 IRadAn=         5 AccDes= 0.00D+00
 Harris functional with IExCor=  402 and IRadAn=       5 diagonalized for initial guess.
 HarFok:  IExCor=  402 AccDes= 0.00D+00 IRadAn=         5 IDoV= 1 UseB2=F ITyADJ=14
 ICtDFT=  3500011 ScaDFX=  1.000000  1.000000  1.000000  1.000000
 FoFCou: FMM=F IPFlag=           0 FMFlag=      100000 FMFlg1=           0
         NFxFlg=           0 DoJE=T BraDBF=F KetDBF=T FulRan=T
         wScrn=  0.000000 ICntrl=       500 IOpCl=  0 I1Cent=   200000004 NGrid=           0
         NMat0=    1 NMatS0=      1 NMatT0=    0 NMatD0=    1 NMtDS0=    0 NMtDT0=    0
 Petite list used in FoFCou.
 Harris En= -628.841464697397    
 JPrj=0 DoOrth=F DoCkMO=F.
 Leave Link  401 at Mon Oct 14 01:31:24 2019, MaxMem= 10737418240 cpu:               5.6 elap:               0.3
 (Enter /apps/cent7/gaussian/g16-A.03/g16-haswell/g16/l502.exe)
 Keep R1 ints in memory in canonical form, NReq=31564606.
 FoFCou: FMM=F IPFlag=           0 FMFlag=           0 FMFlg1=           0
         NFxFlg=           0 DoJE=F BraDBF=F KetDBF=F FulRan=T
         wScrn=  0.000000 ICntrl=       600 IOpCl=  0 I1Cent=           0 NGrid=           0
         NMat0=    1 NMatS0=   4371 NMatT0=    0 NMatD0=    1 NMtDS0=    0 NMtDT0=    0
 Symmetry not used in FoFCou.
 Two-electron integral symmetry not used.
 Closed shell SCF:
 Using DIIS extrapolation, IDIIS=  1040.
 NGot= 10737418240 LenX= 10727842474 LenY= 10727833384
 Requested convergence on RMS density matrix=1.00D-08 within 128 cycles.
 Requested convergence on MAX density matrix=1.00D-06.
 Requested convergence on             energy=1.00D-06.
 No special actions if energy rises.
 Integral accuracy reduced to 1.0D-05 until final iterations.

 Cycle   1  Pass 0  IDiag  1:
 E= -628.315831134324    
 DIIS: error= 5.36D-02 at cycle   1 NSaved=   1.
 NSaved= 1 IEnMin= 1 EnMin= -628.315831134324     IErMin= 1 ErrMin= 5.36D-02
 ErrMax= 5.36D-02  0.00D+00 EMaxC= 1.00D-01 BMatC= 4.13D-01 BMatP= 4.13D-01
 IDIUse=3 WtCom= 4.64D-01 WtEn= 5.36D-01
 Coeff-Com:  0.100D+01
 Coeff-En:   0.100D+01
 Coeff:      0.100D+01
 Gap=     0.067 Goal=   None    Shift=    0.000
 GapD=    0.067 DampG=0.500 DampE=0.500 DampFc=0.2500 IDamp=-1.
 Damping current iteration by 2.50D-01
 RMSDP=2.52D-02 MaxDP=7.14D-01              OVMax= 6.06D-01

 Cycle   2  Pass 0  IDiag  1:
 E= -628.400733240043     Delta-E=       -0.084902105719 Rises=F Damp=T
 DIIS: error= 1.74D-02 at cycle   2 NSaved=   2.
 NSaved= 2 IEnMin= 2 EnMin= -628.400733240043     IErMin= 2 ErrMin= 1.74D-02
 ErrMax= 1.74D-02  0.00D+00 EMaxC= 1.00D-01 BMatC= 5.76D-02 BMatP= 4.13D-01
 IDIUse=3 WtCom= 8.26D-01 WtEn= 1.74D-01
 Coeff-Com: -0.158D+00 0.116D+01
 Coeff-En:   0.279D+00 0.721D+00
 Coeff:     -0.824D-01 0.108D+01
 Gap=     0.248 Goal=   None    Shift=    0.000
 RMSDP=6.62D-03 MaxDP=9.74D-02 DE=-8.49D-02 OVMax= 4.27D-01

 Cycle   3  Pass 0  IDiag  1:
 E= -628.508492435123     Delta-E=       -0.107759195079 Rises=F Damp=F
 DIIS: error= 3.62D-02 at cycle   3 NSaved=   3.
 NSaved= 3 IEnMin= 3 EnMin= -628.508492435123     IErMin= 2 ErrMin= 1.74D-02
 ErrMax= 3.62D-02  0.00D+00 EMaxC= 1.00D-01 BMatC= 1.99D-01 BMatP= 5.76D-02
 IDIUse=2 WtCom= 0.00D+00 WtEn= 1.00D+00
 EnCoef did     5 forward-backward iterations
 Coeff-En:   0.363D-01 0.262D+00 0.702D+00
 Coeff:      0.363D-01 0.262D+00 0.702D+00
 Gap=     0.423 Goal=   None    Shift=    0.000
 RMSDP=1.47D-02 MaxDP=2.26D-01 DE=-1.08D-01 OVMax= 4.39D-01

 Cycle   4  Pass 0  IDiag  1:
 E= -628.001431004561     Delta-E=        0.507061430562 Rises=F Damp=F
 DIIS: error= 1.12D-01 at cycle   4 NSaved=   4.
 NSaved= 4 IEnMin= 3 EnMin= -628.508492435123     IErMin= 2 ErrMin= 1.74D-02
 ErrMax= 1.12D-01  0.00D+00 EMaxC= 1.00D-01 BMatC= 8.04D-01 BMatP= 5.76D-02
 IDIUse=2 WtCom= 0.00D+00 WtEn= 1.00D+00
 EnCoef did     2 forward-backward iterations
 Coeff-En:   0.616D-01 0.000D+00 0.679D+00 0.260D+00
 Coeff:      0.616D-01 0.000D+00 0.679D+00 0.260D+00
 Gap=     0.209 Goal=   None    Shift=    0.000
 RMSDP=9.94D-03 MaxDP=1.45D-01 DE= 5.07D-01 OVMax= 3.04D-01

 Cycle   5  Pass 0  IDiag  1:
 E= -628.657413906451     Delta-E=       -0.655982901890 Rises=F Damp=F
 DIIS: error= 1.33D-02 at cycle   5 NSaved=   5.
 NSaved= 5 IEnMin= 5 EnMin= -628.657413906451     IErMin= 5 ErrMin= 1.33D-02
 ErrMax= 1.33D-02  0.00D+00 EMaxC= 1.00D-01 BMatC= 3.39D-02 BMatP= 5.76D-02
 IDIUse=3 WtCom= 8.67D-01 WtEn= 1.33D-01
 Coeff-Com: -0.163D+00 0.248D+00 0.261D+00-0.622D-01 0.716D+00
 Coeff-En:   0.000D+00 0.000D+00 0.167D+00 0.000D+00 0.833D+00
 Coeff:     -0.141D+00 0.215D+00 0.249D+00-0.540D-01 0.731D+00
 Gap=     0.262 Goal=   None    Shift=    0.000
 RMSDP=2.04D-03 MaxDP=4.09D-02 DE=-6.56D-01 OVMax= 4.79D-02

 Cycle   6  Pass 0  IDiag  1:
 E= -628.685398038319     Delta-E=       -0.027984131869 Rises=F Damp=F
 DIIS: error= 2.94D-03 at cycle   6 NSaved=   6.
 NSaved= 6 IEnMin= 6 EnMin= -628.685398038319     IErMin= 6 ErrMin= 2.94D-03
 ErrMax= 2.94D-03  0.00D+00 EMaxC= 1.00D-01 BMatC= 8.74D-04 BMatP= 3.39D-02
 IDIUse=3 WtCom= 9.71D-01 WtEn= 2.94D-02
 Coeff-Com: -0.137D-01 0.623D-02-0.280D-01 0.493D-02 0.617D-01 0.969D+00
 Coeff-En:   0.000D+00 0.000D+00 0.000D+00 0.000D+00 0.000D+00 0.100D+01
 Coeff:     -0.133D-01 0.605D-02-0.271D-01 0.479D-02 0.599D-01 0.970D+00
 Gap=     0.256 Goal=   None    Shift=    0.000
 RMSDP=3.21D-04 MaxDP=4.86D-03 DE=-2.80D-02 OVMax= 8.70D-03

 Cycle   7  Pass 0  IDiag  1:
 E= -628.686140661068     Delta-E=       -0.000742622749 Rises=F Damp=F
 DIIS: error= 2.43D-04 at cycle   7 NSaved=   7.
 NSaved= 7 IEnMin= 7 EnMin= -628.686140661068     IErMin= 7 ErrMin= 2.43D-04
 ErrMax= 2.43D-04  0.00D+00 EMaxC= 1.00D-01 BMatC= 9.90D-06 BMatP= 8.74D-04
 IDIUse=3 WtCom= 9.98D-01 WtEn= 2.43D-03
 Coeff-Com: -0.668D-02 0.808D-02-0.166D-01 0.157D-02 0.118D-01 0.431D+00
 Coeff-Com:  0.571D+00
 Coeff-En:   0.000D+00 0.000D+00 0.000D+00 0.000D+00 0.000D+00 0.000D+00
 Coeff-En:   0.100D+01
 Coeff:     -0.667D-02 0.806D-02-0.166D-01 0.156D-02 0.118D-01 0.429D+00
 Coeff:      0.572D+00
 Gap=     0.256 Goal=   None    Shift=    0.000
 RMSDP=4.02D-05 MaxDP=8.36D-04 DE=-7.43D-04 OVMax= 9.74D-04

 Cycle   8  Pass 0  IDiag  1:
 E= -628.686145686251     Delta-E=       -0.000005025182 Rises=F Damp=F
 DIIS: error= 2.00D-04 at cycle   8 NSaved=   8.
 NSaved= 8 IEnMin= 8 EnMin= -628.686145686251     IErMin= 8 ErrMin= 2.00D-04
 ErrMax= 2.00D-04  0.00D+00 EMaxC= 1.00D-01 BMatC= 3.60D-06 BMatP= 9.90D-06
 IDIUse=3 WtCom= 9.98D-01 WtEn= 2.00D-03
 Coeff-Com: -0.167D-02 0.190D-02-0.459D-02 0.705D-03-0.271D-02 0.555D-01
 Coeff-Com:  0.228D+00 0.723D+00
 Coeff-En:   0.000D+00 0.000D+00 0.000D+00 0.000D+00 0.000D+00 0.000D+00
 Coeff-En:   0.224D+00 0.776D+00
 Coeff:     -0.166D-02 0.190D-02-0.458D-02 0.704D-03-0.271D-02 0.554D-01
 Coeff:      0.228D+00 0.723D+00
 Gap=     0.256 Goal=   None    Shift=    0.000
 RMSDP=1.65D-05 MaxDP=3.72D-04 DE=-5.03D-06 OVMax= 4.65D-04

 Cycle   9  Pass 0  IDiag  1:
 E= -628.686148573208     Delta-E=       -0.000002886957 Rises=F Damp=F
 DIIS: error= 6.52D-05 at cycle   9 NSaved=   9.
 NSaved= 9 IEnMin= 9 EnMin= -628.686148573208     IErMin= 9 ErrMin= 6.52D-05
 ErrMax= 6.52D-05  0.00D+00 EMaxC= 1.00D-01 BMatC= 2.84D-07 BMatP= 3.60D-06
 IDIUse=1 WtCom= 1.00D+00 WtEn= 0.00D+00
 Coeff-Com: -0.538D-03 0.893D-03 0.687D-04 0.225D-04-0.188D-02-0.281D-01
 Coeff-Com:  0.169D-01 0.243D+00 0.769D+00
 Coeff:     -0.538D-03 0.893D-03 0.687D-04 0.225D-04-0.188D-02-0.281D-01
 Coeff:      0.169D-01 0.243D+00 0.769D+00
 Gap=     0.256 Goal=   None    Shift=    0.000
 RMSDP=4.78D-06 MaxDP=9.92D-05 DE=-2.89D-06 OVMax= 1.19D-04

 Initial convergence to 1.0D-05 achieved.  Increase integral accuracy.
 Cycle  10  Pass 1  IDiag  1:
 E= -628.686148310057     Delta-E=        0.000000263150 Rises=F Damp=F
 DIIS: error= 1.68D-05 at cycle   1 NSaved=   1.
 NSaved= 1 IEnMin= 1 EnMin= -628.686148310057     IErMin= 1 ErrMin= 1.68D-05
 ErrMax= 1.68D-05  0.00D+00 EMaxC= 1.00D-01 BMatC= 2.37D-08 BMatP= 2.37D-08
 IDIUse=1 WtCom= 1.00D+00 WtEn= 0.00D+00
 Coeff-Com:  0.100D+01
 Coeff:      0.100D+01
 Gap=     0.256 Goal=   None    Shift=    0.000
 RMSDP=4.78D-06 MaxDP=9.92D-05 DE= 2.63D-07 OVMax= 1.78D-04

 Cycle  11  Pass 1  IDiag  1:
 E= -628.686148193665     Delta-E=        0.000000116392 Rises=F Damp=F
 DIIS: error= 4.79D-05 at cycle   2 NSaved=   2.
 NSaved= 2 IEnMin= 1 EnMin= -628.686148310057     IErMin= 1 ErrMin= 1.68D-05
 ErrMax= 4.79D-05  0.00D+00 EMaxC= 1.00D-01 BMatC= 1.70D-07 BMatP= 2.37D-08
 IDIUse=1 WtCom= 1.00D+00 WtEn= 0.00D+00
 Coeff-Com:  0.733D+00 0.267D+00
 Coeff:      0.733D+00 0.267D+00
 Gap=     0.256 Goal=   None    Shift=    0.000
 RMSDP=4.42D-06 MaxDP=7.96D-05 DE= 1.16D-07 OVMax= 1.36D-04

 Cycle  12  Pass 1  IDiag  1:
 E= -628.686148332112     Delta-E=       -0.000000138447 Rises=F Damp=F
 DIIS: error= 1.22D-06 at cycle   3 NSaved=   3.
 NSaved= 3 IEnMin= 3 EnMin= -628.686148332112     IErMin= 3 ErrMin= 1.22D-06
 ErrMax= 1.22D-06  0.00D+00 EMaxC= 1.00D-01 BMatC= 2.80D-10 BMatP= 2.37D-08
 IDIUse=1 WtCom= 1.00D+00 WtEn= 0.00D+00
 Coeff-Com:  0.183D+00 0.673D-01 0.750D+00
 Coeff:      0.183D+00 0.673D-01 0.750D+00
 Gap=     0.256 Goal=   None    Shift=    0.000
 RMSDP=3.03D-07 MaxDP=5.79D-06 DE=-1.38D-07 OVMax= 5.39D-06

 Cycle  13  Pass 1  IDiag  1:
 E= -628.686148332292     Delta-E=       -0.000000000180 Rises=F Damp=F
 DIIS: error= 8.96D-07 at cycle   4 NSaved=   4.
 NSaved= 4 IEnMin= 4 EnMin= -628.686148332292     IErMin= 4 ErrMin= 8.96D-07
 ErrMax= 8.96D-07  0.00D+00 EMaxC= 1.00D-01 BMatC= 1.27D-10 BMatP= 2.80D-10
 IDIUse=1 WtCom= 1.00D+00 WtEn= 0.00D+00
 Coeff-Com:  0.336D-02 0.219D-03 0.397D+00 0.600D+00
 Coeff:      0.336D-02 0.219D-03 0.397D+00 0.600D+00
 Gap=     0.256 Goal=   None    Shift=    0.000
 RMSDP=1.45D-07 MaxDP=2.40D-06 DE=-1.80D-10 OVMax= 2.49D-06

 Cycle  14  Pass 1  IDiag  1:
 E= -628.686148332406     Delta-E=       -0.000000000114 Rises=F Damp=F
 DIIS: error= 3.55D-07 at cycle   5 NSaved=   5.
 NSaved= 5 IEnMin= 5 EnMin= -628.686148332406     IErMin= 5 ErrMin= 3.55D-07
 ErrMax= 3.55D-07  0.00D+00 EMaxC= 1.00D-01 BMatC= 1.65D-11 BMatP= 1.27D-10
 IDIUse=1 WtCom= 1.00D+00 WtEn= 0.00D+00
 Coeff-Com: -0.103D-01-0.295D-02 0.190D+00 0.352D+00 0.471D+00
 Coeff:     -0.103D-01-0.295D-02 0.190D+00 0.352D+00 0.471D+00
 Gap=     0.256 Goal=   None    Shift=    0.000
 RMSDP=3.79D-08 MaxDP=8.83D-07 DE=-1.14D-10 OVMax= 7.66D-07

 Cycle  15  Pass 1  IDiag  1:
 E= -628.686148332417     Delta-E=       -0.000000000011 Rises=F Damp=F
 DIIS: error= 7.91D-08 at cycle   6 NSaved=   6.
 NSaved= 6 IEnMin= 6 EnMin= -628.686148332417     IErMin= 6 ErrMin= 7.91D-08
 ErrMax= 7.91D-08  0.00D+00 EMaxC= 1.00D-01 BMatC= 9.42D-13 BMatP= 1.65D-11
 IDIUse=1 WtCom= 1.00D+00 WtEn= 0.00D+00
 Coeff-Com: -0.451D-02-0.131D-03 0.507D-01 0.105D+00 0.205D+00 0.643D+00
 Coeff:     -0.451D-02-0.131D-03 0.507D-01 0.105D+00 0.205D+00 0.643D+00
 Gap=     0.256 Goal=   None    Shift=    0.000
 RMSDP=1.16D-08 MaxDP=1.64D-07 DE=-1.09D-11 OVMax= 3.03D-07

 Cycle  16  Pass 1  IDiag  1:
 E= -628.686148332419     Delta-E=       -0.000000000002 Rises=F Damp=F
 DIIS: error= 2.42D-08 at cycle   7 NSaved=   7.
 NSaved= 7 IEnMin= 7 EnMin= -628.686148332419     IErMin= 7 ErrMin= 2.42D-08
 ErrMax= 2.42D-08  0.00D+00 EMaxC= 1.00D-01 BMatC= 8.35D-14 BMatP= 9.42D-13
 IDIUse=1 WtCom= 1.00D+00 WtEn= 0.00D+00
 Coeff-Com: -0.111D-02 0.455D-03 0.279D-02 0.108D-01 0.430D-01 0.314D+00
 Coeff-Com:  0.630D+00
 Coeff:     -0.111D-02 0.455D-03 0.279D-02 0.108D-01 0.430D-01 0.314D+00
 Coeff:      0.630D+00
 Gap=     0.256 Goal=   None    Shift=    0.000
 RMSDP=3.80D-09 MaxDP=7.75D-08 DE=-2.05D-12 OVMax= 7.55D-08

 SCF Done:  E(RB3LYP) =  -628.686148332     A.U. after   16 cycles
            NFock= 16  Conv=0.38D-08     -V/T= 2.0062
 KE= 6.247878024967D+02 PE=-2.013895200055D+03 EE= 4.896360141371D+02
 Leave Link  502 at Mon Oct 14 01:31:25 2019, MaxMem= 10737418240 cpu:              23.6 elap:               1.2
 (Enter /apps/cent7/gaussian/g16-A.03/g16-haswell/g16/l601.exe)
 Copying SCF densities to generalized density rwf, IOpCl= 0 IROHF=0.

 **********************************************************************

            Population analysis using the SCF density.

 **********************************************************************

 Orbital symmetries:
       Occupied  (A) (A) (A) (A) (A) (A) (A) (A) (A) (A) (A) (A)
                 (A) (A) (A) (A) (A) (A) (A) (A) (A) (A) (A) (A)
                 (A)
       Virtual   (A) (A) (A) (A) (A) (A) (A) (A) (A) (A) (A) (A)
                 (A) (A) (A) (A) (A) (A) (A) (A) (A) (A) (A) (A)
                 (A) (A) (A) (A) (A) (A) (A) (A) (A) (A) (A) (A)
                 (A) (A) (A) (A) (A) (A) (A) (A) (A) (A) (A) (A)
                 (A) (A) (A) (A) (A) (A) (A) (A) (A) (A) (A) (A)
                 (A) (A) (A) (A) (A) (A) (A) (A)
 The electronic state is 1-A.
 Alpha  occ. eigenvalues --  -89.33478 -19.44265 -19.35911 -10.44905 -10.44617
 Alpha  occ. eigenvalues --   -8.36695  -6.33291  -6.32886  -6.32863  -1.33267
 Alpha  occ. eigenvalues --   -1.19367  -1.03557  -0.96084  -0.89262  -0.78385
 Alpha  occ. eigenvalues --   -0.71718  -0.69444  -0.66561  -0.65014  -0.63608
 Alpha  occ. eigenvalues --   -0.63130  -0.61670  -0.57682  -0.49849  -0.48879
 Alpha virt. eigenvalues --   -0.23300  -0.19611  -0.18554  -0.16334  -0.12323
 Alpha virt. eigenvalues --   -0.08358  -0.05480  -0.05251  -0.04533  -0.03731
 Alpha virt. eigenvalues --   -0.02334   0.13911   0.16667   0.17240   0.22056
 Alpha virt. eigenvalues --    0.24860   0.27275   0.35824   0.36544   0.45720
 Alpha virt. eigenvalues --    0.49606   0.50659   0.53157   0.58139   0.61021
 Alpha virt. eigenvalues --    0.63524   0.63764   0.65365   0.66925   0.67521
 Alpha virt. eigenvalues --    0.68108   0.73946   0.74945   0.77657   0.78875
 Alpha virt. eigenvalues --    0.86616   0.88889   0.89734   0.99895   1.02584
 Alpha virt. eigenvalues --    1.04663   1.12583   1.38804   1.41115   1.43440
 Alpha virt. eigenvalues --    1.48530   1.50333   1.54435   1.59131   1.64834
 Alpha virt. eigenvalues --    1.66157   1.69326   1.80810   1.83358   1.85399
 Alpha virt. eigenvalues --    1.93900   2.00104   2.01443   2.02959   2.03341
 Alpha virt. eigenvalues --    2.18296   2.28001   2.41639   3.47865   3.61773
 Alpha virt. eigenvalues --    3.68980   3.95987   3.96545
          Condensed to atoms (all electrons):
               1          2          3          4          5          6
     1  C    5.512386   0.191880  -0.030241  -0.044739  -0.040296   0.327410
     2  S    0.191880  14.033152   0.150360   0.186438   0.393377  -0.001462
     3  O   -0.030241   0.150360   8.262261  -0.028534  -0.039397   0.000688
     4  C   -0.044739   0.186438  -0.028534   5.542414  -0.038013   0.000197
     5  O   -0.040296   0.393377  -0.039397  -0.038013   8.158524   0.001121
     6  H    0.327410  -0.001462   0.000688   0.000197   0.001121   0.446021
     7  H    0.359763  -0.015942   0.000792  -0.001230  -0.000834  -0.019184
     8  H    0.359167  -0.013724  -0.000501   0.001500  -0.000420  -0.015691
     9  H    0.000237  -0.001732   0.000710   0.325890   0.001167   0.000282
    10  H    0.001598  -0.014557  -0.000890   0.358533  -0.000440  -0.000028
    11  H   -0.001089  -0.014776   0.000938   0.358956  -0.000894   0.000050
    12  H    0.000619   0.001474   0.242359  -0.000178   0.000332   0.000003
               7          8          9         10         11         12
     1  C    0.359763   0.359167   0.000237   0.001598  -0.001089   0.000619
     2  S   -0.015942  -0.013724  -0.001732  -0.014557  -0.014776   0.001474
     3  O    0.000792  -0.000501   0.000710  -0.000890   0.000938   0.242359
     4  C   -0.001230   0.001500   0.325890   0.358533   0.358956  -0.000178
     5  O   -0.000834  -0.000420   0.001167  -0.000440  -0.000894   0.000332
     6  H   -0.019184  -0.015691   0.000282  -0.000028   0.000050   0.000003
     7  H    0.401715  -0.012457  -0.000011   0.000017   0.000420  -0.000025
     8  H   -0.012457   0.378002  -0.000018  -0.000022  -0.000002  -0.000020
     9  H   -0.000011  -0.000018   0.453530  -0.018215  -0.018070  -0.000348
    10  H    0.000017  -0.000022  -0.018215   0.398768  -0.011611   0.000694
    11  H    0.000420  -0.000002  -0.018070  -0.011611   0.390886   0.000076
    12  H   -0.000025  -0.000020  -0.000348   0.000694   0.000076   0.259433
 Mulliken charges:
               1
     1  C   -0.636695
     2  S    1.105513
     3  O   -0.558544
     4  C   -0.661234
     5  O   -0.434225
     6  H    0.260594
     7  H    0.286976
     8  H    0.304186
     9  H    0.256577
    10  H    0.286153
    11  H    0.295116
    12  H    0.495583
 Sum of Mulliken charges =   1.00000
 Mulliken charges with hydrogens summed into heavy atoms:
               1
     1  C    0.215061
     2  S    1.105513
     3  O   -0.062962
     4  C    0.176613
     5  O   -0.434225
 Electronic spatial extent (au):  <R**2>=            496.0693
 Charge=              1.0000 electrons
 Dipole moment (field-independent basis, Debye):
    X=             -1.1719    Y=              3.4052    Z=             -4.2848  Tot=              5.5972
 Quadrupole moment (field-independent basis, Debye-Ang):
   XX=            -21.3382   YY=            -29.3824   ZZ=            -35.2417
   XY=              2.1459   XZ=              2.0699   YZ=              2.9775
 Traceless Quadrupole moment (field-independent basis, Debye-Ang):
   XX=              7.3159   YY=             -0.7283   ZZ=             -6.5876
   XY=              2.1459   XZ=              2.0699   YZ=              2.9775
 Octapole moment (field-independent basis, Debye-Ang**2):
  XXX=              0.6082  YYY=              2.6618  ZZZ=            -11.5021  XYY=             -6.0741
  XXY=              2.3097  XXZ=             -6.1442  XZZ=             -4.4736  YZZ=             -0.6698
  YYZ=             -3.4415  XYZ=             -4.9730
 Hexadecapole moment (field-independent basis, Debye-Ang**3):
 XXXX=           -181.5914 YYYY=           -177.0898 ZZZZ=           -156.4702 XXXY=              5.8298
 XXXZ=              3.4199 YYYX=              6.3075 YYYZ=             12.9258 ZZZX=              7.1193
 ZZZY=              6.5040 XXYY=            -54.3199 XXZZ=            -59.3166 YYZZ=            -49.6866
 XXYZ=              6.1440 YYXZ=              7.7389 ZZXY=              7.8259
 N-N= 2.707852350888D+02 E-N=-2.013895202266D+03  KE= 6.247878024967D+02
 No NMR shielding tensors so no spin-rotation constants.
 Leave Link  601 at Mon Oct 14 01:31:25 2019, MaxMem= 10737418240 cpu:               2.6 elap:               0.1
 (Enter /apps/cent7/gaussian/g16-A.03/g16-haswell/g16/l701.exe)
 ... and contract with generalized density number  0.
 Compute integral first derivatives.
 Leave Link  701 at Mon Oct 14 01:31:25 2019, MaxMem= 10737418240 cpu:               2.7 elap:               0.1
 (Enter /apps/cent7/gaussian/g16-A.03/g16-haswell/g16/l702.exe)
 L702 exits ... SP integral derivatives will be done elsewhere.
 Leave Link  702 at Mon Oct 14 01:31:25 2019, MaxMem= 10737418240 cpu:               0.4 elap:               0.0
 (Enter /apps/cent7/gaussian/g16-A.03/g16-haswell/g16/l703.exe)
 Integral derivatives from FoFJK, PRISM(SPDF).
 Compute integral first derivatives, UseDBF=F ICtDFT=           0.
 Calling FoFJK, ICntrl=      2127 FMM=F ISym2X=0 I1Cent= 0 IOpClX= 0 NMat=1 NMatS=1 NMatT=0.
 FoFJK:  IHMeth= 1 ICntrl=    2127 DoSepK=F KAlg= 0 I1Cent=           0 FoldK=F
 IRaf=         0 NMat=       1 IRICut=       1 DoRegI=T DoRafI=F ISym2E= 0 IDoP0=0 IntGTp=1.
 FoFCou: FMM=F IPFlag=           0 FMFlag=      100000 FMFlg1=         800
         NFxFlg=           0 DoJE=F BraDBF=F KetDBF=F FulRan=T
         wScrn=  0.000000 ICntrl=      2127 IOpCl=  0 I1Cent=           0 NGrid=           0
         NMat0=    1 NMatS0=      1 NMatT0=    0 NMatD0=    1 NMtDS0=    0 NMtDT0=    0
 Symmetry not used in FoFCou.
 Leave Link  703 at Mon Oct 14 01:31:26 2019, MaxMem= 10737418240 cpu:               9.9 elap:               0.4
 (Enter /apps/cent7/gaussian/g16-A.03/g16-haswell/g16/l716.exe)
 Dipole        =-4.61077619D-01 1.33971288D+00-1.68578008D+00
 ***** Axes restored to original set *****
 -------------------------------------------------------------------
 Center     Atomic                   Forces (Hartrees/Bohr)
 Number     Number              X              Y              Z
 -------------------------------------------------------------------
      1        6          -0.002214646   -0.010229310    0.014553604
      2       16          -0.000060097    0.013814519   -0.138552713
      3        8          -0.020906165    0.026021058    0.009294119
      4        6          -0.004363036   -0.003717940    0.013715942
      5        8           0.013497746   -0.003296508    0.112361429
      6        1           0.000916865   -0.002570242    0.003099405
      7        1           0.006312010   -0.002682298   -0.007069053
      8        1          -0.001161320   -0.005696673   -0.005185583
      9        1          -0.001152053    0.000062232    0.004047415
     10        1          -0.003685745   -0.003080816   -0.005104085
     11        1          -0.005358320    0.003081769   -0.004527139
     12        1           0.018174760   -0.011705793    0.003366659
 -------------------------------------------------------------------
 Cartesian Forces:  Max     0.138552713 RMS     0.031058951
 Leave Link  716 at Mon Oct 14 01:31:26 2019, MaxMem= 10737418240 cpu:               0.6 elap:               0.1
 (Enter /apps/cent7/gaussian/g16-A.03/g16-haswell/g16/l103.exe)

 GradGradGradGradGradGradGradGradGradGradGradGradGradGradGradGradGradGrad
 Berny optimization.
 FormGI is forming the generalized inverse of G from B-inverse, IUseBI=4.
 Internal  Forces:  Max     0.113185388 RMS     0.017255777
 Search for a local minimum.
 Step number   1 out of a maximum of   61
 All quantities printed in internal units (Hartrees-Bohrs-Radians)
 RMS Force = .17256D-01 SwitMx=.10000D-02 MixMth= 1
 Mixed Optimization -- RFO/linear search
 Second derivative matrix not updated -- first step.
 ITU=  0
     Eigenvalues ---    0.00230   0.00230   0.02570   0.05712   0.05715
     Eigenvalues ---    0.05715   0.05716   0.05716   0.06818   0.09891
     Eigenvalues ---    0.16000   0.16000   0.16000   0.16000   0.16000
     Eigenvalues ---    0.16000   0.16000   0.17826   0.21456   0.23982
     Eigenvalues ---    0.23987   0.34807   0.34809   0.34810   0.34817
     Eigenvalues ---    0.34818   0.34820   0.50507   0.50526   0.55473
 RFO step:  Lambda=-3.60860545D-02 EMin= 2.30000000D-03
 Linear search not attempted -- first point.
 Iteration  1 RMS(Cart)=  0.06217285 RMS(Int)=  0.00234833
 Iteration  2 RMS(Cart)=  0.00269246 RMS(Int)=  0.00095863
 Iteration  3 RMS(Cart)=  0.00000224 RMS(Int)=  0.00095863
 Iteration  4 RMS(Cart)=  0.00000000 RMS(Int)=  0.00095863
 ITry= 1 IFail=0 DXMaxC= 1.95D-01 DCOld= 1.00D+10 DXMaxT= 3.00D-01 DXLimC= 3.00D+00 Rises=F
 Variable       Old X    -DE/DX   Delta X   Delta X   Delta X     New X
                                 (Linear)    (Quad)   (Total)
    R1        3.45569  -0.01582   0.00000  -0.05732  -0.05732   3.39837
    R2        2.05989   0.00337   0.00000   0.00877   0.00877   2.06867
    R3        2.05968   0.00247   0.00000   0.00643   0.00643   2.06611
    R4        2.05972   0.00250   0.00000   0.00651   0.00651   2.06623
    R5        3.03057  -0.00700   0.00000  -0.01293  -0.01293   3.01764
    R6        3.45556  -0.01245   0.00000  -0.04510  -0.04510   3.41046
    R7        3.03038  -0.11319   0.00000  -0.20908  -0.20908   2.82130
    R8        1.81414   0.02059   0.00000   0.03485   0.03485   1.84899
    R9        2.05986   0.00389   0.00000   0.01013   0.01013   2.07000
   R10        2.05972   0.00276   0.00000   0.00718   0.00718   2.06690
   R11        2.05984   0.00211   0.00000   0.00550   0.00550   2.06534
    A1        1.91056   0.00095   0.00000   0.00955   0.00963   1.92019
    A2        1.91068  -0.01202   0.00000  -0.06374  -0.06478   1.84590
    A3        1.91062  -0.00861   0.00000  -0.04621  -0.04722   1.86340
    A4        1.91062   0.00657   0.00000   0.03815   0.03822   1.94884
    A5        1.91059   0.00490   0.00000   0.02983   0.02992   1.94051
    A6        1.91072   0.00821   0.00000   0.03241   0.02992   1.94064
    A7        1.91245  -0.01312   0.00000  -0.09203  -0.09308   1.81937
    A8        1.90938   0.00392   0.00000  -0.00166  -0.00447   1.90491
    A9        1.91247   0.00209   0.00000   0.02743   0.02804   1.94051
   A10        1.91255  -0.00126   0.00000  -0.02644  -0.02923   1.88331
   A11        1.90438   0.00768   0.00000   0.05871   0.05968   1.96406
   A12        1.91257   0.00068   0.00000   0.03403   0.03376   1.94633
   A13        2.09440  -0.01328   0.00000  -0.06775  -0.06775   2.02665
   A14        1.91058   0.00139   0.00000   0.01234   0.01248   1.92306
   A15        1.91061  -0.00727   0.00000  -0.03882  -0.03955   1.87106
   A16        1.91064  -0.00953   0.00000  -0.05212  -0.05289   1.85776
   A17        1.91066   0.00451   0.00000   0.03007   0.03023   1.94089
   A18        1.91063   0.00484   0.00000   0.02812   0.02825   1.93888
   A19        1.91068   0.00606   0.00000   0.02041   0.01853   1.92921
    D1        0.97598  -0.00317   0.00000  -0.03830  -0.03753   0.93845
    D2       -1.12110   0.00401   0.00000   0.05163   0.05103  -1.07008
    D3        3.06495  -0.00052   0.00000  -0.00590  -0.00608   3.05888
    D4        3.07035  -0.00191   0.00000  -0.02475  -0.02472   3.04563
    D5        0.97326   0.00527   0.00000   0.06518   0.06384   1.03710
    D6       -1.12386   0.00074   0.00000   0.00764   0.00673  -1.11713
    D7       -1.11831  -0.00449   0.00000  -0.05239  -0.05088  -1.16918
    D8        3.06779   0.00270   0.00000   0.03754   0.03768   3.10548
    D9        0.97067  -0.00184   0.00000  -0.02000  -0.01942   0.95125
   D10       -2.33193   0.00055   0.00000   0.02045   0.01830  -2.31363
   D11       -0.23677  -0.00351   0.00000  -0.05463  -0.05317  -0.28994
   D12        1.85733   0.00126   0.00000   0.00679   0.00749   1.86482
   D13        0.98509  -0.00676   0.00000  -0.06012  -0.06019   0.92490
   D14        3.07947  -0.00484   0.00000  -0.03950  -0.04016   3.03930
   D15       -1.10928  -0.00770   0.00000  -0.07020  -0.06970  -1.17898
   D16       -1.11194   0.00769   0.00000   0.06997   0.06993  -1.04201
   D17        0.98244   0.00961   0.00000   0.09059   0.08995   1.07239
   D18        3.07688   0.00675   0.00000   0.05989   0.06041   3.13729
   D19        3.08216  -0.00137   0.00000  -0.00662  -0.00648   3.07568
   D20       -1.10665   0.00055   0.00000   0.01400   0.01354  -1.09310
   D21        0.98779  -0.00231   0.00000  -0.01670  -0.01600   0.97179
         Item               Value     Threshold  Converged?
 Maximum Force            0.113185     0.000450     NO 
 RMS     Force            0.017256     0.000300     NO 
 Maximum Displacement     0.195189     0.001800     NO 
 RMS     Displacement     0.063803     0.001200     NO 
 Predicted change in Energy=-2.031325D-02
 Lowest energy point so far.  Saving SCF results.
 GradGradGradGradGradGradGradGradGradGradGradGradGradGradGradGradGradGrad

 Leave Link  103 at Mon Oct 14 01:31:26 2019, MaxMem= 10737418240 cpu:               0.8 elap:               0.1
 (Enter /apps/cent7/gaussian/g16-A.03/g16-haswell/g16/l202.exe)
                          Input orientation:                          
 ---------------------------------------------------------------------
 Center     Atomic      Atomic             Coordinates (Angstroms)
 Number     Number       Type             X           Y           Z
 ---------------------------------------------------------------------
      1          6           0       -0.782208    1.359591    0.479352
      2         16           0        0.065514    0.015518   -0.362589
      3          8           0       -0.592947   -1.306192    0.245272
      4          6           0        1.809031    0.031532    0.103208
      5          8           0       -0.106813    0.112001   -1.842436
      6          1           0       -0.714992    1.224227    1.563560
      7          1           0       -0.281412    2.275860    0.155243
      8          1           0       -1.822047    1.337010    0.142077
      9          1           0        1.908849    0.027569    1.194038
     10          1           0        2.270312   -0.855902   -0.339491
     11          1           0        2.235941    0.940798   -0.327468
     12          1           0        0.029259   -2.005158    0.531023
 ---------------------------------------------------------------------
                    Distance matrix (angstroms):
                    1          2          3          4          5
     1  C    0.000000
     2  S    1.798340   0.000000
     3  O    2.682725   1.596866   0.000000
     4  C    2.935940   1.804737   2.753032   0.000000
     5  O    2.720908   1.492968   2.570238   2.731751   0.000000
     6  H    1.094691   2.404208   2.855837   3.150531   3.634245
     7  H    1.093340   2.344707   3.596701   3.067518   2.950168
     8  H    1.093402   2.358795   2.916822   3.858822   2.894990
     9  H    3.086559   2.412700   2.989659   1.095395   3.645572
    10  H    3.859637   2.370874   2.956850   1.093756   2.974290
    11  H    3.152074   2.359689   3.657814   1.092932   2.910417
    12  H    3.461601   2.209748   0.978441   2.738379   3.183423
                    6          7          8          9         10
     6  H    0.000000
     7  H    1.810326   0.000000
     8  H    1.805243   1.804209   0.000000
     9  H    2.907418   3.306229   4.091558   0.000000
    10  H    4.106164   4.069888   4.667781   1.806347   0.000000
    11  H    3.516295   2.890064   4.104233   1.804427   1.797069
    12  H    3.471163   4.308694   3.840403   2.846827   2.664752
                   11         12
    11  H    0.000000
    12  H    3.779564   0.000000
 Stoichiometry    C2H7O2S(1+)
 Framework group  C1[X(C2H7O2S)]
 Deg. of freedom    30
 Full point group                 C1      NOp   1
 RotChk:  IX=3 Diff= 2.09D-01
 Largest Abelian subgroup         C1      NOp   1
 Largest concise Abelian subgroup C1      NOp   1
                         Standard orientation:                         
 ---------------------------------------------------------------------
 Center     Atomic      Atomic             Coordinates (Angstroms)
 Number     Number       Type             X           Y           Z
 ---------------------------------------------------------------------
      1          6           0        1.491006    0.809917   -0.404267
      2         16           0        0.008976   -0.067998    0.112337
      3          8           0       -0.039319   -1.350414   -0.837956
      4          6           0       -1.437761    0.947484   -0.252116
      5          8           0        0.073289   -0.430222    1.559269
      6          1           0        1.461881    0.991732   -1.483361
      7          1           0        1.495144    1.744855    0.162537
      8          1           0        2.341941    0.179302   -0.132674
      9          1           0       -1.427883    1.256036   -1.303110
     10          1           0       -2.321671    0.344604   -0.025095
     11          1           0       -1.383273    1.813406    0.412496
     12          1           0       -0.900979   -1.541280   -1.260400
 ---------------------------------------------------------------------
 Rotational constants (GHZ):           4.1769861           3.8684863           3.7717316
 Leave Link  202 at Mon Oct 14 01:31:26 2019, MaxMem= 10737418240 cpu:               0.3 elap:               0.0
 (Enter /apps/cent7/gaussian/g16-A.03/g16-haswell/g16/l301.exe)
 Standard basis: 6-31G(d) (6D, 7F)
 Ernie: Thresh=  0.10000D-02 Tol=  0.10000D-05 Strict=F.
 There are    93 symmetry adapted cartesian basis functions of A   symmetry.
 There are    93 symmetry adapted basis functions of A   symmetry.
    93 basis functions,   192 primitive gaussians,    93 cartesian basis functions
    25 alpha electrons       25 beta electrons
       nuclear repulsion energy       277.4924790701 Hartrees.
 IExCor=  402 DFT=T Ex+Corr=B3LYP ExCW=0 ScaHFX=  0.200000
 ScaDFX=  0.800000  0.720000  1.000000  0.810000 ScalE2=  1.000000  1.000000
 IRadAn=      5 IRanWt=     -1 IRanGd=            0 ICorTp=0 IEmpDi=  4
 NAtoms=   12 NActive=   12 NUniq=   12 SFac= 1.00D+00 NAtFMM=   60 NAOKFM=F Big=F
 Integral buffers will be    131072 words long.
 Raffenetti 2 integral format.
 Two-electron integral symmetry is turned on.
 Leave Link  301 at Mon Oct 14 01:31:26 2019, MaxMem= 10737418240 cpu:               1.2 elap:               0.1
 (Enter /apps/cent7/gaussian/g16-A.03/g16-haswell/g16/l302.exe)
 NPDir=0 NMtPBC=     1 NCelOv=     1 NCel=       1 NClECP=     1 NCelD=      1
         NCelK=      1 NCelE2=     1 NClLst=     1 CellRange=     0.0.
 One-electron integrals computed using PRISM.
 One-electron integral symmetry used in STVInt
 NBasis=    93 RedAO= T EigKep=  4.22D-03  NBF=    93
 NBsUse=    93 1.00D-06 EigRej= -1.00D+00 NBFU=    93
 Precomputing XC quadrature grid using
 IXCGrd= 4 IRadAn=           5 IRanWt=          -1 IRanGd=           0 AccXCQ= 0.00D+00.
 Generated NRdTot=       0 NPtTot=           0 NUsed=           0 NTot=          32
 NSgBfM=    93    93    93    93    93 MxSgAt=    12 MxSgA2=    12.
 Leave Link  302 at Mon Oct 14 01:31:26 2019, MaxMem= 10737418240 cpu:               2.7 elap:               0.1
 (Enter /apps/cent7/gaussian/g16-A.03/g16-haswell/g16/l303.exe)
 DipDrv:  MaxL=1.
 Leave Link  303 at Mon Oct 14 01:31:26 2019, MaxMem= 10737418240 cpu:               0.6 elap:               0.0
 (Enter /apps/cent7/gaussian/g16-A.03/g16-haswell/g16/l401.exe)
 Initial guess from the checkpoint file:  "25_p.chk"
 B after Tr=    -0.000000    0.000000    0.000000
         Rot=    0.996973    0.041451    0.010821   -0.064887 Ang=   8.92 deg.
 Guess basis will be translated and rotated to current coordinates.
 JPrj=2 DoOrth=T DoCkMO=T.
 Generating alternative initial guess.
 ExpMin= 1.17D-01 ExpMax= 2.19D+04 ExpMxC= 3.30D+03 IAcc=2 IRadAn=         4 AccDes= 0.00D+00
 Harris functional with IExCor=  402 and IRadAn=       4 diagonalized for initial guess.
 HarFok:  IExCor=  402 AccDes= 0.00D+00 IRadAn=         4 IDoV= 1 UseB2=F ITyADJ=14
 ICtDFT=  3500011 ScaDFX=  1.000000  1.000000  1.000000  1.000000
 FoFCou: FMM=F IPFlag=           0 FMFlag=      100000 FMFlg1=           0
         NFxFlg=           0 DoJE=T BraDBF=F KetDBF=T FulRan=T
         wScrn=  0.000000 ICntrl=       500 IOpCl=  0 I1Cent=   200000004 NGrid=           0
         NMat0=    1 NMatS0=      1 NMatT0=    0 NMatD0=    1 NMtDS0=    0 NMtDT0=    0
 Petite list used in FoFCou.
 Harris En= -628.846558968481    
 Leave Link  401 at Mon Oct 14 01:31:27 2019, MaxMem= 10737418240 cpu:               4.8 elap:               0.2
 (Enter /apps/cent7/gaussian/g16-A.03/g16-haswell/g16/l502.exe)
 Keep R1 ints in memory in canonical form, NReq=31564606.
 FoFCou: FMM=F IPFlag=           0 FMFlag=           0 FMFlg1=           0
         NFxFlg=           0 DoJE=F BraDBF=F KetDBF=F FulRan=T
         wScrn=  0.000000 ICntrl=       600 IOpCl=  0 I1Cent=           0 NGrid=           0
         NMat0=    1 NMatS0=   4371 NMatT0=    0 NMatD0=    1 NMtDS0=    0 NMtDT0=    0
 Symmetry not used in FoFCou.
 Two-electron integral symmetry not used.
 Closed shell SCF:
 Using DIIS extrapolation, IDIIS=  1040.
 NGot= 10737418240 LenX= 10727842474 LenY= 10727833384
 Requested convergence on RMS density matrix=1.00D-08 within 128 cycles.
 Requested convergence on MAX density matrix=1.00D-06.
 Requested convergence on             energy=1.00D-06.
 No special actions if energy rises.
 Integral accuracy reduced to 1.0D-05 until final iterations.

 Cycle   1  Pass 0  IDiag  1:
 E= -628.700407356791    
 DIIS: error= 6.14D-03 at cycle   1 NSaved=   1.
 NSaved= 1 IEnMin= 1 EnMin= -628.700407356791     IErMin= 1 ErrMin= 6.14D-03
 ErrMax= 6.14D-03  0.00D+00 EMaxC= 1.00D-01 BMatC= 7.55D-03 BMatP= 7.55D-03
 IDIUse=3 WtCom= 9.39D-01 WtEn= 6.14D-02
 Coeff-Com:  0.100D+01
 Coeff-En:   0.100D+01
 Coeff:      0.100D+01
 Gap=     1.422 Goal=   None    Shift=    0.000
 GapD=    1.422 DampG=2.000 DampE=1.000 DampFc=2.0000 IDamp=-1.
 RMSDP=2.04D-03 MaxDP=4.03D-02              OVMax= 4.12D-02

 Cycle   2  Pass 0  IDiag  1:
 E= -628.706651833432     Delta-E=       -0.006244476641 Rises=F Damp=F
 DIIS: error= 7.76D-03 at cycle   2 NSaved=   2.
 NSaved= 2 IEnMin= 2 EnMin= -628.706651833432     IErMin= 1 ErrMin= 6.14D-03
 ErrMax= 7.76D-03  0.00D+00 EMaxC= 1.00D-01 BMatC= 6.67D-03 BMatP= 7.55D-03
 IDIUse=3 WtCom= 9.22D-01 WtEn= 7.76D-02
 Coeff-Com:  0.478D+00 0.522D+00
 Coeff-En:   0.424D-01 0.958D+00
 Coeff:      0.444D+00 0.556D+00
 Gap=     0.293 Goal=   None    Shift=    0.000
 RMSDP=1.47D-03 MaxDP=3.02D-02 DE=-6.24D-03 OVMax= 4.62D-02

 Cycle   3  Pass 0  IDiag  1:
 E= -628.707926824453     Delta-E=       -0.001274991021 Rises=F Damp=F
 DIIS: error= 7.96D-03 at cycle   3 NSaved=   3.
 NSaved= 3 IEnMin= 3 EnMin= -628.707926824453     IErMin= 1 ErrMin= 6.14D-03
 ErrMax= 7.96D-03  0.00D+00 EMaxC= 1.00D-01 BMatC= 4.91D-03 BMatP= 6.67D-03
 IDIUse=3 WtCom= 9.20D-01 WtEn= 7.96D-02
 Coeff-Com:  0.211D-01 0.456D+00 0.523D+00
 Coeff-En:   0.000D+00 0.448D+00 0.552D+00
 Coeff:      0.194D-01 0.456D+00 0.525D+00
 Gap=     0.307 Goal=   None    Shift=    0.000
 RMSDP=7.86D-04 MaxDP=1.38D-02 DE=-1.27D-03 OVMax= 2.28D-02

 Cycle   4  Pass 0  IDiag  1:
 E= -628.711724694713     Delta-E=       -0.003797870260 Rises=F Damp=F
 DIIS: error= 1.35D-03 at cycle   4 NSaved=   4.
 NSaved= 4 IEnMin= 4 EnMin= -628.711724694713     IErMin= 4 ErrMin= 1.35D-03
 ErrMax= 1.35D-03  0.00D+00 EMaxC= 1.00D-01 BMatC= 1.06D-04 BMatP= 4.91D-03
 IDIUse=3 WtCom= 9.86D-01 WtEn= 1.35D-02
 Coeff-Com: -0.190D-01 0.184D+00 0.264D+00 0.570D+00
 Coeff-En:   0.000D+00 0.000D+00 0.000D+00 0.100D+01
 Coeff:     -0.188D-01 0.182D+00 0.261D+00 0.576D+00
 Gap=     0.306 Goal=   None    Shift=    0.000
 RMSDP=1.34D-04 MaxDP=5.33D-03 DE=-3.80D-03 OVMax= 2.49D-03

 Cycle   5  Pass 0  IDiag  1:
 E= -628.711816386458     Delta-E=       -0.000091691745 Rises=F Damp=F
 DIIS: error= 1.89D-04 at cycle   5 NSaved=   5.
 NSaved= 5 IEnMin= 5 EnMin= -628.711816386458     IErMin= 5 ErrMin= 1.89D-04
 ErrMax= 1.89D-04  0.00D+00 EMaxC= 1.00D-01 BMatC= 8.60D-06 BMatP= 1.06D-04
 IDIUse=3 WtCom= 9.98D-01 WtEn= 1.89D-03
 Coeff-Com: -0.944D-02 0.576D-01 0.948D-01 0.293D+00 0.564D+00
 Coeff-En:   0.000D+00 0.000D+00 0.000D+00 0.000D+00 0.100D+01
 Coeff:     -0.942D-02 0.575D-01 0.946D-01 0.292D+00 0.565D+00
 Gap=     0.306 Goal=   None    Shift=    0.000
 RMSDP=3.43D-05 MaxDP=1.01D-03 DE=-9.17D-05 OVMax= 6.85D-04

 Cycle   6  Pass 0  IDiag  1:
 E= -628.711822584602     Delta-E=       -0.000006198144 Rises=F Damp=F
 DIIS: error= 1.08D-04 at cycle   6 NSaved=   6.
 NSaved= 6 IEnMin= 6 EnMin= -628.711822584602     IErMin= 6 ErrMin= 1.08D-04
 ErrMax= 1.08D-04  0.00D+00 EMaxC= 1.00D-01 BMatC= 1.22D-06 BMatP= 8.60D-06
 IDIUse=3 WtCom= 9.99D-01 WtEn= 1.08D-03
 Coeff-Com: -0.282D-02 0.100D-01 0.213D-01 0.987D-01 0.321D+00 0.552D+00
 Coeff-En:   0.000D+00 0.000D+00 0.000D+00 0.000D+00 0.407D-01 0.959D+00
 Coeff:     -0.282D-02 0.999D-02 0.213D-01 0.986D-01 0.320D+00 0.553D+00
 Gap=     0.306 Goal=   None    Shift=    0.000
 RMSDP=1.27D-05 MaxDP=2.37D-04 DE=-6.20D-06 OVMax= 2.50D-04

 Cycle   7  Pass 0  IDiag  1:
 E= -628.711823481928     Delta-E=       -0.000000897325 Rises=F Damp=F
 DIIS: error= 1.45D-05 at cycle   7 NSaved=   7.
 NSaved= 7 IEnMin= 7 EnMin= -628.711823481928     IErMin= 7 ErrMin= 1.45D-05
 ErrMax= 1.45D-05  0.00D+00 EMaxC= 1.00D-01 BMatC= 4.75D-08 BMatP= 1.22D-06
 IDIUse=1 WtCom= 1.00D+00 WtEn= 0.00D+00
 Coeff-Com: -0.244D-03-0.128D-02-0.154D-02 0.875D-02 0.618D-01 0.202D+00
 Coeff-Com:  0.731D+00
 Coeff:     -0.244D-03-0.128D-02-0.154D-02 0.875D-02 0.618D-01 0.202D+00
 Coeff:      0.731D+00
 Gap=     0.306 Goal=   None    Shift=    0.000
 RMSDP=2.81D-06 MaxDP=6.19D-05 DE=-8.97D-07 OVMax= 6.15D-05

 Initial convergence to 1.0D-05 achieved.  Increase integral accuracy.
 Cycle   8  Pass 1  IDiag  1:
 E= -628.711828394658     Delta-E=       -0.000004912730 Rises=F Damp=F
 DIIS: error= 8.47D-06 at cycle   1 NSaved=   1.
 NSaved= 1 IEnMin= 1 EnMin= -628.711828394658     IErMin= 1 ErrMin= 8.47D-06
 ErrMax= 8.47D-06  0.00D+00 EMaxC= 1.00D-01 BMatC= 7.38D-09 BMatP= 7.38D-09
 IDIUse=1 WtCom= 1.00D+00 WtEn= 0.00D+00
 Coeff-Com:  0.100D+01
 Coeff:      0.100D+01
 Gap=     0.306 Goal=   None    Shift=    0.000
 RMSDP=2.81D-06 MaxDP=6.19D-05 DE=-4.91D-06 OVMax= 3.18D-05

 Cycle   9  Pass 1  IDiag  1:
 E= -628.711828392741     Delta-E=        0.000000001916 Rises=F Damp=F
 DIIS: error= 9.01D-06 at cycle   2 NSaved=   2.
 NSaved= 2 IEnMin= 1 EnMin= -628.711828394658     IErMin= 1 ErrMin= 8.47D-06
 ErrMax= 9.01D-06  0.00D+00 EMaxC= 1.00D-01 BMatC= 1.06D-08 BMatP= 7.38D-09
 IDIUse=1 WtCom= 1.00D+00 WtEn= 0.00D+00
 Coeff-Com:  0.549D+00 0.451D+00
 Coeff:      0.549D+00 0.451D+00
 Gap=     0.306 Goal=   None    Shift=    0.000
 RMSDP=1.17D-06 MaxDP=2.28D-05 DE= 1.92D-09 OVMax= 2.91D-05

 Cycle  10  Pass 1  IDiag  1:
 E= -628.711828401645     Delta-E=       -0.000000008904 Rises=F Damp=F
 DIIS: error= 3.00D-06 at cycle   3 NSaved=   3.
 NSaved= 3 IEnMin= 3 EnMin= -628.711828401645     IErMin= 3 ErrMin= 3.00D-06
 ErrMax= 3.00D-06  0.00D+00 EMaxC= 1.00D-01 BMatC= 8.94D-10 BMatP= 7.38D-09
 IDIUse=1 WtCom= 1.00D+00 WtEn= 0.00D+00
 Coeff-Com:  0.228D+00 0.259D+00 0.513D+00
 Coeff:      0.228D+00 0.259D+00 0.513D+00
 Gap=     0.306 Goal=   None    Shift=    0.000
 RMSDP=4.09D-07 MaxDP=6.95D-06 DE=-8.90D-09 OVMax= 1.20D-05

 Cycle  11  Pass 1  IDiag  1:
 E= -628.711828402133     Delta-E=       -0.000000000488 Rises=F Damp=F
 DIIS: error= 1.64D-06 at cycle   4 NSaved=   4.
 NSaved= 4 IEnMin= 4 EnMin= -628.711828402133     IErMin= 4 ErrMin= 1.64D-06
 ErrMax= 1.64D-06  0.00D+00 EMaxC= 1.00D-01 BMatC= 2.37D-10 BMatP= 8.94D-10
 IDIUse=1 WtCom= 1.00D+00 WtEn= 0.00D+00
 Coeff-Com:  0.181D-02 0.495D-01 0.361D+00 0.587D+00
 Coeff:      0.181D-02 0.495D-01 0.361D+00 0.587D+00
 Gap=     0.306 Goal=   None    Shift=    0.000
 RMSDP=1.88D-07 MaxDP=3.31D-06 DE=-4.88D-10 OVMax= 5.23D-06

 Cycle  12  Pass 1  IDiag  1:
 E= -628.711828402322     Delta-E=       -0.000000000189 Rises=F Damp=F
 DIIS: error= 4.46D-07 at cycle   5 NSaved=   5.
 NSaved= 5 IEnMin= 5 EnMin= -628.711828402322     IErMin= 5 ErrMin= 4.46D-07
 ErrMax= 4.46D-07  0.00D+00 EMaxC= 1.00D-01 BMatC= 1.95D-11 BMatP= 2.37D-10
 IDIUse=1 WtCom= 1.00D+00 WtEn= 0.00D+00
 Coeff-Com: -0.101D-01 0.197D-01 0.205D+00 0.375D+00 0.411D+00
 Coeff:     -0.101D-01 0.197D-01 0.205D+00 0.375D+00 0.411D+00
 Gap=     0.306 Goal=   None    Shift=    0.000
 RMSDP=4.36D-08 MaxDP=7.34D-07 DE=-1.89D-10 OVMax= 9.51D-07

 Cycle  13  Pass 1  IDiag  1:
 E= -628.711828402339     Delta-E=       -0.000000000017 Rises=F Damp=F
 DIIS: error= 3.27D-08 at cycle   6 NSaved=   6.
 NSaved= 6 IEnMin= 6 EnMin= -628.711828402339     IErMin= 6 ErrMin= 3.27D-08
 ErrMax= 3.27D-08  0.00D+00 EMaxC= 1.00D-01 BMatC= 3.06D-13 BMatP= 1.95D-11
 IDIUse=1 WtCom= 1.00D+00 WtEn= 0.00D+00
 Coeff-Com: -0.467D-02 0.690D-02 0.766D-01 0.148D+00 0.184D+00 0.589D+00
 Coeff:     -0.467D-02 0.690D-02 0.766D-01 0.148D+00 0.184D+00 0.589D+00
 Gap=     0.306 Goal=   None    Shift=    0.000
 RMSDP=8.22D-09 MaxDP=3.46D-07 DE=-1.68D-11 OVMax= 1.54D-07

 SCF Done:  E(RB3LYP) =  -628.711828402     A.U. after   13 cycles
            NFock= 13  Conv=0.82D-08     -V/T= 2.0059
 KE= 6.250157382365D+02 PE=-2.027269891929D+03 EE= 4.960498462200D+02
 Leave Link  502 at Mon Oct 14 01:31:28 2019, MaxMem= 10737418240 cpu:              19.9 elap:               1.0
 (Enter /apps/cent7/gaussian/g16-A.03/g16-haswell/g16/l701.exe)
 ... and contract with generalized density number  0.
 Compute integral first derivatives.
 Leave Link  701 at Mon Oct 14 01:31:28 2019, MaxMem= 10737418240 cpu:               2.1 elap:               0.1
 (Enter /apps/cent7/gaussian/g16-A.03/g16-haswell/g16/l702.exe)
 L702 exits ... SP integral derivatives will be done elsewhere.
 Leave Link  702 at Mon Oct 14 01:31:28 2019, MaxMem= 10737418240 cpu:               0.4 elap:               0.0
 (Enter /apps/cent7/gaussian/g16-A.03/g16-haswell/g16/l703.exe)
 Integral derivatives from FoFJK, PRISM(SPDF).
 Compute integral first derivatives, UseDBF=F ICtDFT=           0.
 Calling FoFJK, ICntrl=      2127 FMM=F ISym2X=0 I1Cent= 0 IOpClX= 0 NMat=1 NMatS=1 NMatT=0.
 FoFJK:  IHMeth= 1 ICntrl=    2127 DoSepK=F KAlg= 0 I1Cent=           0 FoldK=F
 IRaf=         0 NMat=       1 IRICut=       1 DoRegI=T DoRafI=F ISym2E= 0 IDoP0=0 IntGTp=1.
 FoFCou: FMM=F IPFlag=           0 FMFlag=      100000 FMFlg1=         800
         NFxFlg=           0 DoJE=F BraDBF=F KetDBF=F FulRan=T
         wScrn=  0.000000 ICntrl=      2127 IOpCl=  0 I1Cent=           0 NGrid=           0
         NMat0=    1 NMatS0=      1 NMatT0=    0 NMatD0=    1 NMtDS0=    0 NMtDT0=    0
 Symmetry not used in FoFCou.
 Leave Link  703 at Mon Oct 14 01:31:28 2019, MaxMem= 10737418240 cpu:              10.2 elap:               0.4
 (Enter /apps/cent7/gaussian/g16-A.03/g16-haswell/g16/l716.exe)
 Dipole        =-6.39068591D-01 1.03857582D+00-1.60494424D+00
 ***** Axes restored to original set *****
 -------------------------------------------------------------------
 Center     Atomic                   Forces (Hartrees/Bohr)
 Number     Number              X              Y              Z
 -------------------------------------------------------------------
      1        6           0.001573687   -0.005475312    0.005271744
      2       16          -0.002468562    0.010557454   -0.060109034
      3        8          -0.003842363    0.002384784    0.010939501
      4        6          -0.003195361   -0.002860972    0.006997728
      5        8           0.006781928   -0.003360394    0.046003847
      6        1          -0.000043069   -0.000107062   -0.001212636
      7        1          -0.001371263    0.000484568   -0.000729631
      8        1           0.000062723   -0.000206316   -0.000933843
      9        1          -0.000207153    0.000117590   -0.000837075
     10        1           0.000528178    0.000583598   -0.001698301
     11        1           0.000069674   -0.000219941   -0.000965370
     12        1           0.002111579   -0.001897997   -0.002726930
 -------------------------------------------------------------------
 Cartesian Forces:  Max     0.060109034 RMS     0.013121037
 Leave Link  716 at Mon Oct 14 01:31:28 2019, MaxMem= 10737418240 cpu:               1.0 elap:               0.1
 (Enter /apps/cent7/gaussian/g16-A.03/g16-haswell/g16/l103.exe)

 GradGradGradGradGradGradGradGradGradGradGradGradGradGradGradGradGradGrad
 Berny optimization.
 Using GEDIIS/GDIIS optimizer.
 FormGI is forming the generalized inverse of G from B-inverse, IUseBI=4.
 Internal  Forces:  Max     0.046599519 RMS     0.006792957
 Search for a local minimum.
 Step number   2 out of a maximum of   61
 All quantities printed in internal units (Hartrees-Bohrs-Radians)
 RMS Force = .67930D-02 SwitMx=.10000D-02 MixMth= 1
 Mixed Optimization -- RFO/linear search
 Update second derivatives using D2CorX and points    1    2
 DE= -2.57D-02 DEPred=-2.03D-02 R= 1.26D+00
 TightC=F SS=  1.41D+00  RLast= 3.61D-01 DXNew= 5.0454D-01 1.0830D+00
 Trust test= 1.26D+00 RLast= 3.61D-01 DXMaxT set to 5.05D-01
 ITU=  1  0
 Use linear search instead of GDIIS.
     Eigenvalues ---    0.00230   0.00230   0.02556   0.05687   0.05793
     Eigenvalues ---    0.05866   0.06182   0.06273   0.07075   0.09785
     Eigenvalues ---    0.15925   0.16000   0.16000   0.16000   0.16000
     Eigenvalues ---    0.16000   0.17272   0.17563   0.20715   0.23975
     Eigenvalues ---    0.24172   0.34235   0.34808   0.34812   0.34818
     Eigenvalues ---    0.34819   0.34920   0.35105   0.50873   0.55909
 RFO step:  Lambda=-2.62288115D-03 EMin= 2.29937255D-03
 Quartic linear search produced a step of  0.37710.
 Iteration  1 RMS(Cart)=  0.02827245 RMS(Int)=  0.00080128
 Iteration  2 RMS(Cart)=  0.00072616 RMS(Int)=  0.00043351
 Iteration  3 RMS(Cart)=  0.00000093 RMS(Int)=  0.00043351
 ITry= 1 IFail=0 DXMaxC= 9.04D-02 DCOld= 1.00D+10 DXMaxT= 5.05D-01 DXLimC= 3.00D+00 Rises=F
 Variable       Old X    -DE/DX   Delta X   Delta X   Delta X     New X
                                 (Linear)    (Quad)   (Total)
    R1        3.39837  -0.00295  -0.02162   0.01064  -0.01098   3.38739
    R2        2.06867  -0.00119   0.00331  -0.00837  -0.00507   2.06360
    R3        2.06611  -0.00001   0.00243  -0.00273  -0.00031   2.06581
    R4        2.06623   0.00023   0.00246  -0.00183   0.00063   2.06686
    R5        3.01764   0.00344  -0.00487   0.01427   0.00939   3.02703
    R6        3.41046  -0.00183  -0.01701   0.01116  -0.00584   3.40462
    R7        2.82130  -0.04660  -0.07885  -0.04655  -0.12540   2.69590
    R8        1.84899   0.00190   0.01314  -0.00834   0.00480   1.85379
    R9        2.07000  -0.00085   0.00382  -0.00762  -0.00380   2.06620
   R10        2.06690   0.00044   0.00271  -0.00131   0.00140   2.06830
   R11        2.06534   0.00022   0.00207  -0.00143   0.00064   2.06598
    A1        1.92019  -0.00010   0.00363  -0.00565  -0.00207   1.91813
    A2        1.84590   0.00127  -0.02443   0.05027   0.02538   1.87128
    A3        1.86340  -0.00143  -0.01781   0.01225  -0.00597   1.85743
    A4        1.94884   0.00020   0.01441  -0.01427   0.00005   1.94889
    A5        1.94051   0.00063   0.01128  -0.01621  -0.00493   1.93559
    A6        1.94064  -0.00062   0.01128  -0.02180  -0.01147   1.92917
    A7        1.81937  -0.00517  -0.03510   0.00382  -0.03169   1.78768
    A8        1.90491   0.00199  -0.00169   0.01316   0.00994   1.91486
    A9        1.94051   0.00164   0.01057   0.01023   0.02099   1.96150
   A10        1.88331  -0.00193  -0.01102  -0.01008  -0.02220   1.86111
   A11        1.96406   0.00321   0.02251  -0.00653   0.01653   1.98060
   A12        1.94633  -0.00009   0.01273  -0.00959   0.00281   1.94914
   A13        2.02665  -0.00242  -0.02555   0.01797  -0.00758   2.01907
   A14        1.92306   0.00024   0.00470  -0.00358   0.00116   1.92422
   A15        1.87106  -0.00008  -0.01491   0.02186   0.00665   1.87770
   A16        1.85776  -0.00061  -0.01994   0.02386   0.00362   1.86137
   A17        1.94089   0.00063   0.01140  -0.00927   0.00216   1.94304
   A18        1.93888   0.00043   0.01065  -0.01205  -0.00136   1.93752
   A19        1.92921  -0.00067   0.00699  -0.01818  -0.01191   1.91729
    D1        0.93845  -0.00202  -0.01415   0.01712   0.00327   0.94172
    D2       -1.07008   0.00191   0.01924   0.02094   0.04002  -1.03006
    D3        3.05888  -0.00045  -0.00229   0.01709   0.01459   3.07346
    D4        3.04563  -0.00109  -0.00932   0.02672   0.01748   3.06310
    D5        1.03710   0.00284   0.02407   0.03054   0.05422   1.09132
    D6       -1.11713   0.00048   0.00254   0.02669   0.02879  -1.08834
    D7       -1.16918  -0.00187  -0.01919   0.03249   0.01391  -1.15527
    D8        3.10548   0.00206   0.01421   0.03631   0.05065  -3.12706
    D9        0.95125  -0.00030  -0.00732   0.03246   0.02522   0.97647
   D10       -2.31363  -0.00126   0.00690  -0.06922  -0.06347  -2.37710
   D11       -0.28994  -0.00234  -0.02005  -0.05682  -0.07594  -0.36588
   D12        1.86482  -0.00170   0.00283  -0.08048  -0.07743   1.78739
   D13        0.92490  -0.00317  -0.02270   0.00047  -0.02224   0.90266
   D14        3.03930  -0.00232  -0.01515   0.00058  -0.01479   3.02451
   D15       -1.17898  -0.00345  -0.02629   0.00264  -0.02344  -1.20242
   D16       -1.04201   0.00288   0.02637  -0.00536   0.02098  -1.02103
   D17        1.07239   0.00373   0.03392  -0.00525   0.02843   1.10083
   D18        3.13729   0.00259   0.02278  -0.00319   0.01978  -3.12611
   D19        3.07568   0.00023  -0.00244   0.01617   0.01376   3.08944
   D20       -1.09310   0.00108   0.00511   0.01629   0.02121  -1.07189
   D21        0.97179  -0.00005  -0.00603   0.01834   0.01256   0.98436
         Item               Value     Threshold  Converged?
 Maximum Force            0.046600     0.000450     NO 
 RMS     Force            0.006793     0.000300     NO 
 Maximum Displacement     0.090382     0.001800     NO 
 RMS     Displacement     0.028203     0.001200     NO 
 Predicted change in Energy=-4.499633D-03
 Lowest energy point so far.  Saving SCF results.
 GradGradGradGradGradGradGradGradGradGradGradGradGradGradGradGradGradGrad

 Leave Link  103 at Mon Oct 14 01:31:28 2019, MaxMem= 10737418240 cpu:               0.5 elap:               0.0
 (Enter /apps/cent7/gaussian/g16-A.03/g16-haswell/g16/l202.exe)
                          Input orientation:                          
 ---------------------------------------------------------------------
 Center     Atomic      Atomic             Coordinates (Angstroms)
 Number     Number       Type             X           Y           Z
 ---------------------------------------------------------------------
      1          6           0       -0.783084    1.359181    0.472171
      2         16           0        0.070976    0.033363   -0.379861
      3          8           0       -0.592050   -1.274350    0.265250
      4          6           0        1.807389    0.021633    0.100407
      5          8           0       -0.083573    0.109343   -1.796038
      6          1           0       -0.696548    1.223376    1.552242
      7          1           0       -0.329240    2.298664    0.145927
      8          1           0       -1.828537    1.307668    0.154951
      9          1           0        1.898648    0.016505    1.189965
     10          1           0        2.266751   -0.867985   -0.341732
     11          1           0        2.256502    0.922418   -0.326351
     12          1           0        0.031255   -1.992962    0.504859
 ---------------------------------------------------------------------
                    Distance matrix (angstroms):
                    1          2          3          4          5
     1  C    0.000000
     2  S    1.792532   0.000000
     3  O    2.648545   1.601837   0.000000
     4  C    2.939012   1.801645   2.732041   0.000000
     5  O    2.682570   1.426609   2.534178   2.679540   0.000000
     6  H    1.092010   2.395464   2.811744   3.133961   3.581590
     7  H    1.093178   2.359707   3.584652   3.122839   2.936785
     8  H    1.093734   2.349048   2.864939   3.857048   2.878756
     9  H    3.083779   2.409362   2.953808   1.093385   3.585252
    10  H    3.863185   2.373880   2.950644   1.094495   2.931586
    11  H    3.172930   2.360044   3.645549   1.093270   2.880456
    12  H    3.449794   2.211402   0.980981   2.716031   3.118813
                    6          7          8          9         10
     6  H    0.000000
     7  H    1.808005   0.000000
     8  H    1.800257   1.797233   0.000000
     9  H    2.884931   3.355853   4.078022   0.000000
    10  H    4.091708   4.123669   4.663854   1.806632   0.000000
    11  H    3.512861   2.967012   4.131297   1.802207   1.790498
    12  H    3.459991   4.321671   3.804657   2.827452   2.641918
                   11         12
    11  H    0.000000
    12  H    3.760595   0.000000
 Stoichiometry    C2H7O2S(1+)
 Framework group  C1[X(C2H7O2S)]
 Deg. of freedom    30
 Full point group                 C1      NOp   1
 RotChk:  IX=3 Diff= 1.15D-01
 Largest Abelian subgroup         C1      NOp   1
 Largest concise Abelian subgroup C1      NOp   1
                         Standard orientation:                         
 ---------------------------------------------------------------------
 Center     Atomic      Atomic             Coordinates (Angstroms)
 Number     Number       Type             X           Y           Z
 ---------------------------------------------------------------------
      1          6           0        1.491873    0.777286   -0.430254
      2         16           0        0.009201   -0.053665    0.139284
      3          8           0        0.003853   -1.391496   -0.741661
      4          6           0       -1.443810    0.892226   -0.350588
      5          8           0        0.029403   -0.298547    1.544574
      6          1           0        1.465036    0.882243   -1.516877
      7          1           0        1.529718    1.749442    0.068262
      8          1           0        2.334769    0.153572   -0.119190
      9          1           0       -1.409149    1.111848   -1.421128
     10          1           0       -2.326772    0.298354   -0.094434
     11          1           0       -1.431698    1.812794    0.239029
     12          1           0       -0.863538   -1.646339   -1.122467
 ---------------------------------------------------------------------
 Rotational constants (GHZ):           4.3155233           3.9245275           3.8129095
 Leave Link  202 at Mon Oct 14 01:31:28 2019, MaxMem= 10737418240 cpu:               0.2 elap:               0.0
 (Enter /apps/cent7/gaussian/g16-A.03/g16-haswell/g16/l301.exe)
 Standard basis: 6-31G(d) (6D, 7F)
 Ernie: Thresh=  0.10000D-02 Tol=  0.10000D-05 Strict=F.
 There are    93 symmetry adapted cartesian basis functions of A   symmetry.
 There are    93 symmetry adapted basis functions of A   symmetry.
    93 basis functions,   192 primitive gaussians,    93 cartesian basis functions
    25 alpha electrons       25 beta electrons
       nuclear repulsion energy       280.4868394660 Hartrees.
 IExCor=  402 DFT=T Ex+Corr=B3LYP ExCW=0 ScaHFX=  0.200000
 ScaDFX=  0.800000  0.720000  1.000000  0.810000 ScalE2=  1.000000  1.000000
 IRadAn=      5 IRanWt=     -1 IRanGd=            0 ICorTp=0 IEmpDi=  4
 NAtoms=   12 NActive=   12 NUniq=   12 SFac= 1.00D+00 NAtFMM=   60 NAOKFM=F Big=F
 Integral buffers will be    131072 words long.
 Raffenetti 2 integral format.
 Two-electron integral symmetry is turned on.
 Leave Link  301 at Mon Oct 14 01:31:28 2019, MaxMem= 10737418240 cpu:               1.2 elap:               0.1
 (Enter /apps/cent7/gaussian/g16-A.03/g16-haswell/g16/l302.exe)
 NPDir=0 NMtPBC=     1 NCelOv=     1 NCel=       1 NClECP=     1 NCelD=      1
         NCelK=      1 NCelE2=     1 NClLst=     1 CellRange=     0.0.
 One-electron integrals computed using PRISM.
 One-electron integral symmetry used in STVInt
 NBasis=    93 RedAO= T EigKep=  4.02D-03  NBF=    93
 NBsUse=    93 1.00D-06 EigRej= -1.00D+00 NBFU=    93
 Precomputing XC quadrature grid using
 IXCGrd= 4 IRadAn=           5 IRanWt=          -1 IRanGd=           0 AccXCQ= 0.00D+00.
 Generated NRdTot=       0 NPtTot=           0 NUsed=           0 NTot=          32
 NSgBfM=    93    93    93    93    93 MxSgAt=    12 MxSgA2=    12.
 Leave Link  302 at Mon Oct 14 01:31:29 2019, MaxMem= 10737418240 cpu:               2.6 elap:               0.1
 (Enter /apps/cent7/gaussian/g16-A.03/g16-haswell/g16/l303.exe)
 DipDrv:  MaxL=1.
 Leave Link  303 at Mon Oct 14 01:31:29 2019, MaxMem= 10737418240 cpu:               0.6 elap:               0.0
 (Enter /apps/cent7/gaussian/g16-A.03/g16-haswell/g16/l401.exe)
 Initial guess from the checkpoint file:  "25_p.chk"
 B after Tr=    -0.000000    0.000000    0.000000
         Rot=    0.999192    0.038130    0.011510   -0.005355 Ang=   4.61 deg.
 Guess basis will be translated and rotated to current coordinates.
 JPrj=2 DoOrth=T DoCkMO=T.
 Generating alternative initial guess.
 ExpMin= 1.17D-01 ExpMax= 2.19D+04 ExpMxC= 3.30D+03 IAcc=2 IRadAn=         4 AccDes= 0.00D+00
 Harris functional with IExCor=  402 and IRadAn=       4 diagonalized for initial guess.
 HarFok:  IExCor=  402 AccDes= 0.00D+00 IRadAn=         4 IDoV= 1 UseB2=F ITyADJ=14
 ICtDFT=  3500011 ScaDFX=  1.000000  1.000000  1.000000  1.000000
 FoFCou: FMM=F IPFlag=           0 FMFlag=      100000 FMFlg1=           0
         NFxFlg=           0 DoJE=T BraDBF=F KetDBF=T FulRan=T
         wScrn=  0.000000 ICntrl=       500 IOpCl=  0 I1Cent=   200000004 NGrid=           0
         NMat0=    1 NMatS0=      1 NMatT0=    0 NMatD0=    1 NMtDS0=    0 NMtDT0=    0
 Petite list used in FoFCou.
 Harris En= -628.843341326447    
 Leave Link  401 at Mon Oct 14 01:31:29 2019, MaxMem= 10737418240 cpu:               5.4 elap:               0.3
 (Enter /apps/cent7/gaussian/g16-A.03/g16-haswell/g16/l502.exe)
 Keep R1 ints in memory in canonical form, NReq=31564606.
 FoFCou: FMM=F IPFlag=           0 FMFlag=           0 FMFlg1=           0
         NFxFlg=           0 DoJE=F BraDBF=F KetDBF=F FulRan=T
         wScrn=  0.000000 ICntrl=       600 IOpCl=  0 I1Cent=           0 NGrid=           0
         NMat0=    1 NMatS0=   4371 NMatT0=    0 NMatD0=    1 NMtDS0=    0 NMtDT0=    0
 Symmetry not used in FoFCou.
 Two-electron integral symmetry not used.
 Closed shell SCF:
 Using DIIS extrapolation, IDIIS=  1040.
 NGot= 10737418240 LenX= 10727842474 LenY= 10727833384
 Requested convergence on RMS density matrix=1.00D-08 within 128 cycles.
 Requested convergence on MAX density matrix=1.00D-06.
[...]
   D19       -3.06200   0.00000   0.00000   0.00007   0.00007  -3.06193
   D20       -0.96080   0.00000   0.00000   0.00008   0.00008  -0.96072
   D21        1.10046   0.00000   0.00000   0.00006   0.00006   1.10053
         Item               Value     Threshold  Converged?
 Maximum Force            0.000034     0.000450     YES
 RMS     Force            0.000006     0.000300     YES
 Maximum Displacement     0.000679     0.001800     YES
 RMS     Displacement     0.000175     0.001200     YES
 Predicted change in Energy=-6.569440D-09
 Optimization completed.
    -- Stationary point found.
                           ----------------------------
                           !   Optimized Parameters   !
                           ! (Angstroms and Degrees)  !
 --------------------------                            --------------------------
 ! Name  Definition              Value          Derivative Info.                !
 --------------------------------------------------------------------------------
 ! R1    R(1,2)                  1.7885         -DE/DX =    0.0                 !
 ! R2    R(1,6)                  1.0929         -DE/DX =    0.0                 !
 ! R3    R(1,7)                  1.0935         -DE/DX =    0.0                 !
 ! R4    R(1,8)                  1.0938         -DE/DX =    0.0                 !
 ! R5    R(2,3)                  1.6085         -DE/DX =    0.0                 !
 ! R6    R(2,4)                  1.7947         -DE/DX =    0.0                 !
 ! R7    R(2,5)                  1.4518         -DE/DX =    0.0                 !
 ! R8    R(3,12)                 0.9834         -DE/DX =    0.0                 !
 ! R9    R(4,9)                  1.0927         -DE/DX =    0.0                 !
 ! R10   R(4,10)                 1.0941         -DE/DX =    0.0                 !
 ! R11   R(4,11)                 1.094          -DE/DX =    0.0                 !
 ! A1    A(2,1,6)              109.2511         -DE/DX =    0.0                 !
 ! A2    A(2,1,7)              107.4286         -DE/DX =    0.0                 !
 ! A3    A(2,1,8)              106.2772         -DE/DX =    0.0                 !
 ! A4    A(6,1,7)              111.793          -DE/DX =    0.0                 !
 ! A5    A(6,1,8)              111.1348         -DE/DX =    0.0                 !
 ! A6    A(7,1,8)              110.7236         -DE/DX =    0.0                 !
 ! A7    A(1,2,3)               99.1224         -DE/DX =    0.0                 !
 ! A8    A(1,2,4)              108.8692         -DE/DX =    0.0                 !
 ! A9    A(1,2,5)              114.9775         -DE/DX =    0.0                 !
 ! A10   A(3,2,4)              104.6067         -DE/DX =    0.0                 !
 ! A11   A(3,2,5)              115.0999         -DE/DX =    0.0                 !
 ! A12   A(4,2,5)              112.8764         -DE/DX =    0.0                 !
 ! A13   A(2,3,12)             111.4253         -DE/DX =    0.0                 !
 ! A14   A(2,4,9)              109.1924         -DE/DX =    0.0                 !
 ! A15   A(2,4,10)             106.7914         -DE/DX =    0.0                 !
 ! A16   A(2,4,11)             107.5378         -DE/DX =    0.0                 !
 ! A17   A(9,4,10)             111.2492         -DE/DX =    0.0                 !
 ! A18   A(9,4,11)             111.8125         -DE/DX =    0.0                 !
 ! A19   A(10,4,11)            110.0562         -DE/DX =    0.0                 !
 ! D1    D(6,1,2,3)             52.0034         -DE/DX =    0.0                 !
 ! D2    D(6,1,2,4)            -56.95           -DE/DX =    0.0                 !
 ! D3    D(6,1,2,5)            175.2854         -DE/DX =    0.0                 !
 ! D4    D(7,1,2,3)            173.4565         -DE/DX =    0.0                 !
 ! D5    D(7,1,2,4)             64.5031         -DE/DX =    0.0                 !
 ! D6    D(7,1,2,5)            -63.2615         -DE/DX =    0.0                 !
 ! D7    D(8,1,2,3)            -67.9861         -DE/DX =    0.0                 !
 ! D8    D(8,1,2,4)           -176.9395         -DE/DX =    0.0                 !
 ! D9    D(8,1,2,5)             55.2959         -DE/DX =    0.0                 !
 ! D10   D(1,2,3,12)           154.0293         -DE/DX =    0.0                 !
 ! D11   D(4,2,3,12)           -93.6161         -DE/DX =    0.0                 !
 ! D12   D(5,2,3,12)            30.8345         -DE/DX =    0.0                 !
 ! D13   D(1,2,4,9)             55.6174         -DE/DX =    0.0                 !
 ! D14   D(1,2,4,10)           176.0074         -DE/DX =    0.0                 !
 ! D15   D(1,2,4,11)           -65.8908         -DE/DX =    0.0                 !
 ! D16   D(3,2,4,9)            -49.584          -DE/DX =    0.0                 !
 ! D17   D(3,2,4,10)            70.806          -DE/DX =    0.0                 !
 ! D18   D(3,2,4,11)          -171.0923         -DE/DX =    0.0                 !
 ! D19   D(5,2,4,9)           -175.4397         -DE/DX =    0.0                 !
 ! D20   D(5,2,4,10)           -55.0498         -DE/DX =    0.0                 !
 ! D21   D(5,2,4,11)            63.052          -DE/DX =    0.0                 !
 --------------------------------------------------------------------------------
 GradGradGradGradGradGradGradGradGradGradGradGradGradGradGradGradGradGrad

 Leave Link  103 at Mon Oct 14 01:32:01 2019, MaxMem= 10737418240 cpu:               1.6 elap:               0.1
 (Enter /apps/cent7/gaussian/g16-A.03/g16-haswell/g16/l9999.exe)

 ----------------------------------------------------------------------

 Electric dipole moment (input orientation):
 (Debye = 10**-18 statcoulomb cm , SI units = C m)
                  (au)            (Debye)         (10**-30 SI)
   Tot        0.116105D+01      0.295110D+01      0.984380D+01
   x          0.557651D+00      0.141741D+01      0.472796D+01
   y          0.201857D+00      0.513068D+00      0.171141D+01
   z          0.998157D+00      0.253706D+01      0.846273D+01

 Dipole polarizability, Alpha (input orientation).
 (esu units = cm**3 , SI units = C**2 m**2 J**-1)
 Alpha(0;0):
               (au)            (10**-24 esu)      (10**-40 SI)
   iso        0.431750D+02      0.639788D+01      0.711860D+01
   aniso      0.401460D+01      0.594902D+00      0.661918D+00
   xx         0.444237D+02      0.658291D+01      0.732448D+01
   yx        -0.120533D+01     -0.178612D+00     -0.198732D+00
   yy         0.431331D+02      0.639167D+01      0.711169D+01
   zx        -0.315399D+00     -0.467374D-01     -0.520023D-01
   zy         0.152032D+01      0.225288D+00      0.250666D+00
   zz         0.419682D+02      0.621905D+01      0.691962D+01

 ----------------------------------------------------------------------

 Dipole orientation:
     6         -1.79274539          2.40977888          0.52241377
    16          0.49296021          0.10082575         -0.40899039
     8         -1.14623383         -2.41590372          0.05857124
     6          2.94169771         -0.02580208          1.93407088
     8          1.46828445          0.39799288         -2.95599914
     1         -2.52057301          1.93070136          2.39486936
     1         -0.85296990          4.25011661          0.51239711
     1         -3.29243272          2.34654948         -0.89875379
     1          2.09629067         -0.40319489          3.77977201
     1          4.22668859         -1.54553669          1.37357012
     1          3.93170608          1.78870600          1.89917616
     1         -0.56805072         -3.81312335         -1.02183507

 Electric dipole moment (dipole orientation):
 (Debye = 10**-18 statcoulomb cm , SI units = C m)
                  (au)            (Debye)         (10**-30 SI)
   Tot        0.116105D+01      0.295110D+01      0.984380D+01
   x          0.000000D+00      0.000000D+00      0.000000D+00
   y          0.000000D+00      0.000000D+00      0.000000D+00
   z          0.116105D+01      0.295110D+01      0.984380D+01

 Dipole polarizability, Alpha (dipole orientation).
 (esu units = cm**3 , SI units = C**2 m**2 J**-1)
 Alpha(0;0):
               (au)            (10**-24 esu)      (10**-40 SI)
   iso        0.431750D+02      0.639788D+01      0.711860D+01
   aniso      0.401460D+01      0.594902D+00      0.661918D+00
   xx         0.442804D+02      0.656168D+01      0.730086D+01
   yx        -0.185436D+01     -0.274788D+00     -0.305743D+00
   yy         0.426820D+02      0.632483D+01      0.703732D+01
   zx         0.516017D+00      0.764659D-01      0.850798D-01
   zy         0.864517D+00      0.128108D+00      0.142540D+00
   zz         0.425626D+02      0.630712D+01      0.701762D+01

 ----------------------------------------------------------------------
 1\1\GINC-BROWN-A474\Freq\RB3LYP\6-31G(d)\C2H7O2S1(1+)\FINEJ\14-Oct-201
 9\0\\#P Geom=AllCheck Guess=TCheck SCRF=Check GenChk RB3LYP/6-31G(d) F
 req\\Title Card Required\\1,1\C,-0.7554809473,1.3451335918,0.471611523
 7\S,0.1221585671,0.0031468307,-0.3206322179\O,-0.4590295564,-1.2250383
 364,0.5402420829\C,1.855763533,0.0946075623,0.1345786323\O,-0.08016056
 39,-0.0996569634,-1.7545856373\H,-0.6055625247,1.2852988114,1.55251884
 07\H,-0.36613546,2.2799185644,0.0588853643\H,-1.8103450587,1.217102688
 7,0.2120555664\H,1.9419636247,0.0880397883,1.2238436658\H,2.3450538204
 ,-0.7786294112,-0.3071925572\H,2.2626843863,1.012463851,-0.2998564043\
 H,-0.4324215404,-2.0655344676,0.0303208005\\Version=ES64L-G16RevA.03\S
 tate=1-A\HF=-628.7219902\RMSD=3.572e-09\RMSF=9.099e-06\ZeroPoint=0.096
 0219\Thermal=0.0960219\Dipole=0.557651,0.2018566,0.9981573\DipoleDeriv
 =-0.2536616,0.0150943,0.0038062,-0.0680412,-0.0983197,0.0052658,-0.031
 5406,-0.0396359,-0.178879,1.6674106,0.1255487,-0.0060972,0.1072579,1.8
 048078,-0.0557075,-0.0330549,-0.0946357,1.736937,-0.6277661,-0.2141158
 ,0.0386027,-0.2397751,-1.0941614,0.2386794,0.0853555,0.2304108,-0.5212
 343,-0.1585396,0.0085883,-0.0062105,0.0731986,-0.2329913,-0.0164073,0.
 0090644,-0.0339026,-0.176249,-0.540432,-0.0025869,-0.068328,0.009764,-
 0.5086194,-0.0801236,-0.0586447,-0.0503522,-0.7842992,0.1045024,0.0481
 354,-0.0123623,0.0434482,0.0692549,-0.0026045,-0.02499,0.017858,0.1043
 073,0.092482,-0.0014858,0.0446476,-0.0117798,0.1265145,0.0030799,0.046
 6554,-0.0179459,0.0968862,0.1377929,-0.0210395,-0.0146193,0.0329672,0.
 0831481,-0.0383472,0.0238467,-0.0496824,0.1155489,0.0422375,-0.0106031
 ,0.0135676,-0.011864,0.1315966,-0.0064359,0.0362252,-0.0027802,0.08442
 68,0.0811372,0.0037577,-0.0139656,-0.0427616,0.1078983,-0.0293683,-0.0
 484401,-0.0191211,0.1212951,0.0922772,0.0049631,-0.0227777,0.0307273,0
 .0966073,0.0292691,-0.0490063,0.0183376,0.1140165,0.3625594,0.0437436,
 0.0437366,0.0768585,0.5142643,-0.0473001,0.0445293,0.0414498,0.2872436
 \Polar=44.4236963,-1.2053312,43.1331355,-0.3153994,1.5203159,41.968209
 7\Quadrupole=1.9369555,4.2169487,-6.1539042,-0.7727598,-0.1704576,1.67
 60318\PG=C01 [X(C2H7O2S1)]\NImag=0\\0.53038471,0.09564573,0.46194274,0
 .05297817,-0.08029547,0.56179535,-0.09712627,0.02088068,0.00966794,0.4
 6674734,0.03532428,-0.10539201,-0.02637615,0.01915663,0.51517994,0.013
 72941,-0.02062418,-0.09168468,0.04292648,0.01909537,0.90593142,0.00621
 601,0.00623218,-0.00128496,-0.08554164,-0.04888782,0.04486070,0.073496
 83,-0.01771316,-0.02375752,0.01507443,-0.05801861,-0.19287761,0.075250
 58,0.06455553,0.54526736,-0.00237872,-0.01305061,0.01131576,0.03299113
 ,0.03687184,-0.13290272,-0.06485815,0.12379664,0.27498871,-0.00294851,
 -0.00171075,-0.00402525,-0.13707224,-0.00132602,-0.01595537,-0.0002641
 8,-0.00013336,-0.00461198,0.36019797,0.02008364,0.01052035,0.00701204,
 0.00845098,-0.07675143,-0.00576490,-0.02568827,-0.00580828,0.00059830,
 -0.01048071,0.58920541,0.01201493,0.00082364,0.01167239,-0.01465770,-0
 .00705297,-0.08152708,0.01187191,0.00847140,0.00630970,-0.05462115,-0.
 00422270,0.59482791,0.01234075,0.00074577,0.01329050,-0.09459900,-0.00
 389120,-0.08070216,0.01302719,-0.00206323,0.01374944,0.00806150,-0.003
 75595,-0.02907701,0.06391026,-0.00602953,0.00854735,-0.02065790,-0.003
 81304,-0.08553819,-0.04539644,0.00058950,0.01101697,0.02853491,-0.0008
 0509,0.00984440,-0.00186355,0.00684495,0.04999307,-0.00839767,0.006906
 92,-0.00884840,-0.07555086,-0.04004617,-0.61159082,-0.00411787,-0.0021
 1380,-0.00570807,0.00700602,-0.00058622,-0.00746506,0.08376168,0.04209
 902,0.63622605,-0.05222463,0.00204708,-0.04154187,0.00097523,-0.001833
 65,0.01803054,-0.00021883,-0.00063884,-0.00120273,0.00017209,-0.000591
 65,-0.00164120,-0.00100956,0.00385424,0.00271294,0.05178950,0.00225341
 ,-0.04723251,0.01977911,-0.00489467,0.00061741,-0.02693625,0.00008863,
 -0.00049536,0.00268878,-0.00046564,0.00028739,0.00196315,0.00359418,-0
 .00445913,-0.00414946,-0.00477929,0.04796071,-0.04104986,0.01772243,-0
 .32650974,-0.00026303,-0.00150824,-0.01253572,0.00005620,0.00137992,0.
 00133581,-0.00044055,0.00032274,0.00060621,0.00075524,-0.00053655,0.00
 065522,0.04250337,-0.01731101,0.34530918,-0.08436682,-0.08914248,0.039
 73355,0.00520908,0.01437700,-0.00798939,-0.00046027,0.00580290,0.00259
 424,-0.00006359,-0.00140851,0.00027775,-0.00053888,-0.00109094,-0.0001
 7550,0.00109800,0.00454434,-0.00188492,0.08607876,-0.08776758,-0.25217
 309,0.09202915,-0.00710399,-0.02115480,0.00826561,0.00096931,-0.003593
 09,-0.00232026,-0.00006699,0.00116734,-0.00033278,0.00059745,0.0024545
 3,-0.00081534,0.00048584,0.00296596,-0.00052748,0.09195339,0.26977550,
 0.03989650,0.09362977,-0.08946213,-0.00696155,-0.01239578,0.00483618,0
 .00112784,-0.00476158,-0.00130455,-0.00007149,0.00077418,-0.00045206,0
 .00059150,0.00119952,-0.00063272,0.01082775,0.02683559,-0.00659433,-0.
 04348168,-0.09743684,0.08958630,-0.31057354,-0.03463878,-0.06655914,-0
 .01769615,0.00173305,-0.00216249,0.00125934,-0.00106912,0.00002681,0.0
 0042598,0.00170717,0.00118334,0.00233693,-0.00067895,0.00026126,0.0004
 1742,-0.00070187,0.00018186,-0.00625528,-0.00022626,-0.00231395,0.3299
 4882,-0.03684947,-0.04978690,-0.00850882,0.03081983,-0.00022431,0.0065
 1359,-0.00136570,0.00112101,-0.00009227,0.00091370,-0.00540726,-0.0034
 2292,-0.00333035,0.00064003,0.00067938,0.00097425,-0.00006287,0.000874
 10,-0.02632764,0.00065542,-0.00722960,0.03396781,0.05222184,-0.0678139
 6,-0.00814792,-0.06340270,0.01792303,0.00101282,0.00340253,-0.00047189
 ,0.00121323,-0.00064959,0.00050252,-0.00341322,-0.00193782,-0.00223093
 ,0.00056098,-0.00022884,-0.03006038,-0.00274459,-0.00304795,0.01178205
 ,0.00037822,0.00263524,0.06954756,0.01100352,0.06248731,0.00133796,-0.
 00038312,0.00244279,-0.00333017,-0.00059209,-0.03368670,0.00065310,0.0
 0071007,0.00283555,-0.04660891,0.00021326,-0.01757155,-0.00755457,-0.0
 0041241,-0.00381099,-0.00117265,0.00099209,0.00028562,0.00003844,-0.00
 009681,-0.00004868,0.00012985,-0.00045150,0.00004269,0.05038983,-0.000
 15389,-0.00022150,-0.00013492,-0.00002929,-0.00232610,-0.00212399,0.00
 008912,-0.00089509,0.00071162,0.00033450,-0.04740582,0.00272178,-0.000
 76134,0.00154311,-0.00030093,0.00052279,0.00005325,-0.00004716,0.00013
 490,-0.00002931,0.00015272,-0.00001609,-0.00005173,-0.00011810,-0.0001
 0727,0.04463359,0.00035036,-0.00016771,0.00000298,-0.00252755,-0.00009
 721,-0.00547640,0.00079814,0.00054851,0.00098906,-0.01950947,0.0015407
 4,-0.33306695,0.00056065,0.00035612,0.00155299,0.00018800,-0.00006314,
 0.00059795,0.00001998,0.00000699,-0.00005841,-0.00007519,-0.00005620,0
 .00009228,0.02208581,-0.00182334,0.35095829,-0.00545274,-0.00277597,-0
 .00335627,-0.02135460,0.02886640,0.01418761,0.00302243,-0.00186221,-0.
 00102773,-0.09863051,0.09964447,0.05035325,0.00345014,-0.00301647,-0.0
 0044802,0.00023386,-0.00036488,-0.00007589,0.00008928,-0.00002968,-0.0
 0019367,-0.00039294,0.00187365,0.00109298,0.00320402,-0.00452240,-0.00
 112412,0.10863979,-0.00207849,-0.00023847,-0.00089086,-0.00186041,0.00
 396804,0.00248813,0.00075643,-0.00033339,0.00006645,0.10058676,-0.2294
 0317,-0.09266161,0.00003970,-0.00015925,0.00087865,0.00007920,-0.00016
 815,-0.00014208,-0.00014988,0.00008910,-0.00003357,-0.00023938,0.00078
 265,0.00023503,-0.00210951,0.00211166,0.00156749,-0.10714136,0.2402909
 7,-0.00229566,-0.00101632,-0.00097798,-0.00468812,0.00913385,0.0038515
 5,0.00037389,0.00056259,-0.00087046,0.05104302,-0.09340829,-0.09380938
 ,0.00089331,-0.00082193,-0.00041172,-0.00015179,0.00002098,0.00011848,
 0.00015262,-0.00025725,-0.00009809,-0.00026255,0.00059348,0.00075776,0
 .01498494,-0.02428045,-0.00812014,-0.05346912,0.09937929,0.09392553,0.
 00153736,0.00133006,-0.00052668,-0.01349586,-0.02691063,0.01197553,-0.
 00594330,-0.00314540,-0.00027752,-0.08266190,-0.08631337,0.04045054,0.
 00146548,0.00293029,-0.00082821,-0.00000659,-0.00012796,-0.00003384,-0
 .00090592,0.00077309,0.00029221,0.00013112,-0.00006631,-0.00037137,0.0
 0261272,0.00466804,-0.00084967,0.00826805,0.01255447,-0.00691323,0.090
 09494,-0.00028092,-0.00038176,0.00002075,-0.00152907,0.00004735,-0.001
 03529,0.00171565,0.00240342,-0.00007823,-0.08702501,-0.24814036,0.0956
 5966,0.00047261,0.00039378,-0.00048532,0.00008326,0.00001859,0.0000230
 2,0.00056760,0.00015171,-0.00015413,-0.00009434,0.00000761,-0.00001584
 ,0.00207480,0.00242946,-0.00155076,-0.01021760,-0.01728337,0.01015946,
 0.09363276,0.26048222,0.00030078,0.00020676,-0.00036470,-0.00191379,-0
 .00888540,0.00187338,-0.00290041,-0.00081965,0.00115034,0.04091161,0.0
 9622425,-0.09325998,-0.00002861,0.00099193,-0.00059662,0.00012165,0.00
 010019,-0.00006544,0.00002273,-0.00005244,0.00033173,0.00005870,-0.000
 17475,-0.00007011,0.01272519,0.02547438,-0.00748826,-0.00610647,-0.010
 86434,0.00530525,-0.04330153,-0.10247219,0.09305152,0.00087572,0.00176
 958,-0.00081877,-0.00271572,-0.01601595,-0.00521418,-0.00524670,0.0135
 7543,0.02215967,-0.00060770,-0.00186107,0.00141690,-0.00089023,0.00162
 745,-0.00041279,-0.00005384,-0.00013833,-0.00003419,0.00007721,0.00051
 225,0.00033523,0.00026846,-0.00015827,0.00005770,0.00030039,-0.0001590
 8,0.00008307,-0.00107678,-0.00043753,0.00033267,-0.00109610,0.00060029
 ,0.00011015,0.01016528,-0.00243403,-0.00182668,0.00294863,-0.00205904,
 -0.03554828,-0.00973224,0.00094543,-0.33204842,-0.17772717,0.00017862,
 0.00189143,-0.00008310,0.00150741,0.00572333,-0.00206673,-0.00020323,0
 .00051470,-0.00024970,0.00073932,-0.00030927,-0.00058030,0.00025676,0.
 00010450,0.00003589,0.00016250,0.00015847,-0.00026150,-0.00045396,0.00
 034338,-0.00006543,0.00067497,-0.00012865,0.00027126,0.00068523,0.3611
 2548,0.00266571,0.00401267,-0.00353614,0.00305403,0.03024805,0.0158223
 6,0.01454459,-0.21860228,-0.15465400,-0.00022792,0.00092308,-0.0018978
 7,-0.00156360,-0.00446612,-0.00295201,0.00021373,-0.00018334,0.0001303
 2,-0.00105142,0.00106241,0.00121285,0.00011380,-0.00017953,-0.00003813
 ,-0.00028467,-0.00023162,0.00001662,0.00016744,-0.00002258,0.00032920,
 0.00038376,-0.00007113,0.00013290,-0.01801546,0.18751040,0.14543389\\0
 .00001296,-0.00000991,0.00000566,-0.00000977,-0.00002119,0.00001686,0.
 00001390,0.00002280,-0.00002705,-0.00001326,0.00000221,-0.00000529,-0.
 00000016,0.00000113,-0.00000024,-0.00000256,0.00000049,-0.00000165,-0.
 00000424,0.00000243,0.00000051,-0.00000170,0.00000351,-0.00000181,-0.0
 0000038,-0.00000339,0.00000155,0.00000631,0.00000072,0.00000336,-0.000
 00002,-0.00000173,-0.00000019,-0.00000108,0.00000292,0.00000829\\\@


 IF NO USE IS MADE OF THE LABOR OF PAST AGES,
 THE WORLD MUST REMAIN ALWAYS IN THE INFANCY OF KNOWLEDGE.

                          -- CICERO
 Job cpu time:       0 days  0 hours  2 minutes 56.9 seconds.
 Elapsed time:       0 days  0 hours  0 minutes  7.9 seconds.
 File lengths (MBytes):  RWF=     18 Int=      0 D2E=      0 Chk=      2 Scr=      1
 Normal termination of Gaussian 16 at Mon Oct 14 01:32:01 2019.
real 38.22
user 732.14
sys 14.89
Machine:
brown-a474
brown-a474
brown-a474
brown-a474
brown-a474
brown-a474
brown-a474
brown-a474
brown-a474
brown-a474
brown-a474
brown-a474
brown-a474
brown-a474
brown-a474
brown-a474
brown-a474
brown-a474
brown-a474
brown-a474
brown-a474
brown-a474
brown-a474
brown-a474
