Title Card Required                                                     
Freq      RB3LYP                                                      6-31G(d)            
Number of atoms                            I               12
Info1-9                                    I   N=           9
          34          34        1002           0           0         100
           6          18        -502
Full Title                                 C   N=           2
Title Card Required     
Route                                      C   N=           6
#P opt freq b3lyp/6-31g(d) geom=connectivity temperature=0.0
01          
Charge                                     I                1
Multiplicity                               I                1
Number of electrons                        I               50
Number of alpha electrons                  I               25
Number of beta electrons                   I               25
Number of basis functions                  I               93
Number of independent functions            I               93
Number of point charges in /Mol/           I                0
Number of translation vectors              I                0
Atomic numbers                             I   N=          12
           6          16           8           6           8           1
           1           1           1           1           1           1
Nuclear charges                            R   N=          12
  6.00000000E+00  1.60000000E+01  8.00000000E+00  6.00000000E+00  8.00000000E+00
  1.00000000E+00  1.00000000E+00  1.00000000E+00  1.00000000E+00  1.00000000E+00
  1.00000000E+00  1.00000000E+00
Current cartesian coordinates              R   N=          36
  2.75285152E+00  1.74902023E+00 -8.92729195E-02 -1.84953956E-02 -1.57124016E-01
  2.41602794E-01  3.16081325E-01 -1.92352262E+00 -2.20939548E+00 -2.74418588E+00
  1.74278395E+00 -4.39019880E-01 -2.22889776E-01 -1.50035059E+00  2.62504244E+00
  2.80682152E+00  2.54744440E+00 -1.99320158E+00  2.66767043E+00  3.22152535E+00
  1.35799834E+00  4.36201453E+00  4.93617919E-01  2.38349896E-01 -2.53872289E+00
  2.57657053E+00 -2.31687397E+00 -4.38443169E+00  4.87000722E-01 -3.52082716E-01
 -2.87921169E+00  3.18832259E+00  1.03270015E+00 -5.35740113E-01 -3.56033661E+00
 -1.98795374E+00
Number of symbols in /Mol/                 I                0
Force Field                                I                0
Atom Types                                 C   N=          12
                                                            
                                                            
                        
Int Atom Types                             I   N=          12
           0           0           0           0           0           0
           0           0           0           0           0           0
MM charges                                 R   N=          12
  0.00000000E+00  0.00000000E+00  0.00000000E+00  0.00000000E+00  0.00000000E+00
  0.00000000E+00  0.00000000E+00  0.00000000E+00  0.00000000E+00  0.00000000E+00
  0.00000000E+00  0.00000000E+00
Integer atomic weights                     I   N=          12
          12          32          16          12          16           1
           1           1           1           1           1           1
Real atomic weights                        R   N=          12
  1.20000000E+01  3.19720718E+01  1.59949146E+01  1.20000000E+01  1.59949146E+01
  1.00782504E+00  1.00782504E+00  1.00782504E+00  1.00782504E+00  1.00782504E+00
  1.00782504E+00  1.00782504E+00
Atom fragment info                         I   N=          12
           0           0           0           0           0           0
           0           0           0           0           0           0
Atom residue num                           I   N=          12
           0           0           0           0           0           0
           0           0           0           0           0           0
Nuclear spins                              I   N=          12
           0           0           0           0           0           1
           1           1           1           1           1           1
Nuclear ZEff                               R   N=          12
 -3.60000000E+00 -1.36000000E+01 -5.60000000E+00 -3.60000000E+00 -5.60000000E+00
 -1.00000000E+00 -1.00000000E+00 -1.00000000E+00 -1.00000000E+00 -1.00000000E+00
 -1.00000000E+00 -1.00000000E+00
Nuclear ZNuc                               R   N=          12
  6.00000000E+00  1.60000000E+01  8.00000000E+00  6.00000000E+00  8.00000000E+00
  1.00000000E+00  1.00000000E+00  1.00000000E+00  1.00000000E+00  1.00000000E+00
  1.00000000E+00  1.00000000E+00
Nuclear QMom                               R   N=          12
  0.00000000E+00  0.00000000E+00  0.00000000E+00  0.00000000E+00  0.00000000E+00
  0.00000000E+00  0.00000000E+00  0.00000000E+00  0.00000000E+00  0.00000000E+00
  0.00000000E+00  0.00000000E+00
Nuclear GFac                               R   N=          12
  0.00000000E+00  0.00000000E+00  0.00000000E+00  0.00000000E+00  0.00000000E+00
  2.79284600E+00  2.79284600E+00  2.79284600E+00  2.79284600E+00  2.79284600E+00
  2.79284600E+00  2.79284600E+00
MicOpt                                     I   N=          12
          -1          -1          -1          -1          -1          -1
          -1          -1          -1          -1          -1          -1
Number of residues                         I                0
Number of secondary structures             I                0
Redundant internal dimensions              I   N=           4
          51          11          19          21
Redundant internal coordinate indices      I   N=         204
           1           2           0           0           1           6
           0           0           1           7           0           0
           1           8           0           0           2           3
           0           0           2           4           0           0
           2           5           0           0           3          12
           0           0           4           9           0           0
           4          10           0           0           4          11
           0           0           2           1           6           0
           2           1           7           0           2           1
           8           0           6           1           7           0
           6           1           8           0           7           1
           8           0           1           2           3           0
           1           2           4           0           1           2
           5           0           3           2           4           0
           3           2           5           0           4           2
           5           0           2           3          12           0
           2           4           9           0           2           4
          10           0           2           4          11           0
           9           4          10           0           9           4
          11           0          10           4          11           0
           6           1           2           3           6           1
           2           4           6           1           2           5
           7           1           2           3           7           1
           2           4           7           1           2           5
           8           1           2           3           8           1
           2           4           8           1           2           5
           1           2           3          12           4           2
           3          12           5           2           3          12
           1           2           4           9           1           2
           4          10           1           2           4          11
           3           2           4           9           3           2
           4          10           3           2           4          11
           5           2           4           9           5           2
           4          10           5           2           4          11
Redundant internal coordinates             R   N=          51
  3.37982667E+00  2.06526954E+00  2.06642717E+00  2.06706973E+00  3.03965428E+00
  3.39150204E+00  2.74350492E+00  1.85843919E+00  2.06488524E+00  2.06759665E+00
  2.06731076E+00  1.90679055E+00  1.87498233E+00  1.85488778E+00  1.95115632E+00
  1.93966870E+00  1.93249189E+00  1.73001255E+00  1.90012593E+00  2.00673549E+00
  1.82573077E+00  2.00887258E+00  1.97006497E+00  1.94473782E+00  1.90576734E+00
  1.86386161E+00  1.87688819E+00  1.94166511E+00  1.95149701E+00  1.92084369E+00
  9.07629794E-01 -9.93965563E-01  3.05930699E+00  3.02738713E+00  1.12579177E+00
 -1.10412099E+00 -1.18658148E+00 -3.08817684E+00  9.65095708E-01  2.68831787E+00
 -1.63390886E+00  5.38164014E-01  9.70707340E-01  3.07190838E+00 -1.15001223E+00
 -8.65403796E-01  1.23579724E+00 -2.98612336E+00 -3.06200092E+00 -9.60799886E-01
  1.10046482E+00
ZRed-IntVec                                I   N=          51
           0           0           0           0           0           0
           0           0           0           0           0           0
           0           0           0           0           0           0
           0           0           0           0           0           0
           0           0           0           0           0           0
           0           0           0           0           0           0
           0           0           0           0           0           0
           0           0           0           0           0           0
           0           0           0
ZRed-FPVec                                 R   N=          51
  0.00000000E+00  0.00000000E+00  0.00000000E+00  0.00000000E+00  0.00000000E+00
  0.00000000E+00  0.00000000E+00  0.00000000E+00  0.00000000E+00  0.00000000E+00
  0.00000000E+00  0.00000000E+00  0.00000000E+00  0.00000000E+00  0.00000000E+00
  0.00000000E+00  0.00000000E+00  0.00000000E+00  0.00000000E+00  0.00000000E+00
  0.00000000E+00  0.00000000E+00  0.00000000E+00  0.00000000E+00  0.00000000E+00
  0.00000000E+00  0.00000000E+00  0.00000000E+00  0.00000000E+00  0.00000000E+00
  0.00000000E+00  0.00000000E+00  0.00000000E+00  0.00000000E+00  0.00000000E+00
  0.00000000E+00  0.00000000E+00  0.00000000E+00  0.00000000E+00  0.00000000E+00
  0.00000000E+00  0.00000000E+00  0.00000000E+00  0.00000000E+00  0.00000000E+00
  0.00000000E+00  0.00000000E+00  0.00000000E+00  0.00000000E+00  0.00000000E+00
  0.00000000E+00
ZRed-Constraint1                           R   N=          51
  3.37982667E+00  2.06526954E+00  2.06642717E+00  2.06706973E+00  3.03965428E+00
  3.39150204E+00  2.74350492E+00  1.85843919E+00  2.06488524E+00  2.06759665E+00
  2.06731076E+00  1.90679055E+00  1.87498233E+00  1.85488778E+00  1.95115632E+00
  1.93966870E+00  1.93249189E+00  1.73001255E+00  1.90012593E+00  2.00673549E+00
  1.82573077E+00  2.00887258E+00  1.97006497E+00  1.94473782E+00  1.90576734E+00
  1.86386161E+00  1.87688819E+00  1.94166511E+00  1.95149701E+00  1.92084369E+00
  9.07629794E-01 -9.93965563E-01  3.05930699E+00  3.02738713E+00  1.12579177E+00
 -1.10412099E+00 -1.18658148E+00 -3.08817684E+00  9.65095708E-01  2.68831787E+00
 -1.63390886E+00  5.38164014E-01  9.70707340E-01  3.07190838E+00 -1.15001223E+00
 -8.65403796E-01  1.23579724E+00 -2.98612336E+00 -3.06200092E+00 -9.60799886E-01
  1.10046482E+00
ZRed-Constraint2                           R   N=          51
  3.45569175E+00  2.05989373E+00  2.05968179E+00  2.05971935E+00  3.03056677E+00
  3.45555917E+00  3.03038205E+00  1.81413708E+00  2.05986254E+00  2.05972237E+00
  2.05984200E+00  1.91056299E+00  1.91068099E+00  1.91062077E+00  1.91062298E+00
  1.91058705E+00  1.91072463E+00  1.91245215E+00  1.90938274E+00  1.91247312E+00
  1.91254569E+00  1.90437785E+00  1.91256868E+00  2.09439511E+00  1.91058404E+00
  1.91060672E+00  1.91064175E+00  1.91065918E+00  1.91062916E+00  1.91067858E+00
  9.75981299E-01 -1.12110459E+00  3.06495376E+00  3.07035007E+00  9.73264175E-01
 -1.12386278E+00 -1.11830659E+00  3.06779282E+00  9.70665869E-01 -2.33192845E+00
 -2.36773797E-01  1.85732822E+00  9.85088301E-01  3.07946881E+00 -1.10927690E+00
 -1.11194032E+00  9.82440187E-01  3.07687979E+00  3.08215675E+00 -1.10664805E+00
  9.87791553E-01
SymInf integers                            I   N=          26
           1           1           1           1           1           0
           0           0           0           0           0           0
           0           0           0           0           0           0
           0           0           0           0           0           0
           0           0
RotTr to input orientation                 R   N=          12
 -8.98775575E-01  4.02672845E-01  1.73369680E-01  4.38305453E-01  8.16723341E-01
  3.75301630E-01  9.52871118E-03  4.13300815E-01 -9.10544694E-01  2.80789176E-01
  4.18664615E-02 -3.23741496E-01
Number of contracted shells                I               35
Number of primitive shells                 I               89
Pure/Cartesian d shells                    I                1
Pure/Cartesian f shells                    I                0
Highest angular momentum                   I                2
Largest degree of contraction              I                6
Shell types                                I   N=          35
           0          -1          -1           2           0          -1
          -1          -1           2           0          -1          -1
           2           0          -1          -1           2           0
          -1          -1           2           0           0           0
           0           0           0           0           0           0
           0           0           0           0           0
Number of primitives per shell             I   N=          35
           6           3           1           1           6           6
           3           1           1           6           3           1
           1           6           3           1           1           6
           3           1           1           3           1           3
           1           3           1           3           1           3
           1           3           1           3           1
Shell to atom map                          I   N=          35
           1           1           1           1           2           2
           2           2           2           3           3           3
           3           4           4           4           4           5
           5           5           5           6           6           7
           7           8           8           9           9          10
          10          11          11          12          12
Primitive exponents                        R   N=          89
  3.04752488E+03  4.57369518E+02  1.03948685E+02  2.92101553E+01  9.28666296E+00
  3.16392696E+00  7.86827235E+00  1.88128854E+00  5.44249258E-01  1.68714478E-01
  8.00000000E-01  2.19171000E+04  3.30149000E+03  7.54146000E+02  2.12711000E+02
  6.79896000E+01  2.30515000E+01  4.23735000E+02  1.00710000E+02  3.21599000E+01
  1.18079000E+01  4.63110000E+00  1.87025000E+00  2.61584000E+00  9.22167000E-01
  3.41287000E-01  1.17167000E-01  6.50000000E-01  5.48467166E+03  8.25234946E+02
  1.88046958E+02  5.29645000E+01  1.68975704E+01  5.79963534E+00  1.55396162E+01
  3.59993359E+00  1.01376175E+00  2.70005823E-01  8.00000000E-01  3.04752488E+03
  4.57369518E+02  1.03948685E+02  2.92101553E+01  9.28666296E+00  3.16392696E+00
  7.86827235E+00  1.88128854E+00  5.44249258E-01  1.68714478E-01  8.00000000E-01
  5.48467166E+03  8.25234946E+02  1.88046958E+02  5.29645000E+01  1.68975704E+01
  5.79963534E+00  1.55396162E+01  3.59993359E+00  1.01376175E+00  2.70005823E-01
  8.00000000E-01  1.87311370E+01  2.82539436E+00  6.40121692E-01  1.61277759E-01
  1.87311370E+01  2.82539436E+00  6.40121692E-01  1.61277759E-01  1.87311370E+01
  2.82539436E+00  6.40121692E-01  1.61277759E-01  1.87311370E+01  2.82539436E+00
  6.40121692E-01  1.61277759E-01  1.87311370E+01  2.82539436E+00  6.40121692E-01
  1.61277759E-01  1.87311370E+01  2.82539436E+00  6.40121692E-01  1.61277759E-01
  1.87311370E+01  2.82539436E+00  6.40121692E-01  1.61277759E-01
Contraction coefficients                   R   N=          89
  1.83473713E-03  1.40373228E-02  6.88426223E-02  2.32184443E-01  4.67941348E-01
  3.62311985E-01 -1.19332420E-01 -1.60854152E-01  1.14345644E+00  1.00000000E+00
  1.00000000E+00  1.86924085E-03  1.42303065E-02  6.96962317E-02  2.38487108E-01
  4.83307220E-01  3.38074154E-01 -2.37677050E-03 -3.16930067E-02 -1.13317024E-01
  5.60900118E-02  5.92255124E-01  4.55006095E-01 -2.50373114E-01  6.69567631E-02
  1.05450627E+00  1.00000000E+00  1.00000000E+00  1.83107443E-03  1.39501722E-02
  6.84450781E-02  2.32714336E-01  4.70192898E-01  3.58520853E-01 -1.10777550E-01
 -1.48026263E-01  1.13076702E+00  1.00000000E+00  1.00000000E+00  1.83473713E-03
  1.40373228E-02  6.88426223E-02  2.32184443E-01  4.67941348E-01  3.62311985E-01
 -1.19332420E-01 -1.60854152E-01  1.14345644E+00  1.00000000E+00  1.00000000E+00
  1.83107443E-03  1.39501722E-02  6.84450781E-02  2.32714336E-01  4.70192898E-01
  3.58520853E-01 -1.10777550E-01 -1.48026263E-01  1.13076702E+00  1.00000000E+00
  1.00000000E+00  3.34946043E-02  2.34726953E-01  8.13757326E-01  1.00000000E+00
  3.34946043E-02  2.34726953E-01  8.13757326E-01  1.00000000E+00  3.34946043E-02
  2.34726953E-01  8.13757326E-01  1.00000000E+00  3.34946043E-02  2.34726953E-01
  8.13757326E-01  1.00000000E+00  3.34946043E-02  2.34726953E-01  8.13757326E-01
  1.00000000E+00  3.34946043E-02  2.34726953E-01  8.13757326E-01  1.00000000E+00
  3.34946043E-02  2.34726953E-01  8.13757326E-01  1.00000000E+00
P(S=P) Contraction coefficients            R   N=          89
  0.00000000E+00  0.00000000E+00  0.00000000E+00  0.00000000E+00  0.00000000E+00
  0.00000000E+00  6.89990666E-02  3.16423961E-01  7.44308291E-01  1.00000000E+00
  0.00000000E+00  0.00000000E+00  0.00000000E+00  0.00000000E+00  0.00000000E+00
  0.00000000E+00  0.00000000E+00  4.06100998E-03  3.06812999E-02  1.30451999E-01
  3.27204999E-01  4.52850998E-01  2.56041999E-01 -1.45104895E-02  3.10262776E-01
  7.54482456E-01  1.00000000E+00  0.00000000E+00  0.00000000E+00  0.00000000E+00
  0.00000000E+00  0.00000000E+00  0.00000000E+00  0.00000000E+00  7.08742682E-02
  3.39752839E-01  7.27158577E-01  1.00000000E+00  0.00000000E+00  0.00000000E+00
  0.00000000E+00  0.00000000E+00  0.00000000E+00  0.00000000E+00  0.00000000E+00
  6.89990666E-02  3.16423961E-01  7.44308291E-01  1.00000000E+00  0.00000000E+00
  0.00000000E+00  0.00000000E+00  0.00000000E+00  0.00000000E+00  0.00000000E+00
  0.00000000E+00  7.08742682E-02  3.39752839E-01  7.27158577E-01  1.00000000E+00
  0.00000000E+00  0.00000000E+00  0.00000000E+00  0.00000000E+00  0.00000000E+00
  0.00000000E+00  0.00000000E+00  0.00000000E+00  0.00000000E+00  0.00000000E+00
  0.00000000E+00  0.00000000E+00  0.00000000E+00  0.00000000E+00  0.00000000E+00
  0.00000000E+00  0.00000000E+00  0.00000000E+00  0.00000000E+00  0.00000000E+00
  0.00000000E+00  0.00000000E+00  0.00000000E+00  0.00000000E+00  0.00000000E+00
  0.00000000E+00  0.00000000E+00  0.00000000E+00  0.00000000E+00
Coordinates of each shell                  R   N=         105
  2.75285152E+00  1.74902023E+00 -8.92729195E-02  2.75285152E+00  1.74902023E+00
 -8.92729195E-02  2.75285152E+00  1.74902023E+00 -8.92729195E-02  2.75285152E+00
  1.74902023E+00 -8.92729195E-02 -1.84953956E-02 -1.57124016E-01  2.41602794E-01
 -1.84953956E-02 -1.57124016E-01  2.41602794E-01 -1.84953956E-02 -1.57124016E-01
  2.41602794E-01 -1.84953956E-02 -1.57124016E-01  2.41602794E-01 -1.84953956E-02
 -1.57124016E-01  2.41602794E-01  3.16081325E-01 -1.92352262E+00 -2.20939548E+00
  3.16081325E-01 -1.92352262E+00 -2.20939548E+00  3.16081325E-01 -1.92352262E+00
 -2.20939548E+00  3.16081325E-01 -1.92352262E+00 -2.20939548E+00 -2.74418588E+00
  1.74278395E+00 -4.39019880E-01 -2.74418588E+00  1.74278395E+00 -4.39019880E-01
 -2.74418588E+00  1.74278395E+00 -4.39019880E-01 -2.74418588E+00  1.74278395E+00
 -4.39019880E-01 -2.22889776E-01 -1.50035059E+00  2.62504244E+00 -2.22889776E-01
 -1.50035059E+00  2.62504244E+00 -2.22889776E-01 -1.50035059E+00  2.62504244E+00
 -2.22889776E-01 -1.50035059E+00  2.62504244E+00  2.80682152E+00  2.54744440E+00
 -1.99320158E+00  2.80682152E+00  2.54744440E+00 -1.99320158E+00  2.66767043E+00
  3.22152535E+00  1.35799834E+00  2.66767043E+00  3.22152535E+00  1.35799834E+00
  4.36201453E+00  4.93617919E-01  2.38349896E-01  4.36201453E+00  4.93617919E-01
  2.38349896E-01 -2.53872289E+00  2.57657053E+00 -2.31687397E+00 -2.53872289E+00
  2.57657053E+00 -2.31687397E+00 -4.38443169E+00  4.87000722E-01 -3.52082716E-01
 -4.38443169E+00  4.87000722E-01 -3.52082716E-01 -2.87921169E+00  3.18832259E+00
  1.03270015E+00 -2.87921169E+00  3.18832259E+00  1.03270015E+00 -5.35740113E-01
 -3.56033661E+00 -1.98795374E+00 -5.35740113E-01 -3.56033661E+00 -1.98795374E+00
Num ILSW                                   I              100
ILSW                                       I   N=         100
           0           1           0           0           2           0
           0           0           0           0         402          -1
           5           0           0           0           2           0
           0           0           0           0           1           0
           1           0           0           0           0           0
           0           0      100000           0          -1           0
           0           0           0           0           0           0
           0           0           0           1           0           0
           0 -2000000000           1           0           0           0
           0           0           4          52           0           0
           0           0           5           0           0           0
           0           0           0          12           0           1
           0           0           0           0           0           0
           0           0           0           0           0           0
           0           0           0           0           0           0
           0           0           0           0           0           0
           0           0           0           0
Num RLSW                                   I               52
RLSW                                       R   N=          52
  8.00000000E-01  7.20000000E-01  1.00000000E+00  8.10000000E-01  2.00000000E-01
  0.00000000E+00  0.00000000E+00  1.00000000E+00  0.00000000E+00  0.00000000E+00
  0.00000000E+00  0.00000000E+00  1.00000000E+00  0.00000000E+00  0.00000000E+00
  0.00000000E+00  0.00000000E+00  1.00000000E+00  0.00000000E+00  0.00000000E+00
  0.00000000E+00  0.00000000E+00  1.00000000E+00  0.00000000E+00  0.00000000E+00
  0.00000000E+00  0.00000000E+00  1.00000000E+00  0.00000000E+00  0.00000000E+00
  0.00000000E+00  0.00000000E+00  1.00000000E+00  0.00000000E+00  0.00000000E+00
  0.00000000E+00  0.00000000E+00  0.00000000E+00  1.00000000E+00  1.00000000E+00
  0.00000000E+00  1.00000000E+00  0.00000000E+00  0.00000000E+00  0.00000000E+00
  0.00000000E+00  0.00000000E+00  0.00000000E+00  0.00000000E+00  0.00000000E+00
  0.00000000E+00  0.00000000E+00
MxBond                                     I                4
NBond                                      I   N=          12
           4           4           2           4           1           1
           1           1           1           1           1           1
IBond                                      I   N=          48
           2           6           7           8           1           3
           4           5           2          12           0           0
           2           9          10          11           2           0
           0           0           1           0           0           0
           1           0           0           0           1           0
           0           0           4           0           0           0
           4           0           0           0           4           0
           0           0           3           0           0           0
RBond                                      R   N=          48
  1.00000000E+00  1.00000000E+00  1.00000000E+00  1.00000000E+00  1.00000000E+00
  2.00000000E+00  1.00000000E+00  2.00000000E+00  2.00000000E+00  1.00000000E+00
  0.00000000E+00  0.00000000E+00  1.00000000E+00  1.00000000E+00  1.00000000E+00
  1.00000000E+00  2.00000000E+00  0.00000000E+00  0.00000000E+00  0.00000000E+00
  1.00000000E+00  0.00000000E+00  0.00000000E+00  0.00000000E+00  1.00000000E+00
  0.00000000E+00  0.00000000E+00  0.00000000E+00  1.00000000E+00  0.00000000E+00
  0.00000000E+00  0.00000000E+00  1.00000000E+00  0.00000000E+00  0.00000000E+00
  0.00000000E+00  1.00000000E+00  0.00000000E+00  0.00000000E+00  0.00000000E+00
  1.00000000E+00  0.00000000E+00  0.00000000E+00  0.00000000E+00  1.00000000E+00
  0.00000000E+00  0.00000000E+00  0.00000000E+00
Virial Ratio                               R      2.005730514189117E+00
SCF Energy                                 R     -6.287219902021362E+02
Total Energy                               R     -6.287219902021362E+02
RMS Force                                  R      9.098827759753997E-06
RMS Density                                R      3.572140040281577E-09
NImag                                      I                0
Job Status                                 I                1
Nuclear derivative order                   I                2
External E-field                           R   N=          35
  0.00000000E+00  0.00000000E+00  0.00000000E+00  0.00000000E+00  0.00000000E+00
  0.00000000E+00  0.00000000E+00  0.00000000E+00  0.00000000E+00  0.00000000E+00
  0.00000000E+00  0.00000000E+00  0.00000000E+00  0.00000000E+00  0.00000000E+00
  0.00000000E+00  0.00000000E+00  0.00000000E+00  0.00000000E+00  0.00000000E+00
  0.00000000E+00  0.00000000E+00  0.00000000E+00  0.00000000E+00  0.00000000E+00
  0.00000000E+00  0.00000000E+00  0.00000000E+00  0.00000000E+00  0.00000000E+00
  0.00000000E+00  0.00000000E+00  0.00000000E+00  0.00000000E+00  0.00000000E+00
IOpCl                                      I                0
IROHF                                      I                0
Alpha Orbital Energies                     R   N=          93
 -8.93349734E+01 -1.94340302E+01 -1.93828833E+01 -1.04373947E+01 -1.04363421E+01
 -8.36842283E+00 -6.33423557E+00 -6.33098400E+00 -6.32962743E+00 -1.34804648E+00
 -1.26186732E+00 -1.04286702E+00 -9.60431974E-01 -8.66524731E-01 -7.67124778E-01
 -7.21660474E-01 -7.10714353E-01 -6.63041855E-01 -6.48567782E-01 -6.46948754E-01
 -6.31334461E-01 -6.25116421E-01 -5.76788763E-01 -5.46421367E-01 -5.29502030E-01
 -1.99066946E-01 -1.66398764E-01 -1.61231164E-01 -1.26474715E-01 -1.20466421E-01
 -8.30526586E-02 -5.56697937E-02 -4.93748659E-02 -4.52476599E-02 -3.51563256E-02
 -1.97731968E-02  1.56301917E-01  1.69171155E-01  2.00307703E-01  2.26446371E-01
  2.69769526E-01  2.94585537E-01  3.48123717E-01  3.51658439E-01  4.58931970E-01
  4.76876941E-01  5.02774222E-01  5.42483547E-01  5.71413109E-01  6.05222179E-01
  6.38069642E-01  6.58282926E-01  6.63240919E-01  6.70015765E-01  6.86113706E-01
  6.93397502E-01  7.40014915E-01  7.68948221E-01  7.71873228E-01  7.82258611E-01
  8.64696006E-01  9.25720427E-01  9.48258473E-01  9.59584533E-01  1.05208841E+00
  1.10905334E+00  1.13587464E+00  1.38312865E+00  1.42045494E+00  1.43181431E+00
  1.48153039E+00  1.52231059E+00  1.54206803E+00  1.57776857E+00  1.63545693E+00
  1.69511089E+00  1.73715075E+00  1.85899875E+00  1.87502069E+00  1.90316549E+00
  1.98530220E+00  1.99213438E+00  2.01514118E+00  2.03158055E+00  2.04272449E+00
  2.13995645E+00  2.33164782E+00  2.57739887E+00  3.53131340E+00  3.62273641E+00
  3.69026081E+00  3.97880309E+00  3.98772977E+00
Alpha MO coefficients                      R   N=        8649
 -1.51401974E-05  4.22858968E-05 -9.89609863E-05 -6.08144781E-05  6.09690168E-06
  5.33688580E-04  5.93642549E-05 -4.02407858E-05  5.54920339E-05 -8.50057379E-05
 -4.45353455E-05 -3.65529944E-05 -4.03346875E-05  1.42683857E-06  1.71501096E-06
  9.96118223E-01  1.48525723E-02  1.97320207E-06 -1.33305760E-05 -2.20252043E-05
 -2.42636876E-02 -6.58027956E-07 -5.72801218E-05  6.03497061E-05  2.58276221E-03
 -4.01687831E-05  2.05577087E-04 -1.59704962E-04  8.52251110E-03  8.54298951E-03
  8.61275738E-03 -3.16303360E-06 -1.13614733E-05 -1.50665066E-05  6.56293710E-06
  4.60004304E-05  1.16711561E-05  2.51307104E-05 -1.80333552E-05  2.46993855E-04
 -8.43629851E-05 -7.35964856E-05  1.98160170E-04  2.00357162E-05 -1.79942129E-05
 -1.09051476E-04  4.68000579E-05  1.45636058E-05 -1.19895235E-04 -1.17358106E-05
  5.18050342E-05  1.01837145E-04 -6.80341389E-05  1.77170069E-05  4.48256391E-04
 -8.63511921E-05  7.83970427E-06  4.61234151E-05 -7.33128715E-05 -3.78241017E-05
 -2.90494833E-05  3.73917057E-05 -7.88774847E-06  8.47259174E-06  2.41180844E-05
  3.73390408E-05 -1.13831495E-05 -5.41569744E-05  1.12395760E-04  1.92014295E-04
  2.78199978E-05  6.86953493E-05 -2.02934878E-04  8.38704160E-05  7.75967127E-06
 -1.24592799E-04 -1.15444477E-05  1.99783123E-05  1.45387709E-04 -4.03683580E-05
 -1.85916336E-04 -4.97076756E-05 -2.11497433E-04 -5.92039309E-05 -2.27082660E-04
 -3.43829072E-05 -1.91981427E-04 -5.22715687E-05 -2.17618255E-04 -4.86186578E-05
 -2.22311443E-04 -9.51321507E-05 -1.61453359E-04 -2.63862362E-05 -1.25947732E-04
  2.41301670E-06 -7.52908672E-05 -3.23183752E-05  1.37239834E-03 -7.69002328E-04
 -9.68705597E-05  6.64291424E-05  1.87141730E-05 -3.93810273E-05 -3.61002209E-05
  2.33231899E-05  7.51211181E-06 -1.10146701E-05  1.02585220E-05  4.62055826E-05