 Entering Gaussian System, Link 0=/apps/cent7/gaussian/g16-A.03/g16-haswell/g16/g16
 Initial command:
 /apps/cent7/gaussian/g16-A.03/g16-haswell/g16/l1.exe "/scratch/brown/finej/gaussian/Gau-249885.inp" -scrdir="/scratch/brown/finej/gaussian/"
 Entering Link 1 = /apps/cent7/gaussian/g16-A.03/g16-haswell/g16/l1.exe PID=    249886.
  
 Copyright (c) 1988,1990,1992,1993,1995,1998,2003,2009,2016,
            Gaussian, Inc.  All Rights Reserved.
  
 This is part of the Gaussian(R) 16 program.  It is based on
 the Gaussian(R) 09 system (copyright 2009, Gaussian, Inc.),
 the Gaussian(R) 03 system (copyright 2003, Gaussian, Inc.),
 the Gaussian(R) 98 system (copyright 1998, Gaussian, Inc.),
 the Gaussian(R) 94 system (copyright 1995, Gaussian, Inc.),
 the Gaussian 92(TM) system (copyright 1992, Gaussian, Inc.),
 the Gaussian 90(TM) system (copyright 1990, Gaussian, Inc.),
 the Gaussian 88(TM) system (copyright 1988, Gaussian, Inc.),
 the Gaussian 86(TM) system (copyright 1986, Carnegie Mellon
 University), and the Gaussian 82(TM) system (copyright 1983,
 Carnegie Mellon University). Gaussian is a federally registered
 trademark of Gaussian, Inc.
  
 This software contains proprietary and confidential information,
 including trade secrets, belonging to Gaussian, Inc.
  
 This software is provided under written license and may be
 used, copied, transmitted, or stored only in accord with that
 written license.
  
 The following legend is applicable only to US Government
 contracts under FAR:
  
                    RESTRICTED RIGHTS LEGEND
  
 Use, reproduction and disclosure by the US Government is
 subject to restrictions as set forth in subparagraphs (a)
 and (c) of the Commercial Computer Software - Restricted
 Rights clause in FAR 52.227-19.
  
 Gaussian, Inc.
 340 Quinnipiac St., Bldg. 40, Wallingford CT 06492
  
  
 ---------------------------------------------------------------
 Warning -- This program may not be used in any manner that
 competes with the business of Gaussian, Inc. or will provide
 assistance to any competitor of Gaussian, Inc.  The licensee
 of this program is prohibited from giving any competitor of
 Gaussian, Inc. access to this program.  By using this program,
 the user acknowledges that Gaussian, Inc. is engaged in the
 business of creating and licensing software in the field of
 computational chemistry and represents and warrants to the
 licensee that it is not a competitor of Gaussian, Inc. and that
 it will not use this program in any manner prohibited above.
 ---------------------------------------------------------------
  

 Cite this work as:
 Gaussian 16, Revision A.03,
 M. J. Frisch, G. W. Trucks, H. B. Schlegel, G. E. Scuseria, 
 M. A. Robb, J. R. Cheeseman, G. Scalmani, V. Barone, 
 G. A. Petersson, H. Nakatsuji, X. Li, M. Caricato, A. V. Marenich, 
 J. Bloino, B. G. Janesko, R. Gomperts, B. Mennucci, H. P. Hratchian, 
 J. V. Ortiz, A. F. Izmaylov, J. L. Sonnenberg, D. Williams-Young, 
 F. Ding, F. Lipparini, F. Egidi, J. Goings, B. Peng, A. Petrone, 
 T. Henderson, D. Ranasinghe, V. G. Zakrzewski, J. Gao, N. Rega, 
 G. Zheng, W. Liang, M. Hada, M. Ehara, K. Toyota, R. Fukuda, 
 J. Hasegawa, M. Ishida, T. Nakajima, Y. Honda, O. Kitao, H. Nakai, 
 T. Vreven, K. Throssell, J. A. Montgomery, Jr., J. E. Peralta, 
 F. Ogliaro, M. J. Bearpark, J. J. Heyd, E. N. Brothers, K. N. Kudin, 
 V. N. Staroverov, T. A. Keith, R. Kobayashi, J. Normand, 
 K. Raghavachari, A. P. Rendell, J. C. Burant, S. S. Iyengar, 
 J. Tomasi, M. Cossi, J. M. Millam, M. Klene, C. Adamo, R. Cammi, 
 J. W. Ochterski, R. L. Martin, K. Morokuma, O. Farkas, 
 J. B. Foresman, and D. J. Fox, Gaussian, Inc., Wallingford CT, 2016.
 
 ******************************************
 Gaussian 16:  ES64L-G16RevA.03 25-Dec-2016
                14-Oct-2019 
 ******************************************
 %chk=26.chk
 %nprocshared=24
 Will use up to   24 processors via shared memory.
 %mem=80GB
 --------------------------------------------------------------
 #P opt freq b3lyp/6-31g(d) geom=connectivity temperature=0.001
 --------------------------------------------------------------
 1/18=20,19=15,26=3,38=1,57=2,112=-1000/1,3;
 2/9=110,12=2,17=6,18=5,40=1/2;
 3/5=1,6=6,7=1,11=2,25=1,30=1,71=1,74=-5/1,2,3;
 4//1;
 5/5=2,38=5/2;
 6/7=2,8=2,9=2,10=2,28=1/1;
 7//1,2,3,16;
 1/18=20,19=15,26=3/3(2);
 2/9=110/2;
 99//99;
 2/9=110/2;
 3/5=1,6=6,7=1,11=2,25=1,30=1,71=1,74=-5/1,2,3;
 4/5=5,16=3,69=1/1;
 5/5=2,38=5/2;
 7//1,2,3,16;
 1/18=20,19=15,26=3/3(-5);
 2/9=110/2;
 6/7=2,8=2,9=2,10=2,19=2,28=1/1;
 99/9=1/99;
 Leave Link    1 at Mon Oct 14 01:31:30 2019, MaxMem= 10737418240 cpu:               0.8 elap:               0.0
 (Enter /apps/cent7/gaussian/g16-A.03/g16-haswell/g16/l101.exe)
 -------------------
 Title Card Required
 -------------------
 Symbolic Z-matrix:
 Charge =  0 Multiplicity = 1
 O                    -1.2111    1.9012    4.5834 
 C                    -1.7915    0.7974    4.4646 
 O                    -1.5966   -0.1365    5.4288 
 C                    -2.6674    0.5536    3.3005 
 C                    -3.3091   -0.7633    3.3116 
 C                    -4.5687   -1.0118    3.7855 
 C                    -5.5153   -0.1463    4.3743 
 C                    -6.7694   -0.6625    4.7486 
 F                    -7.6521    0.1248    5.2979 
 C                    -7.072    -2.0203    4.5212 
 C                    -6.1205   -2.8706    3.9264 
 C                    -4.8422   -2.3661    3.5982 
 C                    -2.7972   -1.9352    2.8838 
 C                    -1.4519   -2.1194    2.3294 
 C                    -3.7083   -2.9515    3.0667 
 C                    -3.4865   -4.2563    2.7804 
 C                    -4.2934   -5.3527    3.051 
 C                    -4.7391   -6.1694    1.9868 
 C                    -5.4567   -7.3514    2.2427 
 C                    -5.753    -7.7418    3.5652 
 S                    -6.6049   -9.2793    3.8214 
 O                    -5.7663   -10.464    3.1333 
 C                    -6.8476   -9.7099    5.5855 
 O                    -8.0417   -9.2205    3.1068 
 C                    -5.3441   -6.9118    4.6313 
 C                    -4.6088   -5.7358    4.3772 
 H                    -1.6741   -1.0132    5.0454 
 H                    -3.4785    1.2778    3.3774 
 H                    -2.0151    0.5567    2.4273 
 H                    -5.2812    0.9056    4.5377 
 H                    -8.0471   -2.4148    4.807 
 H                    -6.3715   -3.9114    3.7216 
 H                    -0.7338   -2.2177    3.1435 
 H                    -1.4318   -3.0204    1.7163 
 H                    -1.1904   -1.2569    1.7163 
 H                    -2.5428   -4.4475    2.2696 
 H                    -4.527    -5.8843    0.9564 
 H                    -5.7861   -7.9707    1.4084 
 H                    -6.8628   -10.7942   5.696 
 H                    -6.0306   -9.2959    6.1763 
 H                    -7.7939   -9.2959    5.9336 
 H                    -5.5976   -7.1806    5.6568 
 H                    -4.2814   -5.1177    5.2132 
 
 ITRead=  0  0  0  0  0  0  0  0  0  0  0  0  0  0  0  0  0  0  0  0
 ITRead=  0  0  0  0  0  0  0  0  0  0  0  0  0  0  0  0  0  0  0  0
 ITRead=  0  0  0
 MicOpt= -1 -1 -1 -1 -1 -1 -1 -1 -1 -1 -1 -1 -1 -1 -1 -1 -1 -1 -1 -1
 MicOpt= -1 -1 -1 -1 -1 -1 -1 -1 -1 -1 -1 -1 -1 -1 -1 -1 -1 -1 -1 -1
 MicOpt= -1 -1 -1
 NAtoms=     43 NQM=       43 NQMF=       0 NMMI=      0 NMMIF=      0
                NMic=       0 NMicF=      0.
                    Isotopes and Nuclear Properties:
 (Nuclear quadrupole moments (NQMom) in fm**2, nuclear magnetic moments (NMagM)
  in nuclear magnetons)

  Atom         1           2           3           4           5           6           7           8           9          10
 IAtWgt=          16          12          16          12          12          12          12          12          19          12
 AtmWgt=  15.9949146  12.0000000  15.9949146  12.0000000  12.0000000  12.0000000  12.0000000  12.0000000  18.9984033  12.0000000
 NucSpn=           0           0           0           0           0           0           0           0           1           0
 AtZEff=  -0.0000000  -0.0000000  -0.0000000  -0.0000000  -0.0000000  -0.0000000  -0.0000000  -0.0000000  -0.0000000  -0.0000000
 NQMom=    0.0000000   0.0000000   0.0000000   0.0000000   0.0000000   0.0000000   0.0000000   0.0000000   0.0000000   0.0000000
 NMagM=    0.0000000   0.0000000   0.0000000   0.0000000   0.0000000   0.0000000   0.0000000   0.0000000   2.6288670   0.0000000
 AtZNuc=   8.0000000   6.0000000   8.0000000   6.0000000   6.0000000   6.0000000   6.0000000   6.0000000   9.0000000   6.0000000

  Atom        11          12          13          14          15          16          17          18          19          20
 IAtWgt=          12          12          12          12          12          12          12          12          12          12
 AtmWgt=  12.0000000  12.0000000  12.0000000  12.0000000  12.0000000  12.0000000  12.0000000  12.0000000  12.0000000  12.0000000
 NucSpn=           0           0           0           0           0           0           0           0           0           0
 AtZEff=  -0.0000000  -0.0000000  -0.0000000  -0.0000000  -0.0000000  -0.0000000  -0.0000000  -0.0000000  -0.0000000  -0.0000000
 NQMom=    0.0000000   0.0000000   0.0000000   0.0000000   0.0000000   0.0000000   0.0000000   0.0000000   0.0000000   0.0000000
 NMagM=    0.0000000   0.0000000   0.0000000   0.0000000   0.0000000   0.0000000   0.0000000   0.0000000   0.0000000   0.0000000
 AtZNuc=   6.0000000   6.0000000   6.0000000   6.0000000   6.0000000   6.0000000   6.0000000   6.0000000   6.0000000   6.0000000

  Atom        21          22          23          24          25          26          27          28          29          30
 IAtWgt=          32          16          12          16          12          12           1           1           1           1
 AtmWgt=  31.9720718  15.9949146  12.0000000  15.9949146  12.0000000  12.0000000   1.0078250   1.0078250   1.0078250   1.0078250
 NucSpn=           0           0           0           0           0           0           1           1           1           1
 AtZEff=  -0.0000000  -0.0000000  -0.0000000  -0.0000000  -0.0000000  -0.0000000  -0.0000000  -0.0000000  -0.0000000  -0.0000000
 NQMom=    0.0000000   0.0000000   0.0000000   0.0000000   0.0000000   0.0000000   0.0000000   0.0000000   0.0000000   0.0000000
 NMagM=    0.0000000   0.0000000   0.0000000   0.0000000   0.0000000   0.0000000   2.7928460   2.7928460   2.7928460   2.7928460
 AtZNuc=  16.0000000   8.0000000   6.0000000   8.0000000   6.0000000   6.0000000   1.0000000   1.0000000   1.0000000   1.0000000

  Atom        31          32          33          34          35          36          37          38          39          40
 IAtWgt=           1           1           1           1           1           1           1           1           1           1
 AtmWgt=   1.0078250   1.0078250   1.0078250   1.0078250   1.0078250   1.0078250   1.0078250   1.0078250   1.0078250   1.0078250
 NucSpn=           1           1           1           1           1           1           1           1           1           1
 AtZEff=  -0.0000000  -0.0000000  -0.0000000  -0.0000000  -0.0000000  -0.0000000  -0.0000000  -0.0000000  -0.0000000  -0.0000000
 NQMom=    0.0000000   0.0000000   0.0000000   0.0000000   0.0000000   0.0000000   0.0000000   0.0000000   0.0000000   0.0000000
 NMagM=    2.7928460   2.7928460   2.7928460   2.7928460   2.7928460   2.7928460   2.7928460   2.7928460   2.7928460   2.7928460
 AtZNuc=   1.0000000   1.0000000   1.0000000   1.0000000   1.0000000   1.0000000   1.0000000   1.0000000   1.0000000   1.0000000

  Atom        41          42          43
 IAtWgt=           1           1           1
 AtmWgt=   1.0078250   1.0078250   1.0078250
 NucSpn=           1           1           1
 AtZEff=  -0.0000000  -0.0000000  -0.0000000
 NQMom=    0.0000000   0.0000000   0.0000000
 NMagM=    2.7928460   2.7928460   2.7928460
 AtZNuc=   1.0000000   1.0000000   1.0000000
 Leave Link  101 at Mon Oct 14 01:31:30 2019, MaxMem= 10737418240 cpu:               8.8 elap:               0.4
 (Enter /apps/cent7/gaussian/g16-A.03/g16-haswell/g16/l103.exe)

 GradGradGradGradGradGradGradGradGradGradGradGradGradGradGradGradGradGrad
 Berny optimization.
 Initialization pass.
                           ----------------------------
                           !    Initial Parameters    !
                           ! (Angstroms and Degrees)  !
 --------------------------                            --------------------------
 ! Name  Definition              Value          Derivative Info.                !
 --------------------------------------------------------------------------------
 ! R1    R(1,2)                  1.2527         estimate D2E/DX2                !
 ! R2    R(2,3)                  1.3564         estimate D2E/DX2                !
 ! R3    R(2,4)                  1.4771         estimate D2E/DX2                !
 ! R4    R(3,27)                 0.96           estimate D2E/DX2                !
 ! R5    R(4,5)                  1.465          estimate D2E/DX2                !
 ! R6    R(4,28)                 1.0901         estimate D2E/DX2                !
 ! R7    R(4,29)                 1.0899         estimate D2E/DX2                !
 ! R8    R(5,6)                  1.3685         estimate D2E/DX2                !
 ! R9    R(5,13)                 1.3485         estimate D2E/DX2                !
 ! R10   R(6,7)                  1.4113         estimate D2E/DX2                !
 ! R11   R(6,12)                 1.3943         estimate D2E/DX2                !
 ! R12   R(7,8)                  1.4069         estimate D2E/DX2                !
 ! R13   R(7,30)                 1.09           estimate D2E/DX2                !
 ! R14   R(8,9)                  1.3041         estimate D2E/DX2                !
 ! R15   R(8,10)                 1.4096         estimate D2E/DX2                !
 ! R16   R(10,11)                1.4079         estimate D2E/DX2                !
 ! R17   R(10,31)                1.09           estimate D2E/DX2                !
 ! R18   R(11,12)                1.4129         estimate D2E/DX2                !
 ! R19   R(11,32)                1.09           estimate D2E/DX2                !
 ! R20   R(12,15)                1.3824         estimate D2E/DX2                !
 ! R21   R(13,14)                1.4667         estimate D2E/DX2                !
 ! R22   R(13,15)                1.3771         estimate D2E/DX2                !
 ! R23   R(14,33)                1.09           estimate D2E/DX2                !
 ! R24   R(14,34)                1.09           estimate D2E/DX2                !
 ! R25   R(14,35)                1.09           estimate D2E/DX2                !
 ! R26   R(15,16)                1.3541         estimate D2E/DX2                !
 ! R27   R(16,17)                1.3879         estimate D2E/DX2                !
 ! R28   R(16,36)                1.09           estimate D2E/DX2                !
 ! R29   R(17,18)                1.4136         estimate D2E/DX2                !
 ! R30   R(17,26)                1.416          estimate D2E/DX2                !
 ! R31   R(18,19)                1.4063         estimate D2E/DX2                !
 ! R32   R(18,37)                1.09           estimate D2E/DX2                !
 ! R33   R(19,20)                1.4104         estimate D2E/DX2                !
 ! R34   R(19,38)                1.09           estimate D2E/DX2                !
 ! R35   R(20,21)                1.7763         estimate D2E/DX2                !
 ! R36   R(20,25)                1.4116         estimate D2E/DX2                !
 ! R37   R(21,22)                1.6063         estimate D2E/DX2                !
 ! R38   R(21,23)                1.832          estimate D2E/DX2                !
 ! R39   R(21,24)                1.6058         estimate D2E/DX2                !
 ! R40   R(23,39)                1.09           estimate D2E/DX2                !
 ! R41   R(23,40)                1.0899         estimate D2E/DX2                !
 ! R42   R(23,41)                1.09           estimate D2E/DX2                !
 ! R43   R(25,26)                1.41           estimate D2E/DX2                !
 ! R44   R(25,42)                1.09           estimate D2E/DX2                !
 ! R45   R(26,43)                1.09           estimate D2E/DX2                !
 ! A1    A(1,2,3)              118.2078         estimate D2E/DX2                !
 ! A2    A(1,2,4)              119.6636         estimate D2E/DX2                !
 ! A3    A(3,2,4)              122.1265         estimate D2E/DX2                !
 ! A4    A(2,3,27)             109.4675         estimate D2E/DX2                !
 ! A5    A(2,4,5)              113.7127         estimate D2E/DX2                !
 ! A6    A(2,4,28)             106.0204         estimate D2E/DX2                !
 ! A7    A(2,4,29)             106.0232         estimate D2E/DX2                !
 ! A8    A(5,4,28)             105.7087         estimate D2E/DX2                !
 ! A9    A(5,4,29)             105.7104         estimate D2E/DX2                !
 ! A10   A(28,4,29)            119.9957         estimate D2E/DX2                !
 ! A11   A(4,5,6)              124.6812         estimate D2E/DX2                !
 ! A12   A(4,5,13)             127.7726         estimate D2E/DX2                !
 ! A13   A(6,5,13)             107.5444         estimate D2E/DX2                !
 ! A14   A(5,6,7)              130.5745         estimate D2E/DX2                !
 ! A15   A(5,6,12)             108.0832         estimate D2E/DX2                !
 ! A16   A(7,6,12)             121.3422         estimate D2E/DX2                !
 ! A17   A(6,7,8)              118.9382         estimate D2E/DX2                !
 ! A18   A(6,7,30)             120.686          estimate D2E/DX2                !
 ! A19   A(8,7,30)             120.3759         estimate D2E/DX2                !
 ! A20   A(7,8,9)              119.5976         estimate D2E/DX2                !
 ! A21   A(7,8,10)             120.124          estimate D2E/DX2                !
 ! A22   A(9,8,10)             120.2766         estimate D2E/DX2                !
 ! A23   A(8,10,11)            120.3209         estimate D2E/DX2                !
 ! A24   A(8,10,31)            119.8923         estimate D2E/DX2                !
 ! A25   A(11,10,31)           119.7868         estimate D2E/DX2                !
 ! A26   A(10,11,12)           119.5996         estimate D2E/DX2                !
 ! A27   A(10,11,32)           120.0279         estimate D2E/DX2                !
 ! A28   A(12,11,32)           120.3725         estimate D2E/DX2                !
 ! A29   A(6,12,11)            119.5443         estimate D2E/DX2                !
 ! A30   A(6,12,15)            107.5829         estimate D2E/DX2                !
 ! A31   A(11,12,15)           132.8611         estimate D2E/DX2                !
 ! A32   A(5,13,14)            125.2582         estimate D2E/DX2                !
 ! A33   A(5,13,15)            110.3693         estimate D2E/DX2                !
 ! A34   A(14,13,15)           124.3588         estimate D2E/DX2                !
 ! A35   A(13,14,33)           109.469          estimate D2E/DX2                !
 ! A36   A(13,14,34)           109.4719         estimate D2E/DX2                !
 ! A37   A(13,14,35)           109.4681         estimate D2E/DX2                !
 ! A38   A(33,14,34)           109.4759         estimate D2E/DX2                !
 ! A39   A(33,14,35)           109.4753         estimate D2E/DX2                !
 ! A40   A(34,14,35)           109.4671         estimate D2E/DX2                !
 ! A41   A(12,15,13)           106.3337         estimate D2E/DX2                !
 ! A42   A(12,15,16)           128.5868         estimate D2E/DX2                !
 ! A43   A(13,15,16)           125.0761         estimate D2E/DX2                !
 ! A44   A(15,16,17)           128.6617         estimate D2E/DX2                !
 ! A45   A(15,16,36)           114.2            estimate D2E/DX2                !
 ! A46   A(17,16,36)           117.1383         estimate D2E/DX2                !
 ! A47   A(16,17,18)           119.5328         estimate D2E/DX2                !
 ! A48   A(16,17,26)           121.7229         estimate D2E/DX2                !
 ! A49   A(18,17,26)           118.5915         estimate D2E/DX2                !
 ! A50   A(17,18,19)           120.6319         estimate D2E/DX2                !
 ! A51   A(17,18,37)           119.9493         estimate D2E/DX2                !
 ! A52   A(19,18,37)           119.4188         estimate D2E/DX2                !
 ! A53   A(18,19,20)           120.6969         estimate D2E/DX2                !
 ! A54   A(18,19,38)           119.5042         estimate D2E/DX2                !
 ! A55   A(20,19,38)           119.7989         estimate D2E/DX2                !
 ! A56   A(19,20,21)           118.3975         estimate D2E/DX2                !
 ! A57   A(19,20,25)           118.9836         estimate D2E/DX2                !
 ! A58   A(21,20,25)           122.6103         estimate D2E/DX2                !
 ! A59   A(20,21,22)           109.039          estimate D2E/DX2                !
 ! A60   A(20,21,23)           113.9448         estimate D2E/DX2                !
 ! A61   A(20,21,24)           109.4657         estimate D2E/DX2                !
 ! A62   A(22,21,23)           107.9568         estimate D2E/DX2                !
 ! A63   A(22,21,24)           107.668          estimate D2E/DX2                !
 ! A64   A(23,21,24)           108.5775         estimate D2E/DX2                !
 ! A65   A(21,23,39)           109.4672         estimate D2E/DX2                !
 ! A66   A(21,23,40)           109.4737         estimate D2E/DX2                !
 ! A67   A(21,23,41)           109.4668         estimate D2E/DX2                !
 ! A68   A(39,23,40)           109.4724         estimate D2E/DX2                !
 ! A69   A(39,23,41)           109.4721         estimate D2E/DX2                !
 ! A70   A(40,23,41)           109.4751         estimate D2E/DX2                !
 ! A71   A(20,25,26)           120.3539         estimate D2E/DX2                !
 ! A72   A(20,25,42)           119.8785         estimate D2E/DX2                !
 ! A73   A(26,25,42)           119.7676         estimate D2E/DX2                !
 ! A74   A(17,26,25)           120.7024         estimate D2E/DX2                !
 ! A75   A(17,26,43)           119.8679         estimate D2E/DX2                !
 ! A76   A(25,26,43)           119.4297         estimate D2E/DX2                !
 ! D1    D(1,2,3,27)          -150.3963         estimate D2E/DX2                !
 ! D2    D(4,2,3,27)            30.1292         estimate D2E/DX2                !
 ! D3    D(1,2,4,5)           -178.3421         estimate D2E/DX2                !
 ! D4    D(1,2,4,28)           -62.6345         estimate D2E/DX2                !
 ! D5    D(1,2,4,29)            65.9465         estimate D2E/DX2                !
 ! D6    D(3,2,4,5)              1.125          estimate D2E/DX2                !
 ! D7    D(3,2,4,28)           116.8327         estimate D2E/DX2                !
 ! D8    D(3,2,4,29)          -114.5864         estimate D2E/DX2                !
 ! D9    D(2,4,5,6)             95.6423         estimate D2E/DX2                !
 ! D10   D(2,4,5,13)           -83.8151         estimate D2E/DX2                !
 ! D11   D(28,4,5,6)           -20.2486         estimate D2E/DX2                !
 ! D12   D(28,4,5,13)          160.294          estimate D2E/DX2                !
 ! D13   D(29,4,5,6)          -148.4624         estimate D2E/DX2                !
 ! D14   D(29,4,5,13)           32.0803         estimate D2E/DX2                !
 ! D15   D(4,5,6,7)             -1.412          estimate D2E/DX2                !
 ! D16   D(4,5,6,12)           178.4832         estimate D2E/DX2                !
 ! D17   D(13,5,6,7)           178.1382         estimate D2E/DX2                !
 ! D18   D(13,5,6,12)           -1.9666         estimate D2E/DX2                !
 ! D19   D(4,5,13,14)            1.0502         estimate D2E/DX2                !
 ! D20   D(4,5,13,15)          179.7465         estimate D2E/DX2                !
 ! D21   D(6,5,13,14)         -178.4818         estimate D2E/DX2                !
 ! D22   D(6,5,13,15)            0.2145         estimate D2E/DX2                !
 ! D23   D(5,6,7,8)            178.398          estimate D2E/DX2                !
 ! D24   D(5,6,7,30)            -1.6075         estimate D2E/DX2                !
 ! D25   D(12,6,7,8)            -1.4854         estimate D2E/DX2                !
 ! D26   D(12,6,7,30)          178.5092         estimate D2E/DX2                !
 ! D27   D(5,6,12,11)         -175.9379         estimate D2E/DX2                !
 ! D28   D(5,6,12,15)            2.9724         estimate D2E/DX2                !
 ! D29   D(7,6,12,11)            3.9689         estimate D2E/DX2                !
 ! D30   D(7,6,12,15)         -177.1208         estimate D2E/DX2                !
 ! D31   D(6,7,8,9)            179.7678         estimate D2E/DX2                !
 ! D32   D(6,7,8,10)            -0.7142         estimate D2E/DX2                !
 ! D33   D(30,7,8,9)            -0.2267         estimate D2E/DX2                !
 ! D34   D(30,7,8,10)          179.2912         estimate D2E/DX2                !
 ! D35   D(7,8,10,11)            0.3886         estimate D2E/DX2                !
 ! D36   D(7,8,10,31)         -179.6175         estimate D2E/DX2                !
 ! D37   D(9,8,10,11)          179.9032         estimate D2E/DX2                !
 ! D38   D(9,8,10,31)           -0.1029         estimate D2E/DX2                !
 ! D39   D(8,10,11,12)           2.0909         estimate D2E/DX2                !
 ! D40   D(8,10,11,32)        -177.9108         estimate D2E/DX2                !
 ! D41   D(31,10,11,12)       -177.903          estimate D2E/DX2                !
 ! D42   D(31,10,11,32)          2.0953         estimate D2E/DX2                !
 ! D43   D(10,11,12,6)          -4.2343         estimate D2E/DX2                !
 ! D44   D(10,11,12,15)        177.1828         estimate D2E/DX2                !
 ! D45   D(32,11,12,6)         175.7675         estimate D2E/DX2                !
 ! D46   D(32,11,12,15)         -2.8154         estimate D2E/DX2                !
 ! D47   D(6,12,15,13)          -2.781          estimate D2E/DX2                !
 ! D48   D(6,12,15,16)         176.562          estimate D2E/DX2                !
 ! D49   D(11,12,15,13)        175.9258         estimate D2E/DX2                !
 ! D50   D(11,12,15,16)         -4.7313         estimate D2E/DX2                !
 ! D51   D(5,13,14,33)          82.4707         estimate D2E/DX2                !
 ! D52   D(5,13,14,34)        -157.5245         estimate D2E/DX2                !
 ! D53   D(5,13,14,35)         -37.5311         estimate D2E/DX2                !
 ! D54   D(15,13,14,33)        -96.0488         estimate D2E/DX2                !
 ! D55   D(15,13,14,34)         23.956          estimate D2E/DX2                !
 ! D56   D(15,13,14,35)        143.9494         estimate D2E/DX2                !
 ! D57   D(5,13,15,12)           1.6225         estimate D2E/DX2                !
 ! D58   D(5,13,15,16)        -177.7499         estimate D2E/DX2                !
 ! D59   D(14,13,15,12)       -179.667          estimate D2E/DX2                !
 ! D60   D(14,13,15,16)          0.9606         estimate D2E/DX2                !
 ! D61   D(12,15,16,17)         -6.0651         estimate D2E/DX2                !
 ! D62   D(12,15,16,36)        173.9393         estimate D2E/DX2                !
 ! D63   D(13,15,16,17)        173.1644         estimate D2E/DX2                !
 ! D64   D(13,15,16,36)         -6.8312         estimate D2E/DX2                !
 ! D65   D(15,16,17,18)        121.6304         estimate D2E/DX2                !
 ! D66   D(15,16,17,26)        -62.9266         estimate D2E/DX2                !
 ! D67   D(36,16,17,18)        -58.3741         estimate D2E/DX2                !
 ! D68   D(36,16,17,26)        117.0688         estimate D2E/DX2                !
 ! D69   D(16,17,18,19)        174.2971         estimate D2E/DX2                !
 ! D70   D(16,17,18,37)         -5.7086         estimate D2E/DX2                !
 ! D71   D(26,17,18,19)         -1.2886         estimate D2E/DX2                !
 ! D72   D(26,17,18,37)        178.7057         estimate D2E/DX2                !
 ! D73   D(16,17,26,25)       -175.0618         estimate D2E/DX2                !
 ! D74   D(16,17,26,43)          4.9339         estimate D2E/DX2                !
 ! D75   D(18,17,26,25)          0.4227         estimate D2E/DX2                !
 ! D76   D(18,17,26,43)       -179.5817         estimate D2E/DX2                !
 ! D77   D(17,18,19,20)          0.3762         estimate D2E/DX2                !
 ! D78   D(17,18,19,38)       -179.6131         estimate D2E/DX2                !
 ! D79   D(37,18,19,20)       -179.6181         estimate D2E/DX2                !
 ! D80   D(37,18,19,38)          0.3926         estimate D2E/DX2                !
 ! D81   D(18,19,20,21)       -177.5499         estimate D2E/DX2                !
 ! D82   D(18,19,20,25)          1.407          estimate D2E/DX2                !
 ! D83   D(38,19,20,21)          2.4394         estimate D2E/DX2                !
 ! D84   D(38,19,20,25)       -178.6037         estimate D2E/DX2                !
 ! D85   D(19,20,21,22)         56.22           estimate D2E/DX2                !
 ! D86   D(19,20,21,23)        176.8904         estimate D2E/DX2                !
 ! D87   D(19,20,21,24)        -61.3284         estimate D2E/DX2                !
 ! D88   D(25,20,21,22)       -122.6967         estimate D2E/DX2                !
 ! D89   D(25,20,21,23)         -2.0264         estimate D2E/DX2                !
 ! D90   D(25,20,21,24)        119.7548         estimate D2E/DX2                !
 ! D91   D(19,20,25,26)         -2.2664         estimate D2E/DX2                !
 ! D92   D(19,20,25,42)        177.7367         estimate D2E/DX2                !
 ! D93   D(21,20,25,26)        176.6442         estimate D2E/DX2                !
 ! D94   D(21,20,25,42)         -3.3526         estimate D2E/DX2                !
 ! D95   D(20,21,23,39)       -150.1093         estimate D2E/DX2                !
 ! D96   D(20,21,23,40)        -30.1088         estimate D2E/DX2                !
 ! D97   D(20,21,23,41)         89.8948         estimate D2E/DX2                !
 ! D98   D(22,21,23,39)        -28.8357         estimate D2E/DX2                !
 ! D99   D(22,21,23,40)         91.1647         estimate D2E/DX2                !
 ! D100  D(22,21,23,41)       -148.8317         estimate D2E/DX2                !
 ! D101  D(24,21,23,39)         87.62           estimate D2E/DX2                !
 ! D102  D(24,21,23,40)       -152.3795         estimate D2E/DX2                !
 ! D103  D(24,21,23,41)        -32.3759         estimate D2E/DX2                !
 ! D104  D(20,25,26,17)          1.3653         estimate D2E/DX2                !
 ! D105  D(20,25,26,43)       -178.6304         estimate D2E/DX2                !
 ! D106  D(42,25,26,17)       -178.6379         estimate D2E/DX2                !
 ! D107  D(42,25,26,43)          1.3665         estimate D2E/DX2                !
 --------------------------------------------------------------------------------
 Trust Radius=3.00D-01 FncErr=1.00D-07 GrdErr=1.00D-06 EigMax=2.50D+02 EigMin=1.00D-04
 Number of steps in this run=    238 maximum allowed number of steps=    258.
 GradGradGradGradGradGradGradGradGradGradGradGradGradGradGradGradGradGrad

 Leave Link  103 at Mon Oct 14 01:31:30 2019, MaxMem= 10737418240 cpu:               0.8 elap:               0.1
 (Enter /apps/cent7/gaussian/g16-A.03/g16-haswell/g16/l202.exe)
                          Input orientation:                          
 ---------------------------------------------------------------------
 Center     Atomic      Atomic             Coordinates (Angstroms)
 Number     Number       Type             X           Y           Z
 ---------------------------------------------------------------------
      1          8           0       -1.211100    1.901200    4.583400
      2          6           0       -1.791500    0.797400    4.464600
      3          8           0       -1.596600   -0.136500    5.428800
      4          6           0       -2.667400    0.553600    3.300500
      5          6           0       -3.309100   -0.763300    3.311600
      6          6           0       -4.568700   -1.011800    3.785500
      7          6           0       -5.515300   -0.146300    4.374300
      8          6           0       -6.769400   -0.662500    4.748600
      9          9           0       -7.652100    0.124800    5.297900
     10          6           0       -7.072000   -2.020300    4.521200
     11          6           0       -6.120500   -2.870600    3.926400
     12          6           0       -4.842200   -2.366100    3.598200
     13          6           0       -2.797200   -1.935200    2.883800
     14          6           0       -1.451900   -2.119400    2.329400
     15          6           0       -3.708300   -2.951500    3.066700
     16          6           0       -3.486500   -4.256300    2.780400
     17          6           0       -4.293400   -5.352700    3.051000
     18          6           0       -4.739100   -6.169400    1.986800
     19          6           0       -5.456700   -7.351400    2.242700
     20          6           0       -5.753000   -7.741800    3.565200
     21         16           0       -6.604900   -9.279300    3.821400
     22          8           0       -5.766300  -10.464000    3.133300
     23          6           0       -6.847600   -9.709900    5.585500
     24          8           0       -8.041700   -9.220500    3.106800
     25          6           0       -5.344100   -6.911800    4.631300
     26          6           0       -4.608800   -5.735800    4.377200
     27          1           0       -1.674100   -1.013200    5.045400
     28          1           0       -3.478500    1.277800    3.377400
     29          1           0       -2.015100    0.556700    2.427300
     30          1           0       -5.281200    0.905600    4.537700
     31          1           0       -8.047100   -2.414800    4.807000
     32          1           0       -6.371500   -3.911400    3.721600
     33          1           0       -0.733800   -2.217700    3.143500
     34          1           0       -1.431800   -3.020400    1.716300
     35          1           0       -1.190400   -1.256900    1.716300
     36          1           0       -2.542800   -4.447500    2.269600
     37          1           0       -4.527000   -5.884300    0.956400
     38          1           0       -5.786100   -7.970700    1.408400
     39          1           0       -6.862800  -10.794200    5.696000
     40          1           0       -6.030600   -9.295900    6.176300
     41          1           0       -7.793900   -9.295900    5.933600
     42          1           0       -5.597600   -7.180600    5.656800
     43          1           0       -4.281400   -5.117700    5.213200
 ---------------------------------------------------------------------
                    Distance matrix (angstroms):
                    1          2          3          4          5
     1  O    0.000000
     2  C    1.252738   0.000000
     3  O    2.239539   1.356406   0.000000
     4  C    2.362767   1.477081   2.480426   0.000000
     5  C    3.621966   2.463393   2.794292   1.464967   0.000000
     6  C    4.516159   3.383374   3.507130   2.510108   1.368549
     7  C    4.770966   3.842579   4.058112   3.123050   2.525339
     8  C    6.123279   5.195330   5.243778   4.516890   3.748174
     9  F    6.719568   5.957635   6.062548   5.387087   4.857547
    10  C    7.052105   5.985509   5.861096   5.245529   4.147601
    11  C    6.877785   5.699485   5.495287   4.903141   3.566884
    12  C    5.689056   4.479414   4.342365   3.652811   2.236404
    13  C    4.485791   3.313226   3.339729   2.526779   1.348482
    14  C    4.615596   3.630720   3.682270   3.092799   2.500583
    15  C    5.664370   4.436496   4.238280   3.663859   2.237757
    16  C    6.807574   5.590120   5.249619   4.906788   3.537611
    17  C    8.029190   6.788335   6.335251   6.131110   4.700995
    18  C    9.182794   7.960160   7.623552   7.156569   5.746818
    19  C   10.445794   9.207251   8.781024   8.449151   7.011262
    20  C   10.707616   9.456233   8.865058   8.854640   7.398407
    21  S   12.436933  11.185813  10.547872  10.604771   9.145734
    22  O   13.257104  12.016261  11.371586  11.446338  10.008656
    23  C   12.945732  11.714261  10.920052  11.315243   9.886013
    24  O   13.135054  11.885577  11.377612  11.155880   9.693486
    25  C    9.734113   8.490025   7.783602   8.041638   6.609606
    26  C    8.361259   7.115302   6.444484   6.669698   5.248855
    27  H    2.986895   1.905094   0.960002   2.546799   2.396192
    28  H    2.642757   2.063676   3.122504   1.090075   2.049174
    29  H    2.665120   2.063619   3.108805   1.089946   2.049103
    30  H    4.190349   3.492142   3.931451   2.913163   2.859673
    31  H    8.087568   7.040454   6.869224   6.326303   5.235677
    32  H    7.820406   6.610692   6.321714   5.816692   4.411001
    33  H    4.389358   3.457580   3.209114   3.382833   2.962382
    34  H    5.700098   4.717853   4.703902   4.099985   3.341218
    35  H    4.265476   3.483479   3.899096   2.822965   2.697687
    36  H    6.887168   5.735107   5.427758   5.107767   3.904652
    37  H    9.206755   8.027175   7.850275   7.099259   5.766705
    38  H   11.334269  10.108252   9.751421   9.272002   7.855209
    39  H   13.941046  12.712184  11.890788  12.333384  10.905645
    40  H   12.293899  11.080370  10.203613  10.797870   9.403102
    41  H   13.058765  11.834757  11.070499  11.411699   9.989674
    42  H   10.142616   8.919429   8.104278   8.599772   7.205479
    43  H    7.686895   6.461301   5.662772   6.198956   4.849974
                    6          7          8          9         10
     6  C    0.000000
     7  C    1.411321   0.000000
     8  C    2.427479   1.406887   0.000000
     9  F    3.617536   2.343597   1.304121   0.000000
    10  C    2.797291   2.440650   1.409574   2.353982   0.000000
    11  C    2.425505   2.826427   2.443929   3.633075   1.407888
    12  C    1.394278   2.445998   2.817760   4.121784   2.437932
    13  C    2.191790   3.579081   4.568984   5.800132   4.578453
    14  C    3.614062   4.958423   6.020871   7.231245   6.033186
    15  C    2.240401   3.583883   4.175960   5.476809   3.781161
    16  C    3.564851   4.852695   5.250394   6.548593   4.570108
    17  C    4.411201   5.509153   5.568698   6.806793   4.581157
    18  C    5.464906   6.525364   6.486571   7.685435   5.392647
    19  C    6.584778   7.514028   7.262513   8.369444   6.018420
    20  C    6.836958   7.642170   7.249137   8.276003   5.948887
    21  S    8.514632   9.214370   8.668103   9.576731   7.307598
    22  O    9.550063  10.395096   9.984228  10.971072   8.656049
    23  C    9.170078   9.731622   9.086361   9.871740   7.766147
    24  O    8.938966   9.504228   8.806453   9.606630   7.401603
    25  C    6.010543   6.772544   6.410849   7.435386   5.188885
    26  C    4.761081   5.662531   5.526708   6.667533   4.460160
    27  H    3.156907   3.994585   5.115971   6.090590   5.516009
    28  H    2.568531   2.677765   4.058938   4.736736   5.009889
    29  H    3.290254   4.066499   5.429388   6.340556   6.049594
    30  H    2.179423   1.089952   2.172132   2.609352   3.430470
    31  H    3.887305   3.426855   2.169443   2.616596   1.090015
    32  H    3.414945   3.916002   3.430511   4.518359   2.169405
    33  H    4.070972   5.354279   6.436106   7.615223   6.489207
    34  H    4.261010   5.656888   6.576056   7.836598   6.378050
    35  H    3.969203   5.196456   6.377570   7.516018   6.560752
    36  H    4.266879   5.636119   6.191592   7.495430   5.610228
    37  H    5.634430   6.751550   6.832008   8.045132   5.840832
    38  H    7.453788   8.372045   8.095283   9.173183   6.837421
    39  H   10.227818  10.813899  10.176327  10.954727   8.854673
    40  H    8.745250   9.339589   8.781785   9.599502   7.533806
    41  H    9.145631   9.557124   8.774362   9.443189   7.446500
    42  H    6.527978   7.150731   6.684577   7.597279   5.485630
    43  H    4.356522   5.190480   5.123944   6.233185   4.226133
                   11         12         13         14         15
    11  C    0.000000
    12  C    1.412900   0.000000
    13  C    3.606426   2.208635   0.000000
    14  C    4.991046   3.628340   1.466670   0.000000
    15  C    2.562096   1.382358   1.377106   2.515421   0.000000
    16  C    3.189269   2.465679   2.423496   2.984852   1.354129
    17  C    3.203973   3.085513   3.734418   4.364523   2.471508
    18  C    4.068464   4.131868   4.743842   5.227385   3.547339
    19  C    4.832499   5.202711   6.067880   6.589367   4.805726
    20  C    4.898378   5.452412   6.551157   7.185962   5.232234
    21  S    6.427838   7.137875   8.325472   8.946711   7.000065
    22  O    7.642918   8.163705   9.034281   9.428290   7.789574
    23  C    7.075119   7.867807   9.173379   9.865671   7.866100
    24  O    6.684608   7.580308   8.979427   9.718819   7.621045
    25  C    4.175042   4.688559   5.857218   6.589011   4.561556
    26  C    3.270754   3.466438   4.467292   5.218990   3.206343
    27  H    4.946976   3.736520   2.604602   2.941038   3.436602
    28  H    4.948817   3.896978   3.321322   4.092234   4.246919
    29  H    5.554097   4.231579   2.651347   2.736474   3.947559
    30  H    3.916350   3.432113   4.120168   5.356375   4.417587
    31  H    2.166794   3.425632   5.611610   7.051413   4.705516
    32  H    1.090050   2.177599   4.169280   5.417744   2.905673
    33  H    5.482312   4.136149   2.098778   1.089995   3.064639
    34  H    5.185643   3.949745   2.098817   1.089998   2.647788
    35  H    5.638657   4.255293   2.098798   1.090037   3.321908
    36  H    4.246356   3.374114   2.598771   2.571709   2.057128
    37  H    4.521342   4.410917   4.722549   5.051321   3.704720
    38  H    5.697646   6.090789   6.894751   7.339703   5.679752
    39  H    8.152664   8.917200  10.144923  10.764014   8.852798
    40  H    6.808422   7.488726   8.687654   9.341589   7.437345
    41  H    6.936397   7.885985   9.404690  10.232955   8.072339
    42  H    4.673736   5.290357   6.560944   7.339902   5.306916
    43  H    3.176098   3.239448   4.213936   5.031121   3.102955
                   16         17         18         19         20
    16  C    0.000000
    17  C    1.387950   0.000000
    18  C    2.420487   1.413566   0.000000
    19  C    3.708160   2.449779   1.406257   0.000000
    20  C    4.231033   2.846512   2.447812   1.410394   0.000000
    21  S    6.003218   4.621118   4.064289   2.743621   1.776310
    22  O    6.622504   5.319924   4.562148   3.252276   2.756281
    23  C    6.993378   5.650913   5.470974   4.321046   3.025422
    24  O    6.745344   5.386348   4.633657   3.304910   2.763120
    25  C    3.732049   2.456036   2.812572   2.431324   1.411619
    26  C    2.449132   1.415998   2.432899   2.808058   2.447973
    27  H    4.351174   5.446983   6.733176   7.895313   8.006402
    28  H    5.566214   6.688358   7.680083   8.925464   9.303860
    29  H    5.045262   6.364013   7.270119   8.626513   9.172340
    30  H    5.740580   6.507868   7.540331   8.571807   8.714693
    31  H    5.319521   5.079868   5.743989   6.136434   5.931432
    32  H    3.054184   2.616400   3.282198   3.854556   3.883165
    33  H    3.444574   4.744211   5.744242   7.033641   7.475686
    34  H    2.623271   3.925532   4.574670   5.935864   6.662043
    35  H    3.924383   5.309012   6.066226   7.457972   8.141847
    36  H    1.089974   2.120041   2.805111   4.113900   4.778742
    37  H    2.657066   2.173595   1.089951   2.161317   3.429172
    38  H    4.579008   3.432231   2.162276   1.089997   2.169165
    39  H    7.914813   6.573261   6.297384   5.074965   3.884470
    40  H    6.588031   5.322987   5.384690   4.425342   3.051251
    41  H    7.341249   6.009302   5.889315   4.781875   3.491392
    42  H    4.613236   3.439818   3.902364   3.421272   2.171148
    43  H    2.700443   2.174966   3.424211   3.898027   3.430366
                   21         22         23         24         25
    21  S    0.000000
    22  O    1.606314   0.000000
    23  C    1.832039   2.784091   0.000000
    24  O    1.605772   2.593152   2.794520   0.000000
    25  C    2.801894   3.878193   3.316681   3.864096   0.000000
    26  C    4.104841   5.024238   4.718653   5.053895   1.410039
    27  H    9.702545  10.474724  10.133578  10.567132   6.959444
    28  H   11.019250  11.965094  11.702824  11.450342   8.492484
    29  H   10.943339  11.663008  11.778385  11.505445   8.468669
    30  H   10.295507  11.466275  10.781481  10.592721   7.818213
    31  H    7.083270   8.531878   7.433932   7.014860   5.249770
    32  H    5.373899   6.606734   6.109288   5.599472   3.299319
    33  H    9.208450   9.660622   9.973714  10.121559   6.745590
    34  H    8.388459   8.729431   9.436684   9.168724   6.240698
    35  H    9.904906  10.378701  10.882455  10.596826   7.597917
    36  H    6.500387   6.880058   7.564347   7.329416   4.415618
    37  H    4.904276   5.220001   6.438087   5.301657   3.902345
    38  H    2.864513   3.031867   4.647555   3.087765   3.421070
    39  H    2.423955   2.806916   1.090022   3.251199   4.302681
    40  H    2.423974   3.270193   1.089922   3.670428   2.922711
    41  H    2.423919   3.649288   1.089979   2.838642   3.658065
    42  H    2.964437   4.144542   2.822223   4.078887   1.090030
    43  H    4.965347   5.925693   5.273736   5.950609   2.164887
                   26         27         28         29         30
    26  C    0.000000
    27  H    5.600170   0.000000
    28  H    7.174104   3.359578   0.000000
    29  H    7.079897   3.071696   1.887913   0.000000
    30  H    6.677281   4.117126   2.175904   3.904219   0.000000
    31  H    4.799550   6.529659   6.045755   7.132868   4.329871
    32  H    2.620183   5.676053   5.951111   6.373174   5.005823
    33  H    5.377236   2.439715   4.450461   3.138784   5.690136
    34  H    4.954505   3.894928   5.042099   3.693427   6.179940
    35  H    6.231083   3.372872   3.797283   2.115371   5.419534
    36  H    3.220256   4.500458   5.906083   5.034417   6.426414
    37  H    3.424999   6.970407   7.632579   7.068215   7.713447
    38  H    3.898023   8.862456   9.733280   9.379507   9.425293
    39  H    5.692729  11.091161  12.750003  12.768223  11.862902
    40  H    4.234689   9.426619  11.231660  11.280646  10.359402
    41  H    5.024097  10.336536  11.702990  11.948322  10.598717
    42  H    2.168536   7.335154   9.012812   9.117554   8.169402
    43  H    1.090016   4.865500   6.702032   6.715368   6.142967
                   31         32         33         34         35
    31  H    0.000000
    32  H    2.495103   0.000000
    33  H    7.502695   5.914937   0.000000
    34  H    7.326757   5.405159   1.780009   0.000000
    35  H    7.609697   6.157223   1.780034   1.779946   0.000000
    36  H    6.392776   4.129728   3.001365   1.891316   3.509281
    37  H    6.265433   3.865339   5.711018   4.284814   5.755274
    38  H    6.894246   4.708663   7.850689   6.600015   8.141890
    39  H    8.509244   7.177226  10.846025  10.284247  11.788733
    40  H    7.300054   5.927445   9.346383   8.967857  10.389642
    41  H    6.977311   5.992412  10.379335   9.881490  11.225745
    42  H    5.425409   3.877059   7.389425   7.084398   8.369061
    43  H    4.653081   2.836996   5.027835   4.974655   6.057092
                   36         37         38         39         40
    36  H    0.000000
    37  H    2.779557   0.000000
    38  H    4.865552   2.478447   0.000000
    39  H    8.407331   7.212967   5.245469   0.000000
    40  H    7.136809   6.414607   4.954675   1.779929   0.000000
    41  H    8.031558   6.861791   5.124924   1.779973   1.779924
    42  H    5.317402   4.992027   4.325355   3.828887   2.220780
    43  H    3.483774   4.332244   4.988009   6.254548   4.630833
                   41         42         43
    41  H    0.000000
    42  H    3.061837   0.000000
    43  H    5.505814   2.486910   0.000000
 Stoichiometry    C20H17FO4S
 Framework group  C1[X(C20H17FO4S)]
 Deg. of freedom   123
 Full point group                 C1      NOp   1
 Largest Abelian subgroup         C1      NOp   1
 Largest concise Abelian subgroup C1      NOp   1
                         Standard orientation:                         
 ---------------------------------------------------------------------
 Center     Atomic      Atomic             Coordinates (Angstroms)
 Number     Number       Type             X           Y           Z
 ---------------------------------------------------------------------
      1          8           0        6.772382   -1.127891    0.971250
      2          6           0        5.534328   -0.985652    0.843409
      3          8           0        4.758547   -1.096381    1.950540
      4          6           0        4.965623   -0.694334   -0.488310
      5          6           0        3.511625   -0.515519   -0.481713
      6          6           0        2.876144    0.694138   -0.405424
      7          6           0        3.398906    2.000192   -0.292424
      8          6           0        2.509148    3.089677   -0.266289
      9          9           0        2.978008    4.301741   -0.157647
     10          6           0        1.120254    2.871346   -0.367307
     11          6           0        0.613202    1.563371   -0.486675
     12          6           0        1.501870    0.465258   -0.460159
     13          6           0        2.561654   -1.470987   -0.536852
     14          6           0        2.815001   -2.914467   -0.594318
     15          6           0        1.307724   -0.902745   -0.502487
     16          6           0        0.141430   -1.590790   -0.498192
     17          6           0       -1.149635   -1.107802   -0.336086
     18          6           0       -2.110277   -1.333675   -1.348172
     19          6           0       -3.452740   -0.960622   -1.157952
     20          6           0       -3.866248   -0.346730    0.042614
     21         16           0       -5.588335    0.039142    0.244603
     22          8           0       -6.451751   -1.301795    0.053176
     23          6           0       -6.004089    0.749804    1.881208
     24          8           0       -6.041250    1.077093   -0.893831
     25          6           0       -2.905289   -0.083596    1.042606
     26          6           0       -1.562496   -0.473491    0.860678
     27          1           0        3.891627   -1.425545    1.702134
     28          1           0        5.379999    0.268221   -0.788382
     29          1           0        5.151243   -1.580506   -1.095127
     30          1           0        4.474273    2.165106   -0.226201
     31          1           0        0.434693    3.718654   -0.352927
     32          1           0       -0.459014    1.402101   -0.598719
     33          1           0        2.994801   -3.292110    0.412234
     34          1           0        1.948557   -3.418683   -1.022264
     35          1           0        3.689978   -3.105285   -1.215754
     36          1           0        0.255876   -2.665039   -0.642881
     37          1           0       -1.812323   -1.801059   -2.286665
     38          1           0       -4.179426   -1.149167   -1.948188
     39          1           0       -7.025908    0.478152    2.146237
     40          1           0       -5.317759    0.358675    2.632141
     41          1           0       -5.916103    1.835397    1.838787
     42          1           0       -3.201907    0.423616    1.960713
     43          1           0       -0.837540   -0.282931    1.652044
 ---------------------------------------------------------------------
 Rotational constants (GHZ):           0.3806207           0.0793367           0.0706452
 Leave Link  202 at Mon Oct 14 01:31:30 2019, MaxMem= 10737418240 cpu:               0.4 elap:               0.0
 (Enter /apps/cent7/gaussian/g16-A.03/g16-haswell/g16/l301.exe)
 Standard basis: 6-31G(d) (6D, 7F)
 Ernie: Thresh=  0.10000D-02 Tol=  0.10000D-05 Strict=F.
 There are   428 symmetry adapted cartesian basis functions of A   symmetry.
 There are   428 symmetry adapted basis functions of A   symmetry.
   428 basis functions,   820 primitive gaussians,   428 cartesian basis functions
    97 alpha electrons       97 beta electrons
       nuclear repulsion energy      2346.5796931258 Hartrees.
 IExCor=  402 DFT=T Ex+Corr=B3LYP ExCW=0 ScaHFX=  0.200000
 ScaDFX=  0.800000  0.720000  1.000000  0.810000 ScalE2=  1.000000  1.000000
 IRadAn=      5 IRanWt=     -1 IRanGd=            0 ICorTp=0 IEmpDi=  4
 NAtoms=   43 NActive=   43 NUniq=   43 SFac= 1.00D+00 NAtFMM=   60 NAOKFM=F Big=F
 Integral buffers will be    131072 words long.
 Raffenetti 2 integral format.
 Two-electron integral symmetry is turned on.
 Leave Link  301 at Mon Oct 14 01:31:30 2019, MaxMem= 10737418240 cpu:               1.6 elap:               0.1
 (Enter /apps/cent7/gaussian/g16-A.03/g16-haswell/g16/l302.exe)
 NPDir=0 NMtPBC=     1 NCelOv=     1 NCel=       1 NClECP=     1 NCelD=      1
         NCelK=      1 NCelE2=     1 NClLst=     1 CellRange=     0.0.
 One-electron integrals computed using PRISM.
 One-electron integral symmetry used in STVInt
 NBasis=   428 RedAO= T EigKep=  2.89D-04  NBF=   428
 NBsUse=   428 1.00D-06 EigRej= -1.00D+00 NBFU=   428
 Precomputing XC quadrature grid using
 IXCGrd= 4 IRadAn=           5 IRanWt=          -1 IRanGd=           0 AccXCQ= 0.00D+00.
 Generated NRdTot=       0 NPtTot=           0 NUsed=           0 NTot=          32
 NSgBfM=   421   421   421   421   421 MxSgAt=    43 MxSgA2=    43.
 Leave Link  302 at Mon Oct 14 01:31:31 2019, MaxMem= 10737418240 cpu:               8.3 elap:               0.4
 (Enter /apps/cent7/gaussian/g16-A.03/g16-haswell/g16/l303.exe)
 DipDrv:  MaxL=1.
 Leave Link  303 at Mon Oct 14 01:31:31 2019, MaxMem= 10737418240 cpu:               1.1 elap:               0.1
 (Enter /apps/cent7/gaussian/g16-A.03/g16-haswell/g16/l401.exe)
 ExpMin= 1.17D-01 ExpMax= 2.19D+04 ExpMxC= 3.30D+03 IAcc=3 IRadAn=         5 AccDes= 0.00D+00
 Harris functional with IExCor=  402 and IRadAn=       5 diagonalized for initial guess.
 HarFok:  IExCor=  402 AccDes= 0.00D+00 IRadAn=         5 IDoV= 1 UseB2=F ITyADJ=14
 ICtDFT=  3500011 ScaDFX=  1.000000  1.000000  1.000000  1.000000
 FoFCou: FMM=F IPFlag=           0 FMFlag=      100000 FMFlg1=           0
         NFxFlg=           0 DoJE=T BraDBF=F KetDBF=T FulRan=T
         wScrn=  0.000000 ICntrl=       500 IOpCl=  0 I1Cent=   200000004 NGrid=           0
         NMat0=    1 NMatS0=      1 NMatT0=    0 NMatD0=    1 NMtDS0=    0 NMtDT0=    0
 Petite list used in FoFCou.
 Harris En= -1571.23917042995    
 JPrj=0 DoOrth=F DoCkMO=F.
 Leave Link  401 at Mon Oct 14 01:31:32 2019, MaxMem= 10737418240 cpu:              22.8 elap:               1.0
 (Enter /apps/cent7/gaussian/g16-A.03/g16-haswell/g16/l502.exe)
 Integral symmetry usage will be decided dynamically.
 Closed shell SCF:
 Using DIIS extrapolation, IDIIS=  1040.
 NGot= 10737418240 LenX= 10737036960 LenY= 10736853335
 Requested convergence on RMS density matrix=1.00D-08 within 128 cycles.
 Requested convergence on MAX density matrix=1.00D-06.
 Requested convergence on             energy=1.00D-06.
 No special actions if energy rises.
 Fock matrices will be formed incrementally for  20 cycles.
 Integral accuracy reduced to 1.0D-05 until final iterations.

 Cycle   1  Pass 0  IDiag  1:
 FoFJK:  IHMeth= 1 ICntrl=       0 DoSepK=F KAlg= 0 I1Cent=           0 FoldK=F
 IRaf= 690000000 NMat=       1 IRICut=       1 DoRegI=T DoRafI=F ISym2E= 0 IDoP0=0 IntGTp=1.
 FoFCou: FMM=F IPFlag=           0 FMFlag=      100000 FMFlg1=           0
         NFxFlg=           0 DoJE=F BraDBF=F KetDBF=F FulRan=T
         wScrn=  0.000000 ICntrl=         0 IOpCl=  0 I1Cent=           0 NGrid=           0
         NMat0=    1 NMatS0=      1 NMatT0=    0 NMatD0=    1 NMtDS0=    0 NMtDT0=    0
 Symmetry not used in FoFCou.
 E= -1570.26794169053    
 DIIS: error= 3.07D-02 at cycle   1 NSaved=   1.
 NSaved= 1 IEnMin= 1 EnMin= -1570.26794169053     IErMin= 1 ErrMin= 3.07D-02
 ErrMax= 3.07D-02  0.00D+00 EMaxC= 1.00D-01 BMatC= 9.30D-01 BMatP= 9.30D-01
 IDIUse=3 WtCom= 6.93D-01 WtEn= 3.07D-01
 Coeff-Com:  0.100D+01
 Coeff-En:   0.100D+01
 Coeff:      0.100D+01
 Gap=     0.111 Goal=   None    Shift=    0.000
 GapD=    0.111 DampG=1.000 DampE=0.500 DampFc=0.5000 IDamp=-1.
 Damping current iteration by 5.00D-01
 RMSDP=7.69D-03 MaxDP=6.69D-01              OVMax= 4.29D-01

 Cycle   2  Pass 0  IDiag  1:
 RMSU=  3.83D-03    CP:  9.83D-01
 E= -1570.25137849251     Delta-E=        0.016563198019 Rises=F Damp=T
 DIIS: error= 2.73D-02 at cycle   2 NSaved=   2.
 NSaved= 2 IEnMin= 1 EnMin= -1570.26794169053     IErMin= 2 ErrMin= 2.73D-02
 ErrMax= 2.73D-02  0.00D+00 EMaxC= 1.00D-01 BMatC= 3.18D-01 BMatP= 9.30D-01
 IDIUse=3 WtCom= 7.27D-01 WtEn= 2.73D-01
 Coeff-Com:  0.331D+00 0.669D+00
 Coeff-En:   0.508D+00 0.492D+00
 Coeff:      0.379D+00 0.621D+00
 Gap=     0.249 Goal=   None    Shift=    0.000
 RMSDP=3.10D-03 MaxDP=1.72D-01 DE= 1.66D-02 OVMax= 3.75D-01

 Cycle   3  Pass 0  IDiag  1:
 RMSU=  2.47D-03    CP:  9.48D-01  5.42D-01
 E= -1570.95536598282     Delta-E=       -0.703987490307 Rises=F Damp=F
 DIIS: error= 1.45D-02 at cycle   3 NSaved=   3.
 NSaved= 3 IEnMin= 3 EnMin= -1570.95536598282     IErMin= 3 ErrMin= 1.45D-02
 ErrMax= 1.45D-02  0.00D+00 EMaxC= 1.00D-01 BMatC= 1.66D-01 BMatP= 3.18D-01
 IDIUse=3 WtCom= 8.55D-01 WtEn= 1.45D-01
 Coeff-Com:  0.139D+00 0.398D+00 0.464D+00
 Coeff-En:   0.000D+00 0.000D+00 0.100D+01
 Coeff:      0.119D+00 0.340D+00 0.541D+00
 Gap=     0.122 Goal=   None    Shift=    0.000
 RMSDP=1.51D-03 MaxDP=6.67D-02 DE=-7.04D-01 OVMax= 1.15D-01

 Cycle   4  Pass 0  IDiag  1:
 RMSU=  1.11D-03    CP:  9.56D-01  6.68D-01  6.40D-01
 E= -1571.09262411318     Delta-E=       -0.137258130362 Rises=F Damp=F
 DIIS: error= 7.29D-03 at cycle   4 NSaved=   4.
 NSaved= 4 IEnMin= 4 EnMin= -1571.09262411318     IErMin= 4 ErrMin= 7.29D-03
 ErrMax= 7.29D-03  0.00D+00 EMaxC= 1.00D-01 BMatC= 2.83D-02 BMatP= 1.66D-01
 IDIUse=3 WtCom= 9.27D-01 WtEn= 7.29D-02
 Coeff-Com:  0.332D-01 0.860D-01 0.301D+00 0.580D+00
 Coeff-En:   0.000D+00 0.000D+00 0.142D+00 0.858D+00
 Coeff:      0.308D-01 0.797D-01 0.290D+00 0.600D+00
 Gap=     0.120 Goal=   None    Shift=    0.000
 RMSDP=5.72D-04 MaxDP=2.60D-02 DE=-1.37D-01 OVMax= 4.21D-02

 Cycle   5  Pass 0  IDiag  1:
 RMSU=  2.96D-04    CP:  9.56D-01  6.21D-01  7.16D-01  6.28D-01
 E= -1571.11376492408     Delta-E=       -0.021140810904 Rises=F Damp=F
 DIIS: error= 2.28D-03 at cycle   5 NSaved=   5.
 NSaved= 5 IEnMin= 5 EnMin= -1571.11376492408     IErMin= 5 ErrMin= 2.28D-03
 ErrMax= 2.28D-03  0.00D+00 EMaxC= 1.00D-01 BMatC= 4.45D-03 BMatP= 2.83D-02
 IDIUse=3 WtCom= 9.77D-01 WtEn= 2.28D-02
 Coeff-Com:  0.470D-02 0.989D-02 0.130D+00 0.390D+00 0.466D+00
 Coeff-En:   0.000D+00 0.000D+00 0.000D+00 0.137D+00 0.863D+00
 Coeff:      0.460D-02 0.967D-02 0.127D+00 0.384D+00 0.475D+00
 Gap=     0.121 Goal=   None    Shift=    0.000
 RMSDP=2.22D-04 MaxDP=1.33D-02 DE=-2.11D-02 OVMax= 2.01D-02

 Cycle   6  Pass 0  IDiag  1:
 RMSU=  1.11D-04    CP:  9.56D-01  6.30D-01  7.17D-01  7.15D-01  4.56D-01
 E= -1571.11752574045     Delta-E=       -0.003760816373 Rises=F Damp=F
 DIIS: error= 9.13D-04 at cycle   6 NSaved=   6.
 NSaved= 6 IEnMin= 6 EnMin= -1571.11752574045     IErMin= 6 ErrMin= 9.13D-04
 ErrMax= 9.13D-04  0.00D+00 EMaxC= 1.00D-01 BMatC= 5.72D-04 BMatP= 4.45D-03
 IDIUse=3 WtCom= 9.91D-01 WtEn= 9.13D-03
 Coeff-Com:  0.181D-03-0.330D-02 0.501D-01 0.182D+00 0.314D+00 0.457D+00
 Coeff-En:   0.000D+00 0.000D+00 0.000D+00 0.000D+00 0.123D+00 0.877D+00
 Coeff:      0.180D-03-0.327D-02 0.496D-01 0.180D+00 0.312D+00 0.461D+00
 Gap=     0.119 Goal=   None    Shift=    0.000
 RMSDP=8.07D-05 MaxDP=5.44D-03 DE=-3.76D-03 OVMax= 1.11D-02

 Cycle   7  Pass 0  IDiag  1:
 RMSU=  4.57D-05    CP:  9.56D-01  6.31D-01  7.16D-01  7.03D-01  5.61D-01
                    CP:  4.84D-01
 E= -1571.11806598941     Delta-E=       -0.000540248954 Rises=F Damp=F
 DIIS: error= 3.05D-04 at cycle   7 NSaved=   7.
 NSaved= 7 IEnMin= 7 EnMin= -1571.11806598941     IErMin= 7 ErrMin= 3.05D-04
 ErrMax= 3.05D-04  0.00D+00 EMaxC= 1.00D-01 BMatC= 6.46D-05 BMatP= 5.72D-04
 IDIUse=3 WtCom= 9.97D-01 WtEn= 3.05D-03
 Coeff-Com:  0.339D-04-0.331D-02 0.156D-01 0.616D-01 0.134D+00 0.298D+00
 Coeff-Com:  0.494D+00
 Coeff-En:   0.000D+00 0.000D+00 0.000D+00 0.000D+00 0.000D+00 0.946D-01
 Coeff-En:   0.905D+00
 Coeff:      0.338D-04-0.330D-02 0.155D-01 0.614D-01 0.133D+00 0.298D+00
 Coeff:      0.495D+00
 Gap=     0.120 Goal=   None    Shift=    0.000
 RMSDP=2.90D-05 MaxDP=1.73D-03 DE=-5.40D-04 OVMax= 4.40D-03

 Cycle   8  Pass 0  IDiag  1:
 RMSU=  1.72D-05    CP:  9.56D-01  6.29D-01  7.18D-01  7.06D-01  5.50D-01
                    CP:  5.75D-01  5.69D-01
 E= -1571.11812575764     Delta-E=       -0.000059768227 Rises=F Damp=F
 DIIS: error= 9.80D-05 at cycle   8 NSaved=   8.
 NSaved= 8 IEnMin= 8 EnMin= -1571.11812575764     IErMin= 8 ErrMin= 9.80D-05
 ErrMax= 9.80D-05  0.00D+00 EMaxC= 1.00D-01 BMatC= 9.07D-06 BMatP= 6.46D-05
 IDIUse=1 WtCom= 1.00D+00 WtEn= 0.00D+00
 Coeff-Com:  0.142D-03-0.197D-02 0.380D-02 0.160D-01 0.465D-01 0.139D+00
 Coeff-Com:  0.326D+00 0.471D+00
 Coeff:      0.142D-03-0.197D-02 0.380D-02 0.160D-01 0.465D-01 0.139D+00
 Coeff:      0.326D+00 0.471D+00
 Gap=     0.120 Goal=   None    Shift=    0.000
 RMSDP=1.13D-05 MaxDP=4.66D-04 DE=-5.98D-05 OVMax= 1.30D-03

 Cycle   9  Pass 0  IDiag  1:
 RMSU=  6.02D-06    CP:  9.56D-01  6.29D-01  7.19D-01  7.07D-01  5.52D-01
                    CP:  5.73D-01  6.26D-01  4.89D-01
 E= -1571.11813491674     Delta-E=       -0.000009159109 Rises=F Damp=F
 DIIS: error= 4.41D-05 at cycle   9 NSaved=   9.
 NSaved= 9 IEnMin= 9 EnMin= -1571.11813491674     IErMin= 9 ErrMin= 4.41D-05
 ErrMax= 4.41D-05  0.00D+00 EMaxC= 1.00D-01 BMatC= 1.06D-06 BMatP= 9.07D-06
 IDIUse=1 WtCom= 1.00D+00 WtEn= 0.00D+00
 Coeff-Com:  0.131D-03-0.833D-03 0.324D-03 0.151D-02 0.106D-01 0.462D-01
 Coeff-Com:  0.137D+00 0.300D+00 0.506D+00
 Coeff:      0.131D-03-0.833D-03 0.324D-03 0.151D-02 0.106D-01 0.462D-01
 Coeff:      0.137D+00 0.300D+00 0.506D+00
 Gap=     0.120 Goal=   None    Shift=    0.000
 RMSDP=3.30D-06 MaxDP=1.58D-04 DE=-9.16D-06 OVMax= 3.18D-04

 Initial convergence to 1.0D-05 achieved.  Increase integral accuracy.
 Cycle  10  Pass 1  IDiag  1:
 E= -1571.11813717327     Delta-E=       -0.000002256528 Rises=F Damp=F
 DIIS: error= 7.01D-05 at cycle   1 NSaved=   1.
 NSaved= 1 IEnMin= 1 EnMin= -1571.11813717327     IErMin= 1 ErrMin= 7.01D-05
 ErrMax= 7.01D-05  0.00D+00 EMaxC= 1.00D-01 BMatC= 1.26D-06 BMatP= 1.26D-06
 IDIUse=1 WtCom= 1.00D+00 WtEn= 0.00D+00
 Coeff-Com:  0.100D+01
 Coeff:      0.100D+01
 Gap=     0.120 Goal=   None    Shift=    0.000
 RMSDP=3.30D-06 MaxDP=1.58D-04 DE=-2.26D-06 OVMax= 3.00D-04

 Cycle  11  Pass 1  IDiag  1:
 RMSU=  5.34D-05    CP:  1.00D+00
 E= -1571.11813801437     Delta-E=       -0.000000841096 Rises=F Damp=F
 DIIS: error= 4.38D-05 at cycle   2 NSaved=   2.
 NSaved= 2 IEnMin= 2 EnMin= -1571.11813801437     IErMin= 2 ErrMin= 4.38D-05
 ErrMax= 4.38D-05  0.00D+00 EMaxC= 1.00D-01 BMatC= 4.66D-07 BMatP= 1.26D-06
 IDIUse=1 WtCom= 1.00D+00 WtEn= 0.00D+00
 Coeff-Com:  0.315D+00 0.685D+00
 Coeff:      0.315D+00 0.685D+00
 Gap=     0.120 Goal=   None    Shift=    0.000
 RMSDP=3.62D-06 MaxDP=2.66D-04 DE=-8.41D-07 OVMax= 4.90D-04

 Cycle  12  Pass 1  IDiag  1:
 RMSU=  3.60D-06    CP:  1.00D+00  1.01D+00
 E= -1571.11813778484     Delta-E=        0.000000229530 Rises=F Damp=F
 DIIS: error= 5.87D-05 at cycle   3 NSaved=   3.
 NSaved= 3 IEnMin= 2 EnMin= -1571.11813801437     IErMin= 2 ErrMin= 4.38D-05
 ErrMax= 5.87D-05  0.00D+00 EMaxC= 1.00D-01 BMatC= 7.41D-07 BMatP= 4.66D-07
 IDIUse=1 WtCom= 1.00D+00 WtEn= 0.00D+00
 Coeff-Com:  0.110D-01 0.555D+00 0.434D+00
 Coeff:      0.110D-01 0.555D+00 0.434D+00
 Gap=     0.120 Goal=   None    Shift=    0.000
 RMSDP=2.17D-06 MaxDP=1.70D-04 DE= 2.30D-07 OVMax= 2.94D-04

 Cycle  13  Pass 1  IDiag  1:
 RMSU=  7.11D-07    CP:  1.00D+00  1.01D+00  4.35D-01
 E= -1571.11813839089     Delta-E=       -0.000000606051 Rises=F Damp=F
 DIIS: error= 6.32D-06 at cycle   4 NSaved=   4.
 NSaved= 4 IEnMin= 4 EnMin= -1571.11813839089     IErMin= 4 ErrMin= 6.32D-06
 ErrMax= 6.32D-06  0.00D+00 EMaxC= 1.00D-01 BMatC= 2.45D-08 BMatP= 4.66D-07
 IDIUse=1 WtCom= 1.00D+00 WtEn= 0.00D+00
 Coeff-Com: -0.336D-02 0.341D+00 0.284D+00 0.378D+00
 Coeff:     -0.336D-02 0.341D+00 0.284D+00 0.378D+00
 Gap=     0.120 Goal=   None    Shift=    0.000
 RMSDP=4.66D-07 MaxDP=2.75D-05 DE=-6.06D-07 OVMax= 5.79D-05

 Cycle  14  Pass 1  IDiag  1:
 RMSU=  1.67D-07    CP:  1.00D+00  1.01D+00  4.59D-01  4.02D-01
 E= -1571.11813841351     Delta-E=       -0.000000022622 Rises=F Damp=F
 DIIS: error= 1.03D-06 at cycle   5 NSaved=   5.
 NSaved= 5 IEnMin= 5 EnMin= -1571.11813841351     IErMin= 5 ErrMin= 1.03D-06
 ErrMax= 1.03D-06  0.00D+00 EMaxC= 1.00D-01 BMatC= 9.19D-10 BMatP= 2.45D-08
 IDIUse=1 WtCom= 1.00D+00 WtEn= 0.00D+00
 Coeff-Com: -0.261D-02 0.202D+00 0.169D+00 0.247D+00 0.385D+00
 Coeff:     -0.261D-02 0.202D+00 0.169D+00 0.247D+00 0.385D+00
 Gap=     0.120 Goal=   None    Shift=    0.000
 RMSDP=9.88D-08 MaxDP=6.06D-06 DE=-2.26D-08 OVMax= 1.26D-05

 Cycle  15  Pass 1  IDiag  1:
 RMSU=  5.80D-08    CP:  1.00D+00  1.01D+00  4.53D-01  4.28D-01  5.52D-01
 E= -1571.11813841443     Delta-E=       -0.000000000919 Rises=F Damp=F
 DIIS: error= 3.01D-07 at cycle   6 NSaved=   6.
 NSaved= 6 IEnMin= 6 EnMin= -1571.11813841443     IErMin= 6 ErrMin= 3.01D-07
 ErrMax= 3.01D-07  0.00D+00 EMaxC= 1.00D-01 BMatC= 5.03D-11 BMatP= 9.19D-10
 IDIUse=1 WtCom= 1.00D+00 WtEn= 0.00D+00
 Coeff-Com: -0.136D-02 0.983D-01 0.822D-01 0.123D+00 0.240D+00 0.458D+00
 Coeff:     -0.136D-02 0.983D-01 0.822D-01 0.123D+00 0.240D+00 0.458D+00
 Gap=     0.120 Goal=   None    Shift=    0.000
 RMSDP=2.25D-08 MaxDP=1.18D-06 DE=-9.19D-10 OVMax= 2.03D-06

 Cycle  16  Pass 1  IDiag  1:
 RMSU=  1.85D-08    CP:  1.00D+00  1.01D+00  4.54D-01  4.26D-01  5.89D-01
                    CP:  8.23D-01
 E= -1571.11813841446     Delta-E=       -0.000000000030 Rises=F Damp=F
 DIIS: error= 8.62D-08 at cycle   7 NSaved=   7.
 NSaved= 7 IEnMin= 7 EnMin= -1571.11813841446     IErMin= 7 ErrMin= 8.62D-08
 ErrMax= 8.62D-08  0.00D+00 EMaxC= 1.00D-01 BMatC= 4.87D-12 BMatP= 5.03D-11
 IDIUse=1 WtCom= 1.00D+00 WtEn= 0.00D+00
 Coeff-Com: -0.301D-03 0.196D-01 0.162D-01 0.252D-01 0.674D-01 0.260D+00
 Coeff-Com:  0.612D+00
 Coeff:     -0.301D-03 0.196D-01 0.162D-01 0.252D-01 0.674D-01 0.260D+00
 Coeff:      0.612D+00
 Gap=     0.120 Goal=   None    Shift=    0.000
 RMSDP=8.46D-09 MaxDP=2.98D-07 DE=-2.96D-11 OVMax= 8.72D-07

 SCF Done:  E(RB3LYP) =  -1571.11813841     A.U. after   16 cycles
            NFock= 16  Conv=0.85D-08     -V/T= 2.0074
 KE= 1.559517230942D+03 PE=-8.371088786064D+03 EE= 2.893873723582D+03
 Leave Link  502 at Mon Oct 14 01:31:51 2019, MaxMem= 10737418240 cpu:             444.2 elap:              18.6
 (Enter /apps/cent7/gaussian/g16-A.03/g16-haswell/g16/l601.exe)
 Copying SCF densities to generalized density rwf, IOpCl= 0 IROHF=0.

 **********************************************************************

            Population analysis using the SCF density.

 **********************************************************************

 Orbital symmetries:
       Occupied  (A) (A) (A) (A) (A) (A) (A) (A) (A) (A) (A) (A)
                 (A) (A) (A) (A) (A) (A) (A) (A) (A) (A) (A) (A)
                 (A) (A) (A) (A) (A) (A) (A) (A) (A) (A) (A) (A)
                 (A) (A) (A) (A) (A) (A) (A) (A) (A) (A) (A) (A)
                 (A) (A) (A) (A) (A) (A) (A) (A) (A) (A) (A) (A)
                 (A) (A) (A) (A) (A) (A) (A) (A) (A) (A) (A) (A)
                 (A) (A) (A) (A) (A) (A) (A) (A) (A) (A) (A) (A)
                 (A) (A) (A) (A) (A) (A) (A) (A) (A) (A) (A) (A)
                 (A)
       Virtual   (A) (A) (A) (A) (A) (A) (A) (A) (A) (A) (A) (A)
                 (A) (A) (A) (A) (A) (A) (A) (A) (A) (A) (A) (A)
                 (A) (A) (A) (A) (A) (A) (A) (A) (A) (A) (A) (A)
                 (A) (A) (A) (A) (A) (A) (A) (A) (A) (A) (A) (A)
                 (A) (A) (A) (A) (A) (A) (A) (A) (A) (A) (A) (A)
                 (A) (A) (A) (A) (A) (A) (A) (A) (A) (A) (A) (A)
                 (A) (A) (A) (A) (A) (A) (A) (A) (A) (A) (A) (A)
                 (A) (A) (A) (A) (A) (A) (A) (A) (A) (A) (A) (A)
                 (A) (A) (A) (A) (A) (A) (A) (A) (A) (A) (A) (A)
                 (A) (A) (A) (A) (A) (A) (A) (A) (A) (A) (A) (A)
                 (A) (A) (A) (A) (A) (A) (A) (A) (A) (A) (A) (A)
                 (A) (A) (A) (A) (A) (A) (A) (A) (A) (A) (A) (A)
                 (A) (A) (A) (A) (A) (A) (A) (A) (A) (A) (A) (A)
                 (A) (A) (A) (A) (A) (A) (A) (A) (A) (A) (A) (A)
                 (A) (A) (A) (A) (A) (A) (A) (A) (A) (A) (A) (A)
                 (A) (A) (A) (A) (A) (A) (A) (A) (A) (A) (A) (A)
                 (A) (A) (A) (A) (A) (A) (A) (A) (A) (A) (A) (A)
                 (A) (A) (A) (A) (A) (A) (A) (A) (A) (A) (A) (A)
                 (A) (A) (A) (A) (A) (A) (A) (A) (A) (A) (A) (A)
                 (A) (A) (A) (A) (A) (A) (A) (A) (A) (A) (A) (A)
                 (A) (A) (A) (A) (A) (A) (A) (A) (A) (A) (A) (A)
                 (A) (A) (A) (A) (A) (A) (A) (A) (A) (A) (A) (A)
                 (A) (A) (A) (A) (A) (A) (A) (A) (A) (A) (A) (A)
                 (A) (A) (A) (A) (A) (A) (A) (A) (A) (A) (A) (A)
                 (A) (A) (A) (A) (A) (A) (A) (A) (A) (A) (A) (A)
                 (A) (A) (A) (A) (A) (A) (A) (A) (A) (A) (A) (A)
                 (A) (A) (A) (A) (A) (A) (A) (A) (A) (A) (A) (A)
                 (A) (A) (A) (A) (A) (A) (A)
 The electronic state is 1-A.
 Alpha  occ. eigenvalues --  -89.09915 -24.72695 -19.20283 -19.13239 -19.12912
 Alpha  occ. eigenvalues --  -19.12910 -10.32798 -10.28974 -10.26473 -10.25482
 Alpha  occ. eigenvalues --  -10.24802 -10.24146 -10.24092 -10.23816 -10.23510
 Alpha  occ. eigenvalues --  -10.22959 -10.22093 -10.21557 -10.21306 -10.21004
 Alpha  occ. eigenvalues --  -10.20937 -10.20707 -10.20548 -10.20403 -10.20379
 Alpha  occ. eigenvalues --  -10.19689  -8.12869  -6.09261  -6.09234  -6.09177
 Alpha  occ. eigenvalues --   -1.25339  -1.10301  -1.02781  -1.00082  -0.94174
 Alpha  occ. eigenvalues --   -0.92134  -0.90262  -0.85260  -0.84614  -0.81647
 Alpha  occ. eigenvalues --   -0.79400  -0.78553  -0.78353  -0.76444  -0.75064
 Alpha  occ. eigenvalues --   -0.70516  -0.69696  -0.65774  -0.65156  -0.62798
 Alpha  occ. eigenvalues --   -0.62217  -0.61542  -0.59453  -0.57442  -0.55163
 Alpha  occ. eigenvalues --   -0.55029  -0.53066  -0.52043  -0.50829  -0.50705
 Alpha  occ. eigenvalues --   -0.50123  -0.48818  -0.48490  -0.47922  -0.47613
 Alpha  occ. eigenvalues --   -0.47029  -0.46516  -0.46242  -0.45620  -0.45558
 Alpha  occ. eigenvalues --   -0.44383  -0.43778  -0.43416  -0.42500  -0.42223
 Alpha  occ. eigenvalues --   -0.41362  -0.40970  -0.40755  -0.40014  -0.39302
 Alpha  occ. eigenvalues --   -0.38819  -0.38485  -0.37289  -0.37136  -0.35155
 Alpha  occ. eigenvalues --   -0.33419  -0.31080  -0.30928  -0.29759  -0.29504
 Alpha  occ. eigenvalues --   -0.29124  -0.28140  -0.26831  -0.26699  -0.25383
 Alpha  occ. eigenvalues --   -0.23712  -0.22515
 Alpha virt. eigenvalues --   -0.10539  -0.05796  -0.04722  -0.02761  -0.01180
 Alpha virt. eigenvalues --    0.00061   0.02688   0.03214   0.03942   0.04607
 Alpha virt. eigenvalues --    0.06742   0.07108   0.07400   0.08797   0.09046
 Alpha virt. eigenvalues --    0.09997   0.10480   0.11164   0.11571   0.12392
 Alpha virt. eigenvalues --    0.13455   0.14858   0.15023   0.16176   0.16228
 Alpha virt. eigenvalues --    0.16956   0.17386   0.18220   0.18544   0.19696
 Alpha virt. eigenvalues --    0.19939   0.22153   0.22666   0.23529   0.25007
 Alpha virt. eigenvalues --    0.25568   0.26154   0.27177   0.27480   0.29293
 Alpha virt. eigenvalues --    0.30225   0.30675   0.32821   0.33939   0.35393
 Alpha virt. eigenvalues --    0.36509   0.37153   0.37400   0.39034   0.39333
 Alpha virt. eigenvalues --    0.41249   0.41602   0.43115   0.44440   0.45866
 Alpha virt. eigenvalues --    0.47311   0.48243   0.48478   0.48893   0.49596
 Alpha virt. eigenvalues --    0.50313   0.51196   0.51530   0.51880   0.52681
 Alpha virt. eigenvalues --    0.52925   0.53141   0.53884   0.54370   0.54548
 Alpha virt. eigenvalues --    0.55073   0.56043   0.56256   0.56662   0.57415
 Alpha virt. eigenvalues --    0.57618   0.57711   0.59066   0.59753   0.60364
 Alpha virt. eigenvalues --    0.60769   0.61575   0.62327   0.62742   0.63754
 Alpha virt. eigenvalues --    0.64717   0.65794   0.66337   0.67249   0.68815
 Alpha virt. eigenvalues --    0.69371   0.70981   0.72128   0.72671   0.73261
 Alpha virt. eigenvalues --    0.74674   0.75810   0.76504   0.77492   0.78392
 Alpha virt. eigenvalues --    0.78712   0.79113   0.80077   0.80240   0.80495
 Alpha virt. eigenvalues --    0.81122   0.81536   0.82269   0.82680   0.83062
 Alpha virt. eigenvalues --    0.83433   0.84420   0.85121   0.85637   0.85866
 Alpha virt. eigenvalues --    0.87149   0.87361   0.87448   0.88370   0.88738
 Alpha virt. eigenvalues --    0.89350   0.89630   0.90621   0.92123   0.93147
 Alpha virt. eigenvalues --    0.93561   0.93923   0.94751   0.95192   0.96150
 Alpha virt. eigenvalues --    0.97625   0.98130   0.98631   0.99846   1.00754
 Alpha virt. eigenvalues --    1.01565   1.03160   1.03828   1.04604   1.05521
 Alpha virt. eigenvalues --    1.06081   1.07276   1.08377   1.09780   1.10379
 Alpha virt. eigenvalues --    1.11869   1.12158   1.12552   1.13299   1.14326
 Alpha virt. eigenvalues --    1.17186   1.17777   1.18152   1.19825   1.20144
 Alpha virt. eigenvalues --    1.21073   1.21594   1.22132   1.22820   1.25268
 Alpha virt. eigenvalues --    1.26120   1.26926   1.29941   1.31417   1.32523
 Alpha virt. eigenvalues --    1.33214   1.34689   1.35607   1.36465   1.38174
 Alpha virt. eigenvalues --    1.39147   1.40666   1.40925   1.41256   1.42090
 Alpha virt. eigenvalues --    1.43019   1.43268   1.44703   1.45232   1.46664
 Alpha virt. eigenvalues --    1.46813   1.47882   1.50495   1.52082   1.52925
 Alpha virt. eigenvalues --    1.54658   1.58960   1.63075   1.64517   1.65041
 Alpha virt. eigenvalues --    1.66201   1.67975   1.68675   1.71683   1.72032
 Alpha virt. eigenvalues --    1.72887   1.74645   1.75885   1.76397   1.77758
 Alpha virt. eigenvalues --    1.78276   1.79154   1.79848   1.80040   1.80477
 Alpha virt. eigenvalues --    1.81186   1.81217   1.83033   1.83400   1.84385
 Alpha virt. eigenvalues --    1.85653   1.85761   1.85976   1.86190   1.87104
 Alpha virt. eigenvalues --    1.89642   1.89981   1.91395   1.91631   1.92944
 Alpha virt. eigenvalues --    1.93161   1.94275   1.95174   1.95394   1.95910
 Alpha virt. eigenvalues --    1.96277   1.97093   1.98872   2.00139   2.01875
 Alpha virt. eigenvalues --    2.02183   2.02793   2.03337   2.04113   2.05512
 Alpha virt. eigenvalues --    2.08044   2.08107   2.09268   2.10187   2.10465
 Alpha virt. eigenvalues --    2.11298   2.12358   2.14020   2.14437   2.17209
 Alpha virt. eigenvalues --    2.18805   2.19849   2.20217   2.20925   2.21685
 Alpha virt. eigenvalues --    2.22539   2.22769   2.24047   2.24360   2.25883
 Alpha virt. eigenvalues --    2.26164   2.27523   2.28694   2.30597   2.33649
 Alpha virt. eigenvalues --    2.36691   2.37163   2.39321   2.40918   2.43926
 Alpha virt. eigenvalues --    2.44432   2.47410   2.48982   2.50548   2.51348
 Alpha virt. eigenvalues --    2.53228   2.53695   2.55627   2.56615   2.58053
 Alpha virt. eigenvalues --    2.59599   2.60495   2.61563   2.63146   2.64353
 Alpha virt. eigenvalues --    2.65876   2.66214   2.67962   2.69944   2.70190
 Alpha virt. eigenvalues --    2.70922   2.72110   2.75158   2.80862   2.84226
 Alpha virt. eigenvalues --    2.85864   2.86992   2.90347   2.93028   2.97475
 Alpha virt. eigenvalues --    3.02004   3.04254   3.07647   3.07938   3.12339
 Alpha virt. eigenvalues --    3.16738   3.30857   3.32086   3.39612   3.46447
 Alpha virt. eigenvalues --    3.67308   3.87088   3.94230   3.98271   4.04771
 Alpha virt. eigenvalues --    4.05857   4.06750   4.09625   4.10990   4.12313
 Alpha virt. eigenvalues --    4.13877   4.15500   4.16552   4.18943   4.24204
 Alpha virt. eigenvalues --    4.27750   4.29523   4.30248   4.34626   4.38475
 Alpha virt. eigenvalues --    4.45404   4.53032   4.65373   4.77019   4.81963
 Alpha virt. eigenvalues --    5.53683
          Condensed to atoms (all electrons):
               1          2          3          4          5          6
     1  O    8.071373   0.538895  -0.074993  -0.081400   0.004760   0.000090
     2  C    0.538895   4.391550   0.308103   0.283462  -0.027574   0.000273
     3  O   -0.074993   0.308103   8.208228  -0.117133   0.014935  -0.002009
     4  C   -0.081400   0.283462  -0.117133   5.671133   0.176167  -0.083965
     5  C    0.004760  -0.027574   0.014935   0.176167   5.447976   0.287924
     6  C    0.000090   0.000273  -0.002009  -0.083965   0.287924   5.018780
     7  C   -0.000049   0.000414   0.000324  -0.019598  -0.139778   0.339909
     8  C   -0.000000  -0.000018   0.000008   0.000239   0.007876   0.028003
     9  F    0.000000  -0.000000  -0.000000   0.000001  -0.000034   0.002929
    10  C    0.000000   0.000000  -0.000000   0.000017  -0.000665  -0.033798
    11  C   -0.000000  -0.000003   0.000002  -0.000296   0.023820  -0.075154
    12  C    0.000001  -0.000072   0.000080   0.014352  -0.028891   0.392371
    13  C    0.000092  -0.004312  -0.002124  -0.115014   0.403755  -0.007332
    14  C   -0.000033   0.000873  -0.000411  -0.016835  -0.111782   0.011556
    15  C    0.000001  -0.000093  -0.000196   0.012905   0.007297   0.021731
    16  C   -0.000000   0.000003   0.000001  -0.000159   0.025151   0.018604
    17  C    0.000000  -0.000000  -0.000000   0.000002  -0.000118  -0.000350
    18  C   -0.000000  -0.000000   0.000000   0.000000   0.000011  -0.000009
    19  C    0.000000  -0.000000  -0.000000  -0.000000  -0.000000  -0.000000
    20  C    0.000000  -0.000000   0.000000  -0.000000   0.000000   0.000000
    21  S    0.000000  -0.000000  -0.000000  -0.000000  -0.000000  -0.000000
    22  O    0.000000   0.000000   0.000000  -0.000000   0.000000  -0.000000
    23  C    0.000000  -0.000000  -0.000000  -0.000000  -0.000000   0.000000
    24  O    0.000000   0.000000   0.000000   0.000000   0.000000  -0.000000
    25  C   -0.000000   0.000000   0.000000   0.000000  -0.000001  -0.000000
    26  C   -0.000000   0.000000   0.000000   0.000000  -0.000009  -0.000126
    27  H    0.004440  -0.015733   0.215927   0.000713   0.011879  -0.001121
    28  H   -0.002174  -0.027183   0.001764   0.348969  -0.032125  -0.009056
    29  H   -0.002568  -0.027016   0.001859   0.353177  -0.038275   0.003340
    30  H    0.000019   0.000110  -0.000006   0.003081  -0.008773  -0.038203
    31  H    0.000000   0.000000  -0.000000  -0.000000   0.000001   0.000361
    32  H    0.000000   0.000000   0.000000   0.000003  -0.000248   0.004371
    33  H   -0.000031   0.000956   0.001388   0.001348  -0.004578  -0.000044
[...]
 0000700,0.00004291,-0.00004009,-0.03156747,-0.05162162,0.05793230,-0.0
 0000083,-0.00000382,-0.00000360,0.00000166,0.00000260,0.00000824,-0.00
 000216,0.00000021,-0.00000462,0.00000140,-0.00000119,-0.00000298,0.000
 00591,-0.00000595,-0.00000538,-0.00001531,0.00000119,0.00000618,0.0000
 1510,-0.00000115,-0.00000478,-0.00001576,-0.00000363,0.00000446,0.0000
 0961,-0.00000705,-0.00000478,-0.00000486,0.00000357,0.00000307,0.00000
 734,-0.00000646,-0.00000345,-0.00000689,0.00001164,0.00000323,0.000012
 59,0.00001059,-0.00000543,-0.00000031,-0.00000246,0.00000107,-0.000014
 69,-0.00000170,0.00001125,0.00001658,-0.00000916,-0.00001276,0.0000396
 2,-0.00007090,-0.00016791,0.00013186,0.00013310,-0.00010970,0.00015767
 ,0.00016953,0.00012420,0.00077158,-0.00056824,-0.00097138,-0.01370800,
 0.00162595,0.01402844,0.00245141,-0.00112789,-0.00174552,-0.20915105,0
 .04171893,0.13299751,-0.00250715,0.00384701,-0.00155902,0.00015346,0.0
 0010031,0.00017854,-0.00016847,-0.00014547,0.00006098,0.00000262,-0.00
 000026,0.00000360,-0.00000115,-0.00000138,0.00000035,-0.00000028,-0.00
 000042,0.00000035,0.00000031,-0.00000015,0.,0.00000202,-0.00000292,0.0
 0000023,-0.00000908,0.00000163,-0.00000021,-0.00000010,-0.00000004,-0.
 00000024,0.00000043,0.00000007,-0.00000035,-0.00000077,-0.00000031,0.0
 0000023,-0.00000440,-0.00000291,0.00000234,0.00001797,0.00002074,0.000
 00467,-0.00001999,0.00006743,-0.00013011,-0.01017384,0.00447347,0.0082
 4168,0.22082117,0.00000728,0.00003730,0.00001828,-0.00000738,-0.000042
 39,-0.00003055,0.00000737,0.00001631,0.00000828,-0.00000536,0.00000334
 ,0.00001329,-0.00002810,0.00001987,0.00002263,0.00006000,-0.00000060,-
 0.00002136,-0.00005386,0.00000716,0.00001601,0.00006608,-0.00001272,-0
 .00002109,-0.00004485,0.00004284,0.00002055,0.00001365,-0.00000505,-0.
 00000696,-0.00002480,0.00000717,0.00000355,0.00003147,-0.00003092,-0.0
 0001269,-0.00004194,-0.00004339,0.00001376,0.00000567,0.00000507,0.000
 00193,0.00003665,0.00002330,-0.00001660,-0.00005555,-0.00002135,0.0000
 1472,-0.00001854,0.00000420,0.00011066,-0.00021667,-0.00010824,0.00016
 377,-0.00020974,-0.00032198,-0.00002833,-0.00105458,0.00061779,0.00076
 156,0.01393082,-0.00420125,-0.01461941,-0.00228454,0.00036890,0.000845
 42,0.04249815,-0.05846669,-0.03739346,0.00507752,-0.00300240,0.0015568
 5,0.00002978,-0.00007234,-0.00023263,0.00013452,0.00008961,0.00001355,
 -0.00001216,-0.00000600,-0.00001282,0.00000317,0.00000690,-0.00000018,
 0.00000326,0.00000025,-0.00000073,0.00000033,0.00000171,0.00000076,-0.
 00000431,0.00000236,0.00000086,0.00002055,-0.00000610,0.00000312,-0.00
 000440,-0.00000111,-0.00000343,-0.00000139,-0.00000342,0.00000311,0.00
 000336,0.00000586,-0.00000104,0.00000581,-0.00000029,0.00000083,-0.000
 01640,-0.00003118,0.00000383,0.00011690,-0.00000502,0.00020490,-0.0208
 4496,0.00888825,0.01663791,-0.04721203,0.05891412,-0.00000020,0.000003
 23,0.00000024,0.00000108,-0.00000499,0.00000155,-0.00000172,0.00000302
 ,-0.00000221,-0.00000009,-0.00000019,0.00000002,-0.00000253,0.00000046
 ,0.00000056,0.00000293,0.00000028,-0.00000072,-0.00000229,0.00000053,0
 .00000067,0.00000382,-0.00000233,-0.00000167,-0.00000248,0.00000276,0.
 00000131,-0.00000101,-0.00000021,0.00000017,0.00000024,-0.00000044,-0.
 00000013,-0.00000040,0.00000062,-0.00000038,0.00000006,-0.00000343,-0.
 00000102,0.00000115,-0.00000115,0.00000224,-0.00000028,0.00000180,0.00
 000574,-0.00000058,-0.00002065,-0.00000559,-0.00000159,0.00000542,0.00
 001733,-0.00002798,-0.00002851,-0.00013102,0.00006151,0.00043186,0.000
 18679,0.00055446,-0.00043316,-0.00049096,-0.01146964,0.00140757,0.0090
 6564,0.00097465,0.00013275,-0.00031446,0.13321057,-0.03733503,-0.15771
 416,-0.00399895,0.00361945,0.00056327,0.00000955,-0.00018532,-0.000064
 08,-0.00006169,0.00000138,-0.00006107,0.00000110,-0.00000135,0.0000007
 1,-0.00000014,0.00000034,0.00000008,0.00000017,-0.00000025,0.00000023,
 0.00000032,0.00000005,0.00000009,0.,-0.00000106,-0.00000038,-0.0000026
 5,-0.00000004,0.00000043,-0.00000095,0.00000028,-0.00000063,0.,-0.0000
 0020,-0.00000028,-0.00000013,0.00000036,-0.00000026,0.00000006,-0.0000
 0209,0.00000049,0.00002980,0.00002032,0.00000456,-0.00004900,0.0000709
 5,-0.00010869,0.00322508,-0.00205593,-0.00339254,-0.14360857,0.0383644
 7,0.16551448,-0.00000012,0.00000608,0.00000220,0.00000100,-0.00000840,
 -0.00000143,-0.00000232,0.00000429,-0.00000119,-0.00000041,0.00000028,
 0.00000139,-0.00000273,0.00000095,0.00000173,0.00000513,-0.00000007,-0
 .00000248,-0.00000580,0.00000006,0.00000237,0.00000911,-0.00000329,-0.
 00000452,-0.00000713,0.00000621,0.00000418,0.00000149,0.00000018,0.000
 00141,-0.00000020,0.00000140,0.00000192,-0.00000132,-0.00000255,-0.000
 00150,-0.00000193,-0.00000482,-0.00000190,0.00000168,-0.00000176,0.000
 00160,0.00000355,0.00000138,0.00000224,-0.00001063,-0.00000940,0.00000
 968,-0.00004025,0.00003971,0.00012383,-0.00012830,-0.00012163,-0.00000
 031,0.00015652,-0.00004473,0.00001554,0.00007610,0.00035511,0.00123834
 ,-0.00592718,-0.01108474,-0.01511958,-0.00205593,0.00303580,-0.0039314
 7,-0.07772263,-0.04005008,-0.07522305,0.00096421,0.00083659,0.00238828
 ,0.00024571,0.00009683,-0.00025410,0.00001398,0.00015333,0.00005226,0.
 00000151,-0.00000226,0.00000005,0.00000007,0.00000061,-0.00000027,-0.0
 0000012,-0.00000046,0.00000019,0.00000023,0.00000002,-0.00000020,-0.00
 000150,0.00000077,-0.00000224,0.00000107,-0.00000041,-0.00000240,-0.00
 000190,0.00000040,-0.00000049,-0.00000066,0.00000011,0.00000051,-0.000
 00025,0.00000066,-0.00000026,-0.00000219,-0.00000655,0.00000089,-0.000
 01381,0.00000182,-0.00000694,-0.00007185,-0.00002086,0.00000558,-0.004
 81869,-0.00497116,-0.01354874,0.01125459,0.01005050,0.02119549,0.07810
 651,0.00000562,0.00002537,0.00001197,-0.00000581,-0.00002941,-0.000019
 35,0.00000640,0.00001156,0.00000418,-0.00000313,0.00000187,0.00000828,
 -0.00001663,0.00001106,0.00001339,0.00003538,-0.00000144,-0.00001223,-
 0.00003110,0.00000546,0.00000886,0.00004088,-0.00001354,-0.00001287,-0
 .00002844,0.00002924,0.00001269,0.00000957,-0.00000054,-0.00000558,-0.
 00001669,-0.00000129,-0.00000295,0.00002015,-0.00001428,-0.00000661,-0
 .00002472,-0.00002543,0.00001033,0.00000297,0.00000407,0.00000080,0.00
 001703,0.00001247,-0.00001179,-0.00002693,-0.00001422,-0.00001277,0.00
 001438,-0.00003852,-0.00002480,0.00013343,-0.00000132,-0.00001441,0.00
 001565,0.00014215,0.00000940,-0.00039564,-0.00019860,-0.00126475,0.005
 75874,0.00972903,0.01717536,0.00442643,-0.00181945,0.00504749,-0.03976
 745,-0.09820373,-0.10305082,-0.00133938,-0.00072988,-0.00106147,-0.000
 30490,-0.00031550,0.00034809,-0.00002612,-0.00016355,-0.00014317,-0.00
 000979,-0.00000444,-0.00000753,0.00000186,0.00000431,0.00000013,0.0000
 0261,0.00000040,-0.00000058,0.00000035,0.00000135,0.00000057,-0.000001
 29,-0.00000054,0.00000180,0.00001248,-0.00000305,0.00000755,-0.0000023
 2,-0.00000089,-0.00000156,-0.00000054,-0.00000218,0.00000131,0.0000025
 7,0.00000389,-0.00000072,0.00000677,0.00000736,0.00000103,0.00000727,-
 0.00000154,-0.00000196,0.00006448,0.00006573,-0.00006782,-0.00735373,-
 0.00837167,-0.02362353,-0.00295581,-0.00282577,-0.00398043,0.04156121,
 0.10291304,-0.00000559,-0.00002921,-0.00001386,0.00000552,0.00003368,0
 .00002249,-0.00000545,-0.00001330,-0.00000544,0.00000396,-0.00000235,-
 0.00000957,0.00002191,-0.00001507,-0.00001733,-0.00004606,0.00000004,0
 .00001552,0.00003980,-0.00000597,-0.00001150,-0.00005022,0.00001292,0.
 00001616,0.00003447,-0.00003391,-0.00001539,-0.00000971,0.00000298,0.0
 0000455,0.00001751,-0.00000011,0.00000098,-0.00002487,0.00002095,0.000
 00800,0.00003111,0.00003375,-0.00001076,-0.00000451,-0.00000391,-0.000
 00252,-0.00002293,-0.00001842,0.00000695,0.00002962,0.00003719,0.00001
 336,-0.00006172,0.00009186,0.00014818,-0.00012965,-0.00015456,-0.00001
 307,0.00020428,-0.00003479,-0.00027314,0.00025154,0.00030734,0.0010312
 1,-0.00220163,-0.00745955,-0.01258833,-0.00261335,0.00219649,-0.001060
 33,-0.07587505,-0.10344135,-0.24943062,0.00110801,0.00064278,0.0022460
 6,0.00015790,0.00007703,0.00005427,0.00021122,0.00020526,0.00005451,0.
 00000940,0.00000508,0.00000939,-0.00000236,-0.00000535,-0.00000002,-0.
 00000275,-0.00000030,0.00000048,-0.00000046,-0.00000146,-0.00000058,0.
 00000251,-0.00000017,-0.00000135,-0.00001227,0.00000518,-0.00000482,0.
 00000338,0.00000070,0.00000264,0.00000080,0.00000264,-0.00000181,-0.00
 000266,-0.00000447,0.00000097,-0.00000569,-0.00000827,-0.00000021,-0.0
 0001328,0.00000092,-0.00000320,-0.00005793,-0.00007077,0.00008967,0.00
 339663,0.00326826,0.00850434,-0.00731140,-0.00644538,-0.01306615,0.083
 05903,0.11068583,0.26424015,-0.00000539,-0.00000185,-0.00001560,0.0000
 1240,-0.00001062,0.00004421,-0.00001182,0.00001361,-0.00003392,0.00000
 569,-0.00000256,-0.00000649,0.00001711,-0.00003926,-0.00001936,-0.0000
 4653,-0.00004174,0.00000150,-0.00000605,0.00000246,-0.00000071,0.00001
 108,0.00001366,0.00000606,0.00000082,-0.00000643,0.00000403,0.00001734
 ,-0.00000383,-0.00004392,0.00000561,0.00004445,-0.00002556,-0.00008640
 ,0.00007210,0.00003302,0.00003905,0.00004708,-0.00002540,-0.00000206,-
 0.00001096,0.00000719,-0.00003879,-0.00015753,-0.00008402,0.00000389,0
 .00057844,0.00056826,0.00350036,-0.00517938,0.00203395,-0.00041029,-0.
 00031514,-0.00041934,0.00390865,-0.00268899,0.00067221,0.00381288,0.00
 161744,-0.00141636,-0.00035889,0.00047428,-0.00193808,-0.00023713,-0.0
 0017552,0.00019438,0.00022815,0.00032118,0.00016641,-0.00144190,-0.000
 29543,0.00074693,-0.11744878,-0.01979970,0.13170420,-0.00360376,-0.000
 08891,0.01376809,0.00000926,-0.00000666,0.00002453,-0.00000348,-0.0000
 0471,-0.00000051,-0.00000187,-0.00000111,0.00000092,0.00000024,-0.0000
 0255,0.00000338,-0.00000252,0.00001005,-0.00000164,0.00004333,0.000005
 64,0.00003621,-0.00000007,0.00000360,0.00000408,-0.00000042,0.00000139
 ,-0.00000832,-0.00000268,-0.00000350,-0.00000167,-0.00012061,-0.000050
 41,0.00002235,-0.00071238,0.00041933,-0.00033557,0.00063356,-0.0001696
 6,-0.00009343,-0.00015674,0.00005503,-0.00017449,-0.00005349,0.0000292
 1,-0.00003806,-0.00005504,0.00019634,-0.00013293,0.11471786,0.00000206
 ,-0.00000406,-0.00001311,-0.00000015,-0.00000673,0.00003679,0.00000105
 ,0.00000956,-0.00002797,0.00001649,-0.00001230,-0.00000940,0.00001624,
 -0.00003185,-0.00001831,-0.00006636,0.00000530,0.00003534,0.00009277,0
 .00000114,-0.00003526,-0.00007179,-0.00008147,0.00001833,0.00002487,0.
 00000332,-0.00001355,0.00001531,0.00006213,-0.00001662,-0.00000162,-0.
 00014381,-0.00005636,0.00000086,0.00006911,0.00006596,0.00005590,0.000
 04466,-0.00006965,-0.00000541,-0.00001510,0.00000700,-0.00017558,0.000
 05175,0.00002259,-0.00035239,0.00022989,0.00093945,-0.00492010,-0.0023
 6372,-0.00126642,-0.00005998,-0.00091628,-0.00014843,-0.00302138,-0.00
 279195,-0.00378053,0.01207091,0.00624317,-0.01956523,0.00334518,-0.001
 66091,-0.00318058,-0.00028179,0.00056009,0.00079027,-0.00057122,-0.000
 35975,0.00003138,-0.00041180,0.00055056,0.00171116,-0.01938020,-0.0571
 1999,0.01706031,-0.01277049,0.00189377,0.02351258,-0.00000195,-0.00000
 440,0.00002039,-0.00000688,-0.00000932,0.00000201,0.00000211,0.0000012
 8,0.00000022,0.00000274,0.00000130,-0.00000225,0.00002678,-0.00002815,
 0.00001583,-0.00003640,0.00000704,0.00009749,0.00000899,0.00000017,0.0
 0000441,0.00000532,0.00000014,-0.00001516,-0.00000163,-0.00000509,-0.0
 0000306,-0.00019089,-0.00026270,0.00006923,0.00039334,-0.00011052,0.00
 025488,0.00059663,0.00048126,-0.00117388,0.00014221,-0.00010109,0.0001
 5234,-0.00006040,0.00014776,-0.00001115,0.00016529,-0.00015763,0.00009
 924,0.02336310,0.05582031,0.00000014,0.00000979,0.00000170,0.00000213,
 -0.00001168,-0.00000069,0.00000027,0.00000609,-0.00000354,-0.00000533,
 0.00000397,0.00000622,-0.00000520,-0.00000245,0.00000533,0.00001424,-0
 .00002490,-0.00002168,-0.00005892,0.00000225,0.00001772,0.00005360,0.0
 0004347,-0.00000598,-0.00001550,-0.00000074,0.00000758,-0.00000286,-0.
 00004642,-0.00002766,0.00000502,0.00013478,0.00000154,-0.00003267,-0.0
 0001859,-0.00000787,-0.00002339,-0.00000527,0.00001433,0.00000110,0.00
 000451,0.00000013,0.00007862,-0.00009065,-0.00006785,0.00008635,0.0000
 7384,-0.00001377,0.00212061,-0.00109577,0.00279097,-0.00056662,-0.0001
 8810,0.00045704,0.00061333,-0.00452359,-0.00018246,0.00999454,0.001839
 81,-0.01458249,0.00175329,0.00096206,-0.00308850,-0.00032603,-0.000321
 73,0.00060050,-0.00001958,0.00002825,0.00002052,-0.00034544,0.00193203
 ,0.00146344,0.12986257,0.01624539,-0.26730370,0.00174851,-0.00040180,0
 .00000771,-0.00000231,-0.00000122,0.00000030,0.00000179,0.00000300,-0.
 00000087,-0.00000051,-0.00000075,-0.00000020,-0.00000110,-0.00000153,0
 .00000318,-0.00000863,0.00001660,0.00000250,0.00004806,0.00001465,-0.0
 0001538,-0.00000216,0.00000133,-0.00000062,-0.00000258,-0.00000133,0.0
 0000216,0.00000086,0.00000135,0.00000022,-0.00000993,0.00008919,-0.000
 05513,-0.00032710,0.00026591,-0.00022231,0.00076281,0.00017345,-0.0005
 4745,-0.00004601,-0.00000539,-0.00002882,-0.00002497,0.00003655,-0.000
 00633,0.00000252,-0.00003054,0.00006853,-0.14362737,-0.01616613,0.2807
 5648,-0.00001468,0.00006975,0.00000361,0.00004805,-0.00009633,0.000038
 86,-0.00002187,0.00006277,-0.00004939,-0.00006206,0.00002017,0.0000092
 6,0.00014509,0.00006924,0.00001316,0.00008315,0.00018811,-0.00005530,0
 .00008713,-0.00014518,-0.00005050,-0.00017242,-0.00005583,0.00003053,0
 .00001967,-0.00006976,-0.00004324,-0.00026191,0.00019773,0.00026178,0.
 00016064,0.00003093,0.00005698,0.00065996,-0.00061814,-0.00029522,-0.0
 0019407,-0.00003321,0.00013585,0.00000793,0.00002488,0.00002189,0.0002
 3180,0.00004633,-0.00033380,-0.00158583,0.00329968,-0.00133132,0.00323
 719,0.01059273,0.01133174,0.00221275,-0.00255817,0.00483879,-0.0008498
 0,-0.00019161,0.00023873,0.00294799,-0.00524149,0.00306473,0.00086917,
 -0.00004942,-0.00075310,-0.00029970,-0.00024813,-0.00018733,-0.0001020
 6,-0.00010444,0.00012304,-0.00019184,0.00002153,0.00019316,0.00239847,
 -0.01277226,-0.01260346,-0.04682419,-0.02362623,-0.00728153,-0.0000081
 4,-0.00004336,0.00002210,0.00002322,0.00003225,-0.00001237,-0.00000812
 ,-0.00000336,-0.00000173,-0.00000071,-0.00000156,-0.00000040,-0.000021
 51,0.00003313,-0.00000361,-0.00059619,0.00071734,-0.00090838,-0.000035
 64,0.00000621,0.00001551,-0.00001218,0.00000771,-0.00000568,0.00000206
 ,-0.00000100,-0.00000561,0.00000839,-0.00016877,0.00017966,0.00045587,
 0.00060591,0.00066606,-0.00065571,0.00043003,-0.00039589,0.00002494,-0
 .00003033,0.00004410,-0.00001631,0.00000952,-0.00000109,0.00003042,-0.
 00003213,0.00000386,-0.00216016,0.00204025,-0.00169615,0.04044125,0.00
 001612,0.00001267,0.00002406,-0.00002963,0.00000325,-0.00005220,0.0000
 2689,-0.00000991,0.00002863,0.00003649,-0.00002268,0.00004634,-0.00001
 803,-0.00001860,0.00000067,-0.00014486,-0.00017765,-0.00004294,-0.0001
 0076,0.00002973,0.00003194,0.00019862,-0.00002164,-0.00008530,-0.00010
 769,0.00009610,0.00004074,0.00006526,-0.00025486,0.00002014,0.00121783
 ,-0.00043743,0.00061567,-0.00030965,-0.00030034,0.00033239,-0.00002185
 ,-0.00002692,-0.00020803,0.00000024,0.00001778,-0.00001594,-0.00006441
 ,0.00010044,0.00038065,0.00115490,-0.00095749,0.00107125,0.00037982,0.
 00634438,0.00310035,-0.00229913,0.00168172,0.00010054,-0.00010140,0.00
 007455,0.00072643,-0.00518479,-0.00128455,0.00102302,0.00062210,0.0004
 3167,-0.00112650,-0.00034201,-0.00064087,-0.00020889,-0.00012528,-0.00
 009553,0.00004212,-0.00021730,0.00006069,0.00033201,-0.00086895,-0.014
 92640,-0.01829966,-0.02388151,-0.20140352,-0.14678546,-0.00002713,0.00
 000355,-0.00001879,-0.00001444,-0.00001208,0.00000690,0.00000900,-0.00
 000024,0.00000024,-0.00000576,0.00000938,0.00000309,-0.00001643,0.0000
 1995,0.00001277,0.00037767,-0.00101916,0.00049137,0.00001341,-0.000009
 18,-0.00000658,0.00001006,-0.00000411,0.00000393,0.00001237,0.00000519
 ,0.00000043,0.00010201,0.00018958,-0.00014072,-0.00020812,0.00036347,0
 .00021076,0.00040266,-0.00024197,0.00012414,0.00005381,-0.00003454,0.0
 0002419,0.00000371,-0.00000187,0.00000001,0.00001360,-0.00002994,0.000
 01857,0.00178803,0.00000310,0.00105034,0.02758451,0.21248429,-0.000026
 26,-0.00004398,-0.00004262,0.00004542,0.00003576,0.00008851,-0.0000276
 7,-0.00000379,-0.00004851,-0.00004538,0.00003098,-0.00002595,-0.000096
 01,0.00005320,0.00002216,0.00027237,0.00035583,0.00006664,0.00004119,-
 0.00014428,-0.00004266,-0.00018025,0.00006934,0.00002493,0.00014255,-0
 .00020846,-0.00009233,-0.00024023,-0.00008312,0.00011437,0.00023824,0.
 00021254,0.00040670,0.00003615,-0.00010260,-0.00008168,-0.00011605,0.0
 0001022,0.00022123,-0.00001543,-0.00003826,-0.00000935,0.00070551,0.00
 044944,-0.00041317,-0.00207612,0.00003353,0.00022113,-0.00296868,-0.02
 100407,-0.01463167,0.00488227,0.00104910,-0.00245229,0.00021924,0.0007
 2743,-0.00030368,0.00283247,0.00030518,0.00169448,0.00018613,0.0002940
 4,0.00036335,0.00009911,0.00024569,0.00008805,-0.00000417,-0.00001670,
 -0.00000258,-0.00002344,-0.00009184,-0.00006691,0.00094301,0.00670552,
 0.00836669,-0.00676618,-0.14547733,-0.19256911,0.00002883,0.00001214,0
 .00004636,0.00001348,0.00000901,-0.00001185,-0.00002052,-0.00000518,-0
 .00000109,0.00000853,-0.00001948,-0.00001052,0.00003680,-0.00001151,0.
 00002016,-0.00072706,0.00003090,-0.00043748,-0.00000661,0.00000904,0.0
 0000157,-0.00001172,0.00000682,0.00001599,-0.00002034,-0.00000627,0.00
 000877,-0.00004239,-0.00009808,0.00020199,-0.00003182,-0.00119009,-0.0
 0070646,-0.00039440,0.00013299,-0.00012053,-0.00000149,-0.00000153,0.0
 0000536,-0.00000346,0.00000551,-0.00000387,-0.00000815,0.00000919,-0.0
 0000840,-0.00159915,0.00062585,-0.00004483,0.00472172,0.15712733,0.200
 14909\\0.00000408,-0.00000894,0.00000242,-0.00000458,0.00000143,-0.000
 00436,0.00000004,0.00000371,0.00000591,-0.00000018,-0.00000394,-0.0000
 0183,0.00000720,0.00000127,0.00000279,-0.00000391,-0.00000026,-0.00000
 059,-0.00000004,0.00000061,-0.00000052,0.00000120,-0.00000098,0.000005
 60,-0.00000030,0.00000010,-0.00000091,-0.00000011,0.00000045,-0.000000
 41,-0.00000025,0.00000132,0.00000026,0.00000103,-0.00000146,-0.0000002
 0,-0.00000461,0.00000080,-0.00000785,0.00000029,-0.00000010,0.00000017
 ,-0.00000028,0.00000026,0.00000837,-0.00000162,-0.00000206,-0.00000339
 ,0.00000127,0.00000119,-0.00000106,0.00000172,-0.00000193,-0.00000084,
 -0.00000073,-0.00000451,0.00000292,-0.00000951,-0.00000206,0.00000703,
 0.00000593,0.00001034,-0.00000486,0.00000103,-0.00000615,0.00000042,0.
 00000286,0.00000196,0.00000142,0.00000002,-0.00000108,0.00000415,0.000
 00630,0.00000645,0.00000122,-0.00000158,-0.00000164,-0.00000059,0.0000
 0153,0.00000602,-0.00000338,-0.00000161,-0.00000045,-0.00000204,-0.000
 00098,0.00000185,-0.00000063,0.00000017,-0.00000018,0.00000023,0.00000
 026,-0.00000059,0.00000092,-0.00000032,0.00000005,0.00000080,-0.000000
 91,0.00000023,-0.00000033,0.00000072,0.00000028,-0.00000090,-0.0000004
 7,0.00000075,-0.00000113,-0.00000108,0.00000049,-0.00000199,-0.0000008
 0,0.00000040,-0.00000014,0.00000062,0.00000279,-0.00000235,-0.00000116
 ,-0.00000131,-0.00000192,-0.00000090,-0.00000124,0.00000012,0.00000002
 ,-0.00000189,-0.00000042,-0.00000069,-0.00000250,-0.00000172,0.0000003
 3,0.00000050,-0.00000039\\\@


 TO DETECT ERRORS, THE PROGRAMMER MUST HAVE A CONNIVING MIND,
 ONE THAT DELIGHTS IN UNCOVERING FLAWS WHERE BEAUTY AND
 PERFECTION WERE ONCE THOUGHT TO LIE.

             -- THE PSYCHOLOGY OF COMPUTER PROGRAMMING
                GERALD M. WEINBERG
 Job cpu time:       0 days  1 hours 52 minutes 15.7 seconds.
 Elapsed time:       0 days  0 hours  4 minutes 42.0 seconds.
 File lengths (MBytes):  RWF=    928 Int=      0 D2E=      0 Chk=     17 Scr=      1
 Normal termination of Gaussian 16 at Mon Oct 14 01:45:41 2019.
real 851.71
user 20052.82
sys 53.58
Machine:
brown-a065
brown-a065
brown-a065
brown-a065
brown-a065
brown-a065
brown-a065
brown-a065
brown-a065
brown-a065
brown-a065
brown-a065
brown-a065
brown-a065
brown-a065
brown-a065
brown-a065
brown-a065
brown-a065
brown-a065
brown-a065
brown-a065
brown-a065
brown-a065
