 Entering Gaussian System, Link 0=/apps/cent7/gaussian/g16-A.03/g16-haswell/g16/g16
 Initial command:
 /apps/cent7/gaussian/g16-A.03/g16-haswell/g16/l1.exe "/scratch/brown/finej/gaussian/Gau-170745.inp" -scrdir="/scratch/brown/finej/gaussian/"
 Entering Link 1 = /apps/cent7/gaussian/g16-A.03/g16-haswell/g16/l1.exe PID=    170748.
  
 Copyright (c) 1988,1990,1992,1993,1995,1998,2003,2009,2016,
            Gaussian, Inc.  All Rights Reserved.
  
 This is part of the Gaussian(R) 16 program.  It is based on
 the Gaussian(R) 09 system (copyright 2009, Gaussian, Inc.),
 the Gaussian(R) 03 system (copyright 2003, Gaussian, Inc.),
 the Gaussian(R) 98 system (copyright 1998, Gaussian, Inc.),
 the Gaussian(R) 94 system (copyright 1995, Gaussian, Inc.),
 the Gaussian 92(TM) system (copyright 1992, Gaussian, Inc.),
 the Gaussian 90(TM) system (copyright 1990, Gaussian, Inc.),
 the Gaussian 88(TM) system (copyright 1988, Gaussian, Inc.),
 the Gaussian 86(TM) system (copyright 1986, Carnegie Mellon
 University), and the Gaussian 82(TM) system (copyright 1983,
 Carnegie Mellon University). Gaussian is a federally registered
 trademark of Gaussian, Inc.
  
 This software contains proprietary and confidential information,
 including trade secrets, belonging to Gaussian, Inc.
  
 This software is provided under written license and may be
 used, copied, transmitted, or stored only in accord with that
 written license.
  
 The following legend is applicable only to US Government
 contracts under FAR:
  
                    RESTRICTED RIGHTS LEGEND
  
 Use, reproduction and disclosure by the US Government is
 subject to restrictions as set forth in subparagraphs (a)
 and (c) of the Commercial Computer Software - Restricted
 Rights clause in FAR 52.227-19.
  
 Gaussian, Inc.
 340 Quinnipiac St., Bldg. 40, Wallingford CT 06492
  
  
 ---------------------------------------------------------------
 Warning -- This program may not be used in any manner that
 competes with the business of Gaussian, Inc. or will provide
 assistance to any competitor of Gaussian, Inc.  The licensee
 of this program is prohibited from giving any competitor of
 Gaussian, Inc. access to this program.  By using this program,
 the user acknowledges that Gaussian, Inc. is engaged in the
 business of creating and licensing software in the field of
 computational chemistry and represents and warrants to the
 licensee that it is not a competitor of Gaussian, Inc. and that
 it will not use this program in any manner prohibited above.
 ---------------------------------------------------------------
  

 Cite this work as:
 Gaussian 16, Revision A.03,
 M. J. Frisch, G. W. Trucks, H. B. Schlegel, G. E. Scuseria, 
 M. A. Robb, J. R. Cheeseman, G. Scalmani, V. Barone, 
 G. A. Petersson, H. Nakatsuji, X. Li, M. Caricato, A. V. Marenich, 
 J. Bloino, B. G. Janesko, R. Gomperts, B. Mennucci, H. P. Hratchian, 
 J. V. Ortiz, A. F. Izmaylov, J. L. Sonnenberg, D. Williams-Young, 
 F. Ding, F. Lipparini, F. Egidi, J. Goings, B. Peng, A. Petrone, 
 T. Henderson, D. Ranasinghe, V. G. Zakrzewski, J. Gao, N. Rega, 
 G. Zheng, W. Liang, M. Hada, M. Ehara, K. Toyota, R. Fukuda, 
 J. Hasegawa, M. Ishida, T. Nakajima, Y. Honda, O. Kitao, H. Nakai, 
 T. Vreven, K. Throssell, J. A. Montgomery, Jr., J. E. Peralta, 
 F. Ogliaro, M. J. Bearpark, J. J. Heyd, E. N. Brothers, K. N. Kudin, 
 V. N. Staroverov, T. A. Keith, R. Kobayashi, J. Normand, 
 K. Raghavachari, A. P. Rendell, J. C. Burant, S. S. Iyengar, 
 J. Tomasi, M. Cossi, J. M. Millam, M. Klene, C. Adamo, R. Cammi, 
 J. W. Ochterski, R. L. Martin, K. Morokuma, O. Farkas, 
 J. B. Foresman, and D. J. Fox, Gaussian, Inc., Wallingford CT, 2016.
 
 ******************************************
 Gaussian 16:  ES64L-G16RevA.03 25-Dec-2016
                14-Oct-2019 
 ******************************************
 %chk=26_p.chk
 %nprocshared=24
 Will use up to   24 processors via shared memory.
 %mem=80GB
 --------------------------------------------------------------
 #P opt freq b3lyp/6-31g(d) geom=connectivity temperature=0.001
 --------------------------------------------------------------
 1/18=20,19=15,26=3,38=1,57=2,112=-1000/1,3;
 2/9=110,12=2,17=6,18=5,40=1/2;
 3/5=1,6=6,7=1,11=2,25=1,30=1,71=1,74=-5/1,2,3;
 4//1;
 5/5=2,38=5/2;
 6/7=2,8=2,9=2,10=2,28=1/1;
 7//1,2,3,16;
 1/18=20,19=15,26=3/3(2);
 2/9=110/2;
 99//99;
 2/9=110/2;
 3/5=1,6=6,7=1,11=2,25=1,30=1,71=1,74=-5/1,2,3;
 4/5=5,16=3,69=1/1;
 5/5=2,38=5/2;
 7//1,2,3,16;
 1/18=20,19=15,26=3/3(-5);
 2/9=110/2;
 6/7=2,8=2,9=2,10=2,19=2,28=1/1;
 99/9=1/99;
 Leave Link    1 at Mon Oct 14 01:32:42 2019, MaxMem= 10737418240 cpu:               0.8 elap:               0.0
 (Enter /apps/cent7/gaussian/g16-A.03/g16-haswell/g16/l101.exe)
 -------------------
 Title Card Required
 -------------------
 Symbolic Z-matrix:
 Charge =  1 Multiplicity = 1
 O                    -1.2111    1.9012    4.5834 
 C                    -1.7915    0.7974    4.4646 
 O                    -1.5966   -0.1365    5.4288 
 C                    -2.6674    0.5536    3.3005 
 C                    -3.3091   -0.7633    3.3116 
 C                    -4.5687   -1.0118    3.7855 
 C                    -5.5153   -0.1463    4.3743 
 C                    -6.7694   -0.6625    4.7486 
 F                    -7.6521    0.1248    5.2979 
 C                    -7.072    -2.0203    4.5212 
 C                    -6.1205   -2.8706    3.9264 
 C                    -4.8422   -2.3661    3.5982 
 C                    -2.7972   -1.9352    2.8838 
 C                    -1.4519   -2.1194    2.3294 
 C                    -3.7083   -2.9515    3.0667 
 C                    -3.4865   -4.2563    2.7804 
 C                    -4.2934   -5.3527    3.051 
 C                    -4.7391   -6.1694    1.9868 
 C                    -5.4567   -7.3514    2.2427 
 C                    -5.753    -7.7418    3.5652 
 S                    -6.6049   -9.2793    3.8214 
 O                    -5.7663   -10.464    3.1333 
 C                    -6.8476   -9.7099    5.5855 
 O                    -8.0417   -9.2205    3.1068 
 C                    -5.3441   -6.9118    4.6313 
 C                    -4.6088   -5.7358    4.3772 
 H                    -1.6741   -1.0132    5.0454 
 H                    -3.4785    1.2778    3.3774 
 H                    -2.0151    0.5567    2.4273 
 H                    -5.2812    0.9056    4.5377 
 H                    -8.0471   -2.4148    4.807 
 H                    -6.3715   -3.9114    3.7216 
 H                    -0.7338   -2.2177    3.1435 
 H                    -1.4318   -3.0204    1.7163 
 H                    -1.1904   -1.2569    1.7163 
 H                    -2.5428   -4.4475    2.2696 
 H                    -4.527    -5.8843    0.9564 
 H                    -5.7861   -7.9707    1.4084 
 H                    -6.8628   -10.7942   5.696 
 H                    -6.0306   -9.2959    6.1763 
 H                    -7.7939   -9.2959    5.9336 
 H                    -5.5976   -7.1806    5.6568 
 H                    -4.2814   -5.1177    5.2132 
 H                    -8.09996  -9.14192   2.1518 
 
 ITRead=  0  0  0  0  0  0  0  0  0  0  0  0  0  0  0  0  0  0  0  0
 ITRead=  0  0  0  0  0  0  0  0  0  0  0  0  0  0  0  0  0  0  0  0
 ITRead=  0  0  0  0
 MicOpt= -1 -1 -1 -1 -1 -1 -1 -1 -1 -1 -1 -1 -1 -1 -1 -1 -1 -1 -1 -1
 MicOpt= -1 -1 -1 -1 -1 -1 -1 -1 -1 -1 -1 -1 -1 -1 -1 -1 -1 -1 -1 -1
 MicOpt= -1 -1 -1 -1
 NAtoms=     44 NQM=       44 NQMF=       0 NMMI=      0 NMMIF=      0
                NMic=       0 NMicF=      0.
                    Isotopes and Nuclear Properties:
 (Nuclear quadrupole moments (NQMom) in fm**2, nuclear magnetic moments (NMagM)
  in nuclear magnetons)

  Atom         1           2           3           4           5           6           7           8           9          10
 IAtWgt=          16          12          16          12          12          12          12          12          19          12
 AtmWgt=  15.9949146  12.0000000  15.9949146  12.0000000  12.0000000  12.0000000  12.0000000  12.0000000  18.9984033  12.0000000
 NucSpn=           0           0           0           0           0           0           0           0           1           0
 AtZEff=  -0.0000000  -0.0000000  -0.0000000  -0.0000000  -0.0000000  -0.0000000  -0.0000000  -0.0000000  -0.0000000  -0.0000000
 NQMom=    0.0000000   0.0000000   0.0000000   0.0000000   0.0000000   0.0000000   0.0000000   0.0000000   0.0000000   0.0000000
 NMagM=    0.0000000   0.0000000   0.0000000   0.0000000   0.0000000   0.0000000   0.0000000   0.0000000   2.6288670   0.0000000
 AtZNuc=   8.0000000   6.0000000   8.0000000   6.0000000   6.0000000   6.0000000   6.0000000   6.0000000   9.0000000   6.0000000

  Atom        11          12          13          14          15          16          17          18          19          20
 IAtWgt=          12          12          12          12          12          12          12          12          12          12
 AtmWgt=  12.0000000  12.0000000  12.0000000  12.0000000  12.0000000  12.0000000  12.0000000  12.0000000  12.0000000  12.0000000
 NucSpn=           0           0           0           0           0           0           0           0           0           0
 AtZEff=  -0.0000000  -0.0000000  -0.0000000  -0.0000000  -0.0000000  -0.0000000  -0.0000000  -0.0000000  -0.0000000  -0.0000000
 NQMom=    0.0000000   0.0000000   0.0000000   0.0000000   0.0000000   0.0000000   0.0000000   0.0000000   0.0000000   0.0000000
 NMagM=    0.0000000   0.0000000   0.0000000   0.0000000   0.0000000   0.0000000   0.0000000   0.0000000   0.0000000   0.0000000
 AtZNuc=   6.0000000   6.0000000   6.0000000   6.0000000   6.0000000   6.0000000   6.0000000   6.0000000   6.0000000   6.0000000

  Atom        21          22          23          24          25          26          27          28          29          30
 IAtWgt=          32          16          12          16          12          12           1           1           1           1
 AtmWgt=  31.9720718  15.9949146  12.0000000  15.9949146  12.0000000  12.0000000   1.0078250   1.0078250   1.0078250   1.0078250
 NucSpn=           0           0           0           0           0           0           1           1           1           1
 AtZEff=  -0.0000000  -0.0000000  -0.0000000  -0.0000000  -0.0000000  -0.0000000  -0.0000000  -0.0000000  -0.0000000  -0.0000000
 NQMom=    0.0000000   0.0000000   0.0000000   0.0000000   0.0000000   0.0000000   0.0000000   0.0000000   0.0000000   0.0000000
 NMagM=    0.0000000   0.0000000   0.0000000   0.0000000   0.0000000   0.0000000   2.7928460   2.7928460   2.7928460   2.7928460
 AtZNuc=  16.0000000   8.0000000   6.0000000   8.0000000   6.0000000   6.0000000   1.0000000   1.0000000   1.0000000   1.0000000

  Atom        31          32          33          34          35          36          37          38          39          40
 IAtWgt=           1           1           1           1           1           1           1           1           1           1
 AtmWgt=   1.0078250   1.0078250   1.0078250   1.0078250   1.0078250   1.0078250   1.0078250   1.0078250   1.0078250   1.0078250
 NucSpn=           1           1           1           1           1           1           1           1           1           1
 AtZEff=  -0.0000000  -0.0000000  -0.0000000  -0.0000000  -0.0000000  -0.0000000  -0.0000000  -0.0000000  -0.0000000  -0.0000000
 NQMom=    0.0000000   0.0000000   0.0000000   0.0000000   0.0000000   0.0000000   0.0000000   0.0000000   0.0000000   0.0000000
 NMagM=    2.7928460   2.7928460   2.7928460   2.7928460   2.7928460   2.7928460   2.7928460   2.7928460   2.7928460   2.7928460
 AtZNuc=   1.0000000   1.0000000   1.0000000   1.0000000   1.0000000   1.0000000   1.0000000   1.0000000   1.0000000   1.0000000

  Atom        41          42          43          44
 IAtWgt=           1           1           1           1
 AtmWgt=   1.0078250   1.0078250   1.0078250   1.0078250
 NucSpn=           1           1           1           1
 AtZEff=  -0.0000000  -0.0000000  -0.0000000  -0.0000000
 NQMom=    0.0000000   0.0000000   0.0000000   0.0000000
 NMagM=    2.7928460   2.7928460   2.7928460   2.7928460
 AtZNuc=   1.0000000   1.0000000   1.0000000   1.0000000
 Leave Link  101 at Mon Oct 14 01:32:42 2019, MaxMem= 10737418240 cpu:               8.7 elap:               0.4
 (Enter /apps/cent7/gaussian/g16-A.03/g16-haswell/g16/l103.exe)

 GradGradGradGradGradGradGradGradGradGradGradGradGradGradGradGradGradGrad
 Berny optimization.
 Initialization pass.
                           ----------------------------
                           !    Initial Parameters    !
                           ! (Angstroms and Degrees)  !
 --------------------------                            --------------------------
 ! Name  Definition              Value          Derivative Info.                !
 --------------------------------------------------------------------------------
 ! R1    R(1,2)                  1.2527         estimate D2E/DX2                !
 ! R2    R(2,3)                  1.3564         estimate D2E/DX2                !
 ! R3    R(2,4)                  1.4771         estimate D2E/DX2                !
 ! R4    R(3,27)                 0.96           estimate D2E/DX2                !
 ! R5    R(4,5)                  1.465          estimate D2E/DX2                !
 ! R6    R(4,28)                 1.0901         estimate D2E/DX2                !
 ! R7    R(4,29)                 1.0899         estimate D2E/DX2                !
 ! R8    R(5,6)                  1.3685         estimate D2E/DX2                !
 ! R9    R(5,13)                 1.3485         estimate D2E/DX2                !
 ! R10   R(6,7)                  1.4113         estimate D2E/DX2                !
 ! R11   R(6,12)                 1.3943         estimate D2E/DX2                !
 ! R12   R(7,8)                  1.4069         estimate D2E/DX2                !
 ! R13   R(7,30)                 1.09           estimate D2E/DX2                !
 ! R14   R(8,9)                  1.3041         estimate D2E/DX2                !
 ! R15   R(8,10)                 1.4096         estimate D2E/DX2                !
 ! R16   R(10,11)                1.4079         estimate D2E/DX2                !
 ! R17   R(10,31)                1.09           estimate D2E/DX2                !
 ! R18   R(11,12)                1.4129         estimate D2E/DX2                !
 ! R19   R(11,32)                1.09           estimate D2E/DX2                !
 ! R20   R(12,15)                1.3824         estimate D2E/DX2                !
 ! R21   R(13,14)                1.4667         estimate D2E/DX2                !
 ! R22   R(13,15)                1.3771         estimate D2E/DX2                !
 ! R23   R(14,33)                1.09           estimate D2E/DX2                !
 ! R24   R(14,34)                1.09           estimate D2E/DX2                !
 ! R25   R(14,35)                1.09           estimate D2E/DX2                !
 ! R26   R(15,16)                1.3541         estimate D2E/DX2                !
 ! R27   R(16,17)                1.3879         estimate D2E/DX2                !
 ! R28   R(16,36)                1.09           estimate D2E/DX2                !
 ! R29   R(17,18)                1.4136         estimate D2E/DX2                !
 ! R30   R(17,26)                1.416          estimate D2E/DX2                !
 ! R31   R(18,19)                1.4063         estimate D2E/DX2                !
 ! R32   R(18,37)                1.09           estimate D2E/DX2                !
 ! R33   R(19,20)                1.4104         estimate D2E/DX2                !
 ! R34   R(19,38)                1.09           estimate D2E/DX2                !
 ! R35   R(20,21)                1.7763         estimate D2E/DX2                !
 ! R36   R(20,25)                1.4116         estimate D2E/DX2                !
 ! R37   R(21,22)                1.6063         estimate D2E/DX2                !
 ! R38   R(21,23)                1.832          estimate D2E/DX2                !
 ! R39   R(21,24)                1.6058         estimate D2E/DX2                !
 ! R40   R(23,39)                1.09           estimate D2E/DX2                !
 ! R41   R(23,40)                1.0899         estimate D2E/DX2                !
 ! R42   R(23,41)                1.09           estimate D2E/DX2                !
 ! R43   R(24,44)                0.96           estimate D2E/DX2                !
 ! R44   R(25,26)                1.41           estimate D2E/DX2                !
 ! R45   R(25,42)                1.09           estimate D2E/DX2                !
 ! R46   R(26,43)                1.09           estimate D2E/DX2                !
 ! A1    A(1,2,3)              118.2078         estimate D2E/DX2                !
 ! A2    A(1,2,4)              119.6636         estimate D2E/DX2                !
 ! A3    A(3,2,4)              122.1265         estimate D2E/DX2                !
 ! A4    A(2,3,27)             109.4675         estimate D2E/DX2                !
 ! A5    A(2,4,5)              113.7127         estimate D2E/DX2                !
 ! A6    A(2,4,28)             106.0204         estimate D2E/DX2                !
 ! A7    A(2,4,29)             106.0232         estimate D2E/DX2                !
 ! A8    A(5,4,28)             105.7087         estimate D2E/DX2                !
 ! A9    A(5,4,29)             105.7104         estimate D2E/DX2                !
 ! A10   A(28,4,29)            119.9957         estimate D2E/DX2                !
 ! A11   A(4,5,6)              124.6812         estimate D2E/DX2                !
 ! A12   A(4,5,13)             127.7726         estimate D2E/DX2                !
 ! A13   A(6,5,13)             107.5444         estimate D2E/DX2                !
 ! A14   A(5,6,7)              130.5745         estimate D2E/DX2                !
 ! A15   A(5,6,12)             108.0832         estimate D2E/DX2                !
 ! A16   A(7,6,12)             121.3422         estimate D2E/DX2                !
 ! A17   A(6,7,8)              118.9382         estimate D2E/DX2                !
 ! A18   A(6,7,30)             120.686          estimate D2E/DX2                !
 ! A19   A(8,7,30)             120.3759         estimate D2E/DX2                !
 ! A20   A(7,8,9)              119.5976         estimate D2E/DX2                !
 ! A21   A(7,8,10)             120.124          estimate D2E/DX2                !
 ! A22   A(9,8,10)             120.2766         estimate D2E/DX2                !
 ! A23   A(8,10,11)            120.3209         estimate D2E/DX2                !
 ! A24   A(8,10,31)            119.8923         estimate D2E/DX2                !
 ! A25   A(11,10,31)           119.7868         estimate D2E/DX2                !
 ! A26   A(10,11,12)           119.5996         estimate D2E/DX2                !
 ! A27   A(10,11,32)           120.0279         estimate D2E/DX2                !
 ! A28   A(12,11,32)           120.3725         estimate D2E/DX2                !
 ! A29   A(6,12,11)            119.5443         estimate D2E/DX2                !
 ! A30   A(6,12,15)            107.5829         estimate D2E/DX2                !
 ! A31   A(11,12,15)           132.8611         estimate D2E/DX2                !
 ! A32   A(5,13,14)            125.2582         estimate D2E/DX2                !
 ! A33   A(5,13,15)            110.3693         estimate D2E/DX2                !
 ! A34   A(14,13,15)           124.3588         estimate D2E/DX2                !
 ! A35   A(13,14,33)           109.469          estimate D2E/DX2                !
 ! A36   A(13,14,34)           109.4719         estimate D2E/DX2                !
 ! A37   A(13,14,35)           109.4681         estimate D2E/DX2                !
 ! A38   A(33,14,34)           109.4759         estimate D2E/DX2                !
 ! A39   A(33,14,35)           109.4753         estimate D2E/DX2                !
 ! A40   A(34,14,35)           109.4671         estimate D2E/DX2                !
 ! A41   A(12,15,13)           106.3337         estimate D2E/DX2                !
 ! A42   A(12,15,16)           128.5868         estimate D2E/DX2                !
 ! A43   A(13,15,16)           125.0761         estimate D2E/DX2                !
 ! A44   A(15,16,17)           128.6617         estimate D2E/DX2                !
 ! A45   A(15,16,36)           114.2            estimate D2E/DX2                !
 ! A46   A(17,16,36)           117.1383         estimate D2E/DX2                !
 ! A47   A(16,17,18)           119.5328         estimate D2E/DX2                !
 ! A48   A(16,17,26)           121.7229         estimate D2E/DX2                !
 ! A49   A(18,17,26)           118.5915         estimate D2E/DX2                !
 ! A50   A(17,18,19)           120.6319         estimate D2E/DX2                !
 ! A51   A(17,18,37)           119.9493         estimate D2E/DX2                !
 ! A52   A(19,18,37)           119.4188         estimate D2E/DX2                !
 ! A53   A(18,19,20)           120.6969         estimate D2E/DX2                !
 ! A54   A(18,19,38)           119.5042         estimate D2E/DX2                !
 ! A55   A(20,19,38)           119.7989         estimate D2E/DX2                !
 ! A56   A(19,20,21)           118.3975         estimate D2E/DX2                !
 ! A57   A(19,20,25)           118.9836         estimate D2E/DX2                !
 ! A58   A(21,20,25)           122.6103         estimate D2E/DX2                !
 ! A59   A(20,21,22)           109.039          estimate D2E/DX2                !
 ! A60   A(20,21,23)           113.9448         estimate D2E/DX2                !
 ! A61   A(20,21,24)           109.4657         estimate D2E/DX2                !
 ! A62   A(22,21,23)           107.9568         estimate D2E/DX2                !
 ! A63   A(22,21,24)           107.668          estimate D2E/DX2                !
 ! A64   A(23,21,24)           108.5775         estimate D2E/DX2                !
 ! A65   A(21,23,39)           109.4672         estimate D2E/DX2                !
 ! A66   A(21,23,40)           109.4737         estimate D2E/DX2                !
 ! A67   A(21,23,41)           109.4668         estimate D2E/DX2                !
 ! A68   A(39,23,40)           109.4724         estimate D2E/DX2                !
 ! A69   A(39,23,41)           109.4721         estimate D2E/DX2                !
 ! A70   A(40,23,41)           109.4751         estimate D2E/DX2                !
 ! A71   A(21,24,44)           120.0            estimate D2E/DX2                !
 ! A72   A(20,25,26)           120.3539         estimate D2E/DX2                !
 ! A73   A(20,25,42)           119.8785         estimate D2E/DX2                !
 ! A74   A(26,25,42)           119.7676         estimate D2E/DX2                !
 ! A75   A(17,26,25)           120.7024         estimate D2E/DX2                !
 ! A76   A(17,26,43)           119.8679         estimate D2E/DX2                !
 ! A77   A(25,26,43)           119.4297         estimate D2E/DX2                !
 ! D1    D(1,2,3,27)          -150.3963         estimate D2E/DX2                !
 ! D2    D(4,2,3,27)            30.1292         estimate D2E/DX2                !
 ! D3    D(1,2,4,5)           -178.3421         estimate D2E/DX2                !
 ! D4    D(1,2,4,28)           -62.6345         estimate D2E/DX2                !
 ! D5    D(1,2,4,29)            65.9465         estimate D2E/DX2                !
 ! D6    D(3,2,4,5)              1.125          estimate D2E/DX2                !
 ! D7    D(3,2,4,28)           116.8327         estimate D2E/DX2                !
 ! D8    D(3,2,4,29)          -114.5864         estimate D2E/DX2                !
 ! D9    D(2,4,5,6)             95.6423         estimate D2E/DX2                !
 ! D10   D(2,4,5,13)           -83.8151         estimate D2E/DX2                !
 ! D11   D(28,4,5,6)           -20.2486         estimate D2E/DX2                !
 ! D12   D(28,4,5,13)          160.294          estimate D2E/DX2                !
 ! D13   D(29,4,5,6)          -148.4624         estimate D2E/DX2                !
 ! D14   D(29,4,5,13)           32.0803         estimate D2E/DX2                !
 ! D15   D(4,5,6,7)             -1.412          estimate D2E/DX2                !
 ! D16   D(4,5,6,12)           178.4832         estimate D2E/DX2                !
 ! D17   D(13,5,6,7)           178.1382         estimate D2E/DX2                !
 ! D18   D(13,5,6,12)           -1.9666         estimate D2E/DX2                !
 ! D19   D(4,5,13,14)            1.0502         estimate D2E/DX2                !
 ! D20   D(4,5,13,15)          179.7465         estimate D2E/DX2                !
 ! D21   D(6,5,13,14)         -178.4818         estimate D2E/DX2                !
 ! D22   D(6,5,13,15)            0.2145         estimate D2E/DX2                !
 ! D23   D(5,6,7,8)            178.398          estimate D2E/DX2                !
 ! D24   D(5,6,7,30)            -1.6075         estimate D2E/DX2                !
 ! D25   D(12,6,7,8)            -1.4854         estimate D2E/DX2                !
 ! D26   D(12,6,7,30)          178.5092         estimate D2E/DX2                !
 ! D27   D(5,6,12,11)         -175.9379         estimate D2E/DX2                !
 ! D28   D(5,6,12,15)            2.9724         estimate D2E/DX2                !
 ! D29   D(7,6,12,11)            3.9689         estimate D2E/DX2                !
 ! D30   D(7,6,12,15)         -177.1208         estimate D2E/DX2                !
 ! D31   D(6,7,8,9)            179.7678         estimate D2E/DX2                !
 ! D32   D(6,7,8,10)            -0.7142         estimate D2E/DX2                !
 ! D33   D(30,7,8,9)            -0.2267         estimate D2E/DX2                !
 ! D34   D(30,7,8,10)          179.2912         estimate D2E/DX2                !
 ! D35   D(7,8,10,11)            0.3886         estimate D2E/DX2                !
 ! D36   D(7,8,10,31)         -179.6175         estimate D2E/DX2                !
 ! D37   D(9,8,10,11)          179.9032         estimate D2E/DX2                !
 ! D38   D(9,8,10,31)           -0.1029         estimate D2E/DX2                !
 ! D39   D(8,10,11,12)           2.0909         estimate D2E/DX2                !
 ! D40   D(8,10,11,32)        -177.9108         estimate D2E/DX2                !
 ! D41   D(31,10,11,12)       -177.903          estimate D2E/DX2                !
 ! D42   D(31,10,11,32)          2.0953         estimate D2E/DX2                !
 ! D43   D(10,11,12,6)          -4.2343         estimate D2E/DX2                !
 ! D44   D(10,11,12,15)        177.1828         estimate D2E/DX2                !
 ! D45   D(32,11,12,6)         175.7675         estimate D2E/DX2                !
 ! D46   D(32,11,12,15)         -2.8154         estimate D2E/DX2                !
 ! D47   D(6,12,15,13)          -2.781          estimate D2E/DX2                !
 ! D48   D(6,12,15,16)         176.562          estimate D2E/DX2                !
 ! D49   D(11,12,15,13)        175.9258         estimate D2E/DX2                !
 ! D50   D(11,12,15,16)         -4.7313         estimate D2E/DX2                !
 ! D51   D(5,13,14,33)          82.4707         estimate D2E/DX2                !
 ! D52   D(5,13,14,34)        -157.5245         estimate D2E/DX2                !
 ! D53   D(5,13,14,35)         -37.5311         estimate D2E/DX2                !
 ! D54   D(15,13,14,33)        -96.0488         estimate D2E/DX2                !
 ! D55   D(15,13,14,34)         23.956          estimate D2E/DX2                !
 ! D56   D(15,13,14,35)        143.9494         estimate D2E/DX2                !
 ! D57   D(5,13,15,12)           1.6225         estimate D2E/DX2                !
 ! D58   D(5,13,15,16)        -177.7499         estimate D2E/DX2                !
 ! D59   D(14,13,15,12)       -179.667          estimate D2E/DX2                !
 ! D60   D(14,13,15,16)          0.9606         estimate D2E/DX2                !
 ! D61   D(12,15,16,17)         -6.0651         estimate D2E/DX2                !
 ! D62   D(12,15,16,36)        173.9393         estimate D2E/DX2                !
 ! D63   D(13,15,16,17)        173.1644         estimate D2E/DX2                !
 ! D64   D(13,15,16,36)         -6.8312         estimate D2E/DX2                !
 ! D65   D(15,16,17,18)        121.6304         estimate D2E/DX2                !
 ! D66   D(15,16,17,26)        -62.9266         estimate D2E/DX2                !
 ! D67   D(36,16,17,18)        -58.3741         estimate D2E/DX2                !
 ! D68   D(36,16,17,26)        117.0688         estimate D2E/DX2                !
 ! D69   D(16,17,18,19)        174.2971         estimate D2E/DX2                !
 ! D70   D(16,17,18,37)         -5.7086         estimate D2E/DX2                !
 ! D71   D(26,17,18,19)         -1.2886         estimate D2E/DX2                !
 ! D72   D(26,17,18,37)        178.7057         estimate D2E/DX2                !
 ! D73   D(16,17,26,25)       -175.0618         estimate D2E/DX2                !
 ! D74   D(16,17,26,43)          4.9339         estimate D2E/DX2                !
 ! D75   D(18,17,26,25)          0.4227         estimate D2E/DX2                !
 ! D76   D(18,17,26,43)       -179.5817         estimate D2E/DX2                !
 ! D77   D(17,18,19,20)          0.3762         estimate D2E/DX2                !
 ! D78   D(17,18,19,38)       -179.6131         estimate D2E/DX2                !
 ! D79   D(37,18,19,20)       -179.6181         estimate D2E/DX2                !
 ! D80   D(37,18,19,38)          0.3926         estimate D2E/DX2                !
 ! D81   D(18,19,20,21)       -177.5499         estimate D2E/DX2                !
 ! D82   D(18,19,20,25)          1.407          estimate D2E/DX2                !
 ! D83   D(38,19,20,21)          2.4394         estimate D2E/DX2                !
 ! D84   D(38,19,20,25)       -178.6037         estimate D2E/DX2                !
 ! D85   D(19,20,21,22)         56.22           estimate D2E/DX2                !
 ! D86   D(19,20,21,23)        176.8904         estimate D2E/DX2                !
 ! D87   D(19,20,21,24)        -61.3284         estimate D2E/DX2                !
 ! D88   D(25,20,21,22)       -122.6967         estimate D2E/DX2                !
 ! D89   D(25,20,21,23)         -2.0264         estimate D2E/DX2                !
 ! D90   D(25,20,21,24)        119.7548         estimate D2E/DX2                !
 ! D91   D(19,20,25,26)         -2.2664         estimate D2E/DX2                !
 ! D92   D(19,20,25,42)        177.7367         estimate D2E/DX2                !
 ! D93   D(21,20,25,26)        176.6442         estimate D2E/DX2                !
 ! D94   D(21,20,25,42)         -3.3526         estimate D2E/DX2                !
 ! D95   D(20,21,23,39)       -150.1093         estimate D2E/DX2                !
 ! D96   D(20,21,23,40)        -30.1088         estimate D2E/DX2                !
 ! D97   D(20,21,23,41)         89.8948         estimate D2E/DX2                !
 ! D98   D(22,21,23,39)        -28.8357         estimate D2E/DX2                !
 ! D99   D(22,21,23,40)         91.1647         estimate D2E/DX2                !
 ! D100  D(22,21,23,41)       -148.8317         estimate D2E/DX2                !
 ! D101  D(24,21,23,39)         87.62           estimate D2E/DX2                !
 ! D102  D(24,21,23,40)       -152.3795         estimate D2E/DX2                !
 ! D103  D(24,21,23,41)        -32.3759         estimate D2E/DX2                !
 ! D104  D(20,21,24,44)         64.4747         estimate D2E/DX2                !
 ! D105  D(22,21,24,44)        -53.9301         estimate D2E/DX2                !
 ! D106  D(23,21,24,44)       -170.5715         estimate D2E/DX2                !
 ! D107  D(20,25,26,17)          1.3653         estimate D2E/DX2                !
 ! D108  D(20,25,26,43)       -178.6304         estimate D2E/DX2                !
 ! D109  D(42,25,26,17)       -178.6379         estimate D2E/DX2                !
 ! D110  D(42,25,26,43)          1.3665         estimate D2E/DX2                !
 --------------------------------------------------------------------------------
 Trust Radius=3.00D-01 FncErr=1.00D-07 GrdErr=1.00D-06 EigMax=2.50D+02 EigMin=1.00D-04
 Number of steps in this run=    243 maximum allowed number of steps=    264.
 GradGradGradGradGradGradGradGradGradGradGradGradGradGradGradGradGradGrad

 Leave Link  103 at Mon Oct 14 01:32:42 2019, MaxMem= 10737418240 cpu:               0.4 elap:               0.0
 (Enter /apps/cent7/gaussian/g16-A.03/g16-haswell/g16/l202.exe)
                          Input orientation:                          
 ---------------------------------------------------------------------
 Center     Atomic      Atomic             Coordinates (Angstroms)
 Number     Number       Type             X           Y           Z
 ---------------------------------------------------------------------
      1          8           0       -1.211100    1.901200    4.583400
      2          6           0       -1.791500    0.797400    4.464600
      3          8           0       -1.596600   -0.136500    5.428800
      4          6           0       -2.667400    0.553600    3.300500
      5          6           0       -3.309100   -0.763300    3.311600
      6          6           0       -4.568700   -1.011800    3.785500
      7          6           0       -5.515300   -0.146300    4.374300
      8          6           0       -6.769400   -0.662500    4.748600
      9          9           0       -7.652100    0.124800    5.297900
     10          6           0       -7.072000   -2.020300    4.521200
     11          6           0       -6.120500   -2.870600    3.926400
     12          6           0       -4.842200   -2.366100    3.598200
     13          6           0       -2.797200   -1.935200    2.883800
     14          6           0       -1.451900   -2.119400    2.329400
     15          6           0       -3.708300   -2.951500    3.066700
     16          6           0       -3.486500   -4.256300    2.780400
     17          6           0       -4.293400   -5.352700    3.051000
     18          6           0       -4.739100   -6.169400    1.986800
     19          6           0       -5.456700   -7.351400    2.242700
     20          6           0       -5.753000   -7.741800    3.565200
     21         16           0       -6.604900   -9.279300    3.821400
     22          8           0       -5.766300  -10.464000    3.133300
     23          6           0       -6.847600   -9.709900    5.585500
     24          8           0       -8.041700   -9.220500    3.106800
     25          6           0       -5.344100   -6.911800    4.631300
     26          6           0       -4.608800   -5.735800    4.377200
     27          1           0       -1.674100   -1.013200    5.045400
     28          1           0       -3.478500    1.277800    3.377400
     29          1           0       -2.015100    0.556700    2.427300
     30          1           0       -5.281200    0.905600    4.537700
     31          1           0       -8.047100   -2.414800    4.807000
     32          1           0       -6.371500   -3.911400    3.721600
     33          1           0       -0.733800   -2.217700    3.143500
     34          1           0       -1.431800   -3.020400    1.716300
     35          1           0       -1.190400   -1.256900    1.716300
     36          1           0       -2.542800   -4.447500    2.269600
     37          1           0       -4.527000   -5.884300    0.956400
     38          1           0       -5.786100   -7.970700    1.408400
     39          1           0       -6.862800  -10.794200    5.696000
     40          1           0       -6.030600   -9.295900    6.176300
     41          1           0       -7.793900   -9.295900    5.933600
     42          1           0       -5.597600   -7.180600    5.656800
     43          1           0       -4.281400   -5.117700    5.213200
     44          1           0       -8.099958   -9.141919    2.151797
 ---------------------------------------------------------------------
                    Distance matrix (angstroms):
                    1          2          3          4          5
     1  O    0.000000
     2  C    1.252738   0.000000
     3  O    2.239539   1.356406   0.000000
     4  C    2.362767   1.477081   2.480426   0.000000
     5  C    3.621966   2.463393   2.794292   1.464967   0.000000
     6  C    4.516159   3.383374   3.507130   2.510108   1.368549
     7  C    4.770966   3.842579   4.058112   3.123050   2.525339
     8  C    6.123279   5.195330   5.243778   4.516890   3.748174
     9  F    6.719568   5.957635   6.062548   5.387087   4.857547
    10  C    7.052105   5.985509   5.861096   5.245529   4.147601
    11  C    6.877785   5.699485   5.495287   4.903141   3.566884
    12  C    5.689056   4.479414   4.342365   3.652811   2.236404
    13  C    4.485791   3.313226   3.339729   2.526779   1.348482
    14  C    4.615596   3.630720   3.682270   3.092799   2.500583
    15  C    5.664370   4.436496   4.238280   3.663859   2.237757
    16  C    6.807574   5.590120   5.249619   4.906788   3.537611
    17  C    8.029190   6.788335   6.335251   6.131110   4.700995
    18  C    9.182794   7.960160   7.623552   7.156569   5.746818
    19  C   10.445794   9.207251   8.781024   8.449151   7.011262
    20  C   10.707616   9.456233   8.865058   8.854640   7.398407
    21  S   12.436933  11.185813  10.547872  10.604771   9.145734
    22  O   13.257104  12.016261  11.371586  11.446338  10.008656
    23  C   12.945732  11.714261  10.920052  11.315243   9.886013
    24  O   13.135054  11.885577  11.377612  11.155880   9.693486
    25  C    9.734113   8.490025   7.783602   8.041638   6.609606
    26  C    8.361259   7.115302   6.444484   6.669698   5.248855
    27  H    2.986895   1.905094   0.960002   2.546799   2.396192
    28  H    2.642757   2.063676   3.122504   1.090075   2.049174
    29  H    2.665120   2.063619   3.108805   1.089946   2.049103
    30  H    4.190349   3.492142   3.931451   2.913163   2.859673
    31  H    8.087568   7.040454   6.869224   6.326303   5.235677
    32  H    7.820406   6.610692   6.321714   5.816692   4.411001
    33  H    4.389358   3.457580   3.209114   3.382833   2.962382
    34  H    5.700098   4.717853   4.703902   4.099985   3.341218
    35  H    4.265476   3.483479   3.899096   2.822965   2.697687
    36  H    6.887168   5.735107   5.427758   5.107767   3.904652
    37  H    9.206755   8.027175   7.850275   7.099259   5.766705
    38  H   11.334269  10.108252   9.751421   9.272002   7.855209
    39  H   13.941046  12.712184  11.890788  12.333384  10.905645
    40  H   12.293899  11.080370  10.203613  10.797870   9.403102
    41  H   13.058765  11.834757  11.070499  11.411699   9.989674
    42  H   10.142616   8.919429   8.104278   8.599772   7.205479
    43  H    7.686895   6.461301   5.662772   6.198956   4.849974
    44  H   13.240828  11.997323  11.581450  11.172971   9.721045
                    6          7          8          9         10
     6  C    0.000000
     7  C    1.411321   0.000000
     8  C    2.427479   1.406887   0.000000
     9  F    3.617536   2.343597   1.304121   0.000000
    10  C    2.797291   2.440650   1.409574   2.353982   0.000000
    11  C    2.425505   2.826427   2.443929   3.633075   1.407888
    12  C    1.394278   2.445998   2.817760   4.121784   2.437932
    13  C    2.191790   3.579081   4.568984   5.800132   4.578453
    14  C    3.614062   4.958423   6.020871   7.231245   6.033186
    15  C    2.240401   3.583883   4.175960   5.476809   3.781161
    16  C    3.564851   4.852695   5.250394   6.548593   4.570108
    17  C    4.411201   5.509153   5.568698   6.806793   4.581157
    18  C    5.464906   6.525364   6.486571   7.685435   5.392647
    19  C    6.584778   7.514028   7.262513   8.369444   6.018420
    20  C    6.836958   7.642170   7.249137   8.276003   5.948887
    21  S    8.514632   9.214370   8.668103   9.576731   7.307598
    22  O    9.550063  10.395096   9.984228  10.971072   8.656049
    23  C    9.170078   9.731622   9.086361   9.871740   7.766147
    24  O    8.938966   9.504228   8.806453   9.606630   7.401603
    25  C    6.010543   6.772544   6.410849   7.435386   5.188885
    26  C    4.761081   5.662531   5.526708   6.667533   4.460160
    27  H    3.156907   3.994585   5.115971   6.090590   5.516009
    28  H    2.568531   2.677765   4.058938   4.736736   5.009889
    29  H    3.290254   4.066499   5.429388   6.340556   6.049594
    30  H    2.179423   1.089952   2.172132   2.609352   3.430470
    31  H    3.887305   3.426855   2.169443   2.616596   1.090015
    32  H    3.414945   3.916002   3.430511   4.518359   2.169405
    33  H    4.070972   5.354279   6.436106   7.615223   6.489207
    34  H    4.261010   5.656888   6.576056   7.836598   6.378050
    35  H    3.969203   5.196456   6.377570   7.516018   6.560752
    36  H    4.266879   5.636119   6.191592   7.495430   5.610228
    37  H    5.634430   6.751550   6.832008   8.045132   5.840832
    38  H    7.453788   8.372045   8.095283   9.173183   6.837421
    39  H   10.227818  10.813899  10.176327  10.954727   8.854673
    40  H    8.745250   9.339589   8.781785   9.599502   7.533806
    41  H    9.145631   9.557124   8.774362   9.443189   7.446500
    42  H    6.527978   7.150731   6.684577   7.597279   5.485630
    43  H    4.356522   5.190480   5.123944   6.233185   4.226133
    44  H    9.013190   9.619830   8.967403   9.796459   7.575501
                   11         12         13         14         15
    11  C    0.000000
    12  C    1.412900   0.000000
    13  C    3.606426   2.208635   0.000000
    14  C    4.991046   3.628340   1.466670   0.000000
    15  C    2.562096   1.382358   1.377106   2.515421   0.000000
    16  C    3.189269   2.465679   2.423496   2.984852   1.354129
    17  C    3.203973   3.085513   3.734418   4.364523   2.471508
    18  C    4.068464   4.131868   4.743842   5.227385   3.547339
    19  C    4.832499   5.202711   6.067880   6.589367   4.805726
    20  C    4.898378   5.452412   6.551157   7.185962   5.232234
    21  S    6.427838   7.137875   8.325472   8.946711   7.000065
    22  O    7.642918   8.163705   9.034281   9.428290   7.789574
    23  C    7.075119   7.867807   9.173379   9.865671   7.866100
    24  O    6.684608   7.580308   8.979427   9.718819   7.621045
    25  C    4.175042   4.688559   5.857218   6.589011   4.561556
    26  C    3.270754   3.466438   4.467292   5.218990   3.206343
    27  H    4.946976   3.736520   2.604602   2.941038   3.436602
    28  H    4.948817   3.896978   3.321322   4.092234   4.246919
    29  H    5.554097   4.231579   2.651347   2.736474   3.947559
    30  H    3.916350   3.432113   4.120168   5.356375   4.417587
    31  H    2.166794   3.425632   5.611610   7.051413   4.705516
    32  H    1.090050   2.177599   4.169280   5.417744   2.905673
    33  H    5.482312   4.136149   2.098778   1.089995   3.064639
    34  H    5.185643   3.949745   2.098817   1.089998   2.647788
    35  H    5.638657   4.255293   2.098798   1.090037   3.321908
    36  H    4.246356   3.374114   2.598771   2.571709   2.057128
    37  H    4.521342   4.410917   4.722549   5.051321   3.704720
    38  H    5.697646   6.090789   6.894751   7.339703   5.679752
    39  H    8.152664   8.917200  10.144923  10.764014   8.852798
    40  H    6.808422   7.488726   8.687654   9.341589   7.437345
    41  H    6.936397   7.885985   9.404690  10.232955   8.072339
    42  H    4.673736   5.290357   6.560944   7.339902   5.306916
    43  H    3.176098   3.239448   4.213936   5.031121   3.102955
    44  H    6.811528   7.656160   8.977297   9.671814   7.644932
                   16         17         18         19         20
    16  C    0.000000
    17  C    1.387950   0.000000
    18  C    2.420487   1.413566   0.000000
    19  C    3.708160   2.449779   1.406257   0.000000
    20  C    4.231033   2.846512   2.447812   1.410394   0.000000
    21  S    6.003218   4.621118   4.064289   2.743621   1.776310
    22  O    6.622504   5.319924   4.562148   3.252276   2.756281
    23  C    6.993378   5.650913   5.470974   4.321046   3.025422
    24  O    6.745344   5.386348   4.633657   3.304910   2.763120
    25  C    3.732049   2.456036   2.812572   2.431324   1.411619
    26  C    2.449132   1.415998   2.432899   2.808058   2.447973
    27  H    4.351174   5.446983   6.733176   7.895313   8.006402
    28  H    5.566214   6.688358   7.680083   8.925464   9.303860
    29  H    5.045262   6.364013   7.270119   8.626513   9.172340
    30  H    5.740580   6.507868   7.540331   8.571807   8.714693
    31  H    5.319521   5.079868   5.743989   6.136434   5.931432
    32  H    3.054184   2.616400   3.282198   3.854556   3.883165
    33  H    3.444574   4.744211   5.744242   7.033641   7.475686
    34  H    2.623271   3.925532   4.574670   5.935864   6.662043
    35  H    3.924383   5.309012   6.066226   7.457972   8.141847
    36  H    1.089974   2.120041   2.805111   4.113900   4.778742
    37  H    2.657066   2.173595   1.089951   2.161317   3.429172
    38  H    4.579008   3.432231   2.162276   1.089997   2.169165
    39  H    7.914813   6.573261   6.297384   5.074965   3.884470
    40  H    6.588031   5.322987   5.384690   4.425342   3.051251
    41  H    7.341249   6.009302   5.889315   4.781875   3.491392
    42  H    4.613236   3.439818   3.902364   3.421272   2.171148
    43  H    2.700443   2.174966   3.424211   3.898027   3.430366
    44  H    6.748956   5.445790   4.489817   3.193906   3.076728
                   21         22         23         24         25
    21  S    0.000000
    22  O    1.606314   0.000000
    23  C    1.832039   2.784091   0.000000
    24  O    1.605772   2.593152   2.794520   0.000000
    25  C    2.801894   3.878193   3.316681   3.864096   0.000000
    26  C    4.104841   5.024238   4.718653   5.053895   1.410039
    27  H    9.702545  10.474724  10.133578  10.567132   6.959444
    28  H   11.019250  11.965094  11.702824  11.450342   8.492484
    29  H   10.943339  11.663008  11.778385  11.505445   8.468669
    30  H   10.295507  11.466275  10.781481  10.592721   7.818213
    31  H    7.083270   8.531878   7.433932   7.014860   5.249770
    32  H    5.373899   6.606734   6.109288   5.599472   3.299319
    33  H    9.208450   9.660622   9.973714  10.121559   6.745590
    34  H    8.388459   8.729431   9.436684   9.168724   6.240698
    35  H    9.904906  10.378701  10.882455  10.596826   7.597917
    36  H    6.500387   6.880058   7.564347   7.329416   4.415618
    37  H    4.904276   5.220001   6.438087   5.301657   3.902345
    38  H    2.864513   3.031867   4.647555   3.087765   3.421070
    39  H    2.423955   2.806916   1.090022   3.251199   4.302681
    40  H    2.423974   3.270193   1.089922   3.670428   2.922711
    41  H    2.423919   3.649288   1.089979   2.838642   3.658065
    42  H    2.964437   4.144542   2.822223   4.078887   1.090030
    43  H    4.965347   5.925693   5.273736   5.950609   2.164887
    44  H    2.245361   2.856082   3.698827   0.960000   4.326213
                   26         27         28         29         30
    26  C    0.000000
    27  H    5.600170   0.000000
    28  H    7.174104   3.359578   0.000000
    29  H    7.079897   3.071696   1.887913   0.000000
    30  H    6.677281   4.117126   2.175904   3.904219   0.000000
    31  H    4.799550   6.529659   6.045755   7.132868   4.329871
    32  H    2.620183   5.676053   5.951111   6.373174   5.005823
    33  H    5.377236   2.439715   4.450461   3.138784   5.690136
    34  H    4.954505   3.894928   5.042099   3.693427   6.179940
    35  H    6.231083   3.372872   3.797283   2.115371   5.419534
    36  H    3.220256   4.500458   5.906083   5.034417   6.426414
    37  H    3.424999   6.970407   7.632579   7.068215   7.713447
    38  H    3.898023   8.862456   9.733280   9.379507   9.425293
    39  H    5.692729  11.091161  12.750003  12.768223  11.862902
    40  H    4.234689   9.426619  11.231660  11.280646  10.359402
    41  H    5.024097  10.336536  11.702990  11.948322  10.598717
    42  H    2.168536   7.335154   9.012812   9.117554   8.169402
    43  H    1.090016   4.865500   6.702032   6.715368   6.142967
    44  H    5.361180  10.758283  11.464315  11.452712  10.704698
                   31         32         33         34         35
    31  H    0.000000
    32  H    2.495103   0.000000
    33  H    7.502695   5.914937   0.000000
    34  H    7.326757   5.405159   1.780009   0.000000
    35  H    7.609697   6.157223   1.780034   1.779946   0.000000
    36  H    6.392776   4.129728   3.001365   1.891316   3.509281
    37  H    6.265433   3.865339   5.711018   4.284814   5.755274
    38  H    6.894246   4.708663   7.850689   6.600015   8.141890
    39  H    8.509244   7.177226  10.846025  10.284247  11.788733
    40  H    7.300054   5.927445   9.346383   8.967857  10.389642
    41  H    6.977311   5.992412  10.379335   9.881490  11.225745
    42  H    5.425409   3.877059   7.389425   7.084398   8.369061
    43  H    4.653081   2.836996   5.027835   4.974655   6.057092
    44  H    7.232360   5.728017  10.158177   9.062394  10.493101
                   36         37         38         39         40
    36  H    0.000000
    37  H    2.779557   0.000000
    38  H    4.865552   2.478447   0.000000
    39  H    8.407331   7.212967   5.245469   0.000000
    40  H    7.136809   6.414607   4.954675   1.779929   0.000000
    41  H    8.031558   6.861791   5.124924   1.779973   1.779924
    42  H    5.317402   4.992027   4.325355   3.828887   2.220780
    43  H    3.483774   4.332244   4.988009   6.254548   4.630833
    44  H    7.275538   4.980671   2.697838   4.101459   4.527977
                   41         42         43         44
    41  H    0.000000
    42  H    3.061837   0.000000
    43  H    5.505814   2.486910   0.000000
    44  H    3.797291   4.732189   6.336238   0.000000
 Stoichiometry    C20H18FO4S(1+)
 Framework group  C1[X(C20H18FO4S)]
 Deg. of freedom   126
 Full point group                 C1      NOp   1
 Largest Abelian subgroup         C1      NOp   1
 Largest concise Abelian subgroup C1      NOp   1
                         Standard orientation:                         
 ---------------------------------------------------------------------
 Center     Atomic      Atomic             Coordinates (Angstroms)
 Number     Number       Type             X           Y           Z
 ---------------------------------------------------------------------
      1          8           0        6.808808   -1.123037    0.952169
      2          6           0        5.570046   -0.982626    0.829261
      3          8           0        4.798426   -1.098842    1.938736
      4          6           0        4.996055   -0.687492   -0.499346
      5          6           0        3.541764   -0.511397   -0.486914
      6          6           0        2.904335    0.696793   -0.403929
      7          6           0        3.425093    2.003391   -0.288006
      8          6           0        2.533430    3.091123   -0.254709
      9          9           0        3.000444    4.303648   -0.143297
     10          6           0        1.144589    2.870589   -0.351577
     11          6           0        0.639522    1.562122   -0.473931
     12          6           0        1.530297    0.465568   -0.454606
     13          6           0        2.593362   -1.468416   -0.542170
     14          6           0        2.849157   -2.911204   -0.605828
     15          6           0        1.338519   -0.902628   -0.501256
     16          6           0        0.173516   -1.592845   -0.495327
     17          6           0       -1.117849   -1.112846   -0.326854
     18          6           0       -2.081680   -1.336795   -1.336332
     19          6           0       -3.424140   -0.966929   -1.139965
     20          6           0       -3.834489   -0.358200    0.064309
     21         16           0       -5.556551    0.023739    0.273844
     22          8           0       -6.418176   -1.318087    0.080581
     23          6           0       -5.967768    0.727637    1.914514
     24          8           0       -6.015436    1.065006   -0.859157
     25          6           0       -2.870452   -0.096945    1.061829
     26          6           0       -1.527602   -0.483683    0.873690
     27          1           0        3.931232   -1.428700    1.692216
     28          1           0        5.407586    0.276920   -0.797363
     29          1           0        5.181139   -1.571093   -1.110064
     30          1           0        4.500384    2.170054   -0.225011
     31          1           0        0.457525    3.716567   -0.331650
     32          1           0       -0.432789    1.399277   -0.582745
     33          1           0        3.033244   -3.292193    0.398686
     34          1           0        1.982121   -3.415456   -1.032529
     35          1           0        3.722261   -3.098125   -1.231072
     36          1           0        0.289422   -2.666343   -0.644359
     37          1           0       -1.786219   -1.800189   -2.277587
     38          1           0       -4.153293   -1.153928   -1.928292
     39          1           0       -6.988132    0.453125    2.182184
     40          1           0       -5.278043    0.335037    2.661558
     41          1           0       -5.881931    1.813539    1.875759
     42          1           0       -3.164724    0.406354    1.982839
     43          1           0       -0.800178   -0.294677    1.663161
     44          1           0       -6.002012    0.805551   -1.783333
 ---------------------------------------------------------------------
 Rotational constants (GHZ):           0.3795283           0.0788449           0.0702771
 Leave Link  202 at Mon Oct 14 01:32:42 2019, MaxMem= 10737418240 cpu:               0.4 elap:               0.0
 (Enter /apps/cent7/gaussian/g16-A.03/g16-haswell/g16/l301.exe)
 Standard basis: 6-31G(d) (6D, 7F)
 Ernie: Thresh=  0.10000D-02 Tol=  0.10000D-05 Strict=F.
 There are   430 symmetry adapted cartesian basis functions of A   symmetry.
 There are   430 symmetry adapted basis functions of A   symmetry.
   430 basis functions,   824 primitive gaussians,   430 cartesian basis functions
    97 alpha electrons       97 beta electrons
       nuclear repulsion energy      2369.1674663497 Hartrees.
 IExCor=  402 DFT=T Ex+Corr=B3LYP ExCW=0 ScaHFX=  0.200000
 ScaDFX=  0.800000  0.720000  1.000000  0.810000 ScalE2=  1.000000  1.000000
 IRadAn=      5 IRanWt=     -1 IRanGd=            0 ICorTp=0 IEmpDi=  4
 NAtoms=   44 NActive=   44 NUniq=   44 SFac= 1.00D+00 NAtFMM=   60 NAOKFM=F Big=F
 Integral buffers will be    131072 words long.
 Raffenetti 2 integral format.
 Two-electron integral symmetry is turned on.
 Leave Link  301 at Mon Oct 14 01:32:43 2019, MaxMem= 10737418240 cpu:               1.3 elap:               0.1
 (Enter /apps/cent7/gaussian/g16-A.03/g16-haswell/g16/l302.exe)
 NPDir=0 NMtPBC=     1 NCelOv=     1 NCel=       1 NClECP=     1 NCelD=      1
         NCelK=      1 NCelE2=     1 NClLst=     1 CellRange=     0.0.
 One-electron integrals computed using PRISM.
 One-electron integral symmetry used in STVInt
 NBasis=   430 RedAO= T EigKep=  2.89D-04  NBF=   430
 NBsUse=   430 1.00D-06 EigRej= -1.00D+00 NBFU=   430
 Precomputing XC quadrature grid using
 IXCGrd= 4 IRadAn=           5 IRanWt=          -1 IRanGd=           0 AccXCQ= 0.00D+00.
 Generated NRdTot=       0 NPtTot=           0 NUsed=           0 NTot=          32
 NSgBfM=   423   423   423   423   423 MxSgAt=    44 MxSgA2=    44.
 Leave Link  302 at Mon Oct 14 01:32:43 2019, MaxMem= 10737418240 cpu:               8.7 elap:               0.4
 (Enter /apps/cent7/gaussian/g16-A.03/g16-haswell/g16/l303.exe)
 DipDrv:  MaxL=1.
 Leave Link  303 at Mon Oct 14 01:32:43 2019, MaxMem= 10737418240 cpu:               1.2 elap:               0.1
 (Enter /apps/cent7/gaussian/g16-A.03/g16-haswell/g16/l401.exe)
 ExpMin= 1.17D-01 ExpMax= 2.19D+04 ExpMxC= 3.30D+03 IAcc=3 IRadAn=         5 AccDes= 0.00D+00
 Harris functional with IExCor=  402 and IRadAn=       5 diagonalized for initial guess.
 HarFok:  IExCor=  402 AccDes= 0.00D+00 IRadAn=         5 IDoV= 1 UseB2=F ITyADJ=14
 ICtDFT=  3500011 ScaDFX=  1.000000  1.000000  1.000000  1.000000
 FoFCou: FMM=F IPFlag=           0 FMFlag=      100000 FMFlg1=           0
         NFxFlg=           0 DoJE=T BraDBF=F KetDBF=T FulRan=T
         wScrn=  0.000000 ICntrl=       500 IOpCl=  0 I1Cent=   200000004 NGrid=           0
         NMat0=    1 NMatS0=      1 NMatT0=    0 NMatD0=    1 NMtDS0=    0 NMtDT0=    0
 Petite list used in FoFCou.
 Harris En= -1571.61432673171    
 JPrj=0 DoOrth=F DoCkMO=F.
 Leave Link  401 at Mon Oct 14 01:32:44 2019, MaxMem= 10737418240 cpu:              23.0 elap:               1.0
 (Enter /apps/cent7/gaussian/g16-A.03/g16-haswell/g16/l502.exe)
 Integral symmetry usage will be decided dynamically.
 Closed shell SCF:
 Using DIIS extrapolation, IDIIS=  1040.
 NGot= 10737418240 LenX= 10737033433 LenY= 10736848092
 Requested convergence on RMS density matrix=1.00D-08 within 128 cycles.
 Requested convergence on MAX density matrix=1.00D-06.
 Requested convergence on             energy=1.00D-06.
 No special actions if energy rises.
 Fock matrices will be formed incrementally for  20 cycles.
 Integral accuracy reduced to 1.0D-05 until final iterations.

 Cycle   1  Pass 0  IDiag  1:
 FoFJK:  IHMeth= 1 ICntrl=       0 DoSepK=F KAlg= 0 I1Cent=           0 FoldK=F
 IRaf= 680000000 NMat=       1 IRICut=       1 DoRegI=T DoRafI=F ISym2E= 0 IDoP0=0 IntGTp=1.
 FoFCou: FMM=F IPFlag=           0 FMFlag=      100000 FMFlg1=           0
         NFxFlg=           0 DoJE=F BraDBF=F KetDBF=F FulRan=T
         wScrn=  0.000000 ICntrl=         0 IOpCl=  0 I1Cent=           0 NGrid=           0
         NMat0=    1 NMatS0=      1 NMatT0=    0 NMatD0=    1 NMtDS0=    0 NMtDT0=    0
 Symmetry not used in FoFCou.
 E= -1570.59779464099    
 DIIS: error= 3.14D-02 at cycle   1 NSaved=   1.
 NSaved= 1 IEnMin= 1 EnMin= -1570.59779464099     IErMin= 1 ErrMin= 3.14D-02
 ErrMax= 3.14D-02  0.00D+00 EMaxC= 1.00D-01 BMatC= 9.03D-01 BMatP= 9.03D-01
 IDIUse=3 WtCom= 6.86D-01 WtEn= 3.14D-01
 Coeff-Com:  0.100D+01
 Coeff-En:   0.100D+01
 Coeff:      0.100D+01
 Gap=     0.093 Goal=   None    Shift=    0.000
 GapD=    0.093 DampG=0.500 DampE=0.500 DampFc=0.2500 IDamp=-1.
 Damping current iteration by 2.50D-01
 RMSDP=1.24D-02 MaxDP=9.85D-01              OVMax= 8.16D-01

 Cycle   2  Pass 0  IDiag  1:
 RMSU=  3.08D-03    CP:  9.86D-01
 E= -1570.53889956600     Delta-E=        0.058895074988 Rises=F Damp=T
 DIIS: error= 1.49D-02 at cycle   2 NSaved=   2.
 NSaved= 2 IEnMin= 1 EnMin= -1570.59779464099     IErMin= 2 ErrMin= 1.49D-02
 ErrMax= 1.49D-02  0.00D+00 EMaxC= 1.00D-01 BMatC= 1.99D-01 BMatP= 9.03D-01
 IDIUse=3 WtCom= 8.51D-01 WtEn= 1.49D-01
 Coeff-Com: -0.564D-01 0.106D+01
 Coeff-En:   0.539D+00 0.461D+00
 Coeff:      0.325D-01 0.967D+00
 Gap=     0.106 Goal=   None    Shift=    0.000
 RMSDP=5.78D-03 MaxDP=3.39D-01 DE= 5.89D-02 OVMax= 9.25D-01

 Cycle   3  Pass 0  IDiag  1:
 RMSU=  5.26D-03    CP:  9.29D-01  3.01D-01
 E= -1566.79311473112     Delta-E=        3.745784834884 Rises=F Damp=F
 DIIS: error= 1.07D-01 at cycle   3 NSaved=   3.
 NSaved= 3 IEnMin= 1 EnMin= -1570.59779464099     IErMin= 2 ErrMin= 1.49D-02
 ErrMax= 1.07D-01  0.00D+00 EMaxC= 1.00D-01 BMatC= 2.37D+00 BMatP= 1.99D-01
 IDIUse=2 WtCom= 0.00D+00 WtEn= 1.00D+00
 EnCoef did     6 forward-backward iterations
 Coeff-En:   0.470D+00 0.485D+00 0.456D-01
 Coeff:      0.470D+00 0.485D+00 0.456D-01
 Gap=    -0.054 Goal=   None    Shift=    0.000
 RMSDP=5.05D-03 MaxDP=3.07D-01 DE= 3.75D+00 OVMax= 9.37D-01

 Cycle   4  Pass 0  IDiag  1:
 RMSU=  3.31D-03    CP:  9.50D-01  7.14D-01  3.21D-01
 E= -1571.02151675763     Delta-E=       -4.228402026513 Rises=F Damp=F
 DIIS: error= 2.94D-02 at cycle   4 NSaved=   4.
 NSaved= 4 IEnMin= 4 EnMin= -1571.02151675763     IErMin= 2 ErrMin= 1.49D-02
 ErrMax= 2.94D-02  0.00D+00 EMaxC= 1.00D-01 BMatC= 5.05D-01 BMatP= 1.99D-01
 IDIUse=2 WtCom= 0.00D+00 WtEn= 1.00D+00
 EnCoef did   100 forward-backward iterations
 Coeff-En:   0.345D+00 0.436D-02 0.000D+00 0.650D+00
 Coeff:      0.345D+00 0.436D-02 0.000D+00 0.650D+00
 Gap=     0.028 Goal=   None    Shift=    0.000
 RMSDP=2.44D-03 MaxDP=2.15D-01 DE=-4.23D+00 OVMax= 1.71D-01

 Cycle   5  Pass 0  IDiag  1:
 RMSU=  1.62D-03    CP:  9.52D-01  3.52D-01  2.13D-01  6.00D-01
 E= -1571.35655004174     Delta-E=       -0.335033284110 Rises=F Damp=F
 DIIS: error= 1.59D-02 at cycle   5 NSaved=   5.
 NSaved= 5 IEnMin= 5 EnMin= -1571.35655004174     IErMin= 2 ErrMin= 1.49D-02
 ErrMax= 1.59D-02  0.00D+00 EMaxC= 1.00D-01 BMatC= 1.16D-01 BMatP= 1.99D-01
 IDIUse=3 WtCom= 8.41D-01 WtEn= 1.59D-01
 Coeff-Com:  0.145D+00 0.436D-01 0.126D-01 0.363D+00 0.436D+00
 Coeff-En:   0.000D+00 0.000D+00 0.000D+00 0.193D+00 0.807D+00
 Coeff:      0.122D+00 0.367D-01 0.106D-01 0.336D+00 0.495D+00
 Gap=     0.082 Goal=   None    Shift=    0.000
 RMSDP=1.12D-03 MaxDP=6.86D-02 DE=-3.35D-01 OVMax= 1.55D-01

 Cycle   6  Pass 0  IDiag  1:
 RMSU=  6.04D-04    CP:  9.54D-01  4.40D-01  2.36D-01  7.05D-01  4.94D-01
 E= -1571.44211474005     Delta-E=       -0.085564698311 Rises=F Damp=F
 DIIS: error= 4.94D-03 at cycle   6 NSaved=   6.
 NSaved= 6 IEnMin= 6 EnMin= -1571.44211474005     IErMin= 6 ErrMin= 4.94D-03
 ErrMax= 4.94D-03  0.00D+00 EMaxC= 1.00D-01 BMatC= 1.52D-02 BMatP= 1.16D-01
 IDIUse=3 WtCom= 9.51D-01 WtEn= 4.94D-02
 Coeff-Com:  0.401D-01-0.530D-02 0.534D-02 0.150D+00 0.332D+00 0.478D+00
 Coeff-En:   0.000D+00 0.000D+00 0.000D+00 0.000D+00 0.128D+00 0.872D+00
 Coeff:      0.381D-01-0.504D-02 0.507D-02 0.143D+00 0.322D+00 0.497D+00
 Gap=     0.069 Goal=   None    Shift=    0.000
 RMSDP=4.68D-04 MaxDP=2.58D-02 DE=-8.56D-02 OVMax= 6.20D-02

 Cycle   7  Pass 0  IDiag  1:
 RMSU=  2.20D-04    CP:  9.54D-01  4.20D-01  2.35D-01  6.89D-01  6.20D-01
                    CP:  4.21D-01
 E= -1571.45390372580     Delta-E=       -0.011788985746 Rises=F Damp=F
 DIIS: error= 1.96D-03 at cycle   7 NSaved=   7.
 NSaved= 7 IEnMin= 7 EnMin= -1571.45390372580     IErMin= 7 ErrMin= 1.96D-03
 ErrMax= 1.96D-03  0.00D+00 EMaxC= 1.00D-01 BMatC= 3.12D-03 BMatP= 1.52D-02
 IDIUse=3 WtCom= 9.80D-01 WtEn= 1.96D-02
 Coeff-Com:  0.530D-02-0.107D-01 0.169D-02 0.384D-01 0.139D+00 0.367D+00
 Coeff-Com:  0.459D+00
 Coeff-En:   0.000D+00 0.000D+00 0.000D+00 0.000D+00 0.000D+00 0.217D+00
 Coeff-En:   0.783D+00
 Coeff:      0.519D-02-0.105D-01 0.166D-02 0.376D-01 0.136D+00 0.365D+00
 Coeff:      0.465D+00
 Gap=     0.072 Goal=   None    Shift=    0.000
 RMSDP=1.71D-04 MaxDP=1.14D-02 DE=-1.18D-02 OVMax= 2.37D-02

 Cycle   8  Pass 0  IDiag  1:
 RMSU=  7.82D-05    CP:  9.54D-01  4.27D-01  2.36D-01  6.94D-01  6.02D-01
                    CP:  5.66D-01  4.67D-01
 E= -1571.45693056226     Delta-E=       -0.003026836459 Rises=F Damp=F
 DIIS: error= 4.03D-04 at cycle   8 NSaved=   8.
 NSaved= 8 IEnMin= 8 EnMin= -1571.45693056226     IErMin= 8 ErrMin= 4.03D-04
 ErrMax= 4.03D-04  0.00D+00 EMaxC= 1.00D-01 BMatC= 1.67D-04 BMatP= 3.12D-03
 IDIUse=3 WtCom= 9.96D-01 WtEn= 4.03D-03
 Coeff-Com:  0.135D-02-0.659D-02 0.891D-03 0.623D-02 0.380D-01 0.156D+00
 Coeff-Com:  0.265D+00 0.539D+00
 Coeff-En:   0.000D+00 0.000D+00 0.000D+00 0.000D+00 0.000D+00 0.000D+00
 Coeff-En:   0.000D+00 0.100D+01
 Coeff:      0.134D-02-0.656D-02 0.887D-03 0.620D-02 0.378D-01 0.155D+00
 Coeff:      0.264D+00 0.541D+00
 Gap=     0.074 Goal=   None    Shift=    0.000
 RMSDP=4.83D-05 MaxDP=2.07D-03 DE=-3.03D-03 OVMax= 4.85D-03

 Cycle   9  Pass 0  IDiag  1:
 RMSU=  3.20D-05    CP:  9.54D-01  4.25D-01  2.36D-01  6.93D-01  5.98D-01
                    CP:  5.74D-01  5.66D-01  6.51D-01
 E= -1571.45708939541     Delta-E=       -0.000158833158 Rises=F Damp=F
 DIIS: error= 2.33D-04 at cycle   9 NSaved=   9.
 NSaved= 9 IEnMin= 9 EnMin= -1571.45708939541     IErMin= 9 ErrMin= 2.33D-04
 ErrMax= 2.33D-04  0.00D+00 EMaxC= 1.00D-01 BMatC= 3.27D-05 BMatP= 1.67D-04
 IDIUse=3 WtCom= 9.98D-01 WtEn= 2.33D-03
 Coeff-Com:  0.208D-02-0.463D-02 0.152D-03 0.345D-03 0.613D-02 0.548D-01
 Coeff-Com:  0.110D+00 0.351D+00 0.481D+00
 Coeff-En:   0.000D+00 0.000D+00 0.000D+00 0.000D+00 0.000D+00 0.000D+00
 Coeff-En:   0.000D+00 0.119D+00 0.881D+00
 Coeff:      0.207D-02-0.462D-02 0.151D-03 0.345D-03 0.612D-02 0.547D-01
 Coeff:      0.109D+00 0.350D+00 0.482D+00
 Gap=     0.075 Goal=   None    Shift=    0.000
 RMSDP=2.12D-05 MaxDP=9.15D-04 DE=-1.59D-04 OVMax= 2.50D-03

 Cycle  10  Pass 0  IDiag  1:
 RMSU=  1.51D-05    CP:  9.54D-01  4.25D-01  2.37D-01  6.93D-01  5.97D-01
                    CP:  5.86D-01  5.58D-01  7.19D-01  6.62D-01
 E= -1571.45712227670     Delta-E=       -0.000032881282 Rises=F Damp=F
 DIIS: error= 1.37D-04 at cycle  10 NSaved=  10.
 NSaved=10 IEnMin=10 EnMin= -1571.45712227670     IErMin=10 ErrMin= 1.37D-04
 ErrMax= 1.37D-04  0.00D+00 EMaxC= 1.00D-01 BMatC= 6.19D-06 BMatP= 3.27D-05
 IDIUse=3 WtCom= 9.99D-01 WtEn= 1.37D-03
 Coeff-Com:  0.202D-02-0.314D-02 0.649D-04-0.491D-03-0.191D-02 0.115D-01
 Coeff-Com:  0.306D-01 0.147D+00 0.312D+00 0.503D+00
 Coeff-En:   0.000D+00 0.000D+00 0.000D+00 0.000D+00 0.000D+00 0.000D+00
 Coeff-En:   0.000D+00 0.000D+00 0.400D-01 0.960D+00
 Coeff:      0.202D-02-0.313D-02 0.649D-04-0.490D-03-0.191D-02 0.115D-01
 Coeff:      0.306D-01 0.147D+00 0.311D+00 0.503D+00
 Gap=     0.074 Goal=   None    Shift=    0.000
 RMSDP=7.18D-06 MaxDP=4.26D-04 DE=-3.29D-05 OVMax= 6.73D-04

 Initial convergence to 1.0D-05 achieved.  Increase integral accuracy.
 Cycle  11  Pass 1  IDiag  1:
 E= -1571.45712916916     Delta-E=       -0.000006892463 Rises=F Damp=F
 DIIS: error= 5.52D-05 at cycle   1 NSaved=   1.
 NSaved= 1 IEnMin= 1 EnMin= -1571.45712916916     IErMin= 1 ErrMin= 5.52D-05
 ErrMax= 5.52D-05  0.00D+00 EMaxC= 1.00D-01 BMatC= 2.64D-06 BMatP= 2.64D-06
 IDIUse=1 WtCom= 1.00D+00 WtEn= 0.00D+00
 Coeff-Com:  0.100D+01
 Coeff:      0.100D+01
 Gap=     0.075 Goal=   None    Shift=    0.000
 RMSDP=7.18D-06 MaxDP=4.26D-04 DE=-6.89D-06 OVMax= 1.90D-03

 Cycle  12  Pass 1  IDiag  1:
 RMSU=  5.13D-05    CP:  1.00D+00
 E= -1571.45712431886     Delta-E=        0.000004850296 Rises=F Damp=F
 DIIS: error= 1.06D-04 at cycle   2 NSaved=   2.
 NSaved= 2 IEnMin= 1 EnMin= -1571.45712916916     IErMin= 1 ErrMin= 5.52D-05
 ErrMax= 1.06D-04  0.00D+00 EMaxC= 1.00D-01 BMatC= 7.66D-06 BMatP= 2.64D-06
 IDIUse=3 WtCom= 4.92D-01 WtEn= 5.08D-01
 Coeff-Com:  0.650D+00 0.350D+00
 Coeff-En:   0.703D+00 0.297D+00
 Coeff:      0.677D+00 0.323D+00
 Gap=     0.075 Goal=   None    Shift=    0.000
 RMSDP=8.53D-06 MaxDP=5.13D-04 DE= 4.85D-06 OVMax= 8.54D-04

 Cycle  13  Pass 1  IDiag  1:
 RMSU=  8.31D-06    CP:  1.00D+00  9.66D-01
 E= -1571.45713224941     Delta-E=       -0.000007930547 Rises=F Damp=F
 DIIS: error= 2.88D-05 at cycle   3 NSaved=   3.
 NSaved= 3 IEnMin= 3 EnMin= -1571.45713224941     IErMin= 3 ErrMin= 2.88D-05
 ErrMax= 2.88D-05  0.00D+00 EMaxC= 1.00D-01 BMatC= 2.74D-07 BMatP= 2.64D-06
 IDIUse=1 WtCom= 1.00D+00 WtEn= 0.00D+00
 Coeff-Com:  0.190D+00 0.151D+00 0.659D+00
 Coeff:      0.190D+00 0.151D+00 0.659D+00
 Gap=     0.075 Goal=   None    Shift=    0.000
 RMSDP=2.61D-06 MaxDP=1.76D-04 DE=-7.93D-06 OVMax= 2.09D-04

 Cycle  14  Pass 1  IDiag  1:
 RMSU=  2.55D-06    CP:  1.00D+00  9.71D-01  9.43D-01
 E= -1571.45713232567     Delta-E=       -0.000000076256 Rises=F Damp=F
 DIIS: error= 2.20D-05 at cycle   4 NSaved=   4.
 NSaved= 4 IEnMin= 4 EnMin= -1571.45713232567     IErMin= 4 ErrMin= 2.20D-05
 ErrMax= 2.20D-05  0.00D+00 EMaxC= 1.00D-01 BMatC= 1.86D-07 BMatP= 2.74D-07
 IDIUse=1 WtCom= 1.00D+00 WtEn= 0.00D+00
 Coeff-Com:  0.177D-01 0.414D-01 0.459D+00 0.482D+00
 Coeff:      0.177D-01 0.414D-01 0.459D+00 0.482D+00
 Gap=     0.075 Goal=   None    Shift=    0.000
 RMSDP=1.35D-06 MaxDP=9.09D-05 DE=-7.63D-08 OVMax= 1.07D-04

 Cycle  15  Pass 1  IDiag  1:
 RMSU=  6.60D-07    CP:  1.00D+00  9.74D-01  9.46D-01  5.46D-01
 E= -1571.45713247646     Delta-E=       -0.000000150791 Rises=F Damp=F
 DIIS: error= 5.01D-06 at cycle   5 NSaved=   5.
 NSaved= 5 IEnMin= 5 EnMin= -1571.45713247646     IErMin= 5 ErrMin= 5.01D-06
 ErrMax= 5.01D-06  0.00D+00 EMaxC= 1.00D-01 BMatC= 1.84D-08 BMatP= 1.86D-07
 IDIUse=1 WtCom= 1.00D+00 WtEn= 0.00D+00
 Coeff-Com: -0.569D-03 0.185D-01 0.262D+00 0.321D+00 0.400D+00
 Coeff:     -0.569D-03 0.185D-01 0.262D+00 0.321D+00 0.400D+00
 Gap=     0.075 Goal=   None    Shift=    0.000
 RMSDP=3.79D-07 MaxDP=2.88D-05 DE=-1.51D-07 OVMax= 2.88D-05

 Cycle  16  Pass 1  IDiag  1:
 RMSU=  2.15D-07    CP:  1.00D+00  9.75D-01  9.51D-01  5.67D-01  5.40D-01
 E= -1571.45713249321     Delta-E=       -0.000000016752 Rises=F Damp=F
 DIIS: error= 6.93D-07 at cycle   6 NSaved=   6.
 NSaved= 6 IEnMin= 6 EnMin= -1571.45713249321     IErMin= 6 ErrMin= 6.93D-07
 ErrMax= 6.93D-07  0.00D+00 EMaxC= 1.00D-01 BMatC= 6.04D-10 BMatP= 1.84D-08
 IDIUse=1 WtCom= 1.00D+00 WtEn= 0.00D+00
 Coeff-Com: -0.114D-02 0.839D-02 0.121D+00 0.151D+00 0.226D+00 0.495D+00
 Coeff:     -0.114D-02 0.839D-02 0.121D+00 0.151D+00 0.226D+00 0.495D+00
 Gap=     0.075 Goal=   None    Shift=    0.000
 RMSDP=9.16D-08 MaxDP=3.19D-06 DE=-1.68D-08 OVMax= 1.33D-05

 Cycle  17  Pass 1  IDiag  1:
 RMSU=  7.58D-08    CP:  1.00D+00  9.75D-01  9.48D-01  5.63D-01  5.69D-01
                    CP:  8.28D-01
 E= -1571.45713249377     Delta-E=       -0.000000000564 Rises=F Damp=F
 DIIS: error= 5.01D-07 at cycle   7 NSaved=   7.
 NSaved= 7 IEnMin= 7 EnMin= -1571.45713249377     IErMin= 7 ErrMin= 5.01D-07
 ErrMax= 5.01D-07  0.00D+00 EMaxC= 1.00D-01 BMatC= 1.10D-10 BMatP= 6.04D-10
 IDIUse=1 WtCom= 1.00D+00 WtEn= 0.00D+00
 Coeff-Com: -0.469D-03 0.163D-02 0.255D-01 0.324D-01 0.656D-01 0.317D+00
 Coeff-Com:  0.558D+00
 Coeff:     -0.469D-03 0.163D-02 0.255D-01 0.324D-01 0.656D-01 0.317D+00
 Coeff:      0.558D+00
 Gap=     0.075 Goal=   None    Shift=    0.000
 RMSDP=4.04D-08 MaxDP=2.02D-06 DE=-5.64D-10 OVMax= 4.97D-06

 Cycle  18  Pass 1  IDiag  1:
 RMSU=  3.35D-08    CP:  1.00D+00  9.75D-01  9.48D-01  5.62D-01  5.70D-01
                    CP:  9.20D-01  8.59D-01
 E= -1571.45713249387     Delta-E=       -0.000000000099 Rises=F Damp=F
 DIIS: error= 2.58D-07 at cycle   8 NSaved=   8.
 NSaved= 8 IEnMin= 8 EnMin= -1571.45713249387     IErMin= 8 ErrMin= 2.58D-07
 ErrMax= 2.58D-07  0.00D+00 EMaxC= 1.00D-01 BMatC= 2.71D-11 BMatP= 1.10D-10
 IDIUse=1 WtCom= 1.00D+00 WtEn= 0.00D+00
 Coeff-Com: -0.158D-03-0.459D-03-0.223D-02-0.237D-02 0.801D-02 0.141D+00
 Coeff-Com:  0.385D+00 0.471D+00
 Coeff:     -0.158D-03-0.459D-03-0.223D-02-0.237D-02 0.801D-02 0.141D+00
 Coeff:      0.385D+00 0.471D+00
 Gap=     0.075 Goal=   None    Shift=    0.000
 RMSDP=1.70D-08 MaxDP=9.35D-07 DE=-9.91D-11 OVMax= 2.10D-06

 Cycle  19  Pass 1  IDiag  1:
 RMSU=  1.15D-08    CP:  1.00D+00  9.75D-01  9.48D-01  5.62D-01  5.77D-01
                    CP:  9.46D-01  9.35D-01  7.54D-01
 E= -1571.45713249387     Delta-E=        0.000000000001 Rises=F Damp=F
 DIIS: error= 6.10D-08 at cycle   9 NSaved=   9.
 NSaved= 9 IEnMin= 8 EnMin= -1571.45713249387     IErMin= 9 ErrMin= 6.10D-08
 ErrMax= 6.10D-08  0.00D+00 EMaxC= 1.00D-01 BMatC= 2.33D-12 BMatP= 2.71D-11
 IDIUse=1 WtCom= 1.00D+00 WtEn= 0.00D+00
 Coeff-Com:  0.166D-04-0.750D-03-0.661D-02-0.768D-02-0.843D-02 0.204D-01
 Coeff-Com:  0.106D+00 0.241D+00 0.656D+00
 Coeff:      0.166D-04-0.750D-03-0.661D-02-0.768D-02-0.843D-02 0.204D-01
 Coeff:      0.106D+00 0.241D+00 0.656D+00
 Gap=     0.075 Goal=   None    Shift=    0.000
 RMSDP=7.82D-09 MaxDP=3.83D-07 DE= 1.36D-12 OVMax= 1.23D-06

 SCF Done:  E(RB3LYP) =  -1571.45713249     A.U. after   19 cycles
            NFock= 19  Conv=0.78D-08     -V/T= 2.0074
 KE= 1.559973457394D+03 PE=-8.394319519260D+03 EE= 2.893721463022D+03
 Leave Link  502 at Mon Oct 14 01:33:07 2019, MaxMem= 10737418240 cpu:             548.5 elap:              23.0
 (Enter /apps/cent7/gaussian/g16-A.03/g16-haswell/g16/l601.exe)
 Copying SCF densities to generalized density rwf, IOpCl= 0 IROHF=0.

 **********************************************************************

            Population analysis using the SCF density.

 **********************************************************************

 Orbital symmetries:
       Occupied  (A) (A) (A) (A) (A) (A) (A) (A) (A) (A) (A) (A)
                 (A) (A) (A) (A) (A) (A) (A) (A) (A) (A) (A) (A)
                 (A) (A) (A) (A) (A) (A) (A) (A) (A) (A) (A) (A)
                 (A) (A) (A) (A) (A) (A) (A) (A) (A) (A) (A) (A)
                 (A) (A) (A) (A) (A) (A) (A) (A) (A) (A) (A) (A)
                 (A) (A) (A) (A) (A) (A) (A) (A) (A) (A) (A) (A)
                 (A) (A) (A) (A) (A) (A) (A) (A) (A) (A) (A) (A)
                 (A) (A) (A) (A) (A) (A) (A) (A) (A) (A) (A) (A)
                 (A)
       Virtual   (A) (A) (A) (A) (A) (A) (A) (A) (A) (A) (A) (A)
                 (A) (A) (A) (A) (A) (A) (A) (A) (A) (A) (A) (A)
                 (A) (A) (A) (A) (A) (A) (A) (A) (A) (A) (A) (A)
                 (A) (A) (A) (A) (A) (A) (A) (A) (A) (A) (A) (A)
                 (A) (A) (A) (A) (A) (A) (A) (A) (A) (A) (A) (A)
                 (A) (A) (A) (A) (A) (A) (A) (A) (A) (A) (A) (A)
                 (A) (A) (A) (A) (A) (A) (A) (A) (A) (A) (A) (A)
                 (A) (A) (A) (A) (A) (A) (A) (A) (A) (A) (A) (A)
                 (A) (A) (A) (A) (A) (A) (A) (A) (A) (A) (A) (A)
                 (A) (A) (A) (A) (A) (A) (A) (A) (A) (A) (A) (A)
                 (A) (A) (A) (A) (A) (A) (A) (A) (A) (A) (A) (A)
                 (A) (A) (A) (A) (A) (A) (A) (A) (A) (A) (A) (A)
                 (A) (A) (A) (A) (A) (A) (A) (A) (A) (A) (A) (A)
                 (A) (A) (A) (A) (A) (A) (A) (A) (A) (A) (A) (A)
                 (A) (A) (A) (A) (A) (A) (A) (A) (A) (A) (A) (A)
                 (A) (A) (A) (A) (A) (A) (A) (A) (A) (A) (A) (A)
                 (A) (A) (A) (A) (A) (A) (A) (A) (A) (A) (A) (A)
                 (A) (A) (A) (A) (A) (A) (A) (A) (A) (A) (A) (A)
                 (A) (A) (A) (A) (A) (A) (A) (A) (A) (A) (A) (A)
                 (A) (A) (A) (A) (A) (A) (A) (A) (A) (A) (A) (A)
                 (A) (A) (A) (A) (A) (A) (A) (A) (A) (A) (A) (A)
                 (A) (A) (A) (A) (A) (A) (A) (A) (A) (A) (A) (A)
                 (A) (A) (A) (A) (A) (A) (A) (A) (A) (A) (A) (A)
                 (A) (A) (A) (A) (A) (A) (A) (A) (A) (A) (A) (A)
                 (A) (A) (A) (A) (A) (A) (A) (A) (A) (A) (A) (A)
                 (A) (A) (A) (A) (A) (A) (A) (A) (A) (A) (A) (A)
                 (A) (A) (A) (A) (A) (A) (A) (A) (A) (A) (A) (A)
                 (A) (A) (A) (A) (A) (A) (A) (A) (A)
 The electronic state is 1-A.
 Alpha  occ. eigenvalues --  -89.30380 -24.80432 -19.40332 -19.32186 -19.26857
 Alpha  occ. eigenvalues --  -19.19706 -10.42618 -10.41060 -10.39367 -10.38087
 Alpha  occ. eigenvalues --  -10.37834 -10.37303 -10.36348 -10.35751 -10.35660
 Alpha  occ. eigenvalues --  -10.31759 -10.30721 -10.30460 -10.29251 -10.29178
 Alpha  occ. eigenvalues --  -10.29104 -10.28952 -10.28773 -10.28413 -10.28265
 Alpha  occ. eigenvalues --  -10.28235  -8.33522  -6.30111  -6.29751  -6.29685
 Alpha  occ. eigenvalues --   -1.33013  -1.29734  -1.16865  -1.15936  -1.06507
 Alpha  occ. eigenvalues --   -1.03844  -1.02569  -0.99684  -0.95425  -0.93312
 Alpha  occ. eigenvalues --   -0.91417  -0.90810  -0.88190  -0.86361  -0.84637
 Alpha  occ. eigenvalues --   -0.84232  -0.79724  -0.78514  -0.78111  -0.75155
 Alpha  occ. eigenvalues --   -0.72968  -0.70588  -0.69909  -0.69271  -0.68326
 Alpha  occ. eigenvalues --   -0.66576  -0.65895  -0.63999  -0.63256  -0.63061
 Alpha  occ. eigenvalues --   -0.62356  -0.61960  -0.60523  -0.59842  -0.59586
 Alpha  occ. eigenvalues --   -0.58811  -0.58616  -0.58042  -0.56805  -0.56183
 Alpha  occ. eigenvalues --   -0.55369  -0.55226  -0.53853  -0.53318  -0.53060
 Alpha  occ. eigenvalues --   -0.52429  -0.51654  -0.51461  -0.50735  -0.49568
 Alpha  occ. eigenvalues --   -0.48855  -0.48392  -0.47583  -0.46738  -0.46511
 Alpha  occ. eigenvalues --   -0.45882  -0.45503  -0.43941  -0.43544  -0.42433
 Alpha  occ. eigenvalues --   -0.41770  -0.40646  -0.38519  -0.37476  -0.33389
 Alpha  occ. eigenvalues --   -0.32582  -0.30628
 Alpha virt. eigenvalues --   -0.23150  -0.19137  -0.17431  -0.17358  -0.16558
 Alpha virt. eigenvalues --   -0.12956  -0.11713  -0.11135  -0.08250  -0.07718
 Alpha virt. eigenvalues --   -0.07063  -0.05266  -0.03621  -0.02974  -0.02145
 Alpha virt. eigenvalues --   -0.00571  -0.00317   0.00121   0.00549   0.01341
 Alpha virt. eigenvalues --    0.01715   0.02752   0.03845   0.04213   0.05978
 Alpha virt. eigenvalues --    0.07160   0.07451   0.08699   0.08987   0.09793
 Alpha virt. eigenvalues --    0.10499   0.12146   0.12437   0.12769   0.13981
 Alpha virt. eigenvalues --    0.14715   0.15416   0.16007   0.17060   0.18179
 Alpha virt. eigenvalues --    0.18657   0.18925   0.19836   0.21024   0.21991
 Alpha virt. eigenvalues --    0.23212   0.24067   0.24684   0.26129   0.27201
 Alpha virt. eigenvalues --    0.29722   0.29945   0.31107   0.32032   0.33440
 Alpha virt. eigenvalues --    0.34678   0.36042   0.36548   0.37261   0.38254
 Alpha virt. eigenvalues --    0.39499   0.39733   0.40401   0.41245   0.41824
 Alpha virt. eigenvalues --    0.42455   0.42762   0.43295   0.43853   0.44130
 Alpha virt. eigenvalues --    0.44804   0.45131   0.45805   0.45919   0.46587
 Alpha virt. eigenvalues --    0.47996   0.48576   0.49374   0.49771   0.50597
 Alpha virt. eigenvalues --    0.51554   0.51820   0.52074   0.52705   0.52947
 Alpha virt. eigenvalues --    0.53398   0.54383   0.55343   0.56000   0.56674
 Alpha virt. eigenvalues --    0.58002   0.58336   0.60546   0.60880   0.62230
 Alpha virt. eigenvalues --    0.62649   0.64086   0.64845   0.65574   0.65864
 Alpha virt. eigenvalues --    0.66334   0.66573   0.67530   0.67595   0.68378
 Alpha virt. eigenvalues --    0.69483   0.70036   0.70587   0.70797   0.71035
 Alpha virt. eigenvalues --    0.71390   0.72284   0.72774   0.73119   0.73641
 Alpha virt. eigenvalues --    0.74644   0.74967   0.76196   0.76979   0.77160
 Alpha virt. eigenvalues --    0.77505   0.78524   0.79006   0.79455   0.80459
 Alpha virt. eigenvalues --    0.81313   0.82133   0.82825   0.83391   0.83748
 Alpha virt. eigenvalues --    0.84476   0.86172   0.87045   0.87200   0.87354
 Alpha virt. eigenvalues --    0.88521   0.90550   0.91447   0.92481   0.93103
 Alpha virt. eigenvalues --    0.94229   0.94815   0.96427   0.96787   0.97361
 Alpha virt. eigenvalues --    0.98708   1.00466   1.01597   1.01820   1.02796
 Alpha virt. eigenvalues --    1.03515   1.04270   1.05328   1.05958   1.07233
 Alpha virt. eigenvalues --    1.09010   1.10387   1.10757   1.12031   1.13289
 Alpha virt. eigenvalues --    1.13961   1.14606   1.14843   1.16581   1.18196
 Alpha virt. eigenvalues --    1.21798   1.22462   1.23661   1.23980   1.25357
 Alpha virt. eigenvalues --    1.26273   1.26789   1.28685   1.30110   1.30594
 Alpha virt. eigenvalues --    1.31345   1.32120   1.33336   1.34255   1.34543
 Alpha virt. eigenvalues --    1.36368   1.36623   1.37181   1.38172   1.39869
 Alpha virt. eigenvalues --    1.42475   1.44109   1.46626   1.47427   1.49249
 Alpha virt. eigenvalues --    1.50475   1.52307   1.53611   1.55635   1.56664
 Alpha virt. eigenvalues --    1.57646   1.59778   1.61786   1.64280   1.64377
 Alpha virt. eigenvalues --    1.65036   1.65404   1.66448   1.66974   1.68727
 Alpha virt. eigenvalues --    1.69335   1.69910   1.70361   1.71070   1.71653
 Alpha virt. eigenvalues --    1.72548   1.72846   1.73085   1.73733   1.74631
 Alpha virt. eigenvalues --    1.75669   1.77344   1.77444   1.78341   1.80477
 Alpha virt. eigenvalues --    1.80910   1.83128   1.83230   1.85198   1.85707
 Alpha virt. eigenvalues --    1.86289   1.87607   1.87886   1.88152   1.88761
 Alpha virt. eigenvalues --    1.90747   1.91583   1.91817   1.92569   1.93887
 Alpha virt. eigenvalues --    1.94296   1.94797   1.95413   1.96708   1.97209
[...]
 6,-0.00002374,0.00001922,0.00001275,0.00000705,0.00000096,-0.00000244,
 0.00000175,0.00000639,-0.00000053,-0.00000944,-0.00000368,0.00000032,-
 0.00000794,0.00000321,0.00000044,0.00000275,-0.00000084,0.00000287,0.0
 0001485,-0.00003927,-0.00001596,-0.00001019,0.00004354,0.00000233,-0.0
 0003689,-0.00006564,0.00008554,-0.00003372,-0.00002477,0.00004489,0.00
 015370,-0.00009456,0.00000214,-0.00052272,0.00023626,0.00063431,-0.001
 68438,-0.00840280,-0.00875250,0.00029571,0.00122194,-0.00332072,-0.046
 78229,0.00166382,0.00359998,-0.00086689,0.00085389,0.00074376,0.000110
 30,0.00011765,-0.00026733,-0.00008863,0.00004264,0.00005670,-0.0000014
 0,-0.00000586,0.00000375,0.00000082,0.00000189,-0.00000015,0.00000029,
 -0.00000111,0.00000038,0.00000066,-0.00000086,0.00000075,-0.00000267,0
 .00000331,-0.00000080,0.00000942,-0.00000250,0.00000087,-0.00000392,0.
 00000096,0.00000008,-0.00000138,-0.00000079,0.00000027,0.00000016,0.00
 000175,0.00000011,0.00000343,-0.00000440,0.00000846,-0.00002114,-0.000
 00476,-0.00001320,-0.00005506,-0.00000292,0.00000804,0.00084929,-0.009
 77584,-0.01528075,0.00356215,0.01716750,0.02377496,0.04468669,-0.00000
 079,0.00000970,0.00000383,0.00000354,-0.00001282,-0.00000487,0.0000017
 0,0.00000750,-0.00000232,-0.00000094,0.00000187,0.00000213,-0.00000544
 ,-0.00000028,0.00000245,0.00000540,-0.00000346,-0.00000249,-0.00000628
 ,0.00000278,0.00000104,0.00001424,-0.00001650,-0.00000532,-0.00001247,
 0.00001518,0.00000650,0.00000656,0.00000717,-0.00000532,-0.00000727,-0
 .00000160,-0.00001072,0.00000030,0.00000346,-0.00000386,-0.00000398,-0
 .00000542,0.00000249,0.00000194,0.00000109,0.00000114,-0.00000277,0.00
 001009,0.00000398,-0.00000608,-0.00003832,-0.00002759,0.00001628,0.000
 01523,0.00003971,0.00011423,-0.00009802,-0.00008794,-0.00004161,0.0002
 6572,-0.00016148,0.00031852,-0.00031230,-0.00151076,-0.00123251,0.0120
 0840,0.01318814,0.00232295,-0.00088908,0.00603447,0.00147415,-0.165429
 83,-0.14334219,0.00022475,-0.00073971,-0.00064760,-0.00054956,-0.00060
 049,0.00079624,0.00005284,-0.00017568,-0.00026394,-0.00000484,-0.00000
 384,0.00000136,0.00000018,0.00000107,0.00000077,0.00000139,-0.00000049
 ,0.00000021,0.00000003,-0.00000068,0.00000088,0.00000175,-0.00000224,0
 .00000317,0.00000817,0.00000160,0.00001032,-0.00000185,-0.00000007,-0.
 00000053,-0.00000021,-0.00000132,0.00000030,0.00000103,0.00000211,0.00
 000026,0.00000499,0.00000688,-0.00000033,0.00001257,0.00000104,0.00000
 490,0.00007587,0.00005882,-0.00006053,0.00231024,-0.01169725,-0.019327
 90,-0.00184162,-0.00483413,-0.00564329,-0.00310073,0.17282253,0.000000
 82,-0.00002505,-0.00002957,0.00000657,0.00002174,0.00007125,-0.0000172
 0,0.00000217,-0.00002815,0.00000268,-0.00002100,-0.00002133,0.00002124
 ,0.00002606,-0.00001247,-0.00006312,0.00001907,0.00002753,0.00007935,-
 0.00001104,-0.00002685,-0.00009647,0.00001902,0.00003592,0.00005597,-0
 .00005432,-0.00003303,-0.00001803,-0.00000134,0.00000437,0.00001401,0.
 00000447,0.00000410,0.00000203,-0.00000151,-0.00001005,0.00002133,-0.0
 0002124,-0.00001589,-0.00000156,-0.00000993,-0.00000101,-0.00001776,0.
 00013023,0.00006876,-0.00005403,-0.00015384,0.00001071,0.00002673,0.00
 024333,0.00009726,-0.00018982,-0.00022551,0.00006405,0.00040247,-0.000
 30440,-0.00015237,-0.00056110,0.00051273,0.00173209,0.00067658,-0.0151
 3438,-0.02061273,-0.00174988,0.00202328,-0.00423610,0.00261797,-0.1418
 3658,-0.21570942,0.00061176,0.00050801,0.00224848,0.00025059,0.0001753
 6,-0.00023568,0.00011049,0.00020251,0.00029400,0.00001569,0.00000142,0
 .00001105,-0.00000448,-0.00000543,-0.00000107,-0.00000424,0.00000048,0
 .00000040,0.00000133,0.00000093,0.00000134,0.00000376,0.00000113,0.000
 00159,-0.00001469,0.00000223,-0.00000580,0.00000343,0.00000335,0.00000
 317,0.00000093,0.00000444,-0.00000308,-0.00000350,-0.00000586,0.000000
 16,-0.00001984,-0.00001238,-0.00002421,-0.00004305,-0.00001168,-0.0000
 2311,-0.00008662,-0.00006025,0.00004567,-0.00017271,0.00451616,0.00803
 559,-0.00018938,-0.00196786,-0.00190420,-0.00153292,0.15075801,0.22991
 889,-0.00000153,0.00000358,-0.00001284,0.00001203,-0.00001507,0.000035
 30,-0.00000950,0.00001566,-0.00002297,-0.00000268,-0.00000194,-0.00001
 431,-0.00001667,-0.00003820,-0.00000614,-0.00000397,-0.00007870,-0.000
 01886,-0.00010757,0.00000903,0.00003282,0.00011765,0.00005910,-0.00001
 307,-0.00003022,0.00001185,0.00002055,0.00002883,-0.00004059,-0.000069
 63,-0.00000178,0.00012744,-0.00002438,-0.00017157,0.00010569,0.0000345
 7,0.00004000,0.00001182,0.00002532,-0.00000847,-0.00001538,0.00001099,
 0.00010979,-0.00027454,-0.00011547,-0.00028458,0.00109283,0.00045210,0
 .00423410,-0.00531362,0.00283122,-0.00056936,-0.00011753,-0.00051195,0
 .00355100,-0.00163453,0.00114995,0.00117004,0.00122895,-0.00158879,-0.
 00037374,0.00008955,-0.00070765,-0.00007841,0.00016836,0.00003927,0.00
 021432,0.00007122,0.00031291,-0.00109193,-0.00007520,0.00015218,-0.122
 29179,-0.02033649,0.13624177,-0.00302981,-0.00031655,0.01327876,0.0000
 0177,-0.00000661,0.00001200,-0.00000173,-0.00000186,0.00000045,0.00000
 108,0.00000073,0.00000088,0.00000025,-0.00000497,0.00000511,-0.0000056
 1,0.00001220,-0.00000194,0.00002633,0.00002130,0.00003781,0.00000718,0
 .00000339,0.00000801,-0.00000015,0.00000253,-0.00001555,0.00000010,-0.
 00000625,-0.00000306,-0.00019687,-0.00011446,-0.00008166,-0.00062906,0
 .00032006,-0.00035559,0.00092514,-0.00041736,0.00032851,-0.00007595,-0
 .00004394,-0.00032930,0.00001340,0.00003347,0.00000897,0.00018998,0.00
 030964,-0.00032668,0.12096733,0.00000888,-0.00001306,-0.00002405,-0.00
 000388,0.00001037,0.00005791,-0.00000414,0.00000906,-0.00002619,0.0000
 1748,-0.00002602,-0.00001078,0.00001705,-0.00000312,-0.00001690,-0.000
 06813,0.00004565,0.00005229,0.00016070,-0.00000829,-0.00005960,-0.0001
 5211,-0.00009305,0.00003391,0.00005804,-0.00002491,-0.00003091,0.00000
 007,0.00006911,-0.00000817,-0.00000954,-0.00015467,-0.00004816,0.00008
 092,0.00000684,0.00005012,0.00004719,0.00002678,-0.00007577,-0.0000058
 5,-0.00001982,0.00000390,-0.00024206,0.00019914,0.00003466,-0.00031554
 ,0.00021591,0.00102748,-0.00446912,-0.00312392,-0.00167135,0.00006173,
 -0.00065926,0.00004443,-0.00217631,-0.00354448,-0.00309236,0.01348112,
 0.00485667,-0.01967485,0.00199282,-0.00031229,-0.00197996,-0.00006717,
 0.00025621,0.00042965,-0.00034363,-0.00017092,-0.00020016,-0.00002584,
 -0.00024194,0.00040498,-0.01922063,-0.05791754,0.01489174,-0.01488256,
 0.00198828,0.02454562,0.00000283,-0.00000336,0.00001174,-0.00000670,-0
 .00000955,-0.00000073,0.00000034,0.00000259,-0.00000026,0.00000230,0.0
 0000156,-0.00000429,0.00002995,-0.00003188,0.00001597,-0.00003733,0.00
 000748,0.00008596,0.00000974,0.00000004,0.00000517,0.00000695,0.000004
 80,-0.00001625,-0.00000342,-0.00000670,-0.00000457,-0.00014647,-0.0003
 0577,0.00015556,0.00028372,-0.00002359,0.00022644,0.00038140,0.0005620
 5,-0.00112833,0.00000846,0.00001773,0.00024013,0.00002010,0.00008715,0
 .00000806,0.00017954,-0.00053262,0.00035734,0.02365499,0.05842331,-0.0
 0000129,0.00001133,0.00000503,0.00000407,-0.00001452,-0.00001172,0.000
 00367,0.00000630,0.00000120,-0.00000969,0.00001079,0.00000063,-0.00001
 948,-0.00001660,0.00000807,0.00002522,-0.00005864,-0.00003516,-0.00012
 008,0.00001025,0.00003941,0.00012610,0.00005848,-0.00001709,-0.0000402
 9,0.00001802,0.00001894,0.00000846,-0.00006740,-0.00004423,0.00001843,
 0.00018901,-0.00001704,-0.00011384,0.00003119,-0.00001076,-0.00001183,
 -0.00000997,0.00004171,-0.00000163,0.00000459,0.00000301,0.00015776,-0
 .00019354,-0.00006834,0.00000671,0.00030925,-0.00013981,0.00265876,-0.
 00120585,0.00304431,-0.00055067,0.00035675,0.00044076,0.00047828,-0.00
 441549,0.00043066,0.00835984,0.00283942,-0.01278895,0.00198879,0.00036
 142,-0.00249151,-0.00031965,-0.00016932,0.00035768,-0.00018066,-0.0000
 6118,-0.00008342,-0.00070808,0.00137818,0.00114819,0.13581313,0.015169
 48,-0.25754993,0.00288264,-0.00023715,-0.00057381,-0.00000683,-0.00000
 235,0.00000006,0.00000237,0.00000386,0.00000141,0.00000184,-0.00000086
 ,0.00000036,-0.00000113,-0.00000390,0.00000558,-0.00000755,0.00001561,
 0.00000581,0.00003453,0.00001184,-0.00000206,0.00000055,0.00000096,0.0
 0000067,-0.00000231,-0.00000236,-0.00000033,0.00000272,0.00000101,0.00
 000092,-0.00006075,0.00010027,-0.00012533,-0.00032398,0.00018857,-0.00
 024599,0.00096041,0.00011876,-0.00020562,0.00001786,-0.00006543,0.0000
 3213,0.00002486,0.00003647,0.00001293,-0.00000775,0.00016474,0.0002461
 2,-0.14866601,-0.01542353,0.26898830,-0.00006743,0.00006418,0.00001657
 ,0.00011494,-0.00011995,0.00002120,-0.00003457,0.00007541,-0.00005263,
 -0.00006794,0.00003113,0.00000414,0.00022572,-0.00002015,-0.00002535,-
 0.00001827,0.00004856,-0.00010358,0.00001104,-0.00013833,-0.00003831,-
 0.00014842,-0.00004601,0.00003693,-0.00000335,-0.00004500,-0.00004514,
 -0.00028521,0.00027438,0.00036303,0.00008780,0.00018691,-0.00006069,0.
 00066224,-0.00051608,-0.00038643,-0.00012039,0.00007233,0.00013260,-0.
 00000041,0.00003149,0.00002016,0.00012650,-0.00015313,-0.00012242,-0.0
 0132344,0.00273072,-0.00153964,0.00280013,0.01222650,0.01215274,0.0017
 9979,-0.00241217,0.00505972,-0.00083854,-0.00014740,0.00011888,0.00347
 931,-0.00431432,0.00334237,0.00145102,-0.00079978,-0.00018096,-0.00055
 705,-0.00019981,-0.00027165,-0.00019489,-0.00004259,0.00010355,-0.0001
 0117,0.00010708,-0.00006947,0.00330142,-0.01300512,-0.01103182,-0.0456
 9084,-0.00475008,0.01026582,-0.00001718,-0.00003611,0.00002471,0.00002
 218,0.00003159,-0.00000536,-0.00000810,-0.00000876,0.00000109,0.000006
 54,0.00000940,0.00000904,-0.00002903,0.00004296,-0.00000607,-0.0006610
 4,0.00111558,-0.00107350,-0.00003590,0.00000439,0.00001770,-0.00001227
 ,0.00000339,-0.00000746,0.00000313,-0.00000008,-0.00000422,-0.00000920
 ,-0.00011251,0.00000023,0.00003251,0.00082617,0.00045204,-0.00052926,0
 .00029702,-0.00036893,0.00001846,-0.00000998,0.00006001,-0.00001867,0.
 00002462,-0.00001401,0.00002381,-0.00006052,0.00002692,-0.00257419,0.0
 0182793,-0.00221302,0.03914766,0.00004654,-0.00001411,0.00000272,-0.00
 006753,0.00004368,-0.00000770,0.00003596,-0.00001409,0.00001953,0.0000
 6320,-0.00006209,0.00002221,0.00000602,0.00003229,-0.00002064,-0.00034
 944,-0.00028097,-0.00004495,0.00001018,0.00004623,0.00001024,0.0001929
 4,-0.00010523,-0.00011261,-0.00013260,0.00013507,0.00006629,0.00012625
 ,-0.00035022,-0.00005025,0.00186605,-0.00086868,0.00072606,-0.00054720
 ,-0.00039873,0.00028776,0.00003809,-0.00010195,-0.00021966,0.00000607,
 0.00000930,-0.00001332,-0.00029638,0.00057210,0.00077067,0.00075269,-0
 .00133085,0.00078113,0.00037633,0.00842742,0.00339971,-0.00240685,0.00
 075904,0.00036639,0.00013931,0.00032521,0.00052049,-0.00446152,-0.0012
 7763,0.00098556,-0.00006313,0.00009662,-0.00117799,-0.00003765,-0.0006
 5395,-0.00002937,-0.00004876,0.00001622,-0.00001288,-0.00023399,0.0000
 3424,0.00027501,0.00052163,-0.01644840,-0.01743698,-0.00508225,-0.2132
 2167,-0.14984217,-0.00001996,0.00000315,-0.00001179,-0.00002656,-0.000
 02422,0.00000911,0.00001360,0.00000420,0.00000190,-0.00001742,0.000001
 04,0.00000538,-0.00001797,0.00002944,0.00002375,0.00055890,-0.00146478
 ,0.00067839,0.00002136,-0.00001021,-0.00000627,0.00001837,-0.00000010,
 -0.00000367,0.00001557,0.00000149,-0.00000220,0.00001344,0.00012248,-0
 .00015890,-0.00008091,0.00037869,0.00033137,0.00027954,-0.00013086,0.0
 0011076,0.00002661,-0.00000248,0.00002279,-0.00001152,-0.00001154,0.00
 000294,-0.00000914,-0.00004197,0.00000438,0.00175917,0.00021774,0.0008
 7052,0.00695169,0.22560965,-0.00004046,0.00000092,-0.00004227,0.000074
 90,-0.00004274,0.00011420,-0.00004112,0.00004297,-0.00007311,-0.000052
 94,0.00002641,-0.00001718,-0.00003890,-0.00004317,-0.00000698,0.000245
 86,0.00034579,0.00013771,0.00003008,-0.00016262,-0.00006431,-0.0001529
 5,0.00004490,0.00003939,0.00012900,-0.00020517,-0.00012914,-0.00026248
 ,-0.00011017,0.00013002,0.00033303,0.00029686,0.00043273,-0.00002995,-
 0.00012833,-0.00006667,-0.00005727,0.00013879,0.00020522,-0.00002809,-
 0.00003934,-0.00000742,0.00066163,-0.00002900,-0.00065337,-0.00172630,
 0.00084711,0.00009505,-0.00041402,-0.02079045,-0.01299775,0.00478814,0
 .00110971,-0.00194881,0.00020229,0.00073944,-0.00048359,0.00305250,0.0
 0058459,0.00197596,0.00050870,0.00007929,0.00088010,-0.00003419,0.0006
 0282,0.00003974,-0.00003583,-0.00006320,0.00001318,0.00010400,-0.00001
 862,-0.00020310,0.00047758,0.00740898,0.00822545,0.01026153,-0.1494721
 8,-0.18870467,0.00001741,-0.00000818,0.00003508,0.00001325,0.00001165,
 -0.00001052,-0.00001803,-0.00000707,-0.00000210,0.00001820,-0.00000325
 ,-0.00001277,0.00004402,-0.00001877,0.00003408,-0.00086367,0.00019859,
 -0.00052077,-0.00001153,0.00000681,0.00000749,-0.00001042,0.00000376,0
 .00000904,-0.00002085,-0.00000344,0.00000920,-0.00000677,-0.00012345,0
 .00022507,-0.00009716,-0.00105962,-0.00063750,-0.00035292,0.00008034,-
 0.00014512,-0.00000064,-0.00000738,0.00001328,0.00000295,0.00000612,-0
 .00000853,-0.00000288,0.00001105,-0.00000053,-0.00200033,0.00087106,-0
 .00024698,-0.01462317,0.15886950,0.19434845,-0.00001790,0.00014224,0.0
 0013550,-0.00000199,-0.00013930,-0.00032439,0.00007139,0.00001388,0.00
 010994,-0.00001852,0.00011314,0.00011503,-0.00010175,-0.00017667,0.000
 04764,0.00035186,-0.00012615,-0.00015666,-0.00049965,0.00005067,0.0001
 5596,0.00059151,-0.00004969,-0.00018554,-0.00032183,0.00028604,0.00017
 518,0.00010441,-0.00002399,-0.00006573,-0.00004139,0.00003951,0.000000
 25,-0.00006698,0.00000803,0.00007193,-0.00011440,0.00018016,0.00008712
 ,-0.00000124,0.00005188,0.00000817,0.00015453,-0.00094572,-0.00048067,
 0.00029758,0.00131453,0.00006880,-0.00070538,-0.00127390,0.00014744,0.
 00010339,0.00122531,0.00005881,-0.00068583,-0.00029735,0.00133895,0.00
 364966,0.00041211,0.00027455,-0.03229210,0.01711557,-0.02268668,0.0038
 7389,-0.00162546,0.00093344,-0.00389394,0.00110420,0.00339654,-0.16214
 640,0.10457215,-0.14948177,0.00015699,-0.00134343,-0.00078022,0.000557
 52,0.00049195,-0.00054366,-0.00007859,-0.00001292,-0.00004038,0.000024
 30,0.00002958,0.00000398,0.00002090,-0.00000307,-0.00000203,-0.0000049
 7,-0.00000843,-0.00000078,-0.00001694,0.00000927,0.00001296,0.00008299
 ,-0.00003321,0.00002992,-0.00001529,-0.00001496,-0.00001104,-0.0000050
 9,-0.00002316,0.00000917,0.00001757,0.00002600,0.00000042,0.00012243,0
 .00001201,0.00014775,0.00003748,0.00009092,-0.00003581,0.00002712,-0.0
 0009300,0.00011246,0.00019817,0.00028210,-0.00003580,0.00028195,0.0007
 7667,-0.00132765,0.00021893,-0.00040379,0.00021441,-0.00005318,-0.0001
 5384,-0.00021049,0.00003255,0.00007128,-0.00004221,0.19010623,0.000017
 70,0.00001247,0.00001596,-0.00002722,-0.00000498,-0.00004279,0.0000258
 8,-0.00000217,0.00002117,0.00000795,0.00000079,0.00000339,-0.00001209,
 -0.00000414,0.00000236,-0.00000579,0.00001213,0.00001180,0.00007159,0.
 00001769,-0.00001738,-0.00004195,-0.00011001,-0.00001851,0.00000136,0.
 00004150,0.00001006,0.00000586,0.00006073,0.00002330,-0.00003199,-0.00
 014341,-0.00002466,0.00004809,0.00006304,-0.00000058,0.00002355,0.0000
 0085,0.00000173,-0.00000157,0.00000185,-0.00000081,-0.00008126,0.00011
 521,0.00006359,-0.00004135,-0.00017737,-0.00002143,-0.00001369,0.00007
 545,-0.00007929,0.00004207,-0.00013076,0.00009815,-0.00016631,-0.00027
 090,-0.00036355,-0.00024392,-0.00006810,0.00014225,0.00996728,-0.00228
 010,0.00676973,-0.00296335,-0.00046231,-0.00074769,0.00152352,0.000333
 06,-0.00128482,0.11401749,-0.08905853,0.13075743,-0.00025721,-0.000227
 03,0.00029509,-0.00002329,-0.00043192,0.00003724,-0.00001999,-0.000002
 31,-0.00000841,-0.00000250,-0.00000219,0.00000358,0.00000793,0.0000011
 5,0.00000020,-0.00000013,0.00000002,-0.00000343,0.00001452,-0.00004344
 ,-0.00001374,-0.00005850,0.00002153,0.00000139,0.00000544,-0.00000476,
 -0.00000045,0.00000135,-0.00000270,-0.00000267,0.00000504,0.00000513,0
 .00000025,-0.00000712,0.00000454,-0.00002769,-0.00001379,-0.00004908,0
 .00000643,0.00005995,0.00013459,-0.00011580,-0.00016759,0.00034184,-0.
 00022640,0.00032410,0.00048834,0.00052739,-0.00001470,0.00019588,0.000
 32574,-0.00025876,0.00021832,-0.00031899,-0.00004551,-0.00005057,0.000
 00871,-0.12167115,0.09138066,-0.00000269,0.00001417,0.00000138,0.00000
 904,-0.00001846,-0.00000101,0.00000009,0.00001208,-0.00000743,-0.00000
 227,0.00000475,0.00000490,-0.00001036,-0.00000636,0.00000283,0.0000239
 2,-0.00000699,-0.00000826,-0.00002823,0.00000653,0.00000551,0.00003440
 ,-0.00000934,-0.00000081,-0.00001688,0.00001809,0.00000415,-0.00000596
 ,0.00000006,-0.00002049,-0.00000902,0.00001842,-0.00001689,0.00000589,
 -0.00000173,-0.00000718,-0.00001164,0.00000642,0.00000374,0.00000229,0
 .00000349,0.00000560,0.00001398,-0.00003695,-0.00001519,0.00000187,0.0
 0004742,-0.00001994,-0.00002026,-0.00005386,0.00003665,0.00001729,0.00
 000425,-0.00027398,0.00028119,0.00048693,0.00012840,0.00036149,-0.0008
 6669,-0.00099798,0.01461354,-0.00675628,0.01535993,-0.00148413,-0.0007
 2726,-0.00329187,0.00320299,-0.00044630,-0.00107923,-0.18630051,0.1446
 4567,-0.25320189,-0.00006762,-0.00008733,0.00019950,0.00001377,-0.0000
 0210,-0.00008833,-0.00000630,-0.00000547,0.00000341,0.00000127,0.00000
 321,0.00000185,0.00000260,-0.00000060,0.00000050,0.00000096,-0.0000012
 6,0.00000308,0.00000432,-0.00000888,0.00001769,0.00000996,-0.00000588,
 0.00003572,-0.00000235,-0.00000002,-0.00000211,0.00000139,-0.00000391,
 -0.00000093,0.00000193,0.00000270,0.00000041,0.00001565,0.00000171,0.0
 0000884,0.00004305,0.00005205,0.00000040,0.00009849,-0.00006522,0.0000
 5266,0.00005749,0.00002338,-0.00020441,0.00028651,-0.00043332,0.001295
 52,0.00022650,0.00007089,0.00016418,-0.00013326,-0.00005697,-0.0001757
 4,0.00001440,-0.00001321,0.00001276,0.16875519,-0.13580783,0.24206404\
 \0.00001391,0.00001117,-0.00001689,0.00001310,-0.00002324,0.00001400,0
 .00000529,-0.00000310,0.00001587,0.00001622,0.00002400,0.00001832,-0.0
 0001743,0.00000027,-0.00000713,-0.00000559,-0.00000203,-0.00000527,-0.
 00001956,-0.00000338,-0.00000060,0.00001016,-0.00000655,-0.00000187,-0
 .00000430,0.00000309,0.00000016,-0.00000242,-0.00000562,0.00000003,-0.
 00000459,-0.00000094,-0.00000190,0.00000433,0.00000590,0.00000435,0.00
 000422,-0.00002375,0.00000483,-0.00000480,0.00001121,0.00000468,-0.000
 00925,0.00001429,-0.00000860,0.00001783,0.00000590,0.00000347,-0.00000
 531,-0.00001641,-0.00000443,0.00000311,0.00001173,-0.00000154,-0.00001
 113,-0.00000428,0.00000903,0.00001545,0.00000210,0.00000306,0.00000829
 ,-0.00002175,0.00000683,-0.00000842,0.00000881,-0.00001036,-0.00000739
 ,0.00000505,-0.00000877,-0.00000038,0.00002720,0.00000584,-0.00000388,
 0.00000317,0.00000148,-0.00000013,0.00000124,0.00000121,0.00001023,0.0
 0000080,-0.00000101,-0.00000303,-0.00000136,-0.00001253,-0.00000925,0.
 00000830,-0.00000691,-0.00000725,-0.00000687,-0.00000428,-0.00000062,0
 .00000226,0.00000087,0.00000046,0.00000038,-0.00000006,0.00000064,-0.0
 0000057,-0.00000039,-0.00000395,0.00000223,-0.00000372,0.00000268,-0.0
 0000439,0.00000422,-0.00000259,-0.00000053,0.00000238,0.00000062,-0.00
 000177,0.00000028,0.00000253,0.00000035,-0.00000219,0.00000471,-0.0000
 0052,0.00000316,0.00000350,-0.00000086,0.00000254,0.00000170,0.0000024
 6,-0.00000111,-0.00000070,-0.00000122,-0.00000042,0.00000252,-0.000001
 66,0.00000058,-0.00000956,-0.00002111,-0.00000721\\\@


 IN THE UNIVERSE THE DIFFICULT THINGS ARE DONE AS IF THEY WERE EASY.

                                                          -- LAO-TSU
 Job cpu time:       0 days  1 hours 53 minutes  2.0 seconds.
 Elapsed time:       0 days  0 hours  4 minutes 44.0 seconds.
 File lengths (MBytes):  RWF=    956 Int=      0 D2E=      0 Chk=     17 Scr=      1
 Normal termination of Gaussian 16 at Mon Oct 14 01:49:33 2019.
real 1011.22
user 23735.56
sys 61.36
Machine:
brown-a071
brown-a071
brown-a071
brown-a071
brown-a071
brown-a071
brown-a071
brown-a071
brown-a071
brown-a071
brown-a071
brown-a071
brown-a071
brown-a071
brown-a071
brown-a071
brown-a071
brown-a071
brown-a071
brown-a071
brown-a071
brown-a071
brown-a071
brown-a071
