Title Card Required                                                     
Freq      RB3LYP                                                      6-31G(d)            
Number of atoms                            I               18
Info1-9                                    I   N=           9
          46          46        1002           0           0         100
           6          18        -502
Full Title                                 C   N=           2
Title Card Required     
Route                                      C   N=           6
#P opt freq b3lyp/6-31g(d) geom=connectivity temperature=0.0
01          
Charge                                     I                0
Multiplicity                               I                1
Number of electrons                        I               82
Number of alpha electrons                  I               41
Number of beta electrons                   I               41
Number of basis functions                  I              170
Number of independent functions            I              170
Number of point charges in /Mol/           I                0
Number of translation vectors              I                0
Atomic numbers                             I   N=          18
           8          16           6           6           6           6
           6           6           6           8           1           1
           1           1           1           1           1           1
Nuclear charges                            R   N=          18
  8.00000000E+00  1.60000000E+01  6.00000000E+00  6.00000000E+00  6.00000000E+00
  6.00000000E+00  6.00000000E+00  6.00000000E+00  6.00000000E+00  8.00000000E+00
  1.00000000E+00  1.00000000E+00  1.00000000E+00  1.00000000E+00  1.00000000E+00
  1.00000000E+00  1.00000000E+00  1.00000000E+00
Current cartesian coordinates              R   N=          54
 -3.58377985E+00 -2.42139372E+00 -1.44208963E+00 -2.78709328E+00  4.16013426E-04
 -3.32491020E-01  6.13093688E-01  1.49609192E-04 -1.47180337E-01  1.89902593E+00
  2.30309225E+00 -8.53952695E-02  4.53069107E+00  2.29060775E+00  7.34287849E-02
  5.84026005E+00 -2.04742335E-04  1.59688491E-01  4.53042120E+00 -2.29087771E+00
  7.26561649E-02  1.89879676E+00 -2.30299850E+00 -8.62303809E-02 -3.77701580E+00
 -2.98609372E-03  2.94452920E+00 -3.58362791E+00  2.42442400E+00 -1.43746235E+00
  8.47859343E-01  4.06025836E+00 -2.00638798E-01  5.55797084E+00  4.06738321E+00
  1.13599162E-01  7.89006335E+00 -3.64179837E-04  2.79172016E-01  5.55754328E+00
 -4.06775825E+00  1.12218445E-01  8.47511545E-01 -4.06005277E+00 -2.02287108E-01
 -3.06984648E+00 -1.70669271E+00  3.86826301E+00 -3.06766026E+00  1.69736366E+00
  3.87270680E+00 -5.84232432E+00 -1.73108952E-03  2.92425871E+00
Number of symbols in /Mol/                 I                0
Force Field                                I                0
Atom Types                                 C   N=          18
                                                            
                                                            
                                                            
                                    
Int Atom Types                             I   N=          18
           0           0           0           0           0           0
           0           0           0           0           0           0
           0           0           0           0           0           0
MM charges                                 R   N=          18
  0.00000000E+00  0.00000000E+00  0.00000000E+00  0.00000000E+00  0.00000000E+00
  0.00000000E+00  0.00000000E+00  0.00000000E+00  0.00000000E+00  0.00000000E+00
  0.00000000E+00  0.00000000E+00  0.00000000E+00  0.00000000E+00  0.00000000E+00
  0.00000000E+00  0.00000000E+00  0.00000000E+00
Integer atomic weights                     I   N=          18
          16          32          12          12          12          12
          12          12          12          16           1           1
           1           1           1           1           1           1
Real atomic weights                        R   N=          18
  1.59949146E+01  3.19720718E+01  1.20000000E+01  1.20000000E+01  1.20000000E+01
  1.20000000E+01  1.20000000E+01  1.20000000E+01  1.20000000E+01  1.59949146E+01
  1.00782504E+00  1.00782504E+00  1.00782504E+00  1.00782504E+00  1.00782504E+00
  1.00782504E+00  1.00782504E+00  1.00782504E+00
Atom fragment info                         I   N=          18
           0           0           0           0           0           0
           0           0           0           0           0           0
           0           0           0           0           0           0
Atom residue num                           I   N=          18
           0           0           0           0           0           0
           0           0           0           0           0           0
           0           0           0           0           0           0
Nuclear spins                              I   N=          18
           0           0           0           0           0           0
           0           0           0           0           1           1
           1           1           1           1           1           1
Nuclear ZEff                               R   N=          18
 -5.60000000E+00 -1.36000000E+01 -3.60000000E+00 -3.60000000E+00 -3.60000000E+00
 -3.60000000E+00 -3.60000000E+00 -3.60000000E+00 -3.60000000E+00 -5.60000000E+00
 -1.00000000E+00 -1.00000000E+00 -1.00000000E+00 -1.00000000E+00 -1.00000000E+00
 -1.00000000E+00 -1.00000000E+00 -1.00000000E+00
Nuclear ZNuc                               R   N=          18
  8.00000000E+00  1.60000000E+01  6.00000000E+00  6.00000000E+00  6.00000000E+00
  6.00000000E+00  6.00000000E+00  6.00000000E+00  6.00000000E+00  8.00000000E+00
  1.00000000E+00  1.00000000E+00  1.00000000E+00  1.00000000E+00  1.00000000E+00
  1.00000000E+00  1.00000000E+00  1.00000000E+00
Nuclear QMom                               R   N=          18
  0.00000000E+00  0.00000000E+00  0.00000000E+00  0.00000000E+00  0.00000000E+00
  0.00000000E+00  0.00000000E+00  0.00000000E+00  0.00000000E+00  0.00000000E+00
  0.00000000E+00  0.00000000E+00  0.00000000E+00  0.00000000E+00  0.00000000E+00
  0.00000000E+00  0.00000000E+00  0.00000000E+00
Nuclear GFac                               R   N=          18
  0.00000000E+00  0.00000000E+00  0.00000000E+00  0.00000000E+00  0.00000000E+00
  0.00000000E+00  0.00000000E+00  0.00000000E+00  0.00000000E+00  0.00000000E+00
  2.79284600E+00  2.79284600E+00  2.79284600E+00  2.79284600E+00  2.79284600E+00
  2.79284600E+00  2.79284600E+00  2.79284600E+00
MicOpt                                     I   N=          18
          -1          -1          -1          -1          -1          -1
          -1          -1          -1          -1          -1          -1
          -1          -1          -1          -1          -1          -1
Number of residues                         I                0
Number of secondary structures             I                0
Redundant internal dimensions              I   N=           4
          87          18          30          39
Redundant internal coordinate indices      I   N=         348
           1           2           0           0           2           3
           0           0           2           9           0           0
           2          10           0           0           3           4
           0           0           3           8           0           0
           4           5           0           0           4          11
           0           0           5           6           0           0
           5          12           0           0           6           7
           0           0           6          13           0           0
           7           8           0           0           7          14
           0           0           8          15           0           0
           9          16           0           0           9          17
           0           0           9          18           0           0
           1           2           3           0           1           2
           9           0           1           2          10           0
           3           2           9           0           3           2
          10           0           9           2          10           0
           2           3           4           0           2           3
           8           0           4           3           8           0
           3           4           5           0           3           4
          11           0           5           4          11           0
           4           5           6           0           4           5
          12           0           6           5          12           0
           5           6           7           0           5           6
          13           0           7           6          13           0
           6           7           8           0           6           7
          14           0           8           7          14           0
           3           8           7           0           3           8
          15           0           7           8          15           0
           2           9          16           0           2           9
          17           0           2           9          18           0
          16           9          17           0          16           9
          18           0          17           9          18           0
           1           2           3           4           1           2
           3           8           9           2           3           4
           9           2           3           8          10           2
           3           4          10           2           3           8
           1           2           9          16           1           2
           9          17           1           2           9          18
           3           2           9          16           3           2
           9          17           3           2           9          18
          10           2           9          16          10           2
           9          17          10           2           9          18
           2           3           4           5           2           3
           4          11           8           3           4           5
           8           3           4          11           2           3
           8           7           2           3           8          15
           4           3           8           7           4           3
           8          15           3           4           5           6
           3           4           5          12          11           4
           5           6          11           4           5          12
           4           5           6           7           4           5
           6          13          12           5           6           7
          12           5           6          13           5           6
           7           8           5           6           7          14
          13           6           7           8          13           6
           7          14           6           7           8           3
           6           7           8          15          14           7
           8           3          14           7           8          15
Redundant internal coordinates             R   N=          87
  2.78048214E+00  3.40523297E+00  3.42327616E+00  2.78051143E+00  2.63836766E+00
  2.63841591E+00  2.63648295E+00  2.05082058E+00  2.64011998E+00  2.05276604E+00
  2.64015816E+00  2.05328271E+00  2.63644439E+00  2.05276628E+00  2.05083141E+00
  2.06300481E+00  2.06298042E+00  2.06540837E+00  1.88362627E+00  1.87370229E+00
  2.11607597E+00  1.80971387E+00  1.88361363E+00  1.87386110E+00  2.08045665E+00
  2.08048380E+00  2.12221934E+00  2.07576920E+00  2.09064195E+00  2.11655278E+00
  2.09577771E+00  2.09047652E+00  2.09689534E+00  2.10095166E+00  2.09111240E+00
  2.09108606E+00  2.09576953E+00  2.09687492E+00  2.09050485E+00  2.07577553E+00
  2.09067926E+00  2.11650768E+00  1.90744644E+00  1.90757319E+00  1.85434509E+00
  1.94050919E+00  1.92587673E+00  1.92596452E+00  2.72384307E+00 -4.10197162E-01
 -1.57543614E+00  1.57370894E+00  4.08643841E-01 -2.72539639E+00  9.26739840E-01
  3.05396151E+00 -1.15115657E+00 -1.06429616E+00  1.06292551E+00  3.14099274E+00
 -3.05538251E+00 -9.28160842E-01  1.14990638E+00  3.13494845E+00 -2.89645549E-02
 -1.43838677E-02  3.10488843E+00 -3.13492232E+00  2.90654001E-02  1.44101186E-02
 -3.10478747E+00  3.68285178E-03  3.13620415E+00 -3.11524571E+00  1.72755966E-02
  6.68159773E-03  3.13924268E+00 -3.12580608E+00  6.75500347E-03 -6.65492661E-03
  3.12579939E+00 -3.13921615E+00 -6.76182451E-03 -3.73522709E-03  3.11511858E+00
 -3.13622304E+00 -1.73692379E-02
ZRed-IntVec                                I   N=          87
           0           0           0           0           0           0
           0           0           0           0           0           0
           0           0           0           0           0           0
           0           0           0           0           0           0
           0           0           0           0           0           0
           0           0           0           0           0           0
           0           0           0           0           0           0
           0           0           0           0           0           0
           0           0           0           0           0           0
           0           0           0           0           0           0
           0           0           0           0           0           0
           0           0           0           0           0           0
           0           0           0           0           0           0
           0           0           0           0           0           0
           0           0           0
ZRed-FPVec                                 R   N=          87
  0.00000000E+00  0.00000000E+00  0.00000000E+00  0.00000000E+00  0.00000000E+00
  0.00000000E+00  0.00000000E+00  0.00000000E+00  0.00000000E+00  0.00000000E+00
  0.00000000E+00  0.00000000E+00  0.00000000E+00  0.00000000E+00  0.00000000E+00
  0.00000000E+00  0.00000000E+00  0.00000000E+00  0.00000000E+00  0.00000000E+00
  0.00000000E+00  0.00000000E+00  0.00000000E+00  0.00000000E+00  0.00000000E+00
  0.00000000E+00  0.00000000E+00  0.00000000E+00  0.00000000E+00  0.00000000E+00
  0.00000000E+00  0.00000000E+00  0.00000000E+00  0.00000000E+00  0.00000000E+00
  0.00000000E+00  0.00000000E+00  0.00000000E+00  0.00000000E+00  0.00000000E+00
  0.00000000E+00  0.00000000E+00  0.00000000E+00  0.00000000E+00  0.00000000E+00
  0.00000000E+00  0.00000000E+00  0.00000000E+00  0.00000000E+00  0.00000000E+00
  0.00000000E+00  0.00000000E+00  0.00000000E+00  0.00000000E+00  0.00000000E+00
  0.00000000E+00  0.00000000E+00  0.00000000E+00  0.00000000E+00  0.00000000E+00
  0.00000000E+00  0.00000000E+00  0.00000000E+00  0.00000000E+00  0.00000000E+00
  0.00000000E+00  0.00000000E+00  0.00000000E+00  0.00000000E+00  0.00000000E+00
  0.00000000E+00  0.00000000E+00  0.00000000E+00  0.00000000E+00  0.00000000E+00
  0.00000000E+00  0.00000000E+00  0.00000000E+00  0.00000000E+00  0.00000000E+00
  0.00000000E+00  0.00000000E+00  0.00000000E+00  0.00000000E+00  0.00000000E+00
  0.00000000E+00  0.00000000E+00
ZRed-Constraint1                           R   N=          87
  2.78048214E+00  3.40523297E+00  3.42327616E+00  2.78051143E+00  2.63836766E+00
  2.63841591E+00  2.63648295E+00  2.05082058E+00  2.64011998E+00  2.05276604E+00
  2.64015816E+00  2.05328271E+00  2.63644439E+00  2.05276628E+00  2.05083141E+00
  2.06300481E+00  2.06298042E+00  2.06540837E+00  1.88362627E+00  1.87370229E+00
  2.11607597E+00  1.80971387E+00  1.88361363E+00  1.87386110E+00  2.08045665E+00
  2.08048380E+00  2.12221934E+00  2.07576920E+00  2.09064195E+00  2.11655278E+00
  2.09577771E+00  2.09047652E+00  2.09689534E+00  2.10095166E+00  2.09111240E+00
  2.09108606E+00  2.09576953E+00  2.09687492E+00  2.09050485E+00  2.07577553E+00
  2.09067926E+00  2.11650768E+00  1.90744644E+00  1.90757319E+00  1.85434509E+00
  1.94050919E+00  1.92587673E+00  1.92596452E+00  2.72384307E+00 -4.10197162E-01
 -1.57543614E+00  1.57370894E+00  4.08643841E-01 -2.72539639E+00  9.26739840E-01
  3.05396151E+00 -1.15115657E+00 -1.06429616E+00  1.06292551E+00  3.14099274E+00
 -3.05538251E+00 -9.28160842E-01  1.14990638E+00  3.13494845E+00 -2.89645549E-02
 -1.43838677E-02  3.10488843E+00 -3.13492232E+00  2.90654001E-02  1.44101186E-02
 -3.10478747E+00  3.68285178E-03  3.13620415E+00 -3.11524571E+00  1.72755966E-02
  6.68159773E-03  3.13924268E+00 -3.12580608E+00  6.75500347E-03 -6.65492661E-03
  3.12579939E+00 -3.13921615E+00 -6.76182451E-03 -3.73522709E-03  3.11511858E+00
 -3.13622304E+00 -1.73692379E-02
ZRed-Constraint2                           R   N=          87
  3.03252282E+00  3.34811374E+00  3.46119407E+00  3.03271713E+00  2.66635868E+00
  2.66631485E+00  2.65750009E+00  2.05976349E+00  2.65827458E+00  2.05970753E+00
  2.65808386E+00  2.05987630E+00  2.65751373E+00  2.05982423E+00  2.05971358E+00
  2.05976262E+00  2.05980151E+00  2.05991408E+00  1.93202313E+00  1.90497530E+00
  1.89249441E+00  1.89709213E+00  1.93201224E+00  1.90494201E+00  2.09801804E+00
  2.09799406E+00  2.08695834E+00  2.09749710E+00  2.09567109E+00  2.09001710E+00
  2.09443954E+00  2.09415554E+00  2.09459022E+00  2.09533121E+00  2.09387569E+00
  2.09397840E+00  2.09451241E+00  2.09453652E+00  2.09413637E+00  2.09746915E+00
  2.09567800E+00  2.09003815E+00  1.91062383E+00  1.91062131E+00  1.91062726E+00
  1.91061848E+00  1.91069324E+00  1.91061528E+00  2.63148977E+00 -5.32472640E-01
 -1.55961100E+00  1.55961190E+00  5.32426010E-01 -2.63153640E+00  1.19737689E+00
 -2.99144445E+00 -8.97082294E-01 -9.11452138E-01  1.18291183E+00 -3.00591132E+00
 -3.02024790E+00 -9.25883931E-01  1.16847823E+00  3.13821140E+00 -3.48254993E-03
  1.88470315E-02 -3.12284692E+00 -3.13823338E+00  3.53882355E-03 -1.88686992E-02
  3.12290350E+00 -7.29711807E-03  3.13432259E+00  3.13439650E+00 -7.16909398E-03
 -4.35482969E-03  3.13732945E+00  3.13721076E+00 -4.29026523E-03  4.33306294E-03
 -3.13719694E+00 -3.13735122E+00  4.30407786E-03  7.34081795E-03 -3.13443080E+00
 -3.13431447E+00  7.09921782E-03
SymInf integers                            I   N=          26
           1           1           1           1           1           0
           0           0           0           0           0           0
           0           0           0           0           0           0
           0           0           0           0           0           0
           0           0
RotTr to input orientation                 R   N=          12
 -5.39107693E-01  5.60080904E-01  6.29024862E-01 -4.53322332E-01  4.36482063E-01
 -7.77162963E-01 -7.09832204E-01 -7.04125550E-01  1.85863434E-02 -5.22291752E-01
 -6.62386930E-01  8.42268574E-02
Number of contracted shells                I               57
Number of primitive shells                 I              148
Pure/Cartesian d shells                    I                1
Pure/Cartesian f shells                    I                0
Highest angular momentum                   I                2
Largest degree of contraction              I                6
Shell types                                I   N=          57
           0          -1          -1           2           0          -1
          -1          -1           2           0          -1          -1
           2           0          -1          -1           2           0
          -1          -1           2           0          -1          -1
           2           0          -1          -1           2           0
          -1          -1           2           0          -1          -1
           2           0          -1          -1           2           0
           0           0           0           0           0           0
           0           0           0           0           0           0
           0           0           0
Number of primitives per shell             I   N=          57
           6           3           1           1           6           6
           3           1           1           6           3           1
           1           6           3           1           1           6
           3           1           1           6           3           1
           1           6           3           1           1           6
           3           1           1           6           3           1
           1           6           3           1           1           3
           1           3           1           3           1           3
           1           3           1           3           1           3
           1           3           1
Shell to atom map                          I   N=          57
           1           1           1           1           2           2
           2           2           2           3           3           3
           3           4           4           4           4           5
           5           5           5           6           6           6
           6           7           7           7           7           8
           8           8           8           9           9           9
           9          10          10          10          10          11
          11          12          12          13          13          14
          14          15          15          16          16          17
          17          18          18
Primitive exponents                        R   N=         148
  5.48467166E+03  8.25234946E+02  1.88046958E+02  5.29645000E+01  1.68975704E+01
  5.79963534E+00  1.55396162E+01  3.59993359E+00  1.01376175E+00  2.70005823E-01
  8.00000000E-01  2.19171000E+04  3.30149000E+03  7.54146000E+02  2.12711000E+02
  6.79896000E+01  2.30515000E+01  4.23735000E+02  1.00710000E+02  3.21599000E+01
  1.18079000E+01  4.63110000E+00  1.87025000E+00  2.61584000E+00  9.22167000E-01
  3.41287000E-01  1.17167000E-01  6.50000000E-01  3.04752488E+03  4.57369518E+02
  1.03948685E+02  2.92101553E+01  9.28666296E+00  3.16392696E+00  7.86827235E+00
  1.88128854E+00  5.44249258E-01  1.68714478E-01  8.00000000E-01  3.04752488E+03
  4.57369518E+02  1.03948685E+02  2.92101553E+01  9.28666296E+00  3.16392696E+00
  7.86827235E+00  1.88128854E+00  5.44249258E-01  1.68714478E-01  8.00000000E-01
  3.04752488E+03  4.57369518E+02  1.03948685E+02  2.92101553E+01  9.28666296E+00
  3.16392696E+00  7.86827235E+00  1.88128854E+00  5.44249258E-01  1.68714478E-01
  8.00000000E-01  3.04752488E+03  4.57369518E+02  1.03948685E+02  2.92101553E+01
  9.28666296E+00  3.16392696E+00  7.86827235E+00  1.88128854E+00  5.44249258E-01
  1.68714478E-01  8.00000000E-01  3.04752488E+03  4.57369518E+02  1.03948685E+02
  2.92101553E+01  9.28666296E+00  3.16392696E+00  7.86827235E+00  1.88128854E+00
  5.44249258E-01  1.68714478E-01  8.00000000E-01  3.04752488E+03  4.57369518E+02
  1.03948685E+02  2.92101553E+01  9.28666296E+00  3.16392696E+00  7.86827235E+00
  1.88128854E+00  5.44249258E-01  1.68714478E-01  8.00000000E-01  3.04752488E+03
  4.57369518E+02  1.03948685E+02  2.92101553E+01  9.28666296E+00  3.16392696E+00
  7.86827235E+00  1.88128854E+00  5.44249258E-01  1.68714478E-01  8.00000000E-01
  5.48467166E+03  8.25234946E+02  1.88046958E+02  5.29645000E+01  1.68975704E+01
  5.79963534E+00  1.55396162E+01  3.59993359E+00  1.01376175E+00  2.70005823E-01
  8.00000000E-01  1.87311370E+01  2.82539436E+00  6.40121692E-01  1.61277759E-01
  1.87311370E+01  2.82539436E+00  6.40121692E-01  1.61277759E-01  1.87311370E+01
  2.82539436E+00  6.40121692E-01  1.61277759E-01  1.87311370E+01  2.82539436E+00
  6.40121692E-01  1.61277759E-01  1.87311370E+01  2.82539436E+00  6.40121692E-01
  1.61277759E-01  1.87311370E+01  2.82539436E+00  6.40121692E-01  1.61277759E-01
  1.87311370E+01  2.82539436E+00  6.40121692E-01  1.61277759E-01  1.87311370E+01
  2.82539436E+00  6.40121692E-01  1.61277759E-01
Contraction coefficients                   R   N=         148
  1.83107443E-03  1.39501722E-02  6.84450781E-02  2.32714336E-01  4.70192898E-01
  3.58520853E-01 -1.10777550E-01 -1.48026263E-01  1.13076702E+00  1.00000000E+00
  1.00000000E+00  1.86924085E-03  1.42303065E-02  6.96962317E-02  2.38487108E-01
  4.83307220E-01  3.38074154E-01 -2.37677050E-03 -3.16930067E-02 -1.13317024E-01
  5.60900118E-02  5.92255124E-01  4.55006095E-01 -2.50373114E-01  6.69567631E-02
  1.05450627E+00  1.00000000E+00  1.00000000E+00  1.83473713E-03  1.40373228E-02
  6.88426223E-02  2.32184443E-01  4.67941348E-01  3.62311985E-01 -1.19332420E-01
 -1.60854152E-01  1.14345644E+00  1.00000000E+00  1.00000000E+00  1.83473713E-03
  1.40373228E-02  6.88426223E-02  2.32184443E-01  4.67941348E-01  3.62311985E-01
 -1.19332420E-01 -1.60854152E-01  1.14345644E+00  1.00000000E+00  1.00000000E+00
  1.83473713E-03  1.40373228E-02  6.88426223E-02  2.32184443E-01  4.67941348E-01
  3.62311985E-01 -1.19332420E-01 -1.60854152E-01  1.14345644E+00  1.00000000E+00
  1.00000000E+00  1.83473713E-03  1.40373228E-02  6.88426223E-02  2.32184443E-01
  4.67941348E-01  3.62311985E-01 -1.19332420E-01 -1.60854152E-01  1.14345644E+00
  1.00000000E+00  1.00000000E+00  1.83473713E-03  1.40373228E-02  6.88426223E-02
  2.32184443E-01  4.67941348E-01  3.62311985E-01 -1.19332420E-01 -1.60854152E-01
  1.14345644E+00  1.00000000E+00  1.00000000E+00  1.83473713E-03  1.40373228E-02
  6.88426223E-02  2.32184443E-01  4.67941348E-01  3.62311985E-01 -1.19332420E-01
 -1.60854152E-01  1.14345644E+00  1.00000000E+00  1.00000000E+00  1.83473713E-03
  1.40373228E-02  6.88426223E-02  2.32184443E-01  4.67941348E-01  3.62311985E-01
 -1.19332420E-01 -1.60854152E-01  1.14345644E+00  1.00000000E+00  1.00000000E+00
  1.83107443E-03  1.39501722E-02  6.84450781E-02  2.32714336E-01  4.70192898E-01
  3.58520853E-01 -1.10777550E-01 -1.48026263E-01  1.13076702E+00  1.00000000E+00
  1.00000000E+00  3.34946043E-02  2.34726953E-01  8.13757326E-01  1.00000000E+00
  3.34946043E-02  2.34726953E-01  8.13757326E-01  1.00000000E+00  3.34946043E-02
  2.34726953E-01  8.13757326E-01  1.00000000E+00  3.34946043E-02  2.34726953E-01
  8.13757326E-01  1.00000000E+00  3.34946043E-02  2.34726953E-01  8.13757326E-01
  1.00000000E+00  3.34946043E-02  2.34726953E-01  8.13757326E-01  1.00000000E+00
  3.34946043E-02  2.34726953E-01  8.13757326E-01  1.00000000E+00  3.34946043E-02
  2.34726953E-01  8.13757326E-01  1.00000000E+00
P(S=P) Contraction coefficients            R   N=         148
  0.00000000E+00  0.00000000E+00  0.00000000E+00  0.00000000E+00  0.00000000E+00
  0.00000000E+00  7.08742682E-02  3.39752839E-01  7.27158577E-01  1.00000000E+00
  0.00000000E+00  0.00000000E+00  0.00000000E+00  0.00000000E+00  0.00000000E+00
  0.00000000E+00  0.00000000E+00  4.06100998E-03  3.06812999E-02  1.30451999E-01
  3.27204999E-01  4.52850998E-01  2.56041999E-01 -1.45104895E-02  3.10262776E-01
  7.54482456E-01  1.00000000E+00  0.00000000E+00  0.00000000E+00  0.00000000E+00
  0.00000000E+00  0.00000000E+00  0.00000000E+00  0.00000000E+00  6.89990666E-02
  3.16423961E-01  7.44308291E-01  1.00000000E+00  0.00000000E+00  0.00000000E+00
  0.00000000E+00  0.00000000E+00  0.00000000E+00  0.00000000E+00  0.00000000E+00
  6.89990666E-02  3.16423961E-01  7.44308291E-01  1.00000000E+00  0.00000000E+00
  0.00000000E+00  0.00000000E+00  0.00000000E+00  0.00000000E+00  0.00000000E+00
  0.00000000E+00  6.89990666E-02  3.16423961E-01  7.44308291E-01  1.00000000E+00
  0.00000000E+00  0.00000000E+00  0.00000000E+00  0.00000000E+00  0.00000000E+00
  0.00000000E+00  0.00000000E+00  6.89990666E-02  3.16423961E-01  7.44308291E-01
  1.00000000E+00  0.00000000E+00  0.00000000E+00  0.00000000E+00  0.00000000E+00
  0.00000000E+00  0.00000000E+00  0.00000000E+00  6.89990666E-02  3.16423961E-01
  7.44308291E-01  1.00000000E+00  0.00000000E+00  0.00000000E+00  0.00000000E+00
  0.00000000E+00  0.00000000E+00  0.00000000E+00  0.00000000E+00  6.89990666E-02
  3.16423961E-01  7.44308291E-01  1.00000000E+00  0.00000000E+00  0.00000000E+00
  0.00000000E+00  0.00000000E+00  0.00000000E+00  0.00000000E+00  0.00000000E+00
  6.89990666E-02  3.16423961E-01  7.44308291E-01  1.00000000E+00  0.00000000E+00
  0.00000000E+00  0.00000000E+00  0.00000000E+00  0.00000000E+00  0.00000000E+00
  0.00000000E+00  7.08742682E-02  3.39752839E-01  7.27158577E-01  1.00000000E+00
  0.00000000E+00  0.00000000E+00  0.00000000E+00  0.00000000E+00  0.00000000E+00
  0.00000000E+00  0.00000000E+00  0.00000000E+00  0.00000000E+00  0.00000000E+00
  0.00000000E+00  0.00000000E+00  0.00000000E+00  0.00000000E+00  0.00000000E+00
  0.00000000E+00  0.00000000E+00  0.00000000E+00  0.00000000E+00  0.00000000E+00
  0.00000000E+00  0.00000000E+00  0.00000000E+00  0.00000000E+00  0.00000000E+00
  0.00000000E+00  0.00000000E+00  0.00000000E+00  0.00000000E+00  0.00000000E+00
  0.00000000E+00  0.00000000E+00  0.00000000E+00
Coordinates of each shell                  R   N=         171
 -3.58377985E+00 -2.42139372E+00 -1.44208963E+00 -3.58377985E+00 -2.42139372E+00
 -1.44208963E+00 -3.58377985E+00 -2.42139372E+00 -1.44208963E+00 -3.58377985E+00
 -2.42139372E+00 -1.44208963E+00 -2.78709328E+00  4.16013426E-04 -3.32491020E-01
 -2.78709328E+00  4.16013426E-04 -3.32491020E-01 -2.78709328E+00  4.16013426E-04
 -3.32491020E-01 -2.78709328E+00  4.16013426E-04 -3.32491020E-01 -2.78709328E+00
  4.16013426E-04 -3.32491020E-01  6.13093688E-01  1.49609192E-04 -1.47180337E-01
  6.13093688E-01  1.49609192E-04 -1.47180337E-01  6.13093688E-01  1.49609192E-04
 -1.47180337E-01  6.13093688E-01  1.49609192E-04 -1.47180337E-01  1.89902593E+00
  2.30309225E+00 -8.53952695E-02  1.89902593E+00  2.30309225E+00 -8.53952695E-02