 Entering Gaussian System, Link 0=/apps/cent7/gaussian/g16-A.03/g16-haswell/g16/g16
 Initial command:
 /apps/cent7/gaussian/g16-A.03/g16-haswell/g16/l1.exe "/scratch/brown/finej/gaussian/Gau-292062.inp" -scrdir="/scratch/brown/finej/gaussian/"
 Entering Link 1 = /apps/cent7/gaussian/g16-A.03/g16-haswell/g16/l1.exe PID=    292065.
  
 Copyright (c) 1988,1990,1992,1993,1995,1998,2003,2009,2016,
            Gaussian, Inc.  All Rights Reserved.
  
 This is part of the Gaussian(R) 16 program.  It is based on
 the Gaussian(R) 09 system (copyright 2009, Gaussian, Inc.),
 the Gaussian(R) 03 system (copyright 2003, Gaussian, Inc.),
 the Gaussian(R) 98 system (copyright 1998, Gaussian, Inc.),
 the Gaussian(R) 94 system (copyright 1995, Gaussian, Inc.),
 the Gaussian 92(TM) system (copyright 1992, Gaussian, Inc.),
 the Gaussian 90(TM) system (copyright 1990, Gaussian, Inc.),
 the Gaussian 88(TM) system (copyright 1988, Gaussian, Inc.),
 the Gaussian 86(TM) system (copyright 1986, Carnegie Mellon
 University), and the Gaussian 82(TM) system (copyright 1983,
 Carnegie Mellon University). Gaussian is a federally registered
 trademark of Gaussian, Inc.
  
 This software contains proprietary and confidential information,
 including trade secrets, belonging to Gaussian, Inc.
  
 This software is provided under written license and may be
 used, copied, transmitted, or stored only in accord with that
 written license.
  
 The following legend is applicable only to US Government
 contracts under FAR:
  
                    RESTRICTED RIGHTS LEGEND
  
 Use, reproduction and disclosure by the US Government is
 subject to restrictions as set forth in subparagraphs (a)
 and (c) of the Commercial Computer Software - Restricted
 Rights clause in FAR 52.227-19.
  
 Gaussian, Inc.
 340 Quinnipiac St., Bldg. 40, Wallingford CT 06492
  
  
 ---------------------------------------------------------------
 Warning -- This program may not be used in any manner that
 competes with the business of Gaussian, Inc. or will provide
 assistance to any competitor of Gaussian, Inc.  The licensee
 of this program is prohibited from giving any competitor of
 Gaussian, Inc. access to this program.  By using this program,
 the user acknowledges that Gaussian, Inc. is engaged in the
 business of creating and licensing software in the field of
 computational chemistry and represents and warrants to the
 licensee that it is not a competitor of Gaussian, Inc. and that
 it will not use this program in any manner prohibited above.
 ---------------------------------------------------------------
  

 Cite this work as:
 Gaussian 16, Revision A.03,
 M. J. Frisch, G. W. Trucks, H. B. Schlegel, G. E. Scuseria, 
 M. A. Robb, J. R. Cheeseman, G. Scalmani, V. Barone, 
 G. A. Petersson, H. Nakatsuji, X. Li, M. Caricato, A. V. Marenich, 
 J. Bloino, B. G. Janesko, R. Gomperts, B. Mennucci, H. P. Hratchian, 
 J. V. Ortiz, A. F. Izmaylov, J. L. Sonnenberg, D. Williams-Young, 
 F. Ding, F. Lipparini, F. Egidi, J. Goings, B. Peng, A. Petrone, 
 T. Henderson, D. Ranasinghe, V. G. Zakrzewski, J. Gao, N. Rega, 
 G. Zheng, W. Liang, M. Hada, M. Ehara, K. Toyota, R. Fukuda, 
 J. Hasegawa, M. Ishida, T. Nakajima, Y. Honda, O. Kitao, H. Nakai, 
 T. Vreven, K. Throssell, J. A. Montgomery, Jr., J. E. Peralta, 
 F. Ogliaro, M. J. Bearpark, J. J. Heyd, E. N. Brothers, K. N. Kudin, 
 V. N. Staroverov, T. A. Keith, R. Kobayashi, J. Normand, 
 K. Raghavachari, A. P. Rendell, J. C. Burant, S. S. Iyengar, 
 J. Tomasi, M. Cossi, J. M. Millam, M. Klene, C. Adamo, R. Cammi, 
 J. W. Ochterski, R. L. Martin, K. Morokuma, O. Farkas, 
 J. B. Foresman, and D. J. Fox, Gaussian, Inc., Wallingford CT, 2016.
 
 ******************************************
 Gaussian 16:  ES64L-G16RevA.03 25-Dec-2016
                14-Oct-2019 
 ******************************************
 %chk=27.chk
 %nprocshared=24
 Will use up to   24 processors via shared memory.
 %mem=80GB
 --------------------------------------------------------------
 #P opt freq b3lyp/6-31g(d) geom=connectivity temperature=0.001
 --------------------------------------------------------------
 1/18=20,19=15,26=3,38=1,57=2,112=-1000/1,3;
 2/9=110,12=2,17=6,18=5,40=1/2;
 3/5=1,6=6,7=1,11=2,25=1,30=1,71=1,74=-5/1,2,3;
 4//1;
 5/5=2,38=5/2;
 6/7=2,8=2,9=2,10=2,28=1/1;
 7//1,2,3,16;
 1/18=20,19=15,26=3/3(2);
 2/9=110/2;
 99//99;
 2/9=110/2;
 3/5=1,6=6,7=1,11=2,25=1,30=1,71=1,74=-5/1,2,3;
 4/5=5,16=3,69=1/1;
 5/5=2,38=5/2;
 7//1,2,3,16;
 1/18=20,19=15,26=3/3(-5);
 2/9=110/2;
 6/7=2,8=2,9=2,10=2,19=2,28=1/1;
 99/9=1/99;
 Leave Link    1 at Mon Oct 14 01:34:00 2019, MaxMem= 10737418240 cpu:               0.9 elap:               0.0
 (Enter /apps/cent7/gaussian/g16-A.03/g16-haswell/g16/l101.exe)
 -------------------
 Title Card Required
 -------------------
 Symbolic Z-matrix:
 Charge =  0 Multiplicity = 1
 O                     2.0115   -1.3969   -0.2231 
 S                     0.5805   -1.0676   -0.8704 
 C                    -0.4103   -0.1184    0.2505 
 C                    -1.3767    0.7826   -0.2446 
 C                    -2.1656    1.5327    0.6457 
 C                    -1.9985    1.3794    2.034 
 C                    -1.0463    0.4723    2.533 
 C                    -0.2567   -0.2785    1.6439 
 C                    -0.2886   -2.6376   -1.2371 
 O                     0.8157   -0.264    -2.2395 
 H                    -1.5143    0.8997   -1.3195 
 H                    -2.9065    2.2328    0.2598 
 H                    -2.6075    1.964     2.7236 
 H                    -0.9203    0.3511    3.6089 
 H                     0.4752   -0.9851    2.0351 
 H                    -0.5607   -3.129    -0.303 
 H                    -1.1898   -2.428    -1.8133 
 H                     0.3675   -3.2901   -1.8133 
 
 ITRead=  0  0  0  0  0  0  0  0  0  0  0  0  0  0  0  0  0  0
 MicOpt= -1 -1 -1 -1 -1 -1 -1 -1 -1 -1 -1 -1 -1 -1 -1 -1 -1 -1
 NAtoms=     18 NQM=       18 NQMF=       0 NMMI=      0 NMMIF=      0
                NMic=       0 NMicF=      0.
                    Isotopes and Nuclear Properties:
 (Nuclear quadrupole moments (NQMom) in fm**2, nuclear magnetic moments (NMagM)
  in nuclear magnetons)

  Atom         1           2           3           4           5           6           7           8           9          10
 IAtWgt=          16          32          12          12          12          12          12          12          12          16
 AtmWgt=  15.9949146  31.9720718  12.0000000  12.0000000  12.0000000  12.0000000  12.0000000  12.0000000  12.0000000  15.9949146
 NucSpn=           0           0           0           0           0           0           0           0           0           0
 AtZEff=  -0.0000000  -0.0000000  -0.0000000  -0.0000000  -0.0000000  -0.0000000  -0.0000000  -0.0000000  -0.0000000  -0.0000000
 NQMom=    0.0000000   0.0000000   0.0000000   0.0000000   0.0000000   0.0000000   0.0000000   0.0000000   0.0000000   0.0000000
 NMagM=    0.0000000   0.0000000   0.0000000   0.0000000   0.0000000   0.0000000   0.0000000   0.0000000   0.0000000   0.0000000
 AtZNuc=   8.0000000  16.0000000   6.0000000   6.0000000   6.0000000   6.0000000   6.0000000   6.0000000   6.0000000   8.0000000

  Atom        11          12          13          14          15          16          17          18
 IAtWgt=           1           1           1           1           1           1           1           1
 AtmWgt=   1.0078250   1.0078250   1.0078250   1.0078250   1.0078250   1.0078250   1.0078250   1.0078250
 NucSpn=           1           1           1           1           1           1           1           1
 AtZEff=  -0.0000000  -0.0000000  -0.0000000  -0.0000000  -0.0000000  -0.0000000  -0.0000000  -0.0000000
 NQMom=    0.0000000   0.0000000   0.0000000   0.0000000   0.0000000   0.0000000   0.0000000   0.0000000
 NMagM=    2.7928460   2.7928460   2.7928460   2.7928460   2.7928460   2.7928460   2.7928460   2.7928460
 AtZNuc=   1.0000000   1.0000000   1.0000000   1.0000000   1.0000000   1.0000000   1.0000000   1.0000000
 Leave Link  101 at Mon Oct 14 01:34:01 2019, MaxMem= 10737418240 cpu:               8.4 elap:               0.4
 (Enter /apps/cent7/gaussian/g16-A.03/g16-haswell/g16/l103.exe)

 GradGradGradGradGradGradGradGradGradGradGradGradGradGradGradGradGradGrad
 Berny optimization.
 Initialization pass.
                           ----------------------------
                           !    Initial Parameters    !
                           ! (Angstroms and Degrees)  !
 --------------------------                            --------------------------
 ! Name  Definition              Value          Derivative Info.                !
 --------------------------------------------------------------------------------
 ! R1    R(1,2)                  1.6047         estimate D2E/DX2                !
 ! R2    R(2,3)                  1.7717         estimate D2E/DX2                !
 ! R3    R(2,9)                  1.8316         estimate D2E/DX2                !
 ! R4    R(2,10)                 1.6048         estimate D2E/DX2                !
 ! R5    R(3,4)                  1.411          estimate D2E/DX2                !
 ! R6    R(3,8)                  1.411          estimate D2E/DX2                !
 ! R7    R(4,5)                  1.4063         estimate D2E/DX2                !
 ! R8    R(4,11)                 1.09           estimate D2E/DX2                !
 ! R9    R(5,6)                  1.4067         estimate D2E/DX2                !
 ! R10   R(5,12)                 1.09           estimate D2E/DX2                !
 ! R11   R(6,7)                  1.4066         estimate D2E/DX2                !
 ! R12   R(6,13)                 1.09           estimate D2E/DX2                !
 ! R13   R(7,8)                  1.4063         estimate D2E/DX2                !
 ! R14   R(7,14)                 1.09           estimate D2E/DX2                !
 ! R15   R(8,15)                 1.09           estimate D2E/DX2                !
 ! R16   R(9,16)                 1.09           estimate D2E/DX2                !
 ! R17   R(9,17)                 1.09           estimate D2E/DX2                !
 ! R18   R(9,18)                 1.0901         estimate D2E/DX2                !
 ! A1    A(1,2,3)              110.6968         estimate D2E/DX2                !
 ! A2    A(1,2,9)              109.147          estimate D2E/DX2                !
 ! A3    A(1,2,10)             108.4319         estimate D2E/DX2                !
 ! A4    A(3,2,9)              108.6954         estimate D2E/DX2                !
 ! A5    A(3,2,10)             110.6961         estimate D2E/DX2                !
 ! A6    A(9,2,10)             109.1451         estimate D2E/DX2                !
 ! A7    A(2,3,4)              120.2076         estimate D2E/DX2                !
 ! A8    A(2,3,8)              120.2062         estimate D2E/DX2                !
 ! A9    A(4,3,8)              119.5739         estimate D2E/DX2                !
 ! A10   A(3,4,5)              120.1777         estimate D2E/DX2                !
 ! A11   A(3,4,11)             120.0731         estimate D2E/DX2                !
 ! A12   A(5,4,11)             119.7492         estimate D2E/DX2                !
 ! A13   A(4,5,6)              120.0025         estimate D2E/DX2                !
 ! A14   A(4,5,12)             119.9863         estimate D2E/DX2                !
 ! A15   A(6,5,12)             120.0112         estimate D2E/DX2                !
 ! A16   A(5,6,7)              120.0536         estimate D2E/DX2                !
 ! A17   A(5,6,13)             119.9702         estimate D2E/DX2                !
 ! A18   A(7,6,13)             119.9761         estimate D2E/DX2                !
 ! A19   A(6,7,8)              120.0067         estimate D2E/DX2                !
 ! A20   A(6,7,14)             120.0081         estimate D2E/DX2                !
 ! A21   A(8,7,14)             119.9852         estimate D2E/DX2                !
 ! A22   A(3,8,7)              120.1761         estimate D2E/DX2                !
 ! A23   A(3,8,15)             120.0735         estimate D2E/DX2                !
 ! A24   A(7,8,15)             119.7504         estimate D2E/DX2                !
 ! A25   A(2,9,16)             109.4707         estimate D2E/DX2                !
 ! A26   A(2,9,17)             109.4705         estimate D2E/DX2                !
 ! A27   A(2,9,18)             109.4709         estimate D2E/DX2                !
 ! A28   A(16,9,17)            109.4704         estimate D2E/DX2                !
 ! A29   A(16,9,18)            109.4747         estimate D2E/DX2                !
 ! A30   A(17,9,18)            109.4702         estimate D2E/DX2                !
 ! D1    D(1,2,3,4)            150.7733         estimate D2E/DX2                !
 ! D2    D(1,2,3,8)            -30.5084         estimate D2E/DX2                !
 ! D3    D(9,2,3,4)            -89.3591         estimate D2E/DX2                !
 ! D4    D(9,2,3,8)             89.3592         estimate D2E/DX2                !
 ! D5    D(10,2,3,4)            30.5058         estimate D2E/DX2                !
 ! D6    D(10,2,3,8)          -150.7759         estimate D2E/DX2                !
 ! D7    D(1,2,9,16)            68.6046         estimate D2E/DX2                !
 ! D8    D(1,2,9,17)          -171.3971         estimate D2E/DX2                !
 ! D9    D(1,2,9,18)           -51.399          estimate D2E/DX2                !
 ! D10   D(3,2,9,16)           -52.2224         estimate D2E/DX2                !
 ! D11   D(3,2,9,17)            67.7759         estimate D2E/DX2                !
 ! D12   D(3,2,9,18)          -172.226          estimate D2E/DX2                !
 ! D13   D(10,2,9,16)         -173.0475         estimate D2E/DX2                !
 ! D14   D(10,2,9,17)          -53.0492         estimate D2E/DX2                !
 ! D15   D(10,2,9,18)           66.9489         estimate D2E/DX2                !
 ! D16   D(2,3,4,5)            179.8063         estimate D2E/DX2                !
 ! D17   D(2,3,4,11)            -0.1995         estimate D2E/DX2                !
 ! D18   D(8,3,4,5)              1.0799         estimate D2E/DX2                !
 ! D19   D(8,3,4,11)          -178.9259         estimate D2E/DX2                !
 ! D20   D(2,3,8,7)           -179.8075         estimate D2E/DX2                !
 ! D21   D(2,3,8,15)             0.2028         estimate D2E/DX2                !
 ! D22   D(4,3,8,7)             -1.0811         estimate D2E/DX2                !
 ! D23   D(4,3,8,15)           178.9292         estimate D2E/DX2                !
 ! D24   D(3,4,5,6)             -0.4181         estimate D2E/DX2                !
 ! D25   D(3,4,5,12)           179.5835         estimate D2E/DX2                !
 ! D26   D(11,4,5,6)           179.5877         estimate D2E/DX2                !
 ! D27   D(11,4,5,12)           -0.4108         estimate D2E/DX2                !
 ! D28   D(4,5,6,7)             -0.2495         estimate D2E/DX2                !
 ! D29   D(4,5,6,13)           179.7557         estimate D2E/DX2                !
 ! D30   D(12,5,6,7)           179.7489         estimate D2E/DX2                !
 ! D31   D(12,5,6,13)           -0.2458         estimate D2E/DX2                !
 ! D32   D(5,6,7,8)              0.2483         estimate D2E/DX2                !
 ! D33   D(5,6,7,14)          -179.7481         estimate D2E/DX2                !
 ! D34   D(13,6,7,8)          -179.757          estimate D2E/DX2                !
 ! D35   D(13,6,7,14)            0.2466         estimate D2E/DX2                !
 ! D36   D(6,7,8,3)              0.4206         estimate D2E/DX2                !
 ! D37   D(6,7,8,15)          -179.5897         estimate D2E/DX2                !
 ! D38   D(14,7,8,3)          -179.583          estimate D2E/DX2                !
 ! D39   D(14,7,8,15)            0.4068         estimate D2E/DX2                !
 --------------------------------------------------------------------------------
 Trust Radius=3.00D-01 FncErr=1.00D-07 GrdErr=1.00D-06 EigMax=2.50D+02 EigMin=1.00D-04
 Number of steps in this run=     97 maximum allowed number of steps=    108.
 GradGradGradGradGradGradGradGradGradGradGradGradGradGradGradGradGradGrad

 Leave Link  103 at Mon Oct 14 01:34:01 2019, MaxMem= 10737418240 cpu:               0.2 elap:               0.0
 (Enter /apps/cent7/gaussian/g16-A.03/g16-haswell/g16/l202.exe)
                          Input orientation:                          
 ---------------------------------------------------------------------
 Center     Atomic      Atomic             Coordinates (Angstroms)
 Number     Number       Type             X           Y           Z
 ---------------------------------------------------------------------
      1          8           0        2.011500   -1.396900   -0.223100
      2         16           0        0.580500   -1.067600   -0.870400
      3          6           0       -0.410300   -0.118400    0.250500
      4          6           0       -1.376700    0.782600   -0.244600
      5          6           0       -2.165600    1.532700    0.645700
      6          6           0       -1.998500    1.379400    2.034000
      7          6           0       -1.046300    0.472300    2.533000
      8          6           0       -0.256700   -0.278500    1.643900
      9          6           0       -0.288600   -2.637600   -1.237100
     10          8           0        0.815700   -0.264000   -2.239500
     11          1           0       -1.514300    0.899700   -1.319500
     12          1           0       -2.906500    2.232800    0.259800
     13          1           0       -2.607500    1.964000    2.723600
     14          1           0       -0.920300    0.351100    3.608900
     15          1           0        0.475200   -0.985100    2.035100
     16          1           0       -0.560700   -3.129000   -0.303000
     17          1           0       -1.189800   -2.428000   -1.813300
     18          1           0        0.367500   -3.290100   -1.813300
 ---------------------------------------------------------------------
                    Distance matrix (angstroms):
                    1          2          3          4          5
     1  O    0.000000
     2  S    1.604742   0.000000
     3  C    2.779204   1.771745   0.000000
     4  C    4.028720   2.765049   1.410976   0.000000
     5  C    5.175474   4.074455   2.442006   1.406288   0.000000
     6  C    5.374239   4.590707   2.818981   2.436149   1.406698
     7  C    4.521077   4.074420   2.441972   2.814340   2.437044
     8  C    3.143444   2.765011   1.410953   2.438599   2.814382
     9  C    2.803211   1.831585   2.928162   3.723813   4.945651
    10  O    2.603703   1.604845   2.779276   3.143504   4.521135
    11  H    4.348302   2.908633   2.172612   1.089980   2.164923
    12  H    6.131447   4.932460   3.429175   2.167438   1.089950
    13  H    6.427585   5.680738   3.909003   3.423563   2.167709
    14  H    5.131781   4.932468   3.429195   3.904351   3.424544
    15  H    2.762112   2.908578   2.172574   3.428021   3.904302
    16  H    3.102059   2.423561   3.064750   3.996233   5.020676
    17  H    3.720245   2.423574   3.193923   3.578226   4.762983
    18  H    2.969121   2.423620   3.863150   4.699993   5.976845
                    6          7          8          9         10
     6  C    0.000000
     7  C    1.406597   0.000000
     8  C    2.436119   1.406296   0.000000
     9  C    5.455286   4.945629   3.723779   0.000000
    10  O    5.374317   5.175513   4.028777   2.803259   0.000000
    11  H    3.422064   3.904286   3.428039   3.744546   2.762155
    12  H    2.168073   3.424492   3.904331   5.728430   5.131791
    13  H    1.090040   2.167681   3.423568   6.499166   6.427647
    14  H    2.168000   1.090012   2.167484   5.728446   6.131544
    15  H    3.421995   2.164921   1.089953   3.744521   4.348348
    16  H    5.277737   4.609562   3.465283   1.089979   3.721926
    17  H    5.472843   5.227108   4.176513   1.090000   2.981036
    18  H    6.496453   5.919866   4.627266   1.090060   3.088658
                   11         12         13         14         15
    11  H    0.000000
    12  H    2.491900   0.000000
    13  H    4.321398   2.496390   0.000000
    14  H    4.994289   4.324611   2.496367   0.000000
    15  H    4.331734   4.994243   4.321373   2.491926   0.000000
    16  H    4.262986   5.879492   6.268042   5.248178   3.337081
    17  H    3.379752   5.382180   6.471708   6.098875   4.434452
    18  H    4.619462   6.746795   7.552460   6.657103   4.487183
                   16         17         18
    16  H    0.000000
    17  H    1.779936   0.000000
    18  H    1.780032   1.780000   0.000000
 Stoichiometry    C7H8O2S
 Framework group  C1[X(C7H8O2S)]
 Deg. of freedom    48
 Full point group                 C1      NOp   1
 Largest Abelian subgroup         C1      NOp   1
 Largest concise Abelian subgroup C1      NOp   1
                         Standard orientation:                         
 ---------------------------------------------------------------------
 Center     Atomic      Atomic             Coordinates (Angstroms)
 Number     Number       Type             X           Y           Z
 ---------------------------------------------------------------------
      1          8           0       -1.983764   -1.301818   -0.874414
      2         16           0       -1.440340   -0.000026   -0.109414
      3          6           0        0.330535   -0.000004   -0.053883
      4          6           0        1.039654    1.219306   -0.017994
      5          6           0        2.445116    1.218549    0.030183
      6          6           0        3.147543   -0.000032    0.051588
      7          6           0        2.445115   -1.218494    0.030140
      8          6           0        1.039644   -1.219293   -0.018010
      9          6           0       -2.081519   -0.000044    1.606276
     10          8           0       -1.983819    1.301884   -0.874389
     11          1           0        0.499324    2.165883   -0.027625
     12          1           0        2.989982    2.162309    0.050957
     13          1           0        4.237073    0.000001    0.084908
     14          1           0        2.990022   -2.162302    0.050896
     15          1           0        0.499338   -2.165851   -0.027706
     16          1           0       -1.618994   -0.812286    2.166979
     17          1           0       -1.844618    0.951279    2.082682
     18          1           0       -3.162556   -0.139073    1.590166
 ---------------------------------------------------------------------
 Rotational constants (GHZ):           2.3715833           0.7729675           0.6897146
 Leave Link  202 at Mon Oct 14 01:34:01 2019, MaxMem= 10737418240 cpu:               0.4 elap:               0.0
 (Enter /apps/cent7/gaussian/g16-A.03/g16-haswell/g16/l301.exe)
 Standard basis: 6-31G(d) (6D, 7F)
 Ernie: Thresh=  0.10000D-02 Tol=  0.10000D-05 Strict=F.
 There are   170 symmetry adapted cartesian basis functions of A   symmetry.
 There are   170 symmetry adapted basis functions of A   symmetry.
   170 basis functions,   336 primitive gaussians,   170 cartesian basis functions
    41 alpha electrons       41 beta electrons
       nuclear repulsion energy       608.4651520005 Hartrees.
 IExCor=  402 DFT=T Ex+Corr=B3LYP ExCW=0 ScaHFX=  0.200000
 ScaDFX=  0.800000  0.720000  1.000000  0.810000 ScalE2=  1.000000  1.000000
 IRadAn=      5 IRanWt=     -1 IRanGd=            0 ICorTp=0 IEmpDi=  4
 NAtoms=   18 NActive=   18 NUniq=   18 SFac= 1.00D+00 NAtFMM=   60 NAOKFM=F Big=F
 Integral buffers will be    131072 words long.
 Raffenetti 2 integral format.
 Two-electron integral symmetry is turned on.
 Leave Link  301 at Mon Oct 14 01:34:01 2019, MaxMem= 10737418240 cpu:               1.3 elap:               0.1
 (Enter /apps/cent7/gaussian/g16-A.03/g16-haswell/g16/l302.exe)
 NPDir=0 NMtPBC=     1 NCelOv=     1 NCel=       1 NClECP=     1 NCelD=      1
         NCelK=      1 NCelE2=     1 NClLst=     1 CellRange=     0.0.
 One-electron integrals computed using PRISM.
 One-electron integral symmetry used in STVInt
 NBasis=   170 RedAO= T EigKep=  5.44D-04  NBF=   170
 NBsUse=   170 1.00D-06 EigRej= -1.00D+00 NBFU=   170
 Precomputing XC quadrature grid using
 IXCGrd= 4 IRadAn=           5 IRanWt=          -1 IRanGd=           0 AccXCQ= 0.00D+00.
 Generated NRdTot=       0 NPtTot=           0 NUsed=           0 NTot=          32
 NSgBfM=   170   170   170   170   170 MxSgAt=    18 MxSgA2=    18.
 Leave Link  302 at Mon Oct 14 01:34:01 2019, MaxMem= 10737418240 cpu:               3.4 elap:               0.2
 (Enter /apps/cent7/gaussian/g16-A.03/g16-haswell/g16/l303.exe)
 DipDrv:  MaxL=1.
 Leave Link  303 at Mon Oct 14 01:34:01 2019, MaxMem= 10737418240 cpu:               0.8 elap:               0.1
 (Enter /apps/cent7/gaussian/g16-A.03/g16-haswell/g16/l401.exe)
 ExpMin= 1.17D-01 ExpMax= 2.19D+04 ExpMxC= 3.30D+03 IAcc=3 IRadAn=         5 AccDes= 0.00D+00
 Harris functional with IExCor=  402 and IRadAn=       5 diagonalized for initial guess.
 HarFok:  IExCor=  402 AccDes= 0.00D+00 IRadAn=         5 IDoV= 1 UseB2=F ITyADJ=14
 ICtDFT=  3500011 ScaDFX=  1.000000  1.000000  1.000000  1.000000
 FoFCou: FMM=F IPFlag=           0 FMFlag=      100000 FMFlg1=           0
         NFxFlg=           0 DoJE=T BraDBF=F KetDBF=T FulRan=T
         wScrn=  0.000000 ICntrl=       500 IOpCl=  0 I1Cent=   200000004 NGrid=           0
         NMat0=    1 NMatS0=      1 NMatT0=    0 NMatD0=    1 NMtDS0=    0 NMtDT0=    0
 Petite list used in FoFCou.
 Harris En= -820.182706572404    
 JPrj=0 DoOrth=F DoCkMO=F.
 Leave Link  401 at Mon Oct 14 01:34:02 2019, MaxMem= 10737418240 cpu:               7.7 elap:               0.4
 (Enter /apps/cent7/gaussian/g16-A.03/g16-haswell/g16/l502.exe)
 Integral symmetry usage will be decided dynamically.
 Closed shell SCF:
 Using DIIS extrapolation, IDIIS=  1040.
 NGot= 10737418240 LenX= 10737354383 LenY= 10737325042
 Requested convergence on RMS density matrix=1.00D-08 within 128 cycles.
 Requested convergence on MAX density matrix=1.00D-06.
 Requested convergence on             energy=1.00D-06.
 No special actions if energy rises.
 Fock matrices will be formed incrementally for  20 cycles.
 Integral accuracy reduced to 1.0D-05 until final iterations.

 Cycle   1  Pass 0  IDiag  1:
 FoFJK:  IHMeth= 1 ICntrl=       0 DoSepK=F KAlg= 0 I1Cent=           0 FoldK=F
 IRaf= 920000000 NMat=       1 IRICut=       1 DoRegI=T DoRafI=F ISym2E= 0 IDoP0=0 IntGTp=1.
 FoFCou: FMM=F IPFlag=           0 FMFlag=      100000 FMFlg1=           0
         NFxFlg=           0 DoJE=F BraDBF=F KetDBF=F FulRan=T
         wScrn=  0.000000 ICntrl=         0 IOpCl=  0 I1Cent=           0 NGrid=           0
         NMat0=    1 NMatS0=      1 NMatT0=    0 NMatD0=    1 NMtDS0=    0 NMtDT0=    0
 Symmetry not used in FoFCou.
 E= -819.627836925907    
 DIIS: error= 5.06D-02 at cycle   1 NSaved=   1.
 NSaved= 1 IEnMin= 1 EnMin= -819.627836925907     IErMin= 1 ErrMin= 5.06D-02
 ErrMax= 5.06D-02  0.00D+00 EMaxC= 1.00D-01 BMatC= 5.27D-01 BMatP= 5.27D-01
 IDIUse=3 WtCom= 4.94D-01 WtEn= 5.06D-01
 Coeff-Com:  0.100D+01
 Coeff-En:   0.100D+01
 Coeff:      0.100D+01
 Gap=     0.191 Goal=   None    Shift=    0.000
 GapD=    0.191 DampG=1.000 DampE=0.500 DampFc=0.5000 IDamp=-1.
 Damping current iteration by 5.00D-01
 RMSDP=1.61D-02 MaxDP=6.54D-01              OVMax= 3.69D-01

 Cycle   2  Pass 0  IDiag  1:
 RMSU=  8.03D-03    CP:  1.01D+00
 E= -819.524857869827     Delta-E=        0.102979056080 Rises=F Damp=T
 DIIS: error= 3.38D-02 at cycle   2 NSaved=   2.
 NSaved= 2 IEnMin= 1 EnMin= -819.627836925907     IErMin= 2 ErrMin= 3.38D-02
 ErrMax= 3.38D-02  0.00D+00 EMaxC= 1.00D-01 BMatC= 2.34D-01 BMatP= 5.27D-01
 IDIUse=3 WtCom= 6.62D-01 WtEn= 3.38D-01
 Coeff-Com:  0.381D+00 0.619D+00
 Coeff-En:   0.567D+00 0.433D+00
 Coeff:      0.444D+00 0.556D+00
 Gap=     0.241 Goal=   None    Shift=    0.000
 RMSDP=5.49D-03 MaxDP=1.68D-01 DE= 1.03D-01 OVMax= 3.44D-01

 Cycle   3  Pass 0  IDiag  1:
 RMSU=  3.25D-03    CP:  9.92D-01  4.52D-01
 E= -820.032681060945     Delta-E=       -0.507823191118 Rises=F Damp=F
 DIIS: error= 2.05D-02 at cycle   3 NSaved=   3.
 NSaved= 3 IEnMin= 3 EnMin= -820.032681060945     IErMin= 3 ErrMin= 2.05D-02
 ErrMax= 2.05D-02  0.00D+00 EMaxC= 1.00D-01 BMatC= 5.88D-02 BMatP= 2.34D-01
 IDIUse=3 WtCom= 7.95D-01 WtEn= 2.05D-01
 Coeff-Com:  0.191D+00 0.318D+00 0.491D+00
 Coeff-En:   0.000D+00 0.000D+00 0.100D+01
 Coeff:      0.152D+00 0.253D+00 0.595D+00
 Gap=     0.229 Goal=   None    Shift=    0.000
 RMSDP=2.41D-03 MaxDP=5.98D-02 DE=-5.08D-01 OVMax= 7.05D-02

 Cycle   4  Pass 0  IDiag  1:
 RMSU=  1.51D-03    CP:  1.00D+00  5.30D-01  4.63D-01
 E= -820.083997081760     Delta-E=       -0.051316020816 Rises=F Damp=F
 DIIS: error= 7.98D-03 at cycle   4 NSaved=   4.
 NSaved= 4 IEnMin= 4 EnMin= -820.083997081760     IErMin= 4 ErrMin= 7.98D-03
 ErrMax= 7.98D-03  0.00D+00 EMaxC= 1.00D-01 BMatC= 1.27D-02 BMatP= 5.88D-02
 IDIUse=3 WtCom= 9.20D-01 WtEn= 7.98D-02
 Coeff-Com:  0.341D-01 0.294D-01 0.319D+00 0.617D+00
 Coeff-En:   0.000D+00 0.000D+00 0.168D+00 0.832D+00
 Coeff:      0.313D-01 0.270D-01 0.307D+00 0.634D+00
 Gap=     0.196 Goal=   None    Shift=    0.000
 RMSDP=8.51D-04 MaxDP=2.66D-02 DE=-5.13D-02 OVMax= 3.14D-02

 Cycle   5  Pass 0  IDiag  1:
 RMSU=  3.12D-04    CP:  9.99D-01  4.97D-01  6.29D-01  6.61D-01
 E= -820.096066684184     Delta-E=       -0.012069602423 Rises=F Damp=F
 DIIS: error= 3.17D-03 at cycle   5 NSaved=   5.
 NSaved= 5 IEnMin= 5 EnMin= -820.096066684184     IErMin= 5 ErrMin= 3.17D-03
 ErrMax= 3.17D-03  0.00D+00 EMaxC= 1.00D-01 BMatC= 6.41D-04 BMatP= 1.27D-02
 IDIUse=3 WtCom= 9.68D-01 WtEn= 3.17D-02
 Coeff-Com:  0.703D-02 0.242D-03 0.134D+00 0.333D+00 0.526D+00
 Coeff-En:   0.000D+00 0.000D+00 0.000D+00 0.000D+00 0.100D+01
 Coeff:      0.681D-02 0.235D-03 0.130D+00 0.322D+00 0.541D+00
 Gap=     0.196 Goal=   None    Shift=    0.000
 RMSDP=2.10D-04 MaxDP=5.71D-03 DE=-1.21D-02 OVMax= 1.50D-02

 Cycle   6  Pass 0  IDiag  1:
 RMSU=  1.21D-04    CP:  9.99D-01  5.00D-01  6.20D-01  7.04D-01  5.07D-01
 E= -820.096615828886     Delta-E=       -0.000549144702 Rises=F Damp=F
 DIIS: error= 1.57D-03 at cycle   6 NSaved=   6.
 NSaved= 6 IEnMin= 6 EnMin= -820.096615828886     IErMin= 6 ErrMin= 1.57D-03
 ErrMax= 1.57D-03  0.00D+00 EMaxC= 1.00D-01 BMatC= 1.31D-04 BMatP= 6.41D-04
 IDIUse=3 WtCom= 9.84D-01 WtEn= 1.57D-02
 Coeff-Com:  0.134D-02-0.378D-02 0.476D-01 0.129D+00 0.342D+00 0.483D+00
 Coeff-En:   0.000D+00 0.000D+00 0.000D+00 0.000D+00 0.189D+00 0.811D+00
 Coeff:      0.132D-02-0.372D-02 0.468D-01 0.127D+00 0.340D+00 0.488D+00
 Gap=     0.195 Goal=   None    Shift=    0.000
 RMSDP=8.18D-05 MaxDP=1.88D-03 DE=-5.49D-04 OVMax= 5.33D-03

 Cycle   7  Pass 0  IDiag  1:
 RMSU=  4.29D-05    CP:  9.99D-01  4.99D-01  6.23D-01  7.02D-01  6.12D-01
                    CP:  5.10D-01
 E= -820.096758160752     Delta-E=       -0.000142331867 Rises=F Damp=F
 DIIS: error= 1.53D-04 at cycle   7 NSaved=   7.
 NSaved= 7 IEnMin= 7 EnMin= -820.096758160752     IErMin= 7 ErrMin= 1.53D-04
 ErrMax= 1.53D-04  0.00D+00 EMaxC= 1.00D-01 BMatC= 5.91D-06 BMatP= 1.31D-04
 IDIUse=3 WtCom= 9.98D-01 WtEn= 1.53D-03
 Coeff-Com:  0.291D-03-0.213D-02 0.118D-01 0.333D-01 0.123D+00 0.252D+00
 Coeff-Com:  0.581D+00
 Coeff-En:   0.000D+00 0.000D+00 0.000D+00 0.000D+00 0.000D+00 0.000D+00
 Coeff-En:   0.100D+01
 Coeff:      0.290D-03-0.212D-02 0.118D-01 0.333D-01 0.123D+00 0.252D+00
 Coeff:      0.582D+00
 Gap=     0.196 Goal=   None    Shift=    0.000
 RMSDP=2.39D-05 MaxDP=5.81D-04 DE=-1.42D-04 OVMax= 7.80D-04

 Cycle   8  Pass 0  IDiag  1:
 RMSU=  1.41D-05    CP:  9.99D-01  4.98D-01  6.23D-01  7.00D-01  6.09D-01
                    CP:  5.80D-01  6.26D-01
 E= -820.096762786635     Delta-E=       -0.000004625883 Rises=F Damp=F
 DIIS: error= 9.88D-05 at cycle   8 NSaved=   8.
 NSaved= 8 IEnMin= 8 EnMin= -820.096762786635     IErMin= 8 ErrMin= 9.88D-05
 ErrMax= 9.88D-05  0.00D+00 EMaxC= 1.00D-01 BMatC= 1.60D-06 BMatP= 5.91D-06
 IDIUse=1 WtCom= 1.00D+00 WtEn= 0.00D+00
 Coeff-Com:  0.102D-03-0.111D-02 0.293D-02 0.860D-02 0.468D-01 0.119D+00
 Coeff-Com:  0.398D+00 0.426D+00
 Coeff:      0.102D-03-0.111D-02 0.293D-02 0.860D-02 0.468D-01 0.119D+00
 Coeff:      0.398D+00 0.426D+00
 Gap=     0.196 Goal=   None    Shift=    0.000
 RMSDP=1.02D-05 MaxDP=2.32D-04 DE=-4.63D-06 OVMax= 4.30D-04

 Cycle   9  Pass 0  IDiag  1:
 RMSU=  6.90D-06    CP:  9.99D-01  4.98D-01  6.23D-01  7.00D-01  6.10D-01
                    CP:  5.82D-01  6.71D-01  4.97D-01
 E= -820.096763957545     Delta-E=       -0.000001170910 Rises=F Damp=F
 DIIS: error= 3.28D-05 at cycle   9 NSaved=   9.
 NSaved= 9 IEnMin= 9 EnMin= -820.096763957545     IErMin= 9 ErrMin= 3.28D-05
 ErrMax= 3.28D-05  0.00D+00 EMaxC= 1.00D-01 BMatC= 2.17D-07 BMatP= 1.60D-06
 IDIUse=1 WtCom= 1.00D+00 WtEn= 0.00D+00
 Coeff-Com:  0.363D-04-0.322D-03-0.373D-03-0.997D-03 0.551D-02 0.257D-01
 Coeff-Com:  0.151D+00 0.293D+00 0.527D+00
 Coeff:      0.363D-04-0.322D-03-0.373D-03-0.997D-03 0.551D-02 0.257D-01
 Coeff:      0.151D+00 0.293D+00 0.527D+00
 Gap=     0.196 Goal=   None    Shift=    0.000
 RMSDP=3.36D-06 MaxDP=7.58D-05 DE=-1.17D-06 OVMax= 1.25D-04

 Initial convergence to 1.0D-05 achieved.  Increase integral accuracy.
 Cycle  10  Pass 1  IDiag  1:
 E= -820.096752118541     Delta-E=        0.000011839004 Rises=F Damp=F
 DIIS: error= 1.95D-05 at cycle   1 NSaved=   1.
 NSaved= 1 IEnMin= 1 EnMin= -820.096752118541     IErMin= 1 ErrMin= 1.95D-05
 ErrMax= 1.95D-05  0.00D+00 EMaxC= 1.00D-01 BMatC= 3.57D-08 BMatP= 3.57D-08
 IDIUse=1 WtCom= 1.00D+00 WtEn= 0.00D+00
 Coeff-Com:  0.100D+01
 Coeff:      0.100D+01
 Gap=     0.196 Goal=   None    Shift=    0.000
 RMSDP=3.36D-06 MaxDP=7.58D-05 DE= 1.18D-05 OVMax= 6.75D-05

 Cycle  11  Pass 1  IDiag  1:
 RMSU=  1.31D-05    CP:  1.00D+00
 E= -820.096752116679     Delta-E=        0.000000001861 Rises=F Damp=F
 DIIS: error= 1.10D-05 at cycle   2 NSaved=   2.
 NSaved= 2 IEnMin= 1 EnMin= -820.096752118541     IErMin= 2 ErrMin= 1.10D-05
 ErrMax= 1.10D-05  0.00D+00 EMaxC= 1.00D-01 BMatC= 3.70D-08 BMatP= 3.57D-08
 IDIUse=1 WtCom= 1.00D+00 WtEn= 0.00D+00
 Coeff-Com:  0.506D+00 0.494D+00
 Coeff:      0.506D+00 0.494D+00
 Gap=     0.196 Goal=   None    Shift=    0.000
 RMSDP=1.69D-06 MaxDP=4.73D-05 DE= 1.86D-09 OVMax= 5.88D-05

 Cycle  12  Pass 1  IDiag  1:
 RMSU=  1.69D-06    CP:  1.00D+00  1.00D+00
 E= -820.096752140416     Delta-E=       -0.000000023736 Rises=F Damp=F
 DIIS: error= 8.23D-06 at cycle   3 NSaved=   3.
 NSaved= 3 IEnMin= 3 EnMin= -820.096752140416     IErMin= 3 ErrMin= 8.23D-06
 ErrMax= 8.23D-06  0.00D+00 EMaxC= 1.00D-01 BMatC= 1.14D-08 BMatP= 3.57D-08
 IDIUse=1 WtCom= 1.00D+00 WtEn= 0.00D+00
 Coeff-Com:  0.990D-01 0.346D+00 0.555D+00
 Coeff:      0.990D-01 0.346D+00 0.555D+00
 Gap=     0.196 Goal=   None    Shift=    0.000
 RMSDP=9.27D-07 MaxDP=2.26D-05 DE=-2.37D-08 OVMax= 3.92D-05

 Cycle  13  Pass 1  IDiag  1:
 RMSU=  5.12D-07    CP:  1.00D+00  1.01D+00  5.52D-01
 E= -820.096752147175     Delta-E=       -0.000000006759 Rises=F Damp=F
 DIIS: error= 3.93D-06 at cycle   4 NSaved=   4.
 NSaved= 4 IEnMin= 4 EnMin= -820.096752147175     IErMin= 4 ErrMin= 3.93D-06
 ErrMax= 3.93D-06  0.00D+00 EMaxC= 1.00D-01 BMatC= 3.27D-09 BMatP= 1.14D-08
 IDIUse=1 WtCom= 1.00D+00 WtEn= 0.00D+00
 Coeff-Com: -0.438D-02 0.183D+00 0.415D+00 0.406D+00
 Coeff:     -0.438D-02 0.183D+00 0.415D+00 0.406D+00
 Gap=     0.196 Goal=   None    Shift=    0.000
 RMSDP=3.46D-07 MaxDP=7.91D-06 DE=-6.76D-09 OVMax= 1.31D-05

 Cycle  14  Pass 1  IDiag  1:
 RMSU=  8.05D-08    CP:  1.00D+00  1.01D+00  6.40D-01  4.10D-01
 E= -820.096752149982     Delta-E=       -0.000000002807 Rises=F Damp=F
 DIIS: error= 2.99D-07 at cycle   5 NSaved=   5.
 NSaved= 5 IEnMin= 5 EnMin= -820.096752149982     IErMin= 5 ErrMin= 2.99D-07
 ErrMax= 2.99D-07  0.00D+00 EMaxC= 1.00D-01 BMatC= 1.49D-11 BMatP= 3.27D-09
 IDIUse=1 WtCom= 1.00D+00 WtEn= 0.00D+00
 Coeff-Com: -0.326D-02 0.873D-01 0.202D+00 0.205D+00 0.509D+00
 Coeff:     -0.326D-02 0.873D-01 0.202D+00 0.205D+00 0.509D+00
 Gap=     0.196 Goal=   None    Shift=    0.000
 RMSDP=3.69D-08 MaxDP=1.60D-06 DE=-2.81D-09 OVMax= 1.31D-06

 Cycle  15  Pass 1  IDiag  1:
 RMSU=  2.71D-08    CP:  1.00D+00  1.01D+00  6.41D-01  4.16D-01  6.97D-01
 E= -820.096752149999     Delta-E=       -0.000000000017 Rises=F Damp=F
 DIIS: error= 1.77D-07 at cycle   6 NSaved=   6.
 NSaved= 6 IEnMin= 6 EnMin= -820.096752149999     IErMin= 6 ErrMin= 1.77D-07
 ErrMax= 1.77D-07  0.00D+00 EMaxC= 1.00D-01 BMatC= 2.82D-12 BMatP= 1.49D-11
 IDIUse=1 WtCom= 1.00D+00 WtEn= 0.00D+00
 Coeff-Com: -0.179D-02 0.392D-01 0.918D-01 0.951D-01 0.322D+00 0.454D+00
 Coeff:     -0.179D-02 0.392D-01 0.918D-01 0.951D-01 0.322D+00 0.454D+00
 Gap=     0.196 Goal=   None    Shift=    0.000
 RMSDP=1.32D-08 MaxDP=3.42D-07 DE=-1.68D-11 OVMax= 6.55D-07

 Cycle  16  Pass 1  IDiag  1:
 RMSU=  1.04D-08    CP:  1.00D+00  1.01D+00  6.41D-01  4.17D-01  7.50D-01
                    CP:  7.54D-01
 E= -820.096752149999     Delta-E=        0.000000000000 Rises=F Damp=F
 DIIS: error= 5.03D-08 at cycle   7 NSaved=   7.
 NSaved= 7 IEnMin= 6 EnMin= -820.096752149999     IErMin= 7 ErrMin= 5.03D-08
 ErrMax= 5.03D-08  0.00D+00 EMaxC= 1.00D-01 BMatC= 4.09D-13 BMatP= 2.82D-12
 IDIUse=1 WtCom= 1.00D+00 WtEn= 0.00D+00
 Coeff-Com: -0.293D-03 0.314D-02 0.802D-02 0.977D-02 0.835D-01 0.289D+00
 Coeff-Com:  0.607D+00
 Coeff:     -0.293D-03 0.314D-02 0.802D-02 0.977D-02 0.835D-01 0.289D+00
 Coeff:      0.607D+00
 Gap=     0.196 Goal=   None    Shift=    0.000
 RMSDP=6.16D-09 MaxDP=2.05D-07 DE= 4.55D-13 OVMax= 2.25D-07

 SCF Done:  E(RB3LYP) =  -820.096752150     A.U. after   16 cycles
            NFock= 16  Conv=0.62D-08     -V/T= 2.0075
 KE= 8.139820297385D+02 PE=-3.143764418783D+03 EE= 9.012204848936D+02
 Leave Link  502 at Mon Oct 14 01:34:05 2019, MaxMem= 10737418240 cpu:              79.2 elap:               3.4
 (Enter /apps/cent7/gaussian/g16-A.03/g16-haswell/g16/l601.exe)
 Copying SCF densities to generalized density rwf, IOpCl= 0 IROHF=0.

 **********************************************************************

            Population analysis using the SCF density.

 **********************************************************************

 Orbital symmetries:
       Occupied  (A) (A) (A) (A) (A) (A) (A) (A) (A) (A) (A) (A)
                 (A) (A) (A) (A) (A) (A) (A) (A) (A) (A) (A) (A)
                 (A) (A) (A) (A) (A) (A) (A) (A) (A) (A) (A) (A)
                 (A) (A) (A) (A) (A)
       Virtual   (A) (A) (A) (A) (A) (A) (A) (A) (A) (A) (A) (A)
                 (A) (A) (A) (A) (A) (A) (A) (A) (A) (A) (A) (A)
                 (A) (A) (A) (A) (A) (A) (A) (A) (A) (A) (A) (A)
                 (A) (A) (A) (A) (A) (A) (A) (A) (A) (A) (A) (A)
                 (A) (A) (A) (A) (A) (A) (A) (A) (A) (A) (A) (A)
                 (A) (A) (A) (A) (A) (A) (A) (A) (A) (A) (A) (A)
                 (A) (A) (A) (A) (A) (A) (A) (A) (A) (A) (A) (A)
                 (A) (A) (A) (A) (A) (A) (A) (A) (A) (A) (A) (A)
                 (A) (A) (A) (A) (A) (A) (A) (A) (A) (A) (A) (A)
                 (A) (A) (A) (A) (A) (A) (A) (A) (A) (A) (A) (A)
                 (A) (A) (A) (A) (A) (A) (A) (A) (A)
 The electronic state is 1-A.
 Alpha  occ. eigenvalues --  -89.09113 -19.12549 -19.12521 -10.25003 -10.24223
 Alpha  occ. eigenvalues --  -10.23154 -10.23152 -10.22695 -10.22418 -10.22413
 Alpha  occ. eigenvalues --   -8.12035  -6.08406  -6.08393  -6.08380  -1.02149
 Alpha  occ. eigenvalues --   -0.91788  -0.88307  -0.80388  -0.77372  -0.76889
 Alpha  occ. eigenvalues --   -0.67814  -0.63466  -0.60261  -0.54296  -0.49974
 Alpha  occ. eigenvalues --   -0.48511  -0.47059  -0.46504  -0.46404  -0.44874
 Alpha  occ. eigenvalues --   -0.43433  -0.40254  -0.39220  -0.38542  -0.37381
 Alpha  occ. eigenvalues --   -0.29601  -0.28785  -0.28058  -0.27094  -0.26874
 Alpha  occ. eigenvalues --   -0.25277
 Alpha virt. eigenvalues --   -0.05708  -0.03316   0.02406   0.03007   0.06826
 Alpha virt. eigenvalues --    0.07536   0.09088   0.10465   0.12276   0.12749
 Alpha virt. eigenvalues --    0.14016   0.14610   0.15541   0.16661   0.17975
 Alpha virt. eigenvalues --    0.25750   0.27236   0.27794   0.28085   0.35608
 Alpha virt. eigenvalues --    0.37460   0.38525   0.42764   0.44997   0.50055
 Alpha virt. eigenvalues --    0.50866   0.52035   0.52151   0.54110   0.54763
 Alpha virt. eigenvalues --    0.54841   0.56516   0.57395   0.58110   0.59167
 Alpha virt. eigenvalues --    0.61463   0.63478   0.68803   0.69235   0.71613
 Alpha virt. eigenvalues --    0.78611   0.79192   0.80197   0.80651   0.81134
 Alpha virt. eigenvalues --    0.81923   0.82394   0.83538   0.85755   0.86182
 Alpha virt. eigenvalues --    0.88456   0.88877   0.91026   0.91598   0.92457
 Alpha virt. eigenvalues --    0.96010   0.98053   0.99868   1.03230   1.05248
 Alpha virt. eigenvalues --    1.05669   1.11305   1.12353   1.13361   1.14400
 Alpha virt. eigenvalues --    1.17149   1.18561   1.22022   1.27046   1.32512
 Alpha virt. eigenvalues --    1.38885   1.39901   1.41295   1.42204   1.44356
 Alpha virt. eigenvalues --    1.45963   1.47834   1.53250   1.60980   1.71948
 Alpha virt. eigenvalues --    1.72478   1.74670   1.76073   1.78770   1.85279
 Alpha virt. eigenvalues --    1.85750   1.86482   1.87031   1.88979   1.90675
 Alpha virt. eigenvalues --    1.94184   1.95795   1.97475   2.04097   2.06246
 Alpha virt. eigenvalues --    2.07768   2.08893   2.10531   2.10670   2.11484
 Alpha virt. eigenvalues --    2.11569   2.13411   2.22026   2.23182   2.25264
 Alpha virt. eigenvalues --    2.26642   2.27984   2.49752   2.53430   2.53682
 Alpha virt. eigenvalues --    2.59369   2.63441   2.65741   2.66093   2.70567
 Alpha virt. eigenvalues --    2.72084   2.74428   2.98305   3.31772   3.73380
 Alpha virt. eigenvalues --    3.88538   3.94918   4.04818   4.07976   4.11761
 Alpha virt. eigenvalues --    4.20023   4.29308   4.32063   4.62610
          Condensed to atoms (all electrons):
               1          2          3          4          5          6
     1  O    8.342937   0.350343  -0.042432   0.001356  -0.000026  -0.000002
     2  S    0.350343  14.130885   0.038827  -0.015794   0.003395  -0.000488
     3  C   -0.042432   0.038827   5.466941   0.472624  -0.030022  -0.034709
     4  C    0.001356  -0.015794   0.472624   4.965265   0.498517  -0.027752
     5  C   -0.000026   0.003395  -0.030022   0.498517   4.885829   0.538064
     6  C   -0.000002  -0.000488  -0.034709  -0.027752   0.538064   4.848138
     7  C    0.000321   0.003527  -0.030267  -0.034248  -0.033271   0.538034
     8  C    0.000234  -0.016678   0.472559  -0.044412  -0.034203  -0.027872
     9  C   -0.043097   0.108756  -0.048740  -0.002207  -0.000145   0.000004
    10  O   -0.051015   0.351057  -0.042161   0.000211   0.000319  -0.000003
    11  H    0.000065   0.003287  -0.047112   0.357671  -0.034806   0.004045
    12  H    0.000000  -0.000055   0.004477  -0.040140   0.363999  -0.040925
    13  H   -0.000000   0.000008   0.000463   0.004578  -0.040707   0.360539
    14  H    0.000001  -0.000054   0.004468   0.000560   0.004173  -0.040920
    15  H    0.007638   0.003407  -0.047298   0.004254   0.000347   0.004045
    16  H    0.000088  -0.004030   0.000309   0.000277  -0.000015   0.000002
    17  H    0.001301  -0.002563  -0.000312   0.000261   0.000025   0.000001
    18  H   -0.000134  -0.014946   0.002363  -0.000010   0.000001  -0.000000
               7          8          9         10         11         12
     1  O    0.000321   0.000234  -0.043097  -0.051015   0.000065   0.000000
     2  S    0.003527  -0.016678   0.108756   0.351057   0.003287  -0.000055
     3  C   -0.030267   0.472559  -0.048740  -0.042161  -0.047112   0.004477
     4  C   -0.034248  -0.044412  -0.002207   0.000211   0.357671  -0.040140
     5  C   -0.033271  -0.034203  -0.000145   0.000319  -0.034806   0.363999
     6  C    0.538034  -0.027872   0.000004  -0.000003   0.004045  -0.040925
     7  C    4.885708   0.498910  -0.000183  -0.000026   0.000350   0.004171
     8  C    0.498910   4.966324  -0.002506   0.001369   0.004267   0.000562
     9  C   -0.000183  -0.002506   5.618697  -0.043166  -0.000280   0.000001
    10  O   -0.000026   0.001369  -0.043166   8.342875   0.007642   0.000001
    11  H    0.000350   0.004267  -0.000280   0.007642   0.525836  -0.004970
    12  H    0.004171   0.000562   0.000001   0.000001  -0.004970   0.563712
    13  H   -0.040708   0.004577  -0.000000  -0.000000  -0.000138  -0.004894
    14  H    0.363986  -0.040124   0.000001   0.000000   0.000012  -0.000160
    15  H   -0.034730   0.357681  -0.000232   0.000065  -0.000144   0.000012
    16  H    0.000030   0.000336   0.333925   0.001266  -0.000004   0.000000
    17  H   -0.000003   0.000217   0.334496   0.000168   0.000243   0.000000
    18  H    0.000001   0.000001   0.363700  -0.000586  -0.000010  -0.000000
              13         14         15         16         17         18
     1  O   -0.000000   0.000001   0.007638   0.000088   0.001301  -0.000134
     2  S    0.000008  -0.000054   0.003407  -0.004030  -0.002563  -0.014946
     3  C    0.000463   0.004468  -0.047298   0.000309  -0.000312   0.002363
     4  C    0.004578   0.000560   0.004254   0.000277   0.000261  -0.000010
     5  C   -0.040707   0.004173   0.000347  -0.000015   0.000025   0.000001
     6  C    0.360539  -0.040920   0.004045   0.000002   0.000001  -0.000000
     7  C   -0.040708   0.363986  -0.034730   0.000030  -0.000003   0.000001
     8  C    0.004577  -0.040124   0.357681   0.000336   0.000217   0.000001
     9  C   -0.000000   0.000001  -0.000232   0.333925   0.334496   0.363700
    10  O   -0.000000   0.000000   0.000065   0.001266   0.000168  -0.000586
    11  H   -0.000138   0.000012  -0.000144  -0.000004   0.000243  -0.000010
    12  H   -0.004894  -0.000160   0.000012   0.000000   0.000000  -0.000000
    13  H    0.569295  -0.004895  -0.000138  -0.000000  -0.000000   0.000000
    14  H   -0.004895   0.563698  -0.004968   0.000000   0.000000  -0.000000
    15  H   -0.000138  -0.004968   0.525569   0.000249  -0.000002  -0.000019
    16  H   -0.000000   0.000000   0.000249   0.512590  -0.027152  -0.021185
    17  H   -0.000000   0.000000  -0.000002  -0.027152   0.505461  -0.021019
    18  H    0.000000  -0.000000  -0.000019  -0.021185  -0.021019   0.453788
 Mulliken charges:
               1
     1  O   -0.567576
     2  S    1.061116
     3  C   -0.139978
     4  C   -0.141010
     5  C   -0.121473
     6  C   -0.120201
     7  C   -0.121601
     8  C   -0.141244
     9  C   -0.619024
    10  O   -0.568017
    11  H    0.184046
    12  H    0.154209
    13  H    0.152018
    14  H    0.154220
    15  H    0.184265
    16  H    0.203314
    17  H    0.208879
    18  H    0.238056
 Sum of Mulliken charges =  -0.00000
 Mulliken charges with hydrogens summed into heavy atoms:
               1
     1  O   -0.567576
     2  S    1.061116
     3  C   -0.139978
     4  C    0.043036
     5  C    0.032735
     6  C    0.031817
     7  C    0.032619
     8  C    0.043021
     9  C    0.031226
    10  O   -0.568017
 Electronic spatial extent (au):  <R**2>=           1721.9197
 Charge=             -0.0000 electrons
 Dipole moment (field-independent basis, Debye):
    X=              4.7047    Y=             -0.0043    Z=              4.9834  Tot=              6.8533
 Quadrupole moment (field-independent basis, Debye-Ang):
   XX=            -61.8851   YY=            -64.5513   ZZ=            -66.8448
   XY=              0.0364   XZ=            -10.6638   YZ=              0.0061
 Traceless Quadrupole moment (field-independent basis, Debye-Ang):
   XX=              2.5420   YY=             -0.1242   ZZ=             -2.4178
   XY=              0.0364   XZ=            -10.6638   YZ=              0.0061
 Octapole moment (field-independent basis, Debye-Ang**2):
  XXX=             23.0063  YYY=              0.3066  ZZZ=              4.2920  XYY=             17.4786
  XXY=             -0.4008  XXZ=             22.5730  XZZ=            -13.6032  YZZ=             -0.0208
  YYZ=              5.6851  XYZ=             -0.0630
 Hexadecapole moment (field-independent basis, Debye-Ang**3):
 XXXX=          -1414.9587 YYYY=           -414.7581 ZZZZ=           -239.9900 XXXY=              2.3190
 XXXZ=            -43.6673 YYYX=             -0.6497 YYYZ=              0.6612 ZZZX=             -9.2746
 ZZZY=             -0.1391 XXYY=           -332.6261 XXZZ=           -311.3486 YYZZ=           -119.3644
 XXYZ=             -0.2876 YYXZ=             -8.9577 ZZXY=             -0.2501
 N-N= 6.084651520005D+02 E-N=-3.143764419375D+03  KE= 8.139820297385D+02
 No NMR shielding tensors so no spin-rotation constants.
 Leave Link  601 at Mon Oct 14 01:34:05 2019, MaxMem= 10737418240 cpu:               2.1 elap:               0.1
 (Enter /apps/cent7/gaussian/g16-A.03/g16-haswell/g16/l701.exe)
 ... and contract with generalized density number  0.
 Compute integral first derivatives.
 Leave Link  701 at Mon Oct 14 01:34:05 2019, MaxMem= 10737418240 cpu:               3.1 elap:               0.2
 (Enter /apps/cent7/gaussian/g16-A.03/g16-haswell/g16/l702.exe)
 L702 exits ... SP integral derivatives will be done elsewhere.
 Leave Link  702 at Mon Oct 14 01:34:05 2019, MaxMem= 10737418240 cpu:               0.4 elap:               0.0
 (Enter /apps/cent7/gaussian/g16-A.03/g16-haswell/g16/l703.exe)
 Integral derivatives from FoFJK, PRISM(SPDF).
 Compute integral first derivatives, UseDBF=F ICtDFT=           0.
 Calling FoFJK, ICntrl=      2127 FMM=F ISym2X=0 I1Cent= 0 IOpClX= 0 NMat=1 NMatS=1 NMatT=0.
 FoFJK:  IHMeth= 1 ICntrl=    2127 DoSepK=F KAlg= 0 I1Cent=           0 FoldK=F
 IRaf=         0 NMat=       1 IRICut=       1 DoRegI=T DoRafI=F ISym2E= 0 IDoP0=0 IntGTp=1.
 FoFCou: FMM=F IPFlag=           0 FMFlag=      100000 FMFlg1=         800
         NFxFlg=           0 DoJE=F BraDBF=F KetDBF=F FulRan=T
         wScrn=  0.000000 ICntrl=      2127 IOpCl=  0 I1Cent=           0 NGrid=           0
         NMat0=    1 NMatS0=      1 NMatT0=    0 NMatD0=    1 NMtDS0=    0 NMtDT0=    0
 Symmetry not used in FoFCou.
 Leave Link  703 at Mon Oct 14 01:34:06 2019, MaxMem= 10737418240 cpu:              19.6 elap:               0.8
 (Enter /apps/cent7/gaussian/g16-A.03/g16-haswell/g16/l716.exe)
 Dipole        = 1.85096868D+00-1.68536315D-03 1.96060208D+00
 ***** Axes restored to original set *****
 -------------------------------------------------------------------
 Center     Atomic                   Forces (Hartrees/Bohr)
 Number     Number              X              Y              Z
 -------------------------------------------------------------------
      1        8          -0.092125955    0.008850856   -0.017579905
      2       16           0.133766806    0.024599371   -0.066036035
      3        6          -0.020526728    0.009268216    0.017189749
      4        6          -0.000493584   -0.000164109   -0.000566870
      5        6           0.006681148   -0.006564253    0.003753781
      6        6           0.004337978   -0.003713508   -0.004819256
      7        6          -0.001336797    0.000989425   -0.009864208
      8        6          -0.000018784   -0.000650606    0.000433862
      9        6          -0.006709941    0.003245572    0.005371868
     10        8          -0.036739330   -0.043519962    0.075159552
     11        1           0.003135280   -0.000205896    0.002628255
     12        1           0.002447896   -0.002164226    0.000079782
     13        1           0.001414006   -0.001461117   -0.001653203
     14        1           0.000506300   -0.000302529   -0.003253359
     15        1          -0.000111824    0.002869199   -0.002869766
     16        1           0.001063345    0.000361941    0.003209338
     17        1          -0.001038118    0.003393443   -0.000956293
     18        1           0.005748303    0.005168184   -0.000227292
 -------------------------------------------------------------------
 Cartesian Forces:  Max     0.133766806 RMS     0.027861908
 Leave Link  716 at Mon Oct 14 01:34:06 2019, MaxMem= 10737418240 cpu:               1.0 elap:               0.1
 (Enter /apps/cent7/gaussian/g16-A.03/g16-haswell/g16/l103.exe)

 GradGradGradGradGradGradGradGradGradGradGradGradGradGradGradGradGradGrad
 Berny optimization.
 FormGI is forming the generalized inverse of G from B-inverse, IUseBI=4.
 Internal  Forces:  Max     0.091295191 RMS     0.015008109
 Search for a local minimum.
 Step number   1 out of a maximum of   97
 All quantities printed in internal units (Hartrees-Bohrs-Radians)
 RMS Force = .15008D-01 SwitMx=.10000D-02 MixMth= 1
 Mixed Optimization -- RFO/linear search
 Second derivative matrix not updated -- first step.
 ITU=  0
     Eigenvalues ---    0.00230   0.00744   0.01465   0.01951   0.01971
     Eigenvalues ---    0.01977   0.01992   0.02001   0.02002   0.02003
     Eigenvalues ---    0.02004   0.05715   0.05715   0.06907   0.08009
     Eigenvalues ---    0.13367   0.16000   0.16000   0.16000   0.16000
     Eigenvalues ---    0.16000   0.16000   0.16000   0.16000   0.19274
     Eigenvalues ---    0.21999   0.22000   0.23477   0.23779   0.24994
     Eigenvalues ---    0.25000   0.28475   0.34806   0.34808   0.34811
     Eigenvalues ---    0.34813   0.34815   0.34815   0.34818   0.34818
     Eigenvalues ---    0.40486   0.40506   0.43991   0.44219   0.44548
     Eigenvalues ---    0.44593   0.50292   0.50311
 RFO step:  Lambda=-4.65953071D-02 EMin= 2.30000000D-03
 Linear search not attempted -- first point.
 Maximum step size (   0.300) exceeded in Quadratic search.
    -- Step size scaled by   0.956
 Iteration  1 RMS(Cart)=  0.05823397 RMS(Int)=  0.00201451
 Iteration  2 RMS(Cart)=  0.00284195 RMS(Int)=  0.00059113
 Iteration  3 RMS(Cart)=  0.00000728 RMS(Int)=  0.00059111
 Iteration  4 RMS(Cart)=  0.00000001 RMS(Int)=  0.00059111
 ITry= 1 IFail=0 DXMaxC= 1.89D-01 DCOld= 1.00D+10 DXMaxT= 3.00D-01 DXLimC= 3.00D+00 Rises=F
 Variable       Old X    -DE/DX   Delta X   Delta X   Delta X     New X
                                 (Linear)    (Quad)   (Total)
    R1        3.03252  -0.09106   0.00000  -0.15833  -0.15833   2.87419
    R2        3.34811   0.00176   0.00000   0.00508   0.00508   3.35320
    R3        3.46119  -0.01147   0.00000  -0.03855  -0.03855   3.42265
    R4        3.03272  -0.09130   0.00000  -0.15880  -0.15880   2.87392
    R5        2.66636  -0.01266   0.00000  -0.02503  -0.02499   2.64137
    R6        2.66631  -0.01259   0.00000  -0.02488  -0.02485   2.64147
    R7        2.65750  -0.01242   0.00000  -0.02411  -0.02411   2.63339
    R8        2.05976  -0.00301   0.00000  -0.00729  -0.00729   2.05248
    R9        2.65827  -0.00838   0.00000  -0.01620  -0.01624   2.64204
   R10        2.05971  -0.00308   0.00000  -0.00746  -0.00746   2.05224
   R11        2.65808  -0.00825   0.00000  -0.01594  -0.01598   2.64210
   R12        2.05988  -0.00262   0.00000  -0.00634  -0.00634   2.05353
   R13        2.65751  -0.01248   0.00000  -0.02422  -0.02422   2.63330
   R14        2.05982  -0.00312   0.00000  -0.00755  -0.00755   2.05227
   R15        2.05971  -0.00297   0.00000  -0.00718  -0.00718   2.05253
   R16        2.05976   0.00232   0.00000   0.00562   0.00562   2.06538
   R17        2.05980   0.00202   0.00000   0.00488   0.00488   2.06468
   R18        2.05991   0.00049   0.00000   0.00118   0.00118   2.06109
    A1        1.93202  -0.00419   0.00000  -0.02877  -0.03070   1.90132
    A2        1.90498  -0.00412   0.00000  -0.01864  -0.02084   1.88414
    A3        1.89249   0.02085   0.00000   0.14843   0.14912   2.04162
    A4        1.89709  -0.00452   0.00000  -0.05544  -0.05821   1.83888
    A5        1.93201  -0.00408   0.00000  -0.02782  -0.02969   1.90233
    A6        1.90494  -0.00403   0.00000  -0.01786  -0.01999   1.88495
    A7        2.09802  -0.00465   0.00000  -0.01506  -0.01512   2.08290
    A8        2.09799  -0.00464   0.00000  -0.01501  -0.01507   2.08292
    A9        2.08696   0.00930   0.00000   0.03031   0.03037   2.11733
   A10        2.09750  -0.00531   0.00000  -0.01859  -0.01857   2.07893
   A11        2.09567   0.00064   0.00000  -0.00002  -0.00006   2.09561
   A12        2.09002   0.00467   0.00000   0.01862   0.01858   2.10860
   A13        2.09444   0.00009   0.00000   0.00103   0.00099   2.09543
   A14        2.09416  -0.00116   0.00000  -0.00567  -0.00565   2.08850
   A15        2.09459   0.00107   0.00000   0.00464   0.00465   2.09924
   A16        2.09533   0.00116   0.00000   0.00503   0.00495   2.10028
   A17        2.09388  -0.00058   0.00000  -0.00249  -0.00246   2.09142
   A18        2.09398  -0.00059   0.00000  -0.00254  -0.00251   2.09147
   A19        2.09451   0.00008   0.00000   0.00100   0.00097   2.09548
   A20        2.09454   0.00108   0.00000   0.00469   0.00471   2.09924
   A21        2.09414  -0.00116   0.00000  -0.00569  -0.00568   2.08846
   A22        2.09747  -0.00531   0.00000  -0.01861  -0.01858   2.07889
   A23        2.09568   0.00065   0.00000   0.00002  -0.00001   2.09566
   A24        2.09004   0.00466   0.00000   0.01858   0.01855   2.10859
   A25        1.91062  -0.00088   0.00000  -0.00264  -0.00279   1.90784
   A26        1.91062  -0.00209   0.00000  -0.00845  -0.00867   1.90195
   A27        1.91063  -0.01058   0.00000  -0.05160  -0.05201   1.85862
   A28        1.91062   0.00292   0.00000   0.01882   0.01883   1.92944
   A29        1.91069   0.00507   0.00000   0.02101   0.02067   1.93136
   A30        1.91062   0.00556   0.00000   0.02285   0.02235   1.93296
    D1        2.63149   0.00994   0.00000   0.06819   0.06736   2.69885
    D2       -0.53247   0.01083   0.00000   0.08097   0.07996  -0.45252
    D3       -1.55961  -0.00052   0.00000  -0.00711  -0.00700  -1.56661
    D4        1.55961   0.00037   0.00000   0.00566   0.00560   1.56521
    D5        0.53243  -0.01079   0.00000  -0.08089  -0.07990   0.45253
    D6       -2.63154  -0.00990   0.00000  -0.06812  -0.06730  -2.69884
    D7        1.19738  -0.01133   0.00000  -0.09138  -0.09078   1.10659
    D8       -2.99144  -0.00956   0.00000  -0.07512  -0.07477  -3.06621
    D9       -0.89708  -0.01052   0.00000  -0.08390  -0.08336  -0.98044
   D10       -0.91145  -0.00101   0.00000  -0.01154  -0.01146  -0.92291
   D11        1.18291   0.00076   0.00000   0.00472   0.00456   1.18747
   D12       -3.00591  -0.00020   0.00000  -0.00407  -0.00404  -3.00995
   D13       -3.02025   0.00912   0.00000   0.06668   0.06629  -2.95395
   D14       -0.92588   0.01088   0.00000   0.08293   0.08231  -0.84358
   D15        1.16848   0.00993   0.00000   0.07415   0.07372   1.24220
   D16        3.13821   0.00011   0.00000   0.00248   0.00252   3.14073
   D17       -0.00348  -0.00061   0.00000  -0.00794  -0.00785  -0.01133
   D18        0.01885  -0.00060   0.00000  -0.00964  -0.00974   0.00911
   D19       -3.12285  -0.00131   0.00000  -0.02005  -0.02011   3.14023
   D20       -3.13823  -0.00011   0.00000  -0.00246  -0.00250  -3.14073
   D21        0.00354   0.00061   0.00000   0.00796   0.00787   0.01141
   D22       -0.01887   0.00060   0.00000   0.00965   0.00976  -0.00911
   D23        3.12290   0.00132   0.00000   0.02007   0.02012  -3.14016
   D24       -0.00730   0.00024   0.00000   0.00324   0.00318  -0.00412
   D25        3.13432  -0.00007   0.00000  -0.00121  -0.00125   3.13307
   D26        3.13440   0.00096   0.00000   0.01362   0.01363  -3.13516
   D27       -0.00717   0.00064   0.00000   0.00917   0.00920   0.00203
   D28       -0.00435   0.00026   0.00000   0.00368   0.00366  -0.00069
   D29        3.13733  -0.00013   0.00000  -0.00177  -0.00177   3.13556
   D30        3.13721   0.00058   0.00000   0.00813   0.00812  -3.13786
   D31       -0.00429   0.00019   0.00000   0.00268   0.00269  -0.00160
   D32        0.00433  -0.00026   0.00000  -0.00366  -0.00364   0.00069
   D33       -3.13720  -0.00059   0.00000  -0.00824  -0.00823   3.13776
   D34       -3.13735   0.00013   0.00000   0.00179   0.00179  -3.13556
   D35        0.00430  -0.00020   0.00000  -0.00279  -0.00280   0.00151
   D36        0.00734  -0.00024   0.00000  -0.00328  -0.00322   0.00412
   D37       -3.13443  -0.00096   0.00000  -0.01366  -0.01367   3.13509
   D38       -3.13431   0.00008   0.00000   0.00130   0.00134  -3.13298
   D39        0.00710  -0.00064   0.00000  -0.00908  -0.00911  -0.00201
         Item               Value     Threshold  Converged?
 Maximum Force            0.091295     0.000450     NO 
 RMS     Force            0.015008     0.000300     NO 
 Maximum Displacement     0.188588     0.001800     NO 
 RMS     Displacement     0.059310     0.001200     NO 
 Predicted change in Energy=-2.666756D-02
 Lowest energy point so far.  Saving SCF results.
 GradGradGradGradGradGradGradGradGradGradGradGradGradGradGradGradGradGrad

 Leave Link  103 at Mon Oct 14 01:34:06 2019, MaxMem= 10737418240 cpu:               1.4 elap:               0.1
 (Enter /apps/cent7/gaussian/g16-A.03/g16-haswell/g16/l202.exe)
                          Input orientation:                          
 ---------------------------------------------------------------------
 Center     Atomic      Atomic             Coordinates (Angstroms)
 Number     Number       Type             X           Y           Z
 ---------------------------------------------------------------------
      1          8           0        1.911704   -1.413227   -0.179633
      2         16           0        0.610698   -1.045811   -0.876555
      3          6           0       -0.401370   -0.116239    0.246049
      4          6           0       -1.355382    0.768739   -0.264231
      5          6           0       -2.148345    1.495600    0.621664
      6          6           0       -1.988344    1.331781    2.000889
      7          6           0       -1.034833    0.439386    2.500136
      8          6           0       -0.236778   -0.292311    1.622916
      9          6           0       -0.304738   -2.576276   -1.192869
     10          8           0        0.721935   -0.285013   -2.188684
     11          1           0       -1.465226    0.890793   -1.337870
     12          1           0       -2.886892    2.191594    0.234961
     13          1           0       -2.604826    1.904650    2.688385
     14          1           0       -0.908918    0.315525    3.571692
     15          1           0        0.511823   -0.984441    1.997465
     16          1           0       -0.564109   -3.045690   -0.240543
     17          1           0       -1.206838   -2.339463   -1.761969
     18          1           0        0.359037   -3.220198   -1.771104
 ---------------------------------------------------------------------
                    Distance matrix (angstroms):
                    1          2          3          4          5
     1  O    0.000000
     2  S    1.520957   0.000000
     3  C    2.685831   1.774436   0.000000
     4  C    3.929628   2.744632   1.397752   0.000000
     5  C    5.058394   4.039276   2.406457   1.393531   0.000000
     6  C    5.244055   4.548368   2.773935   2.418352   1.398106
     7  C    4.392654   4.039261   2.406430   2.802311   2.425728
     8  C    3.020200   2.744692   1.397804   2.436889   2.802360
     9  C    2.700360   1.811187   2.851596   3.627030   4.824063
    10  O    2.593204   1.520813   2.686675   3.021450   4.393990
    11  H    4.248962   2.876232   2.157476   1.086123   2.161531
    12  H    6.016074   4.893812   3.391760   2.149240   1.086001
    13  H    6.295464   5.635034   3.860598   3.401374   2.155697
    14  H    5.001692   4.893809   3.391745   3.888321   3.410487
    15  H    2.623600   2.876375   2.157580   3.416922   3.888434
    16  H    2.966191   2.405036   2.974044   3.895708   4.886360
    17  H    3.617596   2.400194   3.102199   3.453434   4.612575
    18  H    2.865083   2.364638   3.779112   4.595815   5.852440
                    6          7          8          9         10
     6  C    0.000000
     7  C    1.398141   0.000000
     8  C    2.418372   1.393481   0.000000
     9  C    5.320482   4.823437   3.626259   0.000000
    10  O    5.245204   5.059251   3.930328   2.701035   0.000000
    11  H    3.408143   3.888354   3.416881   3.659006   2.624896
    12  H    2.159900   3.410480   3.888356   5.607032   5.003126
    13  H    1.086683   2.155763   3.401399   6.358713   6.296647
    14  H    2.159945   1.086015   2.149178   5.606120   6.016832
    15  H    3.408185   2.161505   1.086155   3.657723   4.249375
    16  H    5.120031   4.458549   3.340766   1.092954   3.615315
    17  H    5.314874   5.090887   4.072996   1.092584   2.850090
    18  H    6.360711   5.794733   4.521824   1.090683   2.986868
                   11         12         13         14         15
    11  H    0.000000
    12  H    2.487371   0.000000
    13  H    4.305499   2.486199   0.000000
    14  H    4.974356   4.308804   2.486294   0.000000
    15  H    4.306934   4.974422   4.305545   2.487289   0.000000
    16  H    4.184738   5.748963   6.103197   5.094094   3.227236
    17  H    3.268207   5.228842   6.306545   5.965372   4.350083
    18  H    4.518393   6.621771   7.411855   6.531043   4.384526
                   16         17         18
    16  H    0.000000
    17  H    1.796273   0.000000
    18  H    1.795904   1.796592   0.000000
 Stoichiometry    C7H8O2S
 Framework group  C1[X(C7H8O2S)]
 Deg. of freedom    48
 Full point group                 C1      NOp   1
 RotChk:  IX=0 Diff= 1.37D-03
 Largest Abelian subgroup         C1      NOp   1
 Largest concise Abelian subgroup C1      NOp   1
                         Standard orientation:                         
 ---------------------------------------------------------------------
 Center     Atomic      Atomic             Coordinates (Angstroms)
 Number     Number       Type             X           Y           Z
 ---------------------------------------------------------------------
      1          8           0       -1.914436   -1.296240   -0.798498
      2         16           0       -1.450458    0.000405   -0.152940
      3          6           0        0.322024    0.000200   -0.069676
      4          6           0        1.006026    1.218548   -0.031217
      5          6           0        2.397962    1.212849    0.035194
      6          6           0        3.092563   -0.000074    0.067548
      7          6           0        2.397718   -1.212878    0.034446
      8          6           0        1.005831   -1.218341   -0.031961
      9          6           0       -2.011634   -0.001290    1.569117
     10          8           0       -1.915584    1.296963   -0.797506
     11          1           0        0.454365    2.153603   -0.062941
     12          1           0        2.938821    2.154324    0.057452
     13          1           0        4.178267   -0.000159    0.113656
     14          1           0        2.938411   -2.154480    0.056035
     15          1           0        0.454037   -2.153331   -0.064324
     16          1           0       -1.531821   -0.824311    2.104807
     17          1           0       -1.754214    0.956467    2.027566
     18          1           0       -3.093319   -0.138468    1.542122
 ---------------------------------------------------------------------
 Rotational constants (GHZ):           2.4476244           0.8105802           0.7147298
 Leave Link  202 at Mon Oct 14 01:34:06 2019, MaxMem= 10737418240 cpu:               0.3 elap:               0.0
 (Enter /apps/cent7/gaussian/g16-A.03/g16-haswell/g16/l301.exe)
 Standard basis: 6-31G(d) (6D, 7F)
 Ernie: Thresh=  0.10000D-02 Tol=  0.10000D-05 Strict=F.
 There are   170 symmetry adapted cartesian basis functions of A   symmetry.
 There are   170 symmetry adapted basis functions of A   symmetry.
   170 basis functions,   336 primitive gaussians,   170 cartesian basis functions
    41 alpha electrons       41 beta electrons
       nuclear repulsion energy       620.5857076527 Hartrees.
 IExCor=  402 DFT=T Ex+Corr=B3LYP ExCW=0 ScaHFX=  0.200000
 ScaDFX=  0.800000  0.720000  1.000000  0.810000 ScalE2=  1.000000  1.000000
 IRadAn=      5 IRanWt=     -1 IRanGd=            0 ICorTp=0 IEmpDi=  4
 NAtoms=   18 NActive=   18 NUniq=   18 SFac= 1.00D+00 NAtFMM=   60 NAOKFM=F Big=F
 Integral buffers will be    131072 words long.
 Raffenetti 2 integral format.
 Two-electron integral symmetry is turned on.
 Leave Link  301 at Mon Oct 14 01:34:06 2019, MaxMem= 10737418240 cpu:               1.7 elap:               0.1
 (Enter /apps/cent7/gaussian/g16-A.03/g16-haswell/g16/l302.exe)
 NPDir=0 NMtPBC=     1 NCelOv=     1 NCel=       1 NClECP=     1 NCelD=      1
         NCelK=      1 NCelE2=     1 NClLst=     1 CellRange=     0.0.
 One-electron integrals computed using PRISM.
 One-electron integral symmetry used in STVInt
 NBasis=   170 RedAO= T EigKep=  5.03D-04  NBF=   170
 NBsUse=   170 1.00D-06 EigRej= -1.00D+00 NBFU=   170
 Precomputing XC quadrature grid using
 IXCGrd= 4 IRadAn=           5 IRanWt=          -1 IRanGd=           0 AccXCQ= 0.00D+00.
 Generated NRdTot=       0 NPtTot=           0 NUsed=           0 NTot=          32
 NSgBfM=   170   170   170   170   170 MxSgAt=    18 MxSgA2=    18.
 Leave Link  302 at Mon Oct 14 01:34:07 2019, MaxMem= 10737418240 cpu:               3.2 elap:               0.2
 (Enter /apps/cent7/gaussian/g16-A.03/g16-haswell/g16/l303.exe)
 DipDrv:  MaxL=1.
 Leave Link  303 at Mon Oct 14 01:34:07 2019, MaxMem= 10737418240 cpu:               0.6 elap:               0.0
 (Enter /apps/cent7/gaussian/g16-A.03/g16-haswell/g16/l401.exe)
 Initial guess from the checkpoint file:  "27.chk"
 B after Tr=     0.000000    0.000000    0.000000
         Rot=    1.000000   -0.000261   -0.000614   -0.000003 Ang=  -0.08 deg.
 Guess basis will be translated and rotated to current coordinates.
 JPrj=2 DoOrth=T DoCkMO=T.
 Generating alternative initial guess.
 ExpMin= 1.17D-01 ExpMax= 2.19D+04 ExpMxC= 3.30D+03 IAcc=2 IRadAn=         4 AccDes= 0.00D+00
 Harris functional with IExCor=  402 and IRadAn=       4 diagonalized for initial guess.
 HarFok:  IExCor=  402 AccDes= 0.00D+00 IRadAn=         4 IDoV= 1 UseB2=F ITyADJ=14
 ICtDFT=  3500011 ScaDFX=  1.000000  1.000000  1.000000  1.000000
 FoFCou: FMM=F IPFlag=           0 FMFlag=      100000 FMFlg1=           0
         NFxFlg=           0 DoJE=T BraDBF=F KetDBF=T FulRan=T
         wScrn=  0.000000 ICntrl=       500 IOpCl=  0 I1Cent=   200000004 NGrid=           0
         NMat0=    1 NMatS0=      1 NMatT0=    0 NMatD0=    1 NMtDS0=    0 NMtDT0=    0
 Petite list used in FoFCou.
 Harris En= -820.200335799852    
 Leave Link  401 at Mon Oct 14 01:34:07 2019, MaxMem= 10737418240 cpu:               6.5 elap:               0.3
 (Enter /apps/cent7/gaussian/g16-A.03/g16-haswell/g16/l502.exe)
 Integral symmetry usage will be decided dynamically.
 Closed shell SCF:
 Using DIIS extrapolation, IDIIS=  1040.
 NGot= 10737418240 LenX= 10737354383 LenY= 10737325042
 Requested convergence on RMS density matrix=1.00D-08 within 128 cycles.
 Requested convergence on MAX density matrix=1.00D-06.
 Requested convergence on             energy=1.00D-06.
 No special actions if energy rises.
 Fock matrices will be formed incrementally for  20 cycles.
 Integral accuracy reduced to 1.0D-05 until final iterations.

 Cycle   1  Pass 0  IDiag  1:
 FoFJK:  IHMeth= 1 ICntrl=       0 DoSepK=F KAlg= 0 I1Cent=           0 FoldK=F
 IRaf= 930000000 NMat=       1 IRICut=       1 DoRegI=T DoRafI=F ISym2E= 0 IDoP0=0 IntGTp=1.
 FoFCou: FMM=F IPFlag=           0 FMFlag=      100000 FMFlg1=           0
         NFxFlg=           0 DoJE=F BraDBF=F KetDBF=F FulRan=T
         wScrn=  0.000000 ICntrl=         0 IOpCl=  0 I1Cent=           0 NGrid=           0
         NMat0=    1 NMatS0=      1 NMatT0=    0 NMatD0=    1 NMtDS0=    0 NMtDT0=    0
 Symmetry not used in FoFCou.
 E= -820.112829015264    
 DIIS: error= 1.25D-02 at cycle   1 NSaved=   1.
 NSaved= 1 IEnMin= 1 EnMin= -820.112829015264     IErMin= 1 ErrMin= 1.25D-02
 ErrMax= 1.25D-02  0.00D+00 EMaxC= 1.00D-01 BMatC= 9.25D-03 BMatP= 9.25D-03
 IDIUse=3 WtCom= 8.75D-01 WtEn= 1.25D-01
 Coeff-Com:  0.100D+01
 Coeff-En:   0.100D+01
 Coeff:      0.100D+01
 Recover alternate guess density for next cycle.
 RMSDP=4.91D-03 MaxDP=1.81D-01              OVMax= 0.00D+00

 Cycle   2  Pass 0  IDiag  1:
 RMSU=  4.86D-03    CP:  9.76D-01
 E= -819.702289421372     Delta-E=        0.410539593891 Rises=F Damp=F
 Switch densities from cycles 1 and 2 for lowest energy.
 DIIS: error= 4.71D-02 at cycle   2 NSaved=   2.
 NSaved= 2 IEnMin= 1 EnMin= -820.112829015264     IErMin= 1 ErrMin= 1.25D-02
 ErrMax= 4.71D-02  0.00D+00 EMaxC= 1.00D+00 BMatC= 4.93D-01 BMatP= 9.25D-03
 IDIUse=1 WtCom= 1.00D+00 WtEn= 0.00D+00
 Coeff-Com:  0.957D+00 0.433D-01
 Coeff:      0.957D+00 0.433D-01
 Gap=     0.234 Goal=   None    Shift=    0.000
 RMSDP=1.46D-03 MaxDP=3.15D-02 DE= 4.11D-01 OVMax= 1.08D-01

 Cycle   3  Pass 0  IDiag  1:
 RMSU=  1.24D-03    CP:  9.94D-01  1.57D-01
 E= -820.128316549170     Delta-E=       -0.426027127797 Rises=F Damp=F
 DIIS: error= 2.26D-03 at cycle   3 NSaved=   3.
 NSaved= 3 IEnMin= 3 EnMin= -820.128316549170     IErMin= 3 ErrMin= 2.26D-03
 ErrMax= 2.26D-03  0.00D+00 EMaxC= 1.00D+00 BMatC= 1.20D-03 BMatP= 9.25D-03
 IDIUse=1 WtCom= 1.00D+00 WtEn= 0.00D+00
 Coeff-Com:  0.154D+00 0.118D-01 0.835D+00
 Coeff:      0.154D+00 0.118D-01 0.835D+00
 Gap=     0.230 Goal=   None    Shift=    0.000
 RMSDP=4.77D-04 MaxDP=1.38D-02 DE=-4.26D-01 OVMax= 1.63D-02

 Cycle   4  Pass 0  IDiag  1:
 RMSU=  4.59D-04    CP:  9.95D-01  1.45D-01  9.10D-01
 E= -820.128361034675     Delta-E=       -0.000044485505 Rises=F Damp=F
 DIIS: error= 2.96D-03 at cycle   4 NSaved=   4.
 NSaved= 4 IEnMin= 4 EnMin= -820.128361034675     IErMin= 3 ErrMin= 2.26D-03
 ErrMax= 2.96D-03  0.00D+00 EMaxC= 1.00D+00 BMatC= 1.33D-03 BMatP= 1.20D-03
 IDIUse=1 WtCom= 1.00D+00 WtEn= 0.00D+00
 Coeff-Com: -0.209D-01 0.878D-02 0.508D+00 0.504D+00
 Coeff:     -0.209D-01 0.878D-02 0.508D+00 0.504D+00
 Gap=     0.232 Goal=   None    Shift=    0.000
 RMSDP=2.88D-04 MaxDP=8.29D-03 DE=-4.45D-05 OVMax= 8.93D-03

 Cycle   5  Pass 0  IDiag  1:
 RMSU=  8.46D-05    CP:  9.94D-01  1.67D-01  9.99D-01  5.10D-01
 E= -820.129496208460     Delta-E=       -0.001135173785 Rises=F Damp=F
 DIIS: error= 6.09D-04 at cycle   5 NSaved=   5.
 NSaved= 5 IEnMin= 5 EnMin= -820.129496208460     IErMin= 5 ErrMin= 6.09D-04
 ErrMax= 6.09D-04  0.00D+00 EMaxC= 1.00D+00 BMatC= 4.56D-05 BMatP= 1.20D-03
 IDIUse=1 WtCom= 1.00D+00 WtEn= 0.00D+00
 Coeff-Com: -0.186D-01 0.949D-03 0.172D+00 0.232D+00 0.614D+00
 Coeff:     -0.186D-01 0.949D-03 0.172D+00 0.232D+00 0.614D+00
 Gap=     0.229 Goal=   None    Shift=    0.000
 RMSDP=5.17D-05 MaxDP=2.05D-03 DE=-1.14D-03 OVMax= 1.79D-03

 Cycle   6  Pass 0  IDiag  1:
 RMSU=  3.54D-05    CP:  9.94D-01  1.64D-01  1.00D+00  5.46D-01  6.60D-01
 E= -820.129534496377     Delta-E=       -0.000038287917 Rises=F Damp=F
 DIIS: error= 2.28D-04 at cycle   6 NSaved=   6.
 NSaved= 6 IEnMin= 6 EnMin= -820.129534496377     IErMin= 6 ErrMin= 2.28D-04
 ErrMax= 2.28D-04  0.00D+00 EMaxC= 1.00D+00 BMatC= 3.89D-06 BMatP= 4.56D-05
 IDIUse=1 WtCom= 1.00D+00 WtEn= 0.00D+00
 Coeff-Com: -0.568D-02-0.269D-04 0.391D-01 0.657D-01 0.301D+00 0.600D+00
 Coeff:     -0.568D-02-0.269D-04 0.391D-01 0.657D-01 0.301D+00 0.600D+00
 Gap=     0.229 Goal=   None    Shift=    0.000
 RMSDP=1.98D-05 MaxDP=4.78D-04 DE=-3.83D-05 OVMax= 1.11D-03

 Cycle   7  Pass 0  IDiag  1:
 RMSU=  1.23D-05    CP:  9.94D-01  1.64D-01  1.00D+00  5.53D-01  7.31D-01
                    CP:  6.11D-01
 E= -820.129537997218     Delta-E=       -0.000003500841 Rises=F Damp=F
 DIIS: error= 1.25D-04 at cycle   7 NSaved=   7.
 NSaved= 7 IEnMin= 7 EnMin= -820.129537997218     IErMin= 7 ErrMin= 1.25D-04
 ErrMax= 1.25D-04  0.00D+00 EMaxC= 1.00D+00 BMatC= 9.37D-07 BMatP= 3.89D-06
 IDIUse=1 WtCom= 1.00D+00 WtEn= 0.00D+00
 Coeff-Com: -0.173D-02-0.836D-04 0.834D-02 0.189D-01 0.130D+00 0.387D+00
 Coeff-Com:  0.457D+00
 Coeff:     -0.173D-02-0.836D-04 0.834D-02 0.189D-01 0.130D+00 0.387D+00
 Coeff:      0.457D+00
 Gap=     0.229 Goal=   None    Shift=    0.000
 RMSDP=6.69D-06 MaxDP=1.70D-04 DE=-3.50D-06 OVMax= 4.12D-04

 Initial convergence to 1.0D-05 achieved.  Increase integral accuracy.
 Cycle   8  Pass 1  IDiag  1:
 E= -820.129532629894     Delta-E=        0.000005367323 Rises=F Damp=F
 DIIS: error= 1.99D-05 at cycle   1 NSaved=   1.
 NSaved= 1 IEnMin= 1 EnMin= -820.129532629894     IErMin= 1 ErrMin= 1.99D-05
 ErrMax= 1.99D-05  0.00D+00 EMaxC= 1.00D+00 BMatC= 4.67D-08 BMatP= 4.67D-08
 IDIUse=1 WtCom= 1.00D+00 WtEn= 0.00D+00
 Coeff-Com:  0.100D+01
 Coeff:      0.100D+01
 Gap=     0.229 Goal=   None    Shift=    0.000
 RMSDP=6.69D-06 MaxDP=1.70D-04 DE= 5.37D-06 OVMax= 8.67D-05

 Cycle   9  Pass 1  IDiag  1:
 RMSU=  7.42D-06    CP:  1.00D+00
 E= -820.129532620807     Delta-E=        0.000000009087 Rises=F Damp=F
 DIIS: error= 2.06D-05 at cycle   2 NSaved=   2.
 NSaved= 2 IEnMin= 1 EnMin= -820.129532629894     IErMin= 1 ErrMin= 1.99D-05
 ErrMax= 2.06D-05  0.00D+00 EMaxC= 1.00D+00 BMatC= 5.42D-08 BMatP= 4.67D-08
 IDIUse=1 WtCom= 1.00D+00 WtEn= 0.00D+00
 Coeff-Com:  0.523D+00 0.477D+00
 Coeff:      0.523D+00 0.477D+00
 Gap=     0.229 Goal=   None    Shift=    0.000
 RMSDP=1.99D-06 MaxDP=4.59D-05 DE= 9.09D-09 OVMax= 8.79D-05

 Cycle  10  Pass 1  IDiag  1:
 RMSU=  1.90D-06    CP:  1.00D+00  9.24D-01
 E= -820.129532661611     Delta-E=       -0.000000040803 Rises=F Damp=F
 DIIS: error= 9.20D-06 at cycle   3 NSaved=   3.
 NSaved= 3 IEnMin= 3 EnMin= -820.129532661611     IErMin= 3 ErrMin= 9.20D-06
 ErrMax= 9.20D-06  0.00D+00 EMaxC= 1.00D+00 BMatC= 1.23D-08 BMatP= 4.67D-08
 IDIUse=1 WtCom= 1.00D+00 WtEn= 0.00D+00
 Coeff-Com:  0.119D+00 0.317D+00 0.564D+00
 Coeff:      0.119D+00 0.317D+00 0.564D+00
 Gap=     0.229 Goal=   None    Shift=    0.000
 RMSDP=8.86D-07 MaxDP=1.79D-05 DE=-4.08D-08 OVMax= 3.22D-05

 Cycle  11  Pass 1  IDiag  1:
 RMSU=  5.43D-07    CP:  1.00D+00  9.50D-01  6.48D-01
 E= -820.129532671655     Delta-E=       -0.000000010045 Rises=F Damp=F
 DIIS: error= 2.60D-06 at cycle   4 NSaved=   4.
 NSaved= 4 IEnMin= 4 EnMin= -820.129532671655     IErMin= 4 ErrMin= 2.60D-06
 ErrMax= 2.60D-06  0.00D+00 EMaxC= 1.00D+00 BMatC= 1.62D-09 BMatP= 1.23D-08
 IDIUse=1 WtCom= 1.00D+00 WtEn= 0.00D+00
 Coeff-Com:  0.109D-01 0.138D+00 0.351D+00 0.500D+00
 Coeff:      0.109D-01 0.138D+00 0.351D+00 0.500D+00
 Gap=     0.229 Goal=   None    Shift=    0.000
 RMSDP=3.00D-07 MaxDP=1.10D-05 DE=-1.00D-08 OVMax= 1.07D-05

 Cycle  12  Pass 1  IDiag  1:
 RMSU=  1.82D-07    CP:  1.00D+00  9.54D-01  6.93D-01  6.01D-01
 E= -820.129532672880     Delta-E=       -0.000000001224 Rises=F Damp=F
 DIIS: error= 1.21D-06 at cycle   5 NSaved=   5.
 NSaved= 5 IEnMin= 5 EnMin= -820.129532672880     IErMin= 5 ErrMin= 1.21D-06
 ErrMax= 1.21D-06  0.00D+00 EMaxC= 1.00D+00 BMatC= 1.94D-10 BMatP= 1.62D-09
 IDIUse=1 WtCom= 1.00D+00 WtEn= 0.00D+00
 Coeff-Com: -0.239D-02 0.646D-01 0.188D+00 0.331D+00 0.419D+00
 Coeff:     -0.239D-02 0.646D-01 0.188D+00 0.331D+00 0.419D+00
 Gap=     0.229 Goal=   None    Shift=    0.000
 RMSDP=9.83D-08 MaxDP=2.37D-06 DE=-1.22D-09 OVMax= 4.58D-06

 Cycle  13  Pass 1  IDiag  1:
 RMSU=  3.73D-08    CP:  1.00D+00  9.55D-01  6.95D-01  5.96D-01  5.00D-01
 E= -820.129532673060     Delta-E=       -0.000000000181 Rises=F Damp=F
 DIIS: error= 1.15D-07 at cycle   6 NSaved=   6.
 NSaved= 6 IEnMin= 6 EnMin= -820.129532673060     IErMin= 6 ErrMin= 1.15D-07
 ErrMax= 1.15D-07  0.00D+00 EMaxC= 1.00D+00 BMatC= 2.22D-12 BMatP= 1.94D-10
 IDIUse=1 WtCom= 1.00D+00 WtEn= 0.00D+00
 Coeff-Com: -0.197D-02 0.167D-01 0.534D-01 0.101D+00 0.150D+00 0.681D+00
 Coeff:     -0.197D-02 0.167D-01 0.534D-01 0.101D+00 0.150D+00 0.681D+00
 Gap=     0.229 Goal=   None    Shift=    0.000
 RMSDP=1.40D-08 MaxDP=5.92D-07 DE=-1.81D-10 OVMax= 4.88D-07

 Cycle  14  Pass 1  IDiag  1:
 RMSU=  1.24D-08    CP:  1.00D+00  9.55D-01  6.96D-01  6.00D-01  5.20D-01
[...]
 11715,0.011095,0.0982713,-0.0609501,-0.7649668,0.1088703,0.2498158,0.0
 955511,-1.0186285,0.1100166,-0.0037662,-0.0076655,0.0040932,0.1096949,
 0.0073344,-0.0172049,0.0160351,0.0073905,0.0062947,0.1054474,-0.022911
 3,0.1009435,0.0178126,0.0279181,-0.0306097,0.0292857,0.037033,0.030663
 1,0.0726935,0.0636907,0.0724458,0.0443682,-0.0565779,0.0635509,-0.0567
 314,0.0009098,0.0777094,0.0364789,-0.0071621,0.0312883,0.0850772,0.011
 1584,-0.0049015,0.004134,-0.101643,0.0627793,0.0450331,-0.0336405,0.04
 6321,0.0658186,0.0268132,-0.0189611,0.0234635,0.0982933,0.060433,-0.04
 45608,0.0040932,-0.0490671,0.0329249,0.044251,0.0031269,0.0420804,-0.0
 167579,-0.0313288,0.0004796,-0.0453092,-0.0026893,0.0296733,0.020551,-
 0.0486696,0.0182776,0.0782183,0.0677282,-0.0233083,0.0089428,0.0445688
 ,-0.0014441,-0.0859519,0.0469919,-0.0462533,0.0518845\Polar=81.2910219
 ,-28.9700517,82.3471074,-7.9559026,9.4954882,105.5043806\Quadrupole=-4
 .7925341,4.2654423,0.5270917,-1.3362354,1.9547382,3.2553616\PG=C01 [X(
 C7H8O2S1)]\NImag=0\\0.43184157,-0.11221569,0.08803988,0.21156404,-0.06
 520393,0.18060735,-0.41219114,0.09787099,-0.18556606,0.68830891,0.1014
 5798,-0.11561784,0.05751417,-0.08490050,0.56198023,-0.19658291,0.05892
 806,-0.19686939,0.15132896,-0.21222297,0.82136859,-0.01140246,0.015322
 65,0.01126731,-0.08849474,0.02295450,0.02054965,0.37070726,0.00658451,
 0.00533392,-0.00354130,0.02752212,-0.09179110,-0.02526927,-0.22538102,
 0.34668943,-0.01756462,0.00956764,0.00807165,0.02311074,-0.02259560,-0
 .10155566,0.06216334,-0.06356246,0.62208233,-0.00251697,0.00117470,-0.
 00036914,-0.01468400,0.01106805,0.00616325,-0.18044221,0.11619479,-0.0
 3830559,0.41518469,0.00111642,0.00115149,0.00106951,0.01238044,-0.0118
 8027,-0.00566069,0.11881599,-0.16826751,0.04028465,-0.26339171,0.37953
 806,0.00760828,-0.00379859,-0.00161122,0.00875694,-0.01036692,0.015201
 78,-0.07621888,0.07306429,-0.15329695,-0.00950290,-0.01801131,0.750626
 17,-0.00085197,-0.00010475,0.00042007,0.00175249,0.00531123,-0.0041477
 5,-0.02705326,0.03240936,-0.00557001,-0.16897180,0.09624806,0.10408313
 ,0.45632489,0.00143049,-0.00157406,-0.00110672,0.00441557,0.00213206,0
 .00540516,0.03153636,-0.02186378,0.00356728,0.09798450,-0.14881069,-0.
 09177574,-0.30226661,0.41315855,-0.00137246,-0.00010991,0.00015704,-0.
 00236358,0.00322044,0.00135627,0.03253133,-0.03067849,0.05734496,0.054
 40971,-0.04515946,-0.21398119,0.00897106,-0.02720742,0.67927210,-0.000
 03466,0.00041729,0.00042306,-0.00089535,-0.00008183,-0.00178208,-0.018
 04899,0.00998396,-0.02311417,0.02923715,-0.02100878,0.01323171,-0.1010
 6435,0.03712279,0.00396808,0.45222414,-0.00006960,-0.00023039,-0.00045
 949,0.00025864,-0.00064458,0.00166047,0.01027089,-0.01762251,0.0218848
 8,-0.02230460,0.02756728,-0.01106459,0.03812350,-0.09753649,0.00418062
 ,-0.28943880,0.40135433,-0.00004862,0.00037282,0.00015640,-0.00159421,
 0.00186079,-0.00189449,-0.02295248,0.02204945,-0.04149323,0.04925779,-
 0.04341169,-0.04122475,-0.04483233,0.05027235,-0.33389890,-0.03364758,
 0.01629245,0.70193487,0.00053895,-0.00076457,0.00062782,0.00417872,0.0
 0195572,-0.00172163,0.02696160,-0.01927290,0.04911713,-0.03981959,0.02
 948553,0.00665486,0.01391548,-0.00477083,-0.06148944,-0.19685122,0.124
 52213,-0.02695799,0.42718642,0.00034158,-0.00020451,-0.00058227,0.0014
 3597,0.00597460,0.00197350,-0.01774989,0.02528215,-0.04445043,0.030084
 95,-0.03386148,-0.00620400,-0.00558145,0.01147395,0.05732869,0.1249264
 7,-0.17647609,0.02557434,-0.26902484,0.37615962,0.00071351,-0.00009964
 ,0.00227966,-0.00429645,0.00333269,-0.00490886,0.01138085,-0.00981990,
 -0.04381719,0.00852546,-0.00804772,-0.00221646,-0.02661492,0.02515970,
 -0.00772858,-0.07609404,0.07131940,-0.15912834,0.00326025,-0.01281477,
 0.74540798,-0.00100963,0.00157045,-0.00072276,0.00434105,-0.00460813,0
 .01511507,-0.09439803,0.03586391,-0.05091728,0.01398867,-0.00408280,-0
 .02570863,-0.00864718,0.00116373,0.01678673,-0.02685368,0.03100659,-0.
 00440896,-0.17050076,0.09788382,0.10375269,0.47146755,0.00131293,-0.00
 052579,0.00148840,-0.00589009,0.00316135,-0.01419940,0.03379829,-0.088
 84129,0.04863698,-0.00274315,0.00887978,0.02316469,0.00107005,-0.00754
 984,-0.01329035,0.02963985,-0.02053199,0.00253293,0.09835379,-0.149310
 67,-0.09154053,-0.30447655,0.40648056,-0.00178930,0.00044224,-0.002739
 24,0.01253612,-0.00946988,-0.01887125,-0.01269062,0.01618287,-0.318716
 27,-0.06050054,0.05435088,-0.00967452,0.01826564,-0.01553899,-0.059699
 44,0.03157784,-0.02985696,0.06296358,0.05336906,-0.04566103,-0.2119894
 5,0.01438776,-0.01864377,0.66736425,-0.01406377,-0.02024088,-0.0093591
 5,-0.08934895,-0.02795485,-0.00396633,0.01103085,0.01209541,0.00498600
 ,0.00084900,-0.00070892,0.00069233,-0.00083184,-0.00095119,0.00042261,
 -0.00009827,0.00028652,0.00019964,-0.00089440,-0.00069831,0.00011598,-
 0.00101658,0.00147675,-0.00078032,0.53783288,0.01093276,0.01127511,0.0
 0713969,-0.03574057,-0.12538084,-0.01057633,-0.00516600,-0.00350421,-0
 .00340605,-0.00056014,-0.00046473,-0.00081153,0.00035279,0.00031541,-0
 .00010329,0.00003340,-0.00006509,-0.00003949,0.00014831,0.00032822,-0.
 00026629,0.00077653,-0.00212560,-0.00017812,-0.09315531,0.42828885,-0.
 01174226,-0.00754716,0.00431656,-0.00832004,-0.01511619,-0.07290798,-0
 .00469378,-0.01350336,0.00313691,-0.00036837,-0.00082710,-0.00254814,0
 .00076250,0.00038705,0.00010384,0.00005935,-0.00018760,-0.00016839,0.0
 0098453,0.00049728,0.00015803,-0.00003155,-0.00047858,0.00098659,-0.01
 495145,-0.04271190,0.58632329,0.01300976,0.01670657,-0.02844474,-0.086
 18937,-0.01364559,0.02341114,0.00693427,-0.00643046,0.01434763,-0.0006
 2214,0.00062967,-0.00092444,0.00082401,-0.00067397,0.00091723,-0.00002
 026,0.00006384,0.00023736,0.00057776,-0.00036600,0.00146807,-0.0031918
 2,0.00271094,-0.00007899,0.00576819,-0.00895031,0.01347782,0.06162868,
 -0.00433753,0.01299659,0.00900521,-0.00792083,-0.20395092,0.20227157,0
 .00566785,0.01018624,-0.00745027,0.00214268,-0.00078001,0.00123232,-0.
 00130093,0.00102418,-0.00074741,-0.00010164,0.00012780,-0.00076729,-0.
 00017230,-0.00110561,-0.00060080,0.00074957,0.00066047,0.00172781,-0.0
 0344735,-0.00399561,0.02952659,0.01342377,0.18791689,0.00884383,0.0092
 2958,0.00113576,0.01358528,0.20492122,-0.43448846,-0.00279822,0.017837
 61,-0.01512708,-0.00099735,0.00122485,-0.00287862,0.00002914,-0.001274
 58,0.00076718,-0.00005529,0.00025233,-0.00021520,-0.00107580,-0.000380
 32,-0.00174417,0.00683148,-0.00425759,-0.00044223,-0.00330025,-0.00015
 900,-0.00023234,-0.02630831,-0.23002671,0.45089484,0.00002458,-0.00003
 151,0.00087920,-0.00108931,0.00038806,-0.00459331,0.00165544,0.0014635
 3,-0.02092048,-0.04993693,0.01362142,-0.02005424,0.00583315,-0.0029591
 4,0.01848027,0.00128274,0.00554574,0.00188364,-0.00066351,0.00024776,0
 .00027850,-0.00063987,0.00604228,-0.00038384,0.00013267,-0.00015744,0.
 00009541,0.00039624,-0.00152293,0.00211368,0.04439616,-0.00047766,0.00
 063492,-0.00049909,-0.00064755,-0.00299342,0.00317805,0.00061551,0.000
 96578,0.01988042,0.01413866,-0.05322067,0.03715282,-0.00214926,0.00633
 818,-0.01710628,0.00559386,0.00214191,-0.00182000,0.00035199,-0.000822
 16,-0.00026858,0.00585055,0.00057767,0.00063789,0.00064788,-0.00019097
 ,-0.00042531,-0.00112424,0.00055422,-0.00084016,-0.01942878,0.04801167
 ,-0.00006677,0.00027513,0.00030413,0.00051665,-0.00059800,-0.00146577,
 -0.00149131,0.00213932,-0.00739963,-0.02213860,0.03693640,-0.33861132,
 -0.00282126,0.00363411,-0.01309518,0.00266958,-0.00186476,-0.00015610,
 0.00029404,-0.00033374,0.00056004,-0.00090196,0.00128982,0.00125740,-0
 .00006548,0.00006221,-0.00004003,0.00126930,-0.00133221,-0.00028788,0.
 02305824,-0.04023419,0.35882955,-0.00044067,0.00012805,0.00008019,0.00
 052861,0.00020166,-0.00127783,0.00202072,0.00472465,0.00304015,-0.0086
 3828,0.01092082,-0.00772579,-0.17757092,0.13413331,-0.06742728,0.00135
 221,0.00125768,0.00031596,0.00414770,0.00269704,-0.00023608,-0.0000654
 2,-0.00039228,0.00056850,-0.00010981,0.00007788,0.00021779,-0.00005993
 ,-0.00009304,0.00034498,-0.00133419,-0.00250339,-0.00020120,0.18193915
 ,0.00044623,-0.00042612,-0.00015657,0.00009972,0.00047655,0.00098499,0
 .00425718,0.00309363,-0.00265005,0.01037180,-0.00730197,0.00697847,0.1
 3438711,-0.16411245,0.06574834,0.00182713,0.00095662,-0.00035617,0.002
 72534,0.00441804,0.00058537,-0.00052496,0.00003788,-0.00030784,0.00007
 185,-0.00002475,-0.00005039,-0.00002507,0.00006492,-0.00031186,-0.0024
 8824,-0.00170885,-0.00026145,-0.14846060,0.16688521,0.00051283,-0.0002
 9297,-0.00008715,0.00032711,-0.00039908,0.00089329,0.00237646,-0.00196
 894,-0.00206318,0.01483172,-0.01430439,0.01104437,-0.06751253,0.065425
 76,-0.09617298,-0.02254999,0.02136547,-0.00618768,0.00060520,-0.000180
 86,-0.00572542,0.00050738,-0.00042112,-0.00109732,0.00003204,-0.000021
 70,-0.00011356,-0.00007215,0.00014419,-0.00020948,-0.00042948,0.000247
 97,0.00091693,0.07248899,-0.07028221,0.09802083,-0.00011197,0.00012711
 ,0.00018806,-0.00045669,-0.00070659,-0.00036908,-0.00005836,-0.0000363
 6,-0.00082312,0.00391533,0.00305305,-0.00095529,0.00565545,-0.00203238
 ,-0.00338428,-0.14441754,0.09528377,0.10223623,-0.00824069,0.01035019,
 0.01528993,0.00095332,0.00571302,-0.00254213,0.00009925,-0.00004974,-0
 .00008714,-0.00003686,0.00000916,0.00026218,0.00016168,-0.00011700,-0.
 00022484,-0.00137200,-0.00231883,0.00018783,0.14554021,-0.00006272,0.0
 0007280,-0.00012766,-0.00049071,-0.00066278,0.00014444,-0.00006881,-0.
 00012342,0.00077644,0.00312873,0.00422970,0.00131705,-0.00264896,0.005
 67333,0.00374186,0.09540914,-0.12373596,-0.09095359,0.01070418,-0.0062
 2465,-0.01426285,0.00569801,0.00193808,0.00236485,0.00012821,-0.000103
 28,-0.00013167,-0.00002530,0.00008081,-0.00001164,-0.00013703,0.000161
 61,0.00023293,-0.00232976,-0.00169608,-0.00033698,-0.10723225,0.122435
 42,0.00015957,-0.00009272,0.00011724,-0.00024835,0.00027005,-0.0001135
 0,-0.00084144,0.00075724,-0.00051802,-0.00152039,0.00181725,-0.0053524
 1,0.01959752,-0.01769035,-0.01441752,0.10230683,-0.09088076,-0.1716480
 0,-0.00783926,0.00701679,0.01137557,-0.00194321,0.00189989,-0.00010011
 ,0.00001289,-0.00002782,-0.00002512,0.00016544,-0.00017703,0.00003422,
 0.00093279,-0.00090985,-0.00066144,-0.00028051,0.00010548,0.00106444,-
 0.11036710,0.09785986,0.17895763,-0.00020878,0.00007529,-0.00013977,0.
 00100304,-0.00026109,0.00052069,0.00129369,0.00530357,0.00235651,-0.00
 101874,0.00048027,0.00027531,0.00028244,0.00616838,-0.00068983,0.00162
 896,0.00124927,-0.02264287,-0.05305964,0.01533655,-0.03035821,0.005404
 95,-0.00258384,0.01928665,-0.00014667,0.00013590,0.00003678,-0.0002497
 6,-0.00007376,0.00038083,-0.00046125,-0.00065682,-0.00005793,0.0001010
 3,0.00021561,-0.00119892,-0.00119228,-0.00244527,0.00026647,0.04776223
 ,0.00012830,-0.00010693,0.00017204,-0.00016879,0.00074132,-0.00042425,
 0.00523614,0.00226968,-0.00151330,0.00033098,-0.00074234,-0.00013124,0
 .00620524,0.00130607,0.00061122,0.00116889,0.00134097,0.02106637,0.015
 10302,-0.05030551,0.03099688,-0.00239829,0.00497655,-0.01774113,0.0000
 2914,-0.00000538,-0.00001091,0.00018846,-0.00016175,-0.00057052,-0.000
 68720,-0.00055477,-0.00003340,0.00015334,0.00006820,0.00107409,-0.0024
 3713,-0.00163616,-0.00032842,-0.02041336,0.04469603,0.00034526,-0.0002
 1335,0.00011103,-0.00108982,0.00095410,0.00015448,0.00272025,-0.002506
 87,-0.00051091,0.00017836,-0.00018181,0.00063636,-0.00149420,0.0014158
 0,0.00125018,0.00049711,-0.00037102,-0.00684934,-0.03026084,0.03133229
 ,-0.33449042,-0.00347526,0.00332950,-0.01527772,0.00015914,-0.00010542
 ,-0.00009557,0.00027378,-0.00009511,-0.00054319,-0.00001848,0.00000175
 ,-0.00005564,0.00010583,-0.00007487,-0.00041368,-0.00019111,0.00012513
 ,0.00082548,0.03231301,-0.03346300,0.35438662,-0.00133216,0.00047885,0
 .00072356,-0.00066206,-0.00110784,0.00061184,0.00068889,0.00125195,-0.
 00193509,0.00326077,0.00221670,0.00031490,-0.00001050,-0.00037567,0.00
 043146,0.00243634,0.00412896,0.00281116,-0.00742322,0.00974676,-0.0072
 1507,-0.19056209,0.13638980,-0.07093745,0.00019886,-0.00003706,-0.0003
 9412,-0.00013393,0.00004450,0.00009274,0.00040571,0.00027255,0.0000966
 2,-0.00054708,-0.00054643,-0.00006764,-0.00041159,0.00041467,-0.000405
 16,-0.00117196,-0.00240174,-0.00000881,0.19543616,-0.00035967,-0.00050
 830,-0.00104131,-0.00051624,-0.00206615,-0.00091142,0.00175052,0.00096
 330,0.00196774,0.00228560,0.00407918,0.00028788,-0.00038955,-0.0001135
 5,-0.00060821,0.00464105,0.00335572,-0.00244474,0.01008828,-0.00538899
 ,0.00672740,0.13492560,-0.15736782,0.06123761,0.00036280,-0.00009422,-
 0.00032893,-0.00014413,0.00038657,0.00056558,0.00033456,0.00042991,-0.
 00003947,-0.00059181,-0.00067387,0.00001937,0.00043921,-0.00037369,0.0
 0038535,-0.00260968,-0.00184089,-0.00007106,-0.15001127,0.15945984,0.0
 0132384,-0.00080280,0.00250411,-0.00474570,0.00259741,-0.00281558,-0.0
 2156590,0.01950705,-0.00643448,0.00076371,-0.00043763,-0.00614336,0.00
 046645,-0.00049057,-0.00080137,0.00233861,-0.00207221,-0.00252280,0.01
 473585,-0.01334401,0.01188322,-0.06938499,0.06090770,-0.09382077,0.000
 44319,-0.00011186,-0.00020350,0.00068384,-0.00057653,0.00071157,-0.001
 24152,0.00114247,-0.00022345,-0.00003648,0.00004582,0.00014906,0.00077
 752,-0.00073163,0.00044665,-0.00036192,0.00030861,0.00088645,0.0758783
 7,-0.06578685,0.09632326,0.00027511,0.00120972,-0.00168047,-0.00243828
 ,-0.00521674,0.01503281,-0.00021255,0.00062997,-0.00078188,0.00008578,
 0.00010461,-0.00003067,-0.00010081,0.00003448,0.00008196,-0.00006042,0
 .00005369,-0.00006266,-0.00003426,-0.00004377,-0.00009709,0.00026794,-
 0.00020560,0.00005926,-0.05330747,-0.01515121,0.03047104,-0.00064856,-
 0.00459649,0.00024333,-0.00005107,-0.00001788,0.00002153,-0.00001026,-
 0.00000840,0.00000297,0.00000155,0.00001075,-0.00000225,0.00002880,-0.
 00000640,-0.00001133,-0.00002872,-0.00008865,-0.00010010,0.05119257,0.
 00115962,0.00193239,-0.00273063,-0.00088032,-0.01111376,0.02476409,0.0
 0003854,0.00123452,-0.00139808,0.00021966,-0.00006649,0.00020273,-0.00
 017694,0.00003312,0.00014103,-0.00010256,0.00007398,-0.00014481,0.0001
 5279,-0.00004037,-0.00035455,0.00037371,-0.00021102,-0.00015934,-0.015
 78808,-0.11054078,0.11849040,-0.00393967,-0.00641011,0.00046849,-0.000
 11805,0.00013060,0.00002317,-0.00001941,-0.00000544,0.00000028,-0.0000
 1300,0.00001705,-0.00000914,0.00002858,-0.00002698,-0.00001964,-0.0002
 2853,-0.00009237,-0.00015608,0.01847990,0.11631203,0.00049032,-0.00058
 945,0.00028786,-0.00150040,-0.00299938,0.00480280,0.00010049,0.0002625
 3,-0.00013295,-0.00018538,0.00014480,0.00001123,-0.00001947,-0.0000521
 0,-0.00010070,0.00004761,-0.00004499,0.00006886,-0.00011331,0.00004206
 ,-0.00002785,0.00018194,-0.00030036,-0.00000899,0.03065637,0.11810555,
 -0.26147972,-0.00113070,-0.00255690,0.00208059,-0.00000987,0.00000766,
 0.00000900,0.00000128,0.00000315,-0.00000405,0.00000325,0.00000892,0.0
 0000277,0.00001819,-0.00000420,-0.00001163,-0.00007215,-0.00004532,-0.
 00002328,-0.03257206,-0.12681840,0.27774884,-0.00122406,-0.00335143,-0
 .00128139,-0.01329879,0.00672400,-0.00626189,0.00081036,-0.00027290,0.
 00077490,0.00012370,0.00005953,-0.00011441,0.00016772,-0.00011738,-0.0
 0009638,0.00007260,-0.00008293,0.00017000,-0.00016423,0.00011649,0.000
 09236,0.00009347,0.00010109,-0.00024675,-0.26488319,0.06112680,-0.1019
 4415,0.00251034,-0.00026094,0.00155671,0.00001714,-0.00012732,0.000022
 73,0.00000887,-0.00000525,-0.00001734,0.00000373,-0.00000301,0.0000106
 3,-0.00001558,-0.00000833,0.00000303,-0.00003755,0.00000517,0.00007016
 ,0.00698049,-0.00109667,0.00314437,0.28100276,-0.00628175,-0.00482340,
 -0.00302900,-0.02317818,0.00882755,-0.01073210,0.00137147,-0.00011334,
 0.00106186,0.00016410,-0.00012987,-0.00058794,0.00019182,-0.00019476,0
 .00004473,0.00002986,-0.00004517,0.00007770,-0.00013290,-0.00003038,0.
 00010279,-0.00002025,0.00015980,0.00001041,0.06084416,-0.06263749,0.02
 978056,0.00271457,-0.00021848,0.00049723,-0.00006015,-0.00025846,0.000
 09073,0.00003277,-0.00001404,-0.00003903,0.00000851,0.00000775,0.00001
 877,-0.00000968,-0.00000976,0.00000793,-0.00004778,0.00002905,0.000117
 91,0.01442551,-0.00283684,0.00442177,-0.06506766,0.06522535,-0.0011879
 7,-0.00133121,0.00106874,-0.00407949,0.00206672,-0.00426590,0.00048417
 ,0.00002267,0.00019466,0.00014567,-0.00005097,0.00005655,0.00020297,-0
 .00005584,-0.00007511,0.00003473,-0.00004706,0.00005426,-0.00006339,0.
 00002727,0.00002480,-0.00009499,0.00006472,-0.00022317,-0.10263340,0.0
 2962936,-0.09783222,0.00102246,0.00006028,0.00019467,-0.00004514,-0.00
 006082,0.00009619,-0.00000589,-0.00001177,-0.00000477,-0.00000173,-0.0
 0000637,0.00000991,-0.00000228,-0.00000222,0.00000561,0.00001545,0.000
 04393,0.00009736,-0.02423335,0.00415297,-0.00884864,0.11146031,-0.0311
 6371,0.09904116,-0.00030173,0.00162716,0.00139017,0.00963584,-0.011578
 05,-0.01203060,-0.00199248,-0.00263408,0.00003583,0.00000556,0.0000596
 9,-0.00038220,0.00034700,0.00015754,-0.00017717,0.00011058,-0.00015530
 ,0.00003594,0.00014487,0.00029667,0.00003428,0.00036811,-0.00031725,-0
 .00010091,-0.13121077,0.08538341,0.09642762,-0.00049662,0.00179020,0.0
 0025105,-0.00012939,-0.00022110,0.00002068,0.00005027,-0.00002418,-0.0
 0002450,-0.00003257,-0.00004988,-0.00000447,0.00001953,-0.00002226,-0.
 00004593,-0.00010589,-0.00012179,-0.00004494,-0.00193982,0.00191043,0.
 00095952,-0.01216776,0.01501558,0.01898186,0.13769528,-0.00110620,0.00
 258025,0.00208896,0.01635033,-0.01719200,-0.01931390,-0.00327018,-0.00
 389151,-0.00060164,-0.00028959,0.00008052,-0.00064836,0.00031930,0.000
 30075,-0.00000610,-0.00006005,-0.00003035,-0.00016142,0.00054727,0.000
 13384,-0.00014862,0.00024851,-0.00040811,0.00060249,0.08700217,-0.1310
 7466,-0.09736279,-0.00111308,0.00262379,0.00283550,-0.00005288,-0.0001
 9717,0.00001341,0.00006308,-0.00003748,-0.00002985,-0.00004076,-0.0000
 6054,-0.00001460,0.00006007,-0.00000834,-0.00006434,-0.00018844,-0.000
 18374,-0.00011679,-0.00961349,0.01161048,0.01041467,0.00226074,-0.0029
 3751,-0.00333793,-0.09111679,0.13869177,-0.00120658,0.00126628,0.00018
 947,0.00364230,-0.00296958,-0.00362037,-0.00032124,-0.00097242,0.00023
 504,-0.00038742,0.00026443,-0.00003750,0.00021398,-0.00007492,-0.00028
 060,0.00008863,-0.00010619,0.00020923,-0.00012707,0.00015922,0.0000874
 4,0.00002658,-0.00018294,0.00008866,0.09733618,-0.09641800,-0.15937864
 ,-0.00031472,0.00036230,0.00034981,-0.00002538,-0.00008472,0.00002321,
 0.00002739,0.00001159,-0.00000964,0.00000082,-0.00000910,0.00000222,-0
 .00000270,-0.00000662,-0.00000812,0.00005937,0.00004245,-0.00001309,0.
 01365898,-0.01645249,-0.01437414,-0.00734289,0.00931940,0.01040589,-0.
 10532623,0.10585131,0.16613114\\-0.00005746,-0.00000155,-0.00002813,0.
 00003971,0.00004043,0.00000187,0.00002265,-0.00002795,-0.00003766,-0.0
 0000656,0.00000655,0.00000639,0.00000088,0.00000339,0.00000524,-0.0000
 0658,0.00001225,0.00000154,0.00000900,-0.00000479,0.00000103,-0.000016
 37,0.00000785,0.00001980,-0.00001473,0.00000350,0.00000146,-0.00000365
 ,-0.00002838,0.00003047,0.00000193,-0.00000642,-0.00000372,0.00000103,
 -0.00000094,-0.00000351,-0.00000336,-0.00000334,0.00000148,0.00000109,
 -0.00000129,-0.00000004,0.00000332,-0.00000586,-0.00000308,0.00001391,
 -0.00000363,0.00000442,0.00000717,0.00000425,-0.00000034,0.00000803,0.
 00000593,0.00000277\\\@


 A HARD FALL SHOULD MEAN A HIGH BOUNCE 
 IF ONE IS MADE OF THE RIGHT MATERIAL.

                -- THE CHEMIST ANALYST, MARCH 1950
 Job cpu time:       0 days  0 hours  9 minutes 39.4 seconds.
 Elapsed time:       0 days  0 hours  0 minutes 24.7 seconds.
 File lengths (MBytes):  RWF=     72 Int=      0 D2E=      0 Chk=      4 Scr=      1
 Normal termination of Gaussian 16 at Mon Oct 14 01:34:59 2019.
real 58.62
user 1312.22
sys 10.50
Machine:
brown-a256
brown-a256
brown-a256
brown-a256
brown-a256
brown-a256
brown-a256
brown-a256
brown-a256
brown-a256
brown-a256
brown-a256
brown-a256
brown-a256
brown-a256
brown-a256
brown-a256
brown-a256
brown-a256
brown-a256
brown-a256
brown-a256
brown-a256
brown-a256
