Title Card Required                                                     
Freq      RB3LYP                                                      6-31G(d)            
Number of atoms                            I               19
Info1-9                                    I   N=           9
          48          48        1002           0           0         100
           6          18        -502
Full Title                                 C   N=           2
Title Card Required     
Route                                      C   N=           6
#P opt freq b3lyp/6-31g(d) geom=connectivity temperature=0.0
01          
Charge                                     I                1
Multiplicity                               I                1
Number of electrons                        I               82
Number of alpha electrons                  I               41
Number of beta electrons                   I               41
Number of basis functions                  I              172
Number of independent functions            I              172
Number of point charges in /Mol/           I                0
Number of translation vectors              I                0
Atomic numbers                             I   N=          19
           8          16           6           6           6           6
           6           6           6           8           1           1
           1           1           1           1           1           1
           1
Nuclear charges                            R   N=          19
  8.00000000E+00  1.60000000E+01  6.00000000E+00  6.00000000E+00  6.00000000E+00
  6.00000000E+00  6.00000000E+00  6.00000000E+00  6.00000000E+00  8.00000000E+00
  1.00000000E+00  1.00000000E+00  1.00000000E+00  1.00000000E+00  1.00000000E+00
  1.00000000E+00  1.00000000E+00  1.00000000E+00  1.00000000E+00
Current cartesian coordinates              R   N=          57
  3.59367978E+00  1.82212073E+00 -2.07337018E+00  2.63491999E+00 -3.03831693E-01
 -1.03159296E-01 -6.93890076E-01 -7.62006208E-02 -5.78165169E-02 -2.04976302E+00
 -2.34741165E+00  6.60682886E-02 -4.67877273E+00 -2.20702912E+00  1.49013530E-01
 -5.88483155E+00  1.41757058E-01  1.16128040E-01 -4.48808060E+00  2.38588741E+00
 -1.01529527E-02 -1.86152806E+00  2.30540926E+00 -9.86921452E-02  3.99341397E+00
  1.06025471E+00  2.68154217E+00  3.51394323E+00 -2.85901806E+00 -6.03547828E-01
 -1.07965374E+00 -4.15330062E+00  7.68878186E-02 -5.77864709E+00 -3.93535443E+00
  2.35786736E-01 -7.93340378E+00  2.30088511E-01  1.82892143E-01 -5.44625084E+00
  4.19841538E+00 -5.01582818E-02 -7.69376860E-01  4.03706478E+00 -2.30060100E-01
  3.29402098E+00  2.98710335E+00  2.91414809E+00  3.43009177E+00 -1.42756399E-01
  4.26245294E+00  6.04250535E+00  1.02743926E+00  2.41827021E+00  3.20172273E+00
  1.33178363E+00 -3.82086923E+00
Number of symbols in /Mol/                 I                0
Force Field                                I                0
Atom Types                                 C   N=          19
                                                            
                                                            
                                                            
                                                
Int Atom Types                             I   N=          19
           0           0           0           0           0           0
           0           0           0           0           0           0
           0           0           0           0           0           0
           0
MM charges                                 R   N=          19
  0.00000000E+00  0.00000000E+00  0.00000000E+00  0.00000000E+00  0.00000000E+00
  0.00000000E+00  0.00000000E+00  0.00000000E+00  0.00000000E+00  0.00000000E+00
  0.00000000E+00  0.00000000E+00  0.00000000E+00  0.00000000E+00  0.00000000E+00
  0.00000000E+00  0.00000000E+00  0.00000000E+00  0.00000000E+00
Integer atomic weights                     I   N=          19
          16          32          12          12          12          12
          12          12          12          16           1           1
           1           1           1           1           1           1
           1
Real atomic weights                        R   N=          19
  1.59949146E+01  3.19720718E+01  1.20000000E+01  1.20000000E+01  1.20000000E+01
  1.20000000E+01  1.20000000E+01  1.20000000E+01  1.20000000E+01  1.59949146E+01
  1.00782504E+00  1.00782504E+00  1.00782504E+00  1.00782504E+00  1.00782504E+00
  1.00782504E+00  1.00782504E+00  1.00782504E+00  1.00782504E+00
Atom fragment info                         I   N=          19
           0           0           0           0           0           0
           0           0           0           0           0           0
           0           0           0           0           0           0
           0
Atom residue num                           I   N=          19
           0           0           0           0           0           0
           0           0           0           0           0           0
           0           0           0           0           0           0
           0
Nuclear spins                              I   N=          19
           0           0           0           0           0           0
           0           0           0           0           1           1
           1           1           1           1           1           1
           1
Nuclear ZEff                               R   N=          19
 -5.60000000E+00 -1.36000000E+01 -3.60000000E+00 -3.60000000E+00 -3.60000000E+00
 -3.60000000E+00 -3.60000000E+00 -3.60000000E+00 -3.60000000E+00 -5.60000000E+00
 -1.00000000E+00 -1.00000000E+00 -1.00000000E+00 -1.00000000E+00 -1.00000000E+00
 -1.00000000E+00 -1.00000000E+00 -1.00000000E+00 -1.00000000E+00
Nuclear ZNuc                               R   N=          19
  8.00000000E+00  1.60000000E+01  6.00000000E+00  6.00000000E+00  6.00000000E+00
  6.00000000E+00  6.00000000E+00  6.00000000E+00  6.00000000E+00  8.00000000E+00
  1.00000000E+00  1.00000000E+00  1.00000000E+00  1.00000000E+00  1.00000000E+00
  1.00000000E+00  1.00000000E+00  1.00000000E+00  1.00000000E+00
Nuclear QMom                               R   N=          19
  0.00000000E+00  0.00000000E+00  0.00000000E+00  0.00000000E+00  0.00000000E+00
  0.00000000E+00  0.00000000E+00  0.00000000E+00  0.00000000E+00  0.00000000E+00
  0.00000000E+00  0.00000000E+00  0.00000000E+00  0.00000000E+00  0.00000000E+00
  0.00000000E+00  0.00000000E+00  0.00000000E+00  0.00000000E+00
Nuclear GFac                               R   N=          19
  0.00000000E+00  0.00000000E+00  0.00000000E+00  0.00000000E+00  0.00000000E+00
  0.00000000E+00  0.00000000E+00  0.00000000E+00  0.00000000E+00  0.00000000E+00
  2.79284600E+00  2.79284600E+00  2.79284600E+00  2.79284600E+00  2.79284600E+00
  2.79284600E+00  2.79284600E+00  2.79284600E+00  2.79284600E+00
MicOpt                                     I   N=          19
          -1          -1          -1          -1          -1          -1
          -1          -1          -1          -1          -1          -1
          -1          -1          -1          -1          -1          -1
          -1
Number of residues                         I                0
Number of secondary structures             I                0
Redundant internal dimensions              I   N=           4
          92          19          31          42
Redundant internal coordinate indices      I   N=         368
           1           2           0           0           1          19
           0           0           2           3           0           0
           2           9           0           0           2          10
           0           0           3           4           0           0
           3           8           0           0           4           5
           0           0           4          11           0           0
           5           6           0           0           5          12
           0           0           6           7           0           0
           6          13           0           0           7           8
           0           0           7          14           0           0
           8          15           0           0           9          16
           0           0           9          17           0           0
           9          18           0           0           2           1
          19           0           1           2           3           0
           1           2           9           0           1           2
          10           0           3           2           9           0
           3           2          10           0           9           2
          10           0           2           3           4           0
           2           3           8           0           4           3
           8           0           3           4           5           0
           3           4          11           0           5           4
          11           0           4           5           6           0
           4           5          12           0           6           5
          12           0           5           6           7           0
           5           6          13           0           7           6
          13           0           6           7           8           0
           6           7          14           0           8           7
          14           0           3           8           7           0
           3           8          15           0           7           8
          15           0           2           9          16           0
           2           9          17           0           2           9
          18           0          16           9          17           0
          16           9          18           0          17           9
          18           0          19           1           2           3
          19           1           2           9          19           1
           2          10           1           2           3           4
           1           2           3           8           9           2
           3           4           9           2           3           8
          10           2           3           4          10           2
           3           8           1           2           9          16
           1           2           9          17           1           2
           9          18           3           2           9          16
           3           2           9          17           3           2
           9          18          10           2           9          16
          10           2           9          17          10           2
           9          18           2           3           4           5
           2           3           4          11           8           3
           4           5           8           3           4          11
           2           3           8           7           2           3
           8          15           4           3           8           7
           4           3           8          15           3           4
           5           6           3           4           5          12
          11           4           5           6          11           4
           5          12           4           5           6           7
           4           5           6          13          12           5
           6           7          12           5           6          13
           5           6           7           8           5           6
           7          14          13           6           7           8
          13           6           7          14           6           7
           8           3           6           7           8          15
          14           7           8           3          14           7
           8          15
Redundant internal coordinates             R   N=          92
  3.05296986E+00  1.85682894E+00  3.33689201E+00  3.38538031E+00  2.74809896E+00
  2.64804427E+00  2.65275609E+00  2.63406136E+00  2.04999124E+00  2.64054082E+00
  2.05045399E+00  2.64631463E+00  2.05156234E+00  2.62927636E+00  2.05059706E+00
  2.05150740E+00  2.06300794E+00  2.06490835E+00  2.06619564E+00  1.93602790E+00
  1.84891517E+00  1.69535028E+00  2.01475057E+00  1.94082970E+00  1.96599683E+00
  1.97802895E+00  2.04082828E+00  2.09454378E+00  2.14763006E+00  2.05647471E+00
  2.11006193E+00  2.11659547E+00  2.09772992E+00  2.08493699E+00  2.10051680E+00
  2.11045304E+00  2.08745115E+00  2.08527536E+00  2.09776244E+00  2.09887228E+00
  2.08653539E+00  2.05631296E+00  2.12289244E+00  2.10381290E+00  1.91032689E+00
  1.86036859E+00  1.86162984E+00  1.94479120E+00  1.94486968E+00  1.93783076E+00
 -1.25629597E+00  3.02838925E+00  9.32193029E-01  2.45658808E+00 -7.04948641E-01
 -2.00381321E+00  1.11783537E+00  2.38426212E-01 -2.92311051E+00  9.91041975E-01
  3.09647231E+00 -1.11522346E+00 -9.32359834E-01  1.17307050E+00 -3.03862527E+00
  3.11505269E+00 -1.06270229E+00  1.00878726E+00  3.12213340E+00 -3.04062977E-02
  1.14537598E-03  3.13179098E+00 -3.11996241E+00  4.11758931E-02  4.16330187E-04
 -3.12163067E+00 -3.55393627E-03  3.13612458E+00 -3.13415634E+00  5.52217625E-03
  4.49310240E-03 -3.14076506E+00 -3.13516818E+00  2.75896580E-03 -2.87439594E-03
  3.13276780E+00 -3.14080606E+00 -5.16386249E-03  4.26397299E-04  3.12269699E+00
 -3.13525787E+00 -1.29872773E-02
ZRed-IntVec                                I   N=          92
           0           0           0           0           0           0
           0           0           0           0           0           0
           0           0           0           0           0           0
           0           0           0           0           0           0
           0           0           0           0           0           0
           0           0           0           0           0           0
           0           0           0           0           0           0
           0           0           0           0           0           0
           0           0           0           0           0           0
           0           0           0           0           0           0
           0           0           0           0           0           0
           0           0           0           0           0           0
           0           0           0           0           0           0
           0           0           0           0           0           0
           0           0           0           0           0           0
           0           0
ZRed-FPVec                                 R   N=          92
  0.00000000E+00  0.00000000E+00  0.00000000E+00  0.00000000E+00  0.00000000E+00
  0.00000000E+00  0.00000000E+00  0.00000000E+00  0.00000000E+00  0.00000000E+00
  0.00000000E+00  0.00000000E+00  0.00000000E+00  0.00000000E+00  0.00000000E+00
  0.00000000E+00  0.00000000E+00  0.00000000E+00  0.00000000E+00  0.00000000E+00
  0.00000000E+00  0.00000000E+00  0.00000000E+00  0.00000000E+00  0.00000000E+00
  0.00000000E+00  0.00000000E+00  0.00000000E+00  0.00000000E+00  0.00000000E+00
  0.00000000E+00  0.00000000E+00  0.00000000E+00  0.00000000E+00  0.00000000E+00
  0.00000000E+00  0.00000000E+00  0.00000000E+00  0.00000000E+00  0.00000000E+00
  0.00000000E+00  0.00000000E+00  0.00000000E+00  0.00000000E+00  0.00000000E+00
  0.00000000E+00  0.00000000E+00  0.00000000E+00  0.00000000E+00  0.00000000E+00
  0.00000000E+00  0.00000000E+00  0.00000000E+00  0.00000000E+00  0.00000000E+00
  0.00000000E+00  0.00000000E+00  0.00000000E+00  0.00000000E+00  0.00000000E+00
  0.00000000E+00  0.00000000E+00  0.00000000E+00  0.00000000E+00  0.00000000E+00
  0.00000000E+00  0.00000000E+00  0.00000000E+00  0.00000000E+00  0.00000000E+00
  0.00000000E+00  0.00000000E+00  0.00000000E+00  0.00000000E+00  0.00000000E+00
  0.00000000E+00  0.00000000E+00  0.00000000E+00  0.00000000E+00  0.00000000E+00
  0.00000000E+00  0.00000000E+00  0.00000000E+00  0.00000000E+00  0.00000000E+00
  0.00000000E+00  0.00000000E+00  0.00000000E+00  0.00000000E+00  0.00000000E+00
  0.00000000E+00  0.00000000E+00
ZRed-Constraint1                           R   N=          92
  3.05296986E+00  1.85682894E+00  3.33689201E+00  3.38538031E+00  2.74809896E+00
  2.64804427E+00  2.65275609E+00  2.63406136E+00  2.04999124E+00  2.64054082E+00
  2.05045399E+00  2.64631463E+00  2.05156234E+00  2.62927636E+00  2.05059706E+00
  2.05150740E+00  2.06300794E+00  2.06490835E+00  2.06619564E+00  1.93602790E+00
  1.84891517E+00  1.69535028E+00  2.01475057E+00  1.94082970E+00  1.96599683E+00
  1.97802895E+00  2.04082828E+00  2.09454378E+00  2.14763006E+00  2.05647471E+00
  2.11006193E+00  2.11659547E+00  2.09772992E+00  2.08493699E+00  2.10051680E+00
  2.11045304E+00  2.08745115E+00  2.08527536E+00  2.09776244E+00  2.09887228E+00
  2.08653539E+00  2.05631296E+00  2.12289244E+00  2.10381290E+00  1.91032689E+00
  1.86036859E+00  1.86162984E+00  1.94479120E+00  1.94486968E+00  1.93783076E+00
 -1.25629597E+00  3.02838925E+00  9.32193029E-01  2.45658808E+00 -7.04948641E-01
 -2.00381321E+00  1.11783537E+00  2.38426212E-01 -2.92311051E+00  9.91041975E-01
  3.09647231E+00 -1.11522346E+00 -9.32359834E-01  1.17307050E+00 -3.03862527E+00
  3.11505269E+00 -1.06270229E+00  1.00878726E+00  3.12213340E+00 -3.04062977E-02
  1.14537598E-03  3.13179098E+00 -3.11996241E+00  4.11758931E-02  4.16330187E-04
 -3.12163067E+00 -3.55393627E-03  3.13612458E+00 -3.13415634E+00  5.52217625E-03
  4.49310240E-03 -3.14076506E+00 -3.13516818E+00  2.75896580E-03 -2.87439594E-03
  3.13276780E+00 -3.14080606E+00 -5.16386249E-03  4.26397300E-04  3.12269699E+00
 -3.13525787E+00 -1.29872773E-02
ZRed-Constraint2                           R   N=          92
  3.03252282E+00  1.81413708E+00  3.34811374E+00  3.46119407E+00  3.03271713E+00
  2.66635868E+00  2.66631485E+00  2.65750009E+00  2.05976349E+00  2.65827458E+00
  2.05970753E+00  2.65808386E+00  2.05987630E+00  2.65751373E+00  2.05982423E+00
  2.05971358E+00  2.05976262E+00  2.05980151E+00  2.05991408E+00  2.09439510E+00
  1.93202313E+00  1.90497530E+00  1.89249441E+00  1.89709213E+00  1.93201224E+00
  1.90494201E+00  2.09801804E+00  2.09799406E+00  2.08695834E+00  2.09749710E+00
  2.09567109E+00  2.09001710E+00  2.09443954E+00  2.09415554E+00  2.09459022E+00
  2.09533121E+00  2.09387569E+00  2.09397840E+00  2.09451241E+00  2.09453652E+00
  2.09413637E+00  2.09746915E+00  2.09567800E+00  2.09003815E+00  1.91062383E+00
  1.91062131E+00  1.91062726E+00  1.91061848E+00  1.91069324E+00  1.91061528E+00
 -2.18523335E+00  2.01059887E+00 -6.27382198E-02  2.63148977E+00 -5.32472640E-01
 -1.55961100E+00  1.55961190E+00  5.32426010E-01 -2.63153640E+00  1.19737689E+00
 -2.99144445E+00 -8.97082294E-01 -9.11452138E-01  1.18291183E+00 -3.00591132E+00
 -3.02024790E+00 -9.25883931E-01  1.16847823E+00  3.13821140E+00 -3.48254993E-03
  1.88470315E-02 -3.12284692E+00 -3.13823338E+00  3.53882355E-03 -1.88686992E-02
  3.12290350E+00 -7.29711807E-03  3.13432259E+00  3.13439650E+00 -7.16909398E-03
 -4.35482969E-03  3.13732945E+00  3.13721076E+00 -4.29026523E-03  4.33306294E-03
 -3.13719694E+00 -3.13735122E+00  4.30407786E-03  7.34081795E-03 -3.13443080E+00
 -3.13431447E+00  7.09921782E-03
SymInf integers                            I   N=          26
           1           1           1           1           1           0
           0           0           0           0           0           0
           0           0           0           0           0           0
           0           0           0           0           0           0
           0           0
RotTr to input orientation                 R   N=          12
  5.09330592E-01 -5.83501439E-01 -6.32541239E-01  3.18103347E-01 -5.55311700E-01
  7.68400401E-01 -7.99620290E-01 -5.92583316E-01 -9.72234766E-02 -5.55539934E-01
 -6.97031263E-01 -6.10667750E-02
Number of contracted shells                I               59
Number of primitive shells                 I              152
Pure/Cartesian d shells                    I                1
Pure/Cartesian f shells                    I                0
Highest angular momentum                   I                2
Largest degree of contraction              I                6
Shell types                                I   N=          59
           0          -1          -1           2           0          -1
          -1          -1           2           0          -1          -1
           2           0          -1          -1           2           0
          -1          -1           2           0          -1          -1
           2           0          -1          -1           2           0
          -1          -1           2           0          -1          -1
           2           0          -1          -1           2           0
           0           0           0           0           0           0
           0           0           0           0           0           0
           0           0           0           0           0
Number of primitives per shell             I   N=          59
           6           3           1           1           6           6
           3           1           1           6           3           1
           1           6           3           1           1           6
           3           1           1           6           3           1
           1           6           3           1           1           6
           3           1           1           6           3           1
           1           6           3           1           1           3
           1           3           1           3           1           3
           1           3           1           3           1           3
           1           3           1           3           1
Shell to atom map                          I   N=          59
           1           1           1           1           2           2
           2           2           2           3           3           3
           3           4           4           4           4           5
           5           5           5           6           6           6
           6           7           7           7           7           8
           8           8           8           9           9           9
           9          10          10          10          10          11
          11          12          12          13          13          14
          14          15          15          16          16          17
          17          18          18          19          19
Primitive exponents                        R   N=         152
  5.48467166E+03  8.25234946E+02  1.88046958E+02  5.29645000E+01  1.68975704E+01
  5.79963534E+00  1.55396162E+01  3.59993359E+00  1.01376175E+00  2.70005823E-01
  8.00000000E-01  2.19171000E+04  3.30149000E+03  7.54146000E+02  2.12711000E+02
  6.79896000E+01  2.30515000E+01  4.23735000E+02  1.00710000E+02  3.21599000E+01
  1.18079000E+01  4.63110000E+00  1.87025000E+00  2.61584000E+00  9.22167000E-01
  3.41287000E-01  1.17167000E-01  6.50000000E-01  3.04752488E+03  4.57369518E+02
  1.03948685E+02  2.92101553E+01  9.28666296E+00  3.16392696E+00  7.86827235E+00
  1.88128854E+00  5.44249258E-01  1.68714478E-01  8.00000000E-01  3.04752488E+03
  4.57369518E+02  1.03948685E+02  2.92101553E+01  9.28666296E+00  3.16392696E+00
  7.86827235E+00  1.88128854E+00  5.44249258E-01  1.68714478E-01  8.00000000E-01
  3.04752488E+03  4.57369518E+02  1.03948685E+02  2.92101553E+01  9.28666296E+00
  3.16392696E+00  7.86827235E+00  1.88128854E+00  5.44249258E-01  1.68714478E-01
  8.00000000E-01  3.04752488E+03  4.57369518E+02  1.03948685E+02  2.92101553E+01
  9.28666296E+00  3.16392696E+00  7.86827235E+00  1.88128854E+00  5.44249258E-01
  1.68714478E-01  8.00000000E-01  3.04752488E+03  4.57369518E+02  1.03948685E+02
  2.92101553E+01  9.28666296E+00  3.16392696E+00  7.86827235E+00  1.88128854E+00
  5.44249258E-01  1.68714478E-01  8.00000000E-01  3.04752488E+03  4.57369518E+02
  1.03948685E+02  2.92101553E+01  9.28666296E+00  3.16392696E+00  7.86827235E+00
  1.88128854E+00  5.44249258E-01  1.68714478E-01  8.00000000E-01  3.04752488E+03
  4.57369518E+02  1.03948685E+02  2.92101553E+01  9.28666296E+00  3.16392696E+00
  7.86827235E+00  1.88128854E+00  5.44249258E-01  1.68714478E-01  8.00000000E-01
  5.48467166E+03  8.25234946E+02  1.88046958E+02  5.29645000E+01  1.68975704E+01
  5.79963534E+00  1.55396162E+01  3.59993359E+00  1.01376175E+00  2.70005823E-01
  8.00000000E-01  1.87311370E+01  2.82539436E+00  6.40121692E-01  1.61277759E-01
  1.87311370E+01  2.82539436E+00  6.40121692E-01  1.61277759E-01  1.87311370E+01
  2.82539436E+00  6.40121692E-01  1.61277759E-01  1.87311370E+01  2.82539436E+00
  6.40121692E-01  1.61277759E-01  1.87311370E+01  2.82539436E+00  6.40121692E-01
  1.61277759E-01  1.87311370E+01  2.82539436E+00  6.40121692E-01  1.61277759E-01
  1.87311370E+01  2.82539436E+00  6.40121692E-01  1.61277759E-01  1.87311370E+01
  2.82539436E+00  6.40121692E-01  1.61277759E-01  1.87311370E+01  2.82539436E+00
  6.40121692E-01  1.61277759E-01
Contraction coefficients                   R   N=         152
  1.83107443E-03  1.39501722E-02  6.84450781E-02  2.32714336E-01  4.70192898E-01
  3.58520853E-01 -1.10777550E-01 -1.48026263E-01  1.13076702E+00  1.00000000E+00
  1.00000000E+00  1.86924085E-03  1.42303065E-02  6.96962317E-02  2.38487108E-01
  4.83307220E-01  3.38074154E-01 -2.37677050E-03 -3.16930067E-02 -1.13317024E-01
  5.60900118E-02  5.92255124E-01  4.55006095E-01 -2.50373114E-01  6.69567631E-02
  1.05450627E+00  1.00000000E+00  1.00000000E+00  1.83473713E-03  1.40373228E-02
  6.88426223E-02  2.32184443E-01  4.67941348E-01  3.62311985E-01 -1.19332420E-01
 -1.60854152E-01  1.14345644E+00  1.00000000E+00  1.00000000E+00  1.83473713E-03
  1.40373228E-02  6.88426223E-02  2.32184443E-01  4.67941348E-01  3.62311985E-01
 -1.19332420E-01 -1.60854152E-01  1.14345644E+00  1.00000000E+00  1.00000000E+00
  1.83473713E-03  1.40373228E-02  6.88426223E-02  2.32184443E-01  4.67941348E-01
  3.62311985E-01 -1.19332420E-01 -1.60854152E-01  1.14345644E+00  1.00000000E+00
  1.00000000E+00  1.83473713E-03  1.40373228E-02  6.88426223E-02  2.32184443E-01
  4.67941348E-01  3.62311985E-01 -1.19332420E-01 -1.60854152E-01  1.14345644E+00
  1.00000000E+00  1.00000000E+00  1.83473713E-03  1.40373228E-02  6.88426223E-02
  2.32184443E-01  4.67941348E-01  3.62311985E-01 -1.19332420E-01 -1.60854152E-01
  1.14345644E+00  1.00000000E+00  1.00000000E+00  1.83473713E-03  1.40373228E-02
  6.88426223E-02  2.32184443E-01  4.67941348E-01  3.62311985E-01 -1.19332420E-01
 -1.60854152E-01  1.14345644E+00  1.00000000E+00  1.00000000E+00  1.83473713E-03
  1.40373228E-02  6.88426223E-02  2.32184443E-01  4.67941348E-01  3.62311985E-01
 -1.19332420E-01 -1.60854152E-01  1.14345644E+00  1.00000000E+00  1.00000000E+00
  1.83107443E-03  1.39501722E-02  6.84450781E-02  2.32714336E-01  4.70192898E-01
  3.58520853E-01 -1.10777550E-01 -1.48026263E-01  1.13076702E+00  1.00000000E+00
  1.00000000E+00  3.34946043E-02  2.34726953E-01  8.13757326E-01  1.00000000E+00
  3.34946043E-02  2.34726953E-01  8.13757326E-01  1.00000000E+00  3.34946043E-02
  2.34726953E-01  8.13757326E-01  1.00000000E+00  3.34946043E-02  2.34726953E-01
  8.13757326E-01  1.00000000E+00  3.34946043E-02  2.34726953E-01  8.13757326E-01
  1.00000000E+00  3.34946043E-02  2.34726953E-01  8.13757326E-01  1.00000000E+00
  3.34946043E-02  2.34726953E-01  8.13757326E-01  1.00000000E+00  3.34946043E-02
  2.34726953E-01  8.13757326E-01  1.00000000E+00  3.34946043E-02  2.34726953E-01
  8.13757326E-01  1.00000000E+00
P(S=P) Contraction coefficients            R   N=         152
  0.00000000E+00  0.00000000E+00  0.00000000E+00  0.00000000E+00  0.00000000E+00
  0.00000000E+00  7.08742682E-02  3.39752839E-01  7.27158577E-01  1.00000000E+00
  0.00000000E+00  0.00000000E+00  0.00000000E+00  0.00000000E+00  0.00000000E+00
  0.00000000E+00  0.00000000E+00  4.06100998E-03  3.06812999E-02  1.30451999E-01
  3.27204999E-01  4.52850998E-01  2.56041999E-01 -1.45104895E-02  3.10262776E-01
  7.54482456E-01  1.00000000E+00  0.00000000E+00  0.00000000E+00  0.00000000E+00
  0.00000000E+00  0.00000000E+00  0.00000000E+00  0.00000000E+00  6.89990666E-02
  3.16423961E-01  7.44308291E-01  1.00000000E+00  0.00000000E+00  0.00000000E+00
  0.00000000E+00  0.00000000E+00  0.00000000E+00  0.00000000E+00  0.00000000E+00
  6.89990666E-02  3.16423961E-01  7.44308291E-01  1.00000000E+00  0.00000000E+00
  0.00000000E+00  0.00000000E+00  0.00000000E+00  0.00000000E+00  0.00000000E+00
  0.00000000E+00  6.89990666E-02  3.16423961E-01  7.44308291E-01  1.00000000E+00
  0.00000000E+00  0.00000000E+00  0.00000000E+00  0.00000000E+00  0.00000000E+00
  0.00000000E+00  0.00000000E+00  6.89990666E-02  3.16423961E-01  7.44308291E-01
  1.00000000E+00  0.00000000E+00  0.00000000E+00  0.00000000E+00  0.00000000E+00
  0.00000000E+00  0.00000000E+00  0.00000000E+00  6.89990666E-02  3.16423961E-01
  7.44308291E-01  1.00000000E+00  0.00000000E+00  0.00000000E+00  0.00000000E+00
  0.00000000E+00  0.00000000E+00  0.00000000E+00  0.00000000E+00  6.89990666E-02
  3.16423961E-01  7.44308291E-01  1.00000000E+00  0.00000000E+00  0.00000000E+00
  0.00000000E+00  0.00000000E+00  0.00000000E+00  0.00000000E+00  0.00000000E+00
  6.89990666E-02  3.16423961E-01  7.44308291E-01  1.00000000E+00  0.00000000E+00
  0.00000000E+00  0.00000000E+00  0.00000000E+00  0.00000000E+00  0.00000000E+00
  0.00000000E+00  7.08742682E-02  3.39752839E-01  7.27158577E-01  1.00000000E+00
  0.00000000E+00  0.00000000E+00  0.00000000E+00  0.00000000E+00  0.00000000E+00
  0.00000000E+00  0.00000000E+00  0.00000000E+00  0.00000000E+00  0.00000000E+00
  0.00000000E+00  0.00000000E+00  0.00000000E+00  0.00000000E+00  0.00000000E+00