 Entering Gaussian System, Link 0=/apps/cent7/gaussian/g16-A.03/g16-haswell/g16/g16
 Initial command:
 /apps/cent7/gaussian/g16-A.03/g16-haswell/g16/l1.exe "/scratch/brown/finej/gaussian/Gau-98260.inp" -scrdir="/scratch/brown/finej/gaussian/"
 Entering Link 1 = /apps/cent7/gaussian/g16-A.03/g16-haswell/g16/l1.exe PID=     98262.
  
 Copyright (c) 1988,1990,1992,1993,1995,1998,2003,2009,2016,
            Gaussian, Inc.  All Rights Reserved.
  
 This is part of the Gaussian(R) 16 program.  It is based on
 the Gaussian(R) 09 system (copyright 2009, Gaussian, Inc.),
 the Gaussian(R) 03 system (copyright 2003, Gaussian, Inc.),
 the Gaussian(R) 98 system (copyright 1998, Gaussian, Inc.),
 the Gaussian(R) 94 system (copyright 1995, Gaussian, Inc.),
 the Gaussian 92(TM) system (copyright 1992, Gaussian, Inc.),
 the Gaussian 90(TM) system (copyright 1990, Gaussian, Inc.),
 the Gaussian 88(TM) system (copyright 1988, Gaussian, Inc.),
 the Gaussian 86(TM) system (copyright 1986, Carnegie Mellon
 University), and the Gaussian 82(TM) system (copyright 1983,
 Carnegie Mellon University). Gaussian is a federally registered
 trademark of Gaussian, Inc.
  
 This software contains proprietary and confidential information,
 including trade secrets, belonging to Gaussian, Inc.
  
 This software is provided under written license and may be
 used, copied, transmitted, or stored only in accord with that
 written license.
  
 The following legend is applicable only to US Government
 contracts under FAR:
  
                    RESTRICTED RIGHTS LEGEND
  
 Use, reproduction and disclosure by the US Government is
 subject to restrictions as set forth in subparagraphs (a)
 and (c) of the Commercial Computer Software - Restricted
 Rights clause in FAR 52.227-19.
  
 Gaussian, Inc.
 340 Quinnipiac St., Bldg. 40, Wallingford CT 06492
  
  
 ---------------------------------------------------------------
 Warning -- This program may not be used in any manner that
 competes with the business of Gaussian, Inc. or will provide
 assistance to any competitor of Gaussian, Inc.  The licensee
 of this program is prohibited from giving any competitor of
 Gaussian, Inc. access to this program.  By using this program,
 the user acknowledges that Gaussian, Inc. is engaged in the
 business of creating and licensing software in the field of
 computational chemistry and represents and warrants to the
 licensee that it is not a competitor of Gaussian, Inc. and that
 it will not use this program in any manner prohibited above.
 ---------------------------------------------------------------
  

 Cite this work as:
 Gaussian 16, Revision A.03,
 M. J. Frisch, G. W. Trucks, H. B. Schlegel, G. E. Scuseria, 
 M. A. Robb, J. R. Cheeseman, G. Scalmani, V. Barone, 
 G. A. Petersson, H. Nakatsuji, X. Li, M. Caricato, A. V. Marenich, 
 J. Bloino, B. G. Janesko, R. Gomperts, B. Mennucci, H. P. Hratchian, 
 J. V. Ortiz, A. F. Izmaylov, J. L. Sonnenberg, D. Williams-Young, 
 F. Ding, F. Lipparini, F. Egidi, J. Goings, B. Peng, A. Petrone, 
 T. Henderson, D. Ranasinghe, V. G. Zakrzewski, J. Gao, N. Rega, 
 G. Zheng, W. Liang, M. Hada, M. Ehara, K. Toyota, R. Fukuda, 
 J. Hasegawa, M. Ishida, T. Nakajima, Y. Honda, O. Kitao, H. Nakai, 
 T. Vreven, K. Throssell, J. A. Montgomery, Jr., J. E. Peralta, 
 F. Ogliaro, M. J. Bearpark, J. J. Heyd, E. N. Brothers, K. N. Kudin, 
 V. N. Staroverov, T. A. Keith, R. Kobayashi, J. Normand, 
 K. Raghavachari, A. P. Rendell, J. C. Burant, S. S. Iyengar, 
 J. Tomasi, M. Cossi, J. M. Millam, M. Klene, C. Adamo, R. Cammi, 
 J. W. Ochterski, R. L. Martin, K. Morokuma, O. Farkas, 
 J. B. Foresman, and D. J. Fox, Gaussian, Inc., Wallingford CT, 2016.
 
 ******************************************
 Gaussian 16:  ES64L-G16RevA.03 25-Dec-2016
                14-Oct-2019 
 ******************************************
 %chk=27_p.chk
 %nprocshared=24
 Will use up to   24 processors via shared memory.
 %mem=80GB
 --------------------------------------------------------------
 #P opt freq b3lyp/6-31g(d) geom=connectivity temperature=0.001
 --------------------------------------------------------------
 1/18=20,19=15,26=3,38=1,57=2,112=-1000/1,3;
 2/9=110,12=2,17=6,18=5,40=1/2;
 3/5=1,6=6,7=1,11=2,25=1,30=1,71=1,74=-5/1,2,3;
 4//1;
 5/5=2,38=5/2;
 6/7=2,8=2,9=2,10=2,28=1/1;
 7//1,2,3,16;
 1/18=20,19=15,26=3/3(2);
 2/9=110/2;
 99//99;
 2/9=110/2;
 3/5=1,6=6,7=1,11=2,25=1,30=1,71=1,74=-5/1,2,3;
 4/5=5,16=3,69=1/1;
 5/5=2,38=5/2;
 7//1,2,3,16;
 1/18=20,19=15,26=3/3(-5);
 2/9=110/2;
 6/7=2,8=2,9=2,10=2,19=2,28=1/1;
 99/9=1/99;
 Leave Link    1 at Mon Oct 14 01:35:40 2019, MaxMem= 10737418240 cpu:               0.9 elap:               0.0
 (Enter /apps/cent7/gaussian/g16-A.03/g16-haswell/g16/l101.exe)
 -------------------
 Title Card Required
 -------------------
 Symbolic Z-matrix:
 Charge =  1 Multiplicity = 1
 O                     2.0115   -1.3969   -0.2231 
 S                     0.5805   -1.0676   -0.8704 
 C                    -0.4103   -0.1184    0.2505 
 C                    -1.3767    0.7826   -0.2446 
 C                    -2.1656    1.5327    0.6457 
 C                    -1.9985    1.3794    2.034 
 C                    -1.0463    0.4723    2.533 
 C                    -0.2567   -0.2785    1.6439 
 C                    -0.2886   -2.6376   -1.2371 
 O                     0.8157   -0.264    -2.2395 
 H                    -1.5143    0.8997   -1.3195 
 H                    -2.9065    2.2328    0.2598 
 H                    -2.6075    1.964     2.7236 
 H                    -0.9203    0.3511    3.6089 
 H                     0.4752   -0.9851    2.0351 
 H                    -0.5607   -3.129    -0.303 
 H                    -1.1898   -2.428    -1.8133 
 H                     0.3675   -3.2901   -1.8133 
 H                     2.81579  -1.15924  -0.69026 
 
 ITRead=  0  0  0  0  0  0  0  0  0  0  0  0  0  0  0  0  0  0  0
 MicOpt= -1 -1 -1 -1 -1 -1 -1 -1 -1 -1 -1 -1 -1 -1 -1 -1 -1 -1 -1
 NAtoms=     19 NQM=       19 NQMF=       0 NMMI=      0 NMMIF=      0
                NMic=       0 NMicF=      0.
                    Isotopes and Nuclear Properties:
 (Nuclear quadrupole moments (NQMom) in fm**2, nuclear magnetic moments (NMagM)
  in nuclear magnetons)

  Atom         1           2           3           4           5           6           7           8           9          10
 IAtWgt=          16          32          12          12          12          12          12          12          12          16
 AtmWgt=  15.9949146  31.9720718  12.0000000  12.0000000  12.0000000  12.0000000  12.0000000  12.0000000  12.0000000  15.9949146
 NucSpn=           0           0           0           0           0           0           0           0           0           0
 AtZEff=  -0.0000000  -0.0000000  -0.0000000  -0.0000000  -0.0000000  -0.0000000  -0.0000000  -0.0000000  -0.0000000  -0.0000000
 NQMom=    0.0000000   0.0000000   0.0000000   0.0000000   0.0000000   0.0000000   0.0000000   0.0000000   0.0000000   0.0000000
 NMagM=    0.0000000   0.0000000   0.0000000   0.0000000   0.0000000   0.0000000   0.0000000   0.0000000   0.0000000   0.0000000
 AtZNuc=   8.0000000  16.0000000   6.0000000   6.0000000   6.0000000   6.0000000   6.0000000   6.0000000   6.0000000   8.0000000

  Atom        11          12          13          14          15          16          17          18          19
 IAtWgt=           1           1           1           1           1           1           1           1           1
 AtmWgt=   1.0078250   1.0078250   1.0078250   1.0078250   1.0078250   1.0078250   1.0078250   1.0078250   1.0078250
 NucSpn=           1           1           1           1           1           1           1           1           1
 AtZEff=  -0.0000000  -0.0000000  -0.0000000  -0.0000000  -0.0000000  -0.0000000  -0.0000000  -0.0000000  -0.0000000
 NQMom=    0.0000000   0.0000000   0.0000000   0.0000000   0.0000000   0.0000000   0.0000000   0.0000000   0.0000000
 NMagM=    2.7928460   2.7928460   2.7928460   2.7928460   2.7928460   2.7928460   2.7928460   2.7928460   2.7928460
 AtZNuc=   1.0000000   1.0000000   1.0000000   1.0000000   1.0000000   1.0000000   1.0000000   1.0000000   1.0000000
 Leave Link  101 at Mon Oct 14 01:35:41 2019, MaxMem= 10737418240 cpu:               8.3 elap:               0.4
 (Enter /apps/cent7/gaussian/g16-A.03/g16-haswell/g16/l103.exe)

 GradGradGradGradGradGradGradGradGradGradGradGradGradGradGradGradGradGrad
 Berny optimization.
 Initialization pass.
                           ----------------------------
                           !    Initial Parameters    !
                           ! (Angstroms and Degrees)  !
 --------------------------                            --------------------------
 ! Name  Definition              Value          Derivative Info.                !
 --------------------------------------------------------------------------------
 ! R1    R(1,2)                  1.6047         estimate D2E/DX2                !
 ! R2    R(1,19)                 0.96           estimate D2E/DX2                !
 ! R3    R(2,3)                  1.7717         estimate D2E/DX2                !
 ! R4    R(2,9)                  1.8316         estimate D2E/DX2                !
 ! R5    R(2,10)                 1.6048         estimate D2E/DX2                !
 ! R6    R(3,4)                  1.411          estimate D2E/DX2                !
 ! R7    R(3,8)                  1.411          estimate D2E/DX2                !
 ! R8    R(4,5)                  1.4063         estimate D2E/DX2                !
 ! R9    R(4,11)                 1.09           estimate D2E/DX2                !
 ! R10   R(5,6)                  1.4067         estimate D2E/DX2                !
 ! R11   R(5,12)                 1.09           estimate D2E/DX2                !
 ! R12   R(6,7)                  1.4066         estimate D2E/DX2                !
 ! R13   R(6,13)                 1.09           estimate D2E/DX2                !
 ! R14   R(7,8)                  1.4063         estimate D2E/DX2                !
 ! R15   R(7,14)                 1.09           estimate D2E/DX2                !
 ! R16   R(8,15)                 1.09           estimate D2E/DX2                !
 ! R17   R(9,16)                 1.09           estimate D2E/DX2                !
 ! R18   R(9,17)                 1.09           estimate D2E/DX2                !
 ! R19   R(9,18)                 1.0901         estimate D2E/DX2                !
 ! A1    A(2,1,19)             120.0            estimate D2E/DX2                !
 ! A2    A(1,2,3)              110.6968         estimate D2E/DX2                !
 ! A3    A(1,2,9)              109.147          estimate D2E/DX2                !
 ! A4    A(1,2,10)             108.4319         estimate D2E/DX2                !
 ! A5    A(3,2,9)              108.6954         estimate D2E/DX2                !
 ! A6    A(3,2,10)             110.6961         estimate D2E/DX2                !
 ! A7    A(9,2,10)             109.1451         estimate D2E/DX2                !
 ! A8    A(2,3,4)              120.2076         estimate D2E/DX2                !
 ! A9    A(2,3,8)              120.2062         estimate D2E/DX2                !
 ! A10   A(4,3,8)              119.5739         estimate D2E/DX2                !
 ! A11   A(3,4,5)              120.1777         estimate D2E/DX2                !
 ! A12   A(3,4,11)             120.0731         estimate D2E/DX2                !
 ! A13   A(5,4,11)             119.7492         estimate D2E/DX2                !
 ! A14   A(4,5,6)              120.0025         estimate D2E/DX2                !
 ! A15   A(4,5,12)             119.9863         estimate D2E/DX2                !
 ! A16   A(6,5,12)             120.0112         estimate D2E/DX2                !
 ! A17   A(5,6,7)              120.0536         estimate D2E/DX2                !
 ! A18   A(5,6,13)             119.9702         estimate D2E/DX2                !
 ! A19   A(7,6,13)             119.9761         estimate D2E/DX2                !
 ! A20   A(6,7,8)              120.0067         estimate D2E/DX2                !
 ! A21   A(6,7,14)             120.0081         estimate D2E/DX2                !
 ! A22   A(8,7,14)             119.9852         estimate D2E/DX2                !
 ! A23   A(3,8,7)              120.1761         estimate D2E/DX2                !
 ! A24   A(3,8,15)             120.0735         estimate D2E/DX2                !
 ! A25   A(7,8,15)             119.7504         estimate D2E/DX2                !
 ! A26   A(2,9,16)             109.4707         estimate D2E/DX2                !
 ! A27   A(2,9,17)             109.4705         estimate D2E/DX2                !
 ! A28   A(2,9,18)             109.4709         estimate D2E/DX2                !
 ! A29   A(16,9,17)            109.4704         estimate D2E/DX2                !
 ! A30   A(16,9,18)            109.4747         estimate D2E/DX2                !
 ! A31   A(17,9,18)            109.4702         estimate D2E/DX2                !
 ! D1    D(19,1,2,3)          -125.2046         estimate D2E/DX2                !
 ! D2    D(19,1,2,9)           115.1988         estimate D2E/DX2                !
 ! D3    D(19,1,2,10)           -3.5946         estimate D2E/DX2                !
 ! D4    D(1,2,3,4)            150.7733         estimate D2E/DX2                !
 ! D5    D(1,2,3,8)            -30.5084         estimate D2E/DX2                !
 ! D6    D(9,2,3,4)            -89.3591         estimate D2E/DX2                !
 ! D7    D(9,2,3,8)             89.3592         estimate D2E/DX2                !
 ! D8    D(10,2,3,4)            30.5058         estimate D2E/DX2                !
 ! D9    D(10,2,3,8)          -150.7759         estimate D2E/DX2                !
 ! D10   D(1,2,9,16)            68.6046         estimate D2E/DX2                !
 ! D11   D(1,2,9,17)          -171.3971         estimate D2E/DX2                !
 ! D12   D(1,2,9,18)           -51.399          estimate D2E/DX2                !
 ! D13   D(3,2,9,16)           -52.2224         estimate D2E/DX2                !
 ! D14   D(3,2,9,17)            67.7759         estimate D2E/DX2                !
 ! D15   D(3,2,9,18)          -172.226          estimate D2E/DX2                !
 ! D16   D(10,2,9,16)         -173.0475         estimate D2E/DX2                !
 ! D17   D(10,2,9,17)          -53.0492         estimate D2E/DX2                !
 ! D18   D(10,2,9,18)           66.9489         estimate D2E/DX2                !
 ! D19   D(2,3,4,5)            179.8063         estimate D2E/DX2                !
 ! D20   D(2,3,4,11)            -0.1995         estimate D2E/DX2                !
 ! D21   D(8,3,4,5)              1.0799         estimate D2E/DX2                !
 ! D22   D(8,3,4,11)          -178.9259         estimate D2E/DX2                !
 ! D23   D(2,3,8,7)           -179.8075         estimate D2E/DX2                !
 ! D24   D(2,3,8,15)             0.2028         estimate D2E/DX2                !
 ! D25   D(4,3,8,7)             -1.0811         estimate D2E/DX2                !
 ! D26   D(4,3,8,15)           178.9292         estimate D2E/DX2                !
 ! D27   D(3,4,5,6)             -0.4181         estimate D2E/DX2                !
 ! D28   D(3,4,5,12)           179.5835         estimate D2E/DX2                !
 ! D29   D(11,4,5,6)           179.5877         estimate D2E/DX2                !
 ! D30   D(11,4,5,12)           -0.4108         estimate D2E/DX2                !
 ! D31   D(4,5,6,7)             -0.2495         estimate D2E/DX2                !
 ! D32   D(4,5,6,13)           179.7557         estimate D2E/DX2                !
 ! D33   D(12,5,6,7)           179.7489         estimate D2E/DX2                !
 ! D34   D(12,5,6,13)           -0.2458         estimate D2E/DX2                !
 ! D35   D(5,6,7,8)              0.2483         estimate D2E/DX2                !
 ! D36   D(5,6,7,14)          -179.7481         estimate D2E/DX2                !
 ! D37   D(13,6,7,8)          -179.757          estimate D2E/DX2                !
 ! D38   D(13,6,7,14)            0.2466         estimate D2E/DX2                !
 ! D39   D(6,7,8,3)              0.4206         estimate D2E/DX2                !
 ! D40   D(6,7,8,15)          -179.5897         estimate D2E/DX2                !
 ! D41   D(14,7,8,3)          -179.583          estimate D2E/DX2                !
 ! D42   D(14,7,8,15)            0.4068         estimate D2E/DX2                !
 --------------------------------------------------------------------------------
 Trust Radius=3.00D-01 FncErr=1.00D-07 GrdErr=1.00D-06 EigMax=2.50D+02 EigMin=1.00D-04
 Number of steps in this run=    102 maximum allowed number of steps=    114.
 GradGradGradGradGradGradGradGradGradGradGradGradGradGradGradGradGradGrad

 Leave Link  103 at Mon Oct 14 01:35:41 2019, MaxMem= 10737418240 cpu:               1.1 elap:               0.1
 (Enter /apps/cent7/gaussian/g16-A.03/g16-haswell/g16/l202.exe)
                          Input orientation:                          
 ---------------------------------------------------------------------
 Center     Atomic      Atomic             Coordinates (Angstroms)
 Number     Number       Type             X           Y           Z
 ---------------------------------------------------------------------
      1          8           0        2.011500   -1.396900   -0.223100
      2         16           0        0.580500   -1.067600   -0.870400
      3          6           0       -0.410300   -0.118400    0.250500
      4          6           0       -1.376700    0.782600   -0.244600
      5          6           0       -2.165600    1.532700    0.645700
      6          6           0       -1.998500    1.379400    2.034000
      7          6           0       -1.046300    0.472300    2.533000
      8          6           0       -0.256700   -0.278500    1.643900
      9          6           0       -0.288600   -2.637600   -1.237100
     10          8           0        0.815700   -0.264000   -2.239500
     11          1           0       -1.514300    0.899700   -1.319500
     12          1           0       -2.906500    2.232800    0.259800
     13          1           0       -2.607500    1.964000    2.723600
     14          1           0       -0.920300    0.351100    3.608900
     15          1           0        0.475200   -0.985100    2.035100
     16          1           0       -0.560700   -3.129000   -0.303000
     17          1           0       -1.189800   -2.428000   -1.813300
     18          1           0        0.367500   -3.290100   -1.813300
     19          1           0        2.815786   -1.159240   -0.690264
 ---------------------------------------------------------------------
                    Distance matrix (angstroms):
                    1          2          3          4          5
     1  O    0.000000
     2  S    1.604742   0.000000
     3  C    2.779204   1.771745   0.000000
     4  C    4.028720   2.765049   1.410976   0.000000
     5  C    5.175474   4.074455   2.442006   1.406288   0.000000
     6  C    5.374239   4.590707   2.818981   2.436149   1.406698
     7  C    4.521077   4.074420   2.441972   2.814340   2.437044
     8  C    3.143444   2.765011   1.410953   2.438599   2.814382
     9  C    2.803211   1.831585   2.928162   3.723813   4.945651
    10  O    2.603703   1.604845   2.779276   3.143504   4.521135
    11  H    4.348302   2.908633   2.172612   1.089980   2.164923
    12  H    6.131447   4.932460   3.429175   2.167438   1.089950
    13  H    6.427585   5.680738   3.909003   3.423563   2.167709
    14  H    5.131781   4.932468   3.429195   3.904351   3.424544
    15  H    2.762112   2.908578   2.172574   3.428021   3.904302
    16  H    3.102059   2.423561   3.064750   3.996233   5.020676
    17  H    3.720245   2.423574   3.193923   3.578226   4.762983
    18  H    2.969121   2.423620   3.863150   4.699993   5.976845
    19  H    0.960000   2.244404   3.517956   4.641799   5.817693
                    6          7          8          9         10
     6  C    0.000000
     7  C    1.406597   0.000000
     8  C    2.436119   1.406296   0.000000
     9  C    5.455286   4.945629   3.723779   0.000000
    10  O    5.374317   5.175513   4.028777   2.803259   0.000000
    11  H    3.422064   3.904286   3.428039   3.744546   2.762155
    12  H    2.168073   3.424492   3.904331   5.728430   5.131791
    13  H    1.090040   2.167681   3.423568   6.499166   6.427647
    14  H    2.168000   1.090012   2.167484   5.728446   6.131544
    15  H    3.421995   2.164921   1.089953   3.744521   4.348348
    16  H    5.277737   4.609562   3.465283   1.089979   3.721926
    17  H    5.472843   5.227108   4.176513   1.090000   2.981036
    18  H    6.496453   5.919866   4.627266   1.090060   3.088658
    19  H    6.086350   5.288389   3.957802   3.481636   2.683641
                   11         12         13         14         15
    11  H    0.000000
    12  H    2.491900   0.000000
    13  H    4.321398   2.496390   0.000000
    14  H    4.994289   4.324611   2.496367   0.000000
    15  H    4.331734   4.994243   4.321373   2.491926   0.000000
    16  H    4.262986   5.879492   6.268042   5.248178   3.337081
    17  H    3.379752   5.382180   6.471708   6.098875   4.434452
    18  H    4.619462   6.746795   7.552460   6.657103   4.487183
    19  H    4.835785   6.719607   7.128894   5.892561   3.596703
                   16         17         18         19
    16  H    0.000000
    17  H    1.779936   0.000000
    18  H    1.780032   1.780000   0.000000
    19  H    3.928178   4.349216   3.434512   0.000000
 Stoichiometry    C7H9O2S(1+)
 Framework group  C1[X(C7H9O2S)]
 Deg. of freedom    51
 Full point group                 C1      NOp   1
 Largest Abelian subgroup         C1      NOp   1
 Largest concise Abelian subgroup C1      NOp   1
                         Standard orientation:                         
 ---------------------------------------------------------------------
 Center     Atomic      Atomic             Coordinates (Angstroms)
 Number     Number       Type             X           Y           Z
 ---------------------------------------------------------------------
      1          8           0        1.981368    1.297360   -0.769404
      2         16           0        1.410134   -0.029508   -0.070611
      3          6           0       -0.361218   -0.008122   -0.040034
      4          6           0       -1.086382   -1.218162   -0.068233
      5          6           0       -2.492274   -1.200596   -0.039831
      6          6           0       -3.179236    0.025204    0.025726
      7          6           0       -2.460984    1.233850    0.068220
      8          6           0       -1.055064    1.217837    0.039913
      9          6           0        2.026075   -0.113903    1.652235
     10          8           0        1.947994   -1.303568   -0.884863
     11          1           0       -0.558166   -2.170584   -0.112243
     12          1           0       -3.049457   -2.136925   -0.068598
     13          1           0       -4.269047    0.038381    0.043694
     14          1           0       -2.993973    2.183076    0.123155
     15          1           0       -0.502565    2.156534    0.079806
     16          1           0        1.565858    0.678942    2.241855
     17          1           0        1.770031   -1.082059    2.082600
     18          1           0        3.108928    0.011123    1.657504
     19          1           0        2.585839    1.226646   -1.511842
 ---------------------------------------------------------------------
 Rotational constants (GHZ):           2.3306755           0.7624694           0.6820672
 Leave Link  202 at Mon Oct 14 01:35:41 2019, MaxMem= 10737418240 cpu:               0.5 elap:               0.0
 (Enter /apps/cent7/gaussian/g16-A.03/g16-haswell/g16/l301.exe)
 Standard basis: 6-31G(d) (6D, 7F)
 Ernie: Thresh=  0.10000D-02 Tol=  0.10000D-05 Strict=F.
 There are   172 symmetry adapted cartesian basis functions of A   symmetry.
 There are   172 symmetry adapted basis functions of A   symmetry.
   172 basis functions,   340 primitive gaussians,   172 cartesian basis functions
    41 alpha electrons       41 beta electrons
       nuclear repulsion energy       624.1032118614 Hartrees.
 IExCor=  402 DFT=T Ex+Corr=B3LYP ExCW=0 ScaHFX=  0.200000
 ScaDFX=  0.800000  0.720000  1.000000  0.810000 ScalE2=  1.000000  1.000000
 IRadAn=      5 IRanWt=     -1 IRanGd=            0 ICorTp=0 IEmpDi=  4
 NAtoms=   19 NActive=   19 NUniq=   19 SFac= 1.00D+00 NAtFMM=   60 NAOKFM=F Big=F
 Integral buffers will be    131072 words long.
 Raffenetti 2 integral format.
 Two-electron integral symmetry is turned on.
 Leave Link  301 at Mon Oct 14 01:35:41 2019, MaxMem= 10737418240 cpu:               1.4 elap:               0.1
 (Enter /apps/cent7/gaussian/g16-A.03/g16-haswell/g16/l302.exe)
 NPDir=0 NMtPBC=     1 NCelOv=     1 NCel=       1 NClECP=     1 NCelD=      1
         NCelK=      1 NCelE2=     1 NClLst=     1 CellRange=     0.0.
 One-electron integrals computed using PRISM.
 One-electron integral symmetry used in STVInt
 NBasis=   172 RedAO= T EigKep=  5.44D-04  NBF=   172
 NBsUse=   172 1.00D-06 EigRej= -1.00D+00 NBFU=   172
 Precomputing XC quadrature grid using
 IXCGrd= 4 IRadAn=           5 IRanWt=          -1 IRanGd=           0 AccXCQ= 0.00D+00.
 Generated NRdTot=       0 NPtTot=           0 NUsed=           0 NTot=          32
 NSgBfM=   172   172   172   172   172 MxSgAt=    19 MxSgA2=    19.
 Leave Link  302 at Mon Oct 14 01:35:41 2019, MaxMem= 10737418240 cpu:               3.5 elap:               0.2
 (Enter /apps/cent7/gaussian/g16-A.03/g16-haswell/g16/l303.exe)
 DipDrv:  MaxL=1.
 Leave Link  303 at Mon Oct 14 01:35:41 2019, MaxMem= 10737418240 cpu:               0.7 elap:               0.1
 (Enter /apps/cent7/gaussian/g16-A.03/g16-haswell/g16/l401.exe)
 ExpMin= 1.17D-01 ExpMax= 2.19D+04 ExpMxC= 3.30D+03 IAcc=3 IRadAn=         5 AccDes= 0.00D+00
 Harris functional with IExCor=  402 and IRadAn=       5 diagonalized for initial guess.
 HarFok:  IExCor=  402 AccDes= 0.00D+00 IRadAn=         5 IDoV= 1 UseB2=F ITyADJ=14
 ICtDFT=  3500011 ScaDFX=  1.000000  1.000000  1.000000  1.000000
 FoFCou: FMM=F IPFlag=           0 FMFlag=      100000 FMFlg1=           0
         NFxFlg=           0 DoJE=T BraDBF=F KetDBF=T FulRan=T
         wScrn=  0.000000 ICntrl=       500 IOpCl=  0 I1Cent=   200000004 NGrid=           0
         NMat0=    1 NMatS0=      1 NMatT0=    0 NMatD0=    1 NMtDS0=    0 NMtDT0=    0
 Petite list used in FoFCou.
 Harris En= -820.555997628071    
 JPrj=0 DoOrth=F DoCkMO=F.
 Leave Link  401 at Mon Oct 14 01:35:42 2019, MaxMem= 10737418240 cpu:               7.5 elap:               0.3
 (Enter /apps/cent7/gaussian/g16-A.03/g16-haswell/g16/l502.exe)
 Integral symmetry usage will be decided dynamically.
 Closed shell SCF:
 Using DIIS extrapolation, IDIIS=  1040.
 NGot= 10737418240 LenX= 10737352920 LenY= 10737322895
 Requested convergence on RMS density matrix=1.00D-08 within 128 cycles.
 Requested convergence on MAX density matrix=1.00D-06.
 Requested convergence on             energy=1.00D-06.
 No special actions if energy rises.
 Fock matrices will be formed incrementally for  20 cycles.
 Integral accuracy reduced to 1.0D-05 until final iterations.

 Cycle   1  Pass 0  IDiag  1:
 FoFJK:  IHMeth= 1 ICntrl=       0 DoSepK=F KAlg= 0 I1Cent=           0 FoldK=F
 IRaf= 920000000 NMat=       1 IRICut=       1 DoRegI=T DoRafI=F ISym2E= 0 IDoP0=0 IntGTp=1.
 FoFCou: FMM=F IPFlag=           0 FMFlag=      100000 FMFlg1=           0
         NFxFlg=           0 DoJE=F BraDBF=F KetDBF=F FulRan=T
         wScrn=  0.000000 ICntrl=         0 IOpCl=  0 I1Cent=           0 NGrid=           0
         NMat0=    1 NMatS0=      1 NMatT0=    0 NMatD0=    1 NMtDS0=    0 NMtDT0=    0
 Symmetry not used in FoFCou.
 E= -819.963464230743    
 DIIS: error= 4.03D-02 at cycle   1 NSaved=   1.
 NSaved= 1 IEnMin= 1 EnMin= -819.963464230743     IErMin= 1 ErrMin= 4.03D-02
 ErrMax= 4.03D-02  0.00D+00 EMaxC= 1.00D-01 BMatC= 5.01D-01 BMatP= 5.01D-01
 IDIUse=3 WtCom= 5.97D-01 WtEn= 4.03D-01
 Coeff-Com:  0.100D+01
 Coeff-En:   0.100D+01
 Coeff:      0.100D+01
 Gap=     0.204 Goal=   None    Shift=    0.000
 GapD=    0.204 DampG=1.000 DampE=0.500 DampFc=0.5000 IDamp=-1.
 Damping current iteration by 5.00D-01
 RMSDP=1.56D-02 MaxDP=7.46D-01              OVMax= 5.28D-01

 Cycle   2  Pass 0  IDiag  1:
 RMSU=  7.82D-03    CP:  9.99D-01
 E= -819.734666114766     Delta-E=        0.228798115977 Rises=F Damp=T
 DIIS: error= 3.46D-02 at cycle   2 NSaved=   2.
 NSaved= 2 IEnMin= 1 EnMin= -819.963464230743     IErMin= 2 ErrMin= 3.46D-02
 ErrMax= 3.46D-02  0.00D+00 EMaxC= 1.00D-01 BMatC= 2.91D-01 BMatP= 5.01D-01
 IDIUse=3 WtCom= 6.54D-01 WtEn= 3.46D-01
 Coeff-Com:  0.416D+00 0.584D+00
 Coeff-En:   0.626D+00 0.374D+00
 Coeff:      0.489D+00 0.511D+00
 Gap=     0.094 Goal=   None    Shift=    0.000
 RMSDP=5.91D-03 MaxDP=1.90D-01 DE= 2.29D-01 OVMax= 4.29D-01

 Cycle   3  Pass 0  IDiag  1:
 RMSU=  3.75D-03    CP:  9.89D-01  4.17D-01
 E= -820.303887384898     Delta-E=       -0.569221270131 Rises=F Damp=F
 DIIS: error= 2.14D-02 at cycle   3 NSaved=   3.
 NSaved= 3 IEnMin= 3 EnMin= -820.303887384898     IErMin= 3 ErrMin= 2.14D-02
 ErrMax= 2.14D-02  0.00D+00 EMaxC= 1.00D-01 BMatC= 1.44D-01 BMatP= 2.91D-01
 IDIUse=3 WtCom= 7.86D-01 WtEn= 2.14D-01
 Coeff-Com:  0.237D+00 0.360D+00 0.404D+00
 Coeff-En:   0.681D-01 0.000D+00 0.932D+00
 Coeff:      0.200D+00 0.283D+00 0.517D+00
 Gap=     0.219 Goal=   None    Shift=    0.000
 RMSDP=3.26D-03 MaxDP=8.81D-02 DE=-5.69D-01 OVMax= 1.21D-01

 Cycle   4  Pass 0  IDiag  1:
 RMSU=  2.18D-03    CP:  9.96D-01  4.80D-01  3.70D-01
 E= -820.401770552114     Delta-E=       -0.097883167217 Rises=F Damp=F
 DIIS: error= 1.33D-02 at cycle   4 NSaved=   4.
 NSaved= 4 IEnMin= 4 EnMin= -820.401770552114     IErMin= 4 ErrMin= 1.33D-02
 ErrMax= 1.33D-02  0.00D+00 EMaxC= 1.00D-01 BMatC= 4.04D-02 BMatP= 1.44D-01
 IDIUse=3 WtCom= 8.67D-01 WtEn= 1.33D-01
 Coeff-Com:  0.601D-01 0.552D-01 0.335D+00 0.549D+00
 Coeff-En:   0.000D+00 0.000D+00 0.240D+00 0.760D+00
 Coeff:      0.521D-01 0.479D-01 0.323D+00 0.577D+00
 Gap=     0.208 Goal=   None    Shift=    0.000
 RMSDP=1.33D-03 MaxDP=3.85D-02 DE=-9.79D-02 OVMax= 7.01D-02

 Cycle   5  Pass 0  IDiag  1:
 RMSU=  5.53D-04    CP:  9.95D-01  4.36D-01  5.84D-01  6.15D-01
 E= -820.432052535754     Delta-E=       -0.030281983639 Rises=F Damp=F
 DIIS: error= 3.04D-03 at cycle   5 NSaved=   5.
 NSaved= 5 IEnMin= 5 EnMin= -820.432052535754     IErMin= 5 ErrMin= 3.04D-03
 ErrMax= 3.04D-03  0.00D+00 EMaxC= 1.00D-01 BMatC= 2.77D-03 BMatP= 4.04D-02
 IDIUse=3 WtCom= 9.70D-01 WtEn= 3.04D-02
 Coeff-Com:  0.498D-02-0.424D-02 0.138D+00 0.340D+00 0.521D+00
 Coeff-En:   0.000D+00 0.000D+00 0.000D+00 0.251D-01 0.975D+00
 Coeff:      0.483D-02-0.411D-02 0.134D+00 0.331D+00 0.534D+00
 Gap=     0.190 Goal=   None    Shift=    0.000
 RMSDP=3.93D-04 MaxDP=9.60D-03 DE=-3.03D-02 OVMax= 2.02D-02

 Cycle   6  Pass 0  IDiag  1:
 RMSU=  2.11D-04    CP:  9.95D-01  4.44D-01  5.67D-01  6.95D-01  5.17D-01
 E= -820.434336653695     Delta-E=       -0.002284117941 Rises=F Damp=F
 DIIS: error= 1.59D-03 at cycle   6 NSaved=   6.
 NSaved= 6 IEnMin= 6 EnMin= -820.434336653695     IErMin= 6 ErrMin= 1.59D-03
 ErrMax= 1.59D-03  0.00D+00 EMaxC= 1.00D-01 BMatC= 3.07D-04 BMatP= 2.77D-03
 IDIUse=3 WtCom= 9.84D-01 WtEn= 1.59D-02
 Coeff-Com: -0.831D-03-0.540D-02 0.403D-01 0.110D+00 0.305D+00 0.551D+00
 Coeff-En:   0.000D+00 0.000D+00 0.000D+00 0.000D+00 0.106D+00 0.894D+00
 Coeff:     -0.818D-03-0.531D-02 0.396D-01 0.108D+00 0.302D+00 0.556D+00
 Gap=     0.191 Goal=   None    Shift=    0.000
 RMSDP=1.28D-04 MaxDP=4.03D-03 DE=-2.28D-03 OVMax= 8.18D-03

 Cycle   7  Pass 0  IDiag  1:
 RMSU=  6.70D-05    CP:  9.95D-01  4.41D-01  5.70D-01  6.88D-01  6.16D-01
                    CP:  5.77D-01
 E= -820.434625681734     Delta-E=       -0.000289028039 Rises=F Damp=F
 DIIS: error= 6.26D-04 at cycle   7 NSaved=   7.
 NSaved= 7 IEnMin= 7 EnMin= -820.434625681734     IErMin= 7 ErrMin= 6.26D-04
 ErrMax= 6.26D-04  0.00D+00 EMaxC= 1.00D-01 BMatC= 3.28D-05 BMatP= 3.07D-04
 IDIUse=3 WtCom= 9.94D-01 WtEn= 6.26D-03
 Coeff-Com: -0.349D-03-0.292D-02 0.744D-02 0.207D-01 0.111D+00 0.318D+00
 Coeff-Com:  0.546D+00
 Coeff-En:   0.000D+00 0.000D+00 0.000D+00 0.000D+00 0.000D+00 0.377D-01
 Coeff-En:   0.962D+00
 Coeff:     -0.347D-03-0.290D-02 0.739D-02 0.205D-01 0.110D+00 0.316D+00
 Coeff:      0.549D+00
 Gap=     0.191 Goal=   None    Shift=    0.000
 RMSDP=3.81D-05 MaxDP=1.07D-03 DE=-2.89D-04 OVMax= 2.82D-03

 Cycle   8  Pass 0  IDiag  1:
 RMSU=  2.26D-05    CP:  9.95D-01  4.40D-01  5.71D-01  6.86D-01  6.14D-01
                    CP:  6.60D-01  6.51D-01
 E= -820.434659070852     Delta-E=       -0.000033389119 Rises=F Damp=F
 DIIS: error= 1.07D-04 at cycle   8 NSaved=   8.
 NSaved= 8 IEnMin= 8 EnMin= -820.434659070852     IErMin= 8 ErrMin= 1.07D-04
 ErrMax= 1.07D-04  0.00D+00 EMaxC= 1.00D-01 BMatC= 2.39D-06 BMatP= 3.28D-05
 IDIUse=3 WtCom= 9.99D-01 WtEn= 1.07D-03
 Coeff-Com:  0.113D-03-0.109D-02 0.509D-05-0.526D-03 0.260D-01 0.106D+00
 Coeff-Com:  0.283D+00 0.586D+00
 Coeff-En:   0.000D+00 0.000D+00 0.000D+00 0.000D+00 0.000D+00 0.000D+00
 Coeff-En:   0.000D+00 0.100D+01
 Coeff:      0.113D-03-0.109D-02 0.508D-05-0.526D-03 0.260D-01 0.106D+00
 Coeff:      0.283D+00 0.586D+00
 Gap=     0.191 Goal=   None    Shift=    0.000
 RMSDP=1.14D-05 MaxDP=2.24D-04 DE=-3.34D-05 OVMax= 5.28D-04

 Cycle   9  Pass 0  IDiag  1:
 RMSU=  6.83D-06    CP:  9.95D-01  4.40D-01  5.72D-01  6.85D-01  6.18D-01
                    CP:  6.59D-01  6.97D-01  6.71D-01
 E= -820.434661297535     Delta-E=       -0.000002226683 Rises=F Damp=F
 DIIS: error= 2.81D-05 at cycle   9 NSaved=   9.
 NSaved= 9 IEnMin= 9 EnMin= -820.434661297535     IErMin= 9 ErrMin= 2.81D-05
 ErrMax= 2.81D-05  0.00D+00 EMaxC= 1.00D-01 BMatC= 1.51D-07 BMatP= 2.39D-06
 IDIUse=1 WtCom= 1.00D+00 WtEn= 0.00D+00
 Coeff-Com:  0.135D-03-0.253D-03-0.529D-03-0.191D-02 0.187D-02 0.217D-01
 Coeff-Com:  0.835D-01 0.276D+00 0.620D+00
 Coeff:      0.135D-03-0.253D-03-0.529D-03-0.191D-02 0.187D-02 0.217D-01
 Coeff:      0.835D-01 0.276D+00 0.620D+00
 Gap=     0.191 Goal=   None    Shift=    0.000
 RMSDP=3.07D-06 MaxDP=1.07D-04 DE=-2.23D-06 OVMax= 1.48D-04

 Initial convergence to 1.0D-05 achieved.  Increase integral accuracy.
 Cycle  10  Pass 1  IDiag  1:
 E= -820.434647735699     Delta-E=        0.000013561837 Rises=F Damp=F
 DIIS: error= 1.84D-05 at cycle   1 NSaved=   1.
 NSaved= 1 IEnMin= 1 EnMin= -820.434647735699     IErMin= 1 ErrMin= 1.84D-05
 ErrMax= 1.84D-05  0.00D+00 EMaxC= 1.00D-01 BMatC= 3.46D-08 BMatP= 3.46D-08
 IDIUse=1 WtCom= 1.00D+00 WtEn= 0.00D+00
 Coeff-Com:  0.100D+01
 Coeff:      0.100D+01
 Gap=     0.191 Goal=   None    Shift=    0.000
 RMSDP=3.07D-06 MaxDP=1.07D-04 DE= 1.36D-05 OVMax= 6.66D-05

 Cycle  11  Pass 1  IDiag  1:
 RMSU=  1.19D-05    CP:  1.00D+00
 E= -820.434647744908     Delta-E=       -0.000000009209 Rises=F Damp=F
 DIIS: error= 1.11D-05 at cycle   2 NSaved=   2.
 NSaved= 2 IEnMin= 2 EnMin= -820.434647744908     IErMin= 2 ErrMin= 1.11D-05
 ErrMax= 1.11D-05  0.00D+00 EMaxC= 1.00D-01 BMatC= 2.49D-08 BMatP= 3.46D-08
 IDIUse=1 WtCom= 1.00D+00 WtEn= 0.00D+00
 Coeff-Com:  0.446D+00 0.554D+00
 Coeff:      0.446D+00 0.554D+00
 Gap=     0.191 Goal=   None    Shift=    0.000
 RMSDP=1.31D-06 MaxDP=3.63D-05 DE=-9.21D-09 OVMax= 5.69D-05

 Cycle  12  Pass 1  IDiag  1:
 RMSU=  1.31D-06    CP:  1.00D+00  9.90D-01
 E= -820.434647762084     Delta-E=       -0.000000017176 Rises=F Damp=F
 DIIS: error= 5.47D-06 at cycle   3 NSaved=   3.
 NSaved= 3 IEnMin= 3 EnMin= -820.434647762084     IErMin= 3 ErrMin= 5.47D-06
 ErrMax= 5.47D-06  0.00D+00 EMaxC= 1.00D-01 BMatC= 5.88D-09 BMatP= 2.49D-08
 IDIUse=1 WtCom= 1.00D+00 WtEn= 0.00D+00
 Coeff-Com:  0.177D-01 0.325D+00 0.658D+00
 Coeff:      0.177D-01 0.325D+00 0.658D+00
 Gap=     0.191 Goal=   None    Shift=    0.000
 RMSDP=5.03D-07 MaxDP=1.25D-05 DE=-1.72D-08 OVMax= 3.02D-05

 Cycle  13  Pass 1  IDiag  1:
 RMSU=  2.60D-07    CP:  1.00D+00  1.00D+00  6.86D-01
 E= -820.434647766743     Delta-E=       -0.000000004659 Rises=F Damp=F
 DIIS: error= 2.07D-06 at cycle   4 NSaved=   4.
 NSaved= 4 IEnMin= 4 EnMin= -820.434647766743     IErMin= 4 ErrMin= 2.07D-06
 ErrMax= 2.07D-06  0.00D+00 EMaxC= 1.00D-01 BMatC= 5.13D-10 BMatP= 5.88D-09
 IDIUse=1 WtCom= 1.00D+00 WtEn= 0.00D+00
 Coeff-Com: -0.481D-02 0.180D+00 0.405D+00 0.419D+00
 Coeff:     -0.481D-02 0.180D+00 0.405D+00 0.419D+00
 Gap=     0.191 Goal=   None    Shift=    0.000
 RMSDP=1.51D-07 MaxDP=4.41D-06 DE=-4.66D-09 OVMax= 9.62D-06

 Cycle  14  Pass 1  IDiag  1:
 RMSU=  6.38D-08    CP:  1.00D+00  1.00D+00  7.00D-01  4.82D-01
 E= -820.434647767311     Delta-E=       -0.000000000568 Rises=F Damp=F
 DIIS: error= 2.92D-07 at cycle   5 NSaved=   5.
 NSaved= 5 IEnMin= 5 EnMin= -820.434647767311     IErMin= 5 ErrMin= 2.92D-07
 ErrMax= 2.92D-07  0.00D+00 EMaxC= 1.00D-01 BMatC= 9.55D-12 BMatP= 5.13D-10
 IDIUse=1 WtCom= 1.00D+00 WtEn= 0.00D+00
 Coeff-Com: -0.299D-02 0.771D-01 0.175D+00 0.209D+00 0.542D+00
 Coeff:     -0.299D-02 0.771D-01 0.175D+00 0.209D+00 0.542D+00
 Gap=     0.191 Goal=   None    Shift=    0.000
 RMSDP=2.62D-08 MaxDP=5.59D-07 DE=-5.68D-10 OVMax= 1.59D-06

 Cycle  15  Pass 1  IDiag  1:
 RMSU=  2.16D-08    CP:  1.00D+00  1.00D+00  6.97D-01  4.98D-01  7.90D-01
 E= -820.434647767311     Delta-E=        0.000000000000 Rises=F Damp=F
 DIIS: error= 8.77D-08 at cycle   6 NSaved=   6.
 NSaved= 6 IEnMin= 5 EnMin= -820.434647767311     IErMin= 6 ErrMin= 8.77D-08
 ErrMax= 8.77D-08  0.00D+00 EMaxC= 1.00D-01 BMatC= 1.78D-12 BMatP= 9.55D-12
 IDIUse=1 WtCom= 1.00D+00 WtEn= 0.00D+00
 Coeff-Com: -0.120D-02 0.235D-01 0.535D-01 0.728D-01 0.326D+00 0.525D+00
 Coeff:     -0.120D-02 0.235D-01 0.535D-01 0.728D-01 0.326D+00 0.525D+00
 Gap=     0.191 Goal=   None    Shift=    0.000
 RMSDP=9.60D-09 MaxDP=1.95D-07 DE= 2.27D-13 OVMax= 4.56D-07

 SCF Done:  E(RB3LYP) =  -820.434647767     A.U. after   15 cycles
            NFock= 15  Conv=0.96D-08     -V/T= 2.0074
 KE= 8.144423917535D+02 PE=-3.160646743539D+03 EE= 9.016664921570D+02
 Leave Link  502 at Mon Oct 14 01:35:45 2019, MaxMem= 10737418240 cpu:              76.1 elap:               3.2
 (Enter /apps/cent7/gaussian/g16-A.03/g16-haswell/g16/l601.exe)
 Copying SCF densities to generalized density rwf, IOpCl= 0 IROHF=0.

 **********************************************************************

            Population analysis using the SCF density.

 **********************************************************************

 Orbital symmetries:
       Occupied  (A) (A) (A) (A) (A) (A) (A) (A) (A) (A) (A) (A)
                 (A) (A) (A) (A) (A) (A) (A) (A) (A) (A) (A) (A)
                 (A) (A) (A) (A) (A) (A) (A) (A) (A) (A) (A) (A)
                 (A) (A) (A) (A) (A)
       Virtual   (A) (A) (A) (A) (A) (A) (A) (A) (A) (A) (A) (A)
                 (A) (A) (A) (A) (A) (A) (A) (A) (A) (A) (A) (A)
                 (A) (A) (A) (A) (A) (A) (A) (A) (A) (A) (A) (A)
                 (A) (A) (A) (A) (A) (A) (A) (A) (A) (A) (A) (A)
                 (A) (A) (A) (A) (A) (A) (A) (A) (A) (A) (A) (A)
                 (A) (A) (A) (A) (A) (A) (A) (A) (A) (A) (A) (A)
                 (A) (A) (A) (A) (A) (A) (A) (A) (A) (A) (A) (A)
                 (A) (A) (A) (A) (A) (A) (A) (A) (A) (A) (A) (A)
                 (A) (A) (A) (A) (A) (A) (A) (A) (A) (A) (A) (A)
                 (A) (A) (A) (A) (A) (A) (A) (A) (A) (A) (A) (A)
                 (A) (A) (A) (A) (A) (A) (A) (A) (A) (A) (A)
 The electronic state is 1-A.
 Alpha  occ. eigenvalues --  -89.31315 -19.41457 -19.33706 -10.42059 -10.41528
 Alpha  occ. eigenvalues --  -10.38037 -10.37981 -10.36126 -10.35955 -10.35942
 Alpha  occ. eigenvalues --   -8.34426  -6.31066  -6.30646  -6.30552  -1.30720
 Alpha  occ. eigenvalues --   -1.17149  -1.04111  -0.99637  -0.92993  -0.91496
 Alpha  occ. eigenvalues --   -0.87858  -0.79993  -0.77605  -0.73773  -0.70572
 Alpha  occ. eigenvalues --   -0.67608  -0.65644  -0.63391  -0.62203  -0.62095
 Alpha  occ. eigenvalues --   -0.60705  -0.58770  -0.58145  -0.55938  -0.53742
 Alpha  occ. eigenvalues --   -0.52342  -0.51301  -0.47954  -0.46982  -0.43174
 Alpha  occ. eigenvalues --   -0.41774
 Alpha virt. eigenvalues --   -0.22654  -0.21407  -0.17071  -0.15903  -0.12625
 Alpha virt. eigenvalues --   -0.10606  -0.07886  -0.05528  -0.03374  -0.03032
 Alpha virt. eigenvalues --   -0.02324  -0.00351  -0.00248   0.01535   0.04525
 Alpha virt. eigenvalues --    0.05050   0.11167   0.11624   0.13388   0.14177
 Alpha virt. eigenvalues --    0.17055   0.18663   0.20698   0.25797   0.28663
 Alpha virt. eigenvalues --    0.31106   0.36628   0.37416   0.38005   0.38857
 Alpha virt. eigenvalues --    0.39079   0.40222   0.43153   0.43747   0.45484
 Alpha virt. eigenvalues --    0.45873   0.47507   0.49838   0.50481   0.52390
 Alpha virt. eigenvalues --    0.55468   0.59752   0.61936   0.62966   0.63806
 Alpha virt. eigenvalues --    0.65265   0.66587   0.67848   0.68621   0.69379
 Alpha virt. eigenvalues --    0.69506   0.70235   0.72651   0.74168   0.75571
 Alpha virt. eigenvalues --    0.77446   0.77925   0.78962   0.79969   0.81533
 Alpha virt. eigenvalues --    0.83949   0.89048   0.91133   0.92706   0.95262
 Alpha virt. eigenvalues --    0.97247   0.98083   1.02084   1.04415   1.07385
 Alpha virt. eigenvalues --    1.11757   1.16226   1.18481   1.24284   1.27163
 Alpha virt. eigenvalues --    1.27941   1.29980   1.31858   1.33891   1.36460
 Alpha virt. eigenvalues --    1.41064   1.50435   1.51787   1.55842   1.59588
 Alpha virt. eigenvalues --    1.61409   1.62437   1.64016   1.65916   1.68737
 Alpha virt. eigenvalues --    1.72297   1.74518   1.80052   1.80679   1.84072
 Alpha virt. eigenvalues --    1.84501   1.89103   1.91171   1.92650   1.95381
 Alpha virt. eigenvalues --    1.96422   1.97445   1.97532   2.04496   2.04987
 Alpha virt. eigenvalues --    2.10756   2.12482   2.13515   2.20872   2.29371
 Alpha virt. eigenvalues --    2.36845   2.39066   2.44308   2.45380   2.48426
 Alpha virt. eigenvalues --    2.51624   2.56331   2.56409   2.60243   2.83922
 Alpha virt. eigenvalues --    3.17478   3.53211   3.66238   3.73913   3.91056
 Alpha virt. eigenvalues --    3.93949   3.96688   4.01920   4.15317   4.17218
 Alpha virt. eigenvalues --    4.48268
          Condensed to atoms (all electrons):
               1          2          3          4          5          6
     1  O    8.283957   0.165241  -0.034839   0.000625  -0.000017  -0.000001
     2  S    0.165241  14.036520   0.168870  -0.033570   0.004639  -0.000357
     3  C   -0.034839   0.168870   5.374806   0.494623  -0.035067  -0.034250
     4  C    0.000625  -0.033570   0.494623   4.902148   0.525914  -0.028078
     5  C   -0.000017   0.004639  -0.035067   0.525914   4.842912   0.530530
     6  C   -0.000001  -0.000357  -0.034250  -0.028078   0.530530   4.830424
     7  C    0.000166   0.000822  -0.031538  -0.034580  -0.031334   0.534842
     8  C    0.003115  -0.020354   0.446088  -0.032198  -0.036543  -0.030205
     9  C   -0.035152   0.207078  -0.062210  -0.001670  -0.000099   0.000004
    10  O   -0.037180   0.378785  -0.037088  -0.000876   0.000261  -0.000002
    11  H    0.000037  -0.000113  -0.049370   0.363528  -0.025868   0.003798
    12  H    0.000000  -0.000100   0.004451  -0.036434   0.367435  -0.035000
    13  H   -0.000000   0.000010   0.000510   0.004332  -0.035917   0.363819
    14  H    0.000000  -0.000083   0.004157   0.000504   0.003786  -0.034405
    15  H    0.003067  -0.003440  -0.054159   0.003215   0.000380   0.003912
    16  H    0.000401  -0.004929  -0.000097   0.000109  -0.000006   0.000003
    17  H    0.000951  -0.013911  -0.000266   0.000164   0.000006   0.000001
    18  H    0.000073  -0.010738   0.002073   0.000014   0.000001  -0.000000
    19  H    0.245708   0.002680   0.001122  -0.000008   0.000000   0.000000
               7          8          9         10         11         12
     1  O    0.000166   0.003115  -0.035152  -0.037180   0.000037   0.000000
     2  S    0.000822  -0.020354   0.207078   0.378785  -0.000113  -0.000100
     3  C   -0.031538   0.446088  -0.062210  -0.037088  -0.049370   0.004451
     4  C   -0.034580  -0.032198  -0.001670  -0.000876   0.363528  -0.036434
     5  C   -0.031334  -0.036543  -0.000099   0.000261  -0.025868   0.367435
     6  C    0.534842  -0.030205   0.000004  -0.000002   0.003798  -0.035000
     7  C    4.830741   0.530081  -0.000142  -0.000025   0.000323   0.003706
     8  C    0.530081   4.943464  -0.001028   0.000807   0.003493   0.000565
     9  C   -0.000142  -0.001028   5.510756  -0.036588  -0.000206   0.000002
    10  O   -0.000025   0.000807  -0.036588   8.214438   0.004697   0.000000
    11  H    0.000323   0.003493  -0.000206   0.004697   0.489810  -0.004542
    12  H    0.003706   0.000565   0.000002   0.000000  -0.004542   0.499700
    13  H   -0.035712   0.004435  -0.000000  -0.000000  -0.000117  -0.004066
    14  H    0.367345  -0.036851   0.000001   0.000000   0.000010  -0.000133
    15  H   -0.024428   0.366175  -0.000119   0.000009  -0.000127   0.000010
    16  H    0.000018   0.000499   0.334802   0.001099  -0.000002   0.000000
    17  H    0.000001   0.000040   0.358879  -0.001313   0.000137  -0.000000
    18  H    0.000001   0.000010   0.348414  -0.000037  -0.000005  -0.000000
    19  H    0.000000  -0.000206   0.000677   0.002236  -0.000001  -0.000000
              13         14         15         16         17         18
     1  O   -0.000000   0.000000   0.003067   0.000401   0.000951   0.000073
     2  S    0.000010  -0.000083  -0.003440  -0.004929  -0.013911  -0.010738
     3  C    0.000510   0.004157  -0.054159  -0.000097  -0.000266   0.002073
     4  C    0.004332   0.000504   0.003215   0.000109   0.000164   0.000014
     5  C   -0.035917   0.003786   0.000380  -0.000006   0.000006   0.000001
     6  C    0.363819  -0.034405   0.003912   0.000003   0.000001  -0.000000
     7  C   -0.035712   0.367345  -0.024428   0.000018   0.000001   0.000001
     8  C    0.004435  -0.036851   0.366175   0.000499   0.000040   0.000010
     9  C   -0.000000   0.000001  -0.000119   0.334802   0.358879   0.348414
    10  O   -0.000000   0.000000   0.000009   0.001099  -0.001313  -0.000037
    11  H   -0.000117   0.000010  -0.000127  -0.000002   0.000137  -0.000005
    12  H   -0.004066  -0.000133   0.000010   0.000000  -0.000000  -0.000000
    13  H    0.503287  -0.004098  -0.000123  -0.000000  -0.000000   0.000000
    14  H   -0.004098   0.503355  -0.004614   0.000000   0.000000  -0.000000
    15  H   -0.000123  -0.004614   0.513019   0.000191  -0.000004  -0.000006
    16  H   -0.000000   0.000000   0.000191   0.449148  -0.019676  -0.017589
    17  H   -0.000000   0.000000  -0.000004  -0.019676   0.407352  -0.013688
    18  H    0.000000  -0.000000  -0.000006  -0.017589  -0.013688   0.416528
    19  H    0.000000  -0.000000  -0.000071  -0.000048  -0.000024   0.000037
              19
     1  O    0.245708
     2  S    0.002680
     3  C    0.001122
     4  C   -0.000008
     5  C    0.000000
     6  C    0.000000
     7  C    0.000000
     8  C   -0.000206
     9  C    0.000677
    10  O    0.002236
    11  H   -0.000001
    12  H   -0.000000
    13  H    0.000000
    14  H   -0.000000
    15  H   -0.000071
    16  H   -0.000048
    17  H   -0.000024
    18  H    0.000037
    19  H    0.241822
 Mulliken charges:
               1
     1  O   -0.596154
     2  S    1.122949
     3  C   -0.157815
     4  C   -0.127762
     5  C   -0.111012
     6  C   -0.105034
     7  C   -0.110287
     8  C   -0.141387
     9  C   -0.623398
    10  O   -0.489223
    11  H    0.214520
    12  H    0.204405
    13  H    0.203641
    14  H    0.201028
    15  H    0.197113
    16  H    0.256077
    17  H    0.281350
    18  H    0.274912
    19  H    0.506077
 Sum of Mulliken charges =   1.00000
 Mulliken charges with hydrogens summed into heavy atoms:
               1
     1  O   -0.090077
     2  S    1.122949
     3  C   -0.157815
     4  C    0.086759
     5  C    0.093393
     6  C    0.098607
     7  C    0.090742
     8  C    0.055726
     9  C    0.188941
    10  O   -0.489223
 Electronic spatial extent (au):  <R**2>=           1722.1186
 Charge=              1.0000 electrons
 Dipole moment (field-independent basis, Debye):
    X=              1.2239    Y=              2.0310    Z=              2.3451  Tot=              3.3350
 Quadrupole moment (field-independent basis, Debye-Ang):
   XX=            -30.6506   YY=            -55.5569   ZZ=            -56.4050
   XY=              6.1480   XZ=              2.7969   YZ=             -4.2134
 Traceless Quadrupole moment (field-independent basis, Debye-Ang):
   XX=             16.8868   YY=             -8.0194   ZZ=             -8.8675
   XY=              6.1480   XZ=              2.7969   YZ=             -4.2134
 Octapole moment (field-independent basis, Debye-Ang**2):
  XXX=              0.8113  YYY=              2.4708  ZZZ=              1.3889  XYY=             -9.7309
  XXY=             16.3777  XXZ=              0.5943  XZZ=             36.5504  YZZ=              5.8756
  YYZ=              0.0255  XYZ=            -13.2642
 Hexadecapole moment (field-independent basis, Debye-Ang**3):
 XXXX=          -1139.3832 YYYY=           -383.3345 ZZZZ=           -204.2203 XXXY=             50.1404
 XXXZ=            -16.1377 YYYX=             10.9816 YYYZ=             -6.4360 ZZZX=             -4.7914
 ZZZY=            -15.7899 XXYY=           -279.1810 XXZZ=           -250.8631 YYZZ=           -104.8658
 XXYZ=            -29.4661 YYXZ=             -6.6392 ZZXY=             16.2505
 N-N= 6.241032118614D+02 E-N=-3.160646752863D+03  KE= 8.144423917535D+02
 No NMR shielding tensors so no spin-rotation constants.
 Leave Link  601 at Mon Oct 14 01:35:45 2019, MaxMem= 10737418240 cpu:               2.9 elap:               0.2
 (Enter /apps/cent7/gaussian/g16-A.03/g16-haswell/g16/l701.exe)
 ... and contract with generalized density number  0.
 Compute integral first derivatives.
 Leave Link  701 at Mon Oct 14 01:35:45 2019, MaxMem= 10737418240 cpu:               2.5 elap:               0.1
 (Enter /apps/cent7/gaussian/g16-A.03/g16-haswell/g16/l702.exe)
 L702 exits ... SP integral derivatives will be done elsewhere.
 Leave Link  702 at Mon Oct 14 01:35:45 2019, MaxMem= 10737418240 cpu:               0.9 elap:               0.1
 (Enter /apps/cent7/gaussian/g16-A.03/g16-haswell/g16/l703.exe)
 Integral derivatives from FoFJK, PRISM(SPDF).
 Compute integral first derivatives, UseDBF=F ICtDFT=           0.
 Calling FoFJK, ICntrl=      2127 FMM=F ISym2X=0 I1Cent= 0 IOpClX= 0 NMat=1 NMatS=1 NMatT=0.
 FoFJK:  IHMeth= 1 ICntrl=    2127 DoSepK=F KAlg= 0 I1Cent=           0 FoldK=F
 IRaf=         0 NMat=       1 IRICut=       1 DoRegI=T DoRafI=F ISym2E= 0 IDoP0=0 IntGTp=1.
 FoFCou: FMM=F IPFlag=           0 FMFlag=      100000 FMFlg1=         800
         NFxFlg=           0 DoJE=F BraDBF=F KetDBF=F FulRan=T
         wScrn=  0.000000 ICntrl=      2127 IOpCl=  0 I1Cent=           0 NGrid=           0
         NMat0=    1 NMatS0=      1 NMatT0=    0 NMatD0=    1 NMtDS0=    0 NMtDT0=    0
 Symmetry not used in FoFCou.
 Leave Link  703 at Mon Oct 14 01:35:46 2019, MaxMem= 10737418240 cpu:              20.8 elap:               0.9
 (Enter /apps/cent7/gaussian/g16-A.03/g16-haswell/g16/l716.exe)
 Dipole        = 4.81500668D-01 7.99038928D-01 9.22651732D-01
 ***** Axes restored to original set *****
 -------------------------------------------------------------------
 Center     Atomic                   Forces (Hartrees/Bohr)
 Number     Number              X              Y              Z
 -------------------------------------------------------------------
      1        8          -0.034286617   -0.022839407    0.040182338
      2       16           0.014233236    0.067098400   -0.126495535
      3        6          -0.004135738    0.006682724    0.028415176
      4        6          -0.001108824    0.001680991   -0.011963309
      5        6           0.007393469   -0.008414259    0.003487891
      6        6           0.004346810   -0.003558098   -0.004816876
      7        6           0.000176587   -0.000870575   -0.009237157
      8        6           0.002266810   -0.003117959    0.005128473
      9        6           0.010563893   -0.008753082    0.011384951
     10        8          -0.020209579   -0.052884155    0.087824175
     11        1           0.001721890    0.001235666    0.002754819
     12        1           0.003198287   -0.002956999   -0.000794023
     13        1           0.001831035   -0.001755829   -0.002005614
     14        1           0.000852410   -0.000666591   -0.003959737
     15        1          -0.000952973    0.002984096    0.000569526
     16        1           0.000661018    0.000493075    0.003952387
     17        1           0.000372793    0.010410237   -0.000497583
     18        1           0.005005864    0.002723934   -0.001792039
     19        1           0.008069628    0.012507832   -0.022137864
 -------------------------------------------------------------------
 Cartesian Forces:  Max     0.126495535 RMS     0.025660182
 Leave Link  716 at Mon Oct 14 01:35:46 2019, MaxMem= 10737418240 cpu:               0.6 elap:               0.1
 (Enter /apps/cent7/gaussian/g16-A.03/g16-haswell/g16/l103.exe)

 GradGradGradGradGradGradGradGradGradGradGradGradGradGradGradGradGradGrad
 Berny optimization.
 FormGI is forming the generalized inverse of G from B-inverse, IUseBI=4.
 Internal  Forces:  Max     0.104365599 RMS     0.013127381
 Search for a local minimum.
 Step number   1 out of a maximum of  102
 All quantities printed in internal units (Hartrees-Bohrs-Radians)
 RMS Force = .13127D-01 SwitMx=.10000D-02 MixMth= 1
 Mixed Optimization -- RFO/linear search
 Second derivative matrix not updated -- first step.
 ITU=  0
     Eigenvalues ---    0.00230   0.00744   0.01465   0.01951   0.01971
     Eigenvalues ---    0.01977   0.01992   0.02001   0.02002   0.02003
     Eigenvalues ---    0.02004   0.02556   0.05715   0.05715   0.06632
     Eigenvalues ---    0.07705   0.10872   0.16000   0.16000   0.16000
     Eigenvalues ---    0.16000   0.16000   0.16000   0.16000   0.16000
     Eigenvalues ---    0.16000   0.18778   0.21630   0.21999   0.22000
     Eigenvalues ---    0.23477   0.23779   0.24994   0.28475   0.34806
     Eigenvalues ---    0.34808   0.34811   0.34813   0.34815   0.34815
     Eigenvalues ---    0.34818   0.34818   0.40486   0.40506   0.43991
     Eigenvalues ---    0.44219   0.44548   0.44593   0.50292   0.50311
     Eigenvalues ---    0.55473
 RFO step:  Lambda=-4.15434326D-02 EMin= 2.30000000D-03
 Linear search not attempted -- first point.
 Maximum step size (   0.300) exceeded in Quadratic search.
    -- Step size scaled by   0.906
 Iteration  1 RMS(Cart)=  0.05456865 RMS(Int)=  0.00142360
 Iteration  2 RMS(Cart)=  0.00247020 RMS(Int)=  0.00066564
 Iteration  3 RMS(Cart)=  0.00000141 RMS(Int)=  0.00066564
 Iteration  4 RMS(Cart)=  0.00000000 RMS(Int)=  0.00066564
 ITry= 1 IFail=0 DXMaxC= 2.65D-01 DCOld= 1.00D+10 DXMaxT= 3.00D-01 DXLimC= 3.00D+00 Rises=F
 Variable       Old X    -DE/DX   Delta X   Delta X   Delta X     New X
                                 (Linear)    (Quad)   (Total)
    R1        3.03252  -0.01398   0.00000  -0.02326  -0.02326   3.00926
    R2        1.81414   0.02063   0.00000   0.03135   0.03135   1.84549
    R3        3.34811  -0.00861   0.00000  -0.02392  -0.02392   3.32419
    R4        3.46119  -0.01467   0.00000  -0.04759  -0.04759   3.41360
    R5        3.03272  -0.10437   0.00000  -0.17371  -0.17371   2.85901
    R6        2.66636  -0.00954   0.00000  -0.01772  -0.01767   2.64869
    R7        2.66631  -0.00631   0.00000  -0.01155  -0.01150   2.65481
    R8        2.65750  -0.01514   0.00000  -0.02819  -0.02820   2.62930
    R9        2.05976  -0.00280   0.00000  -0.00651  -0.00651   2.05325
   R10        2.65827  -0.00610   0.00000  -0.01171  -0.01176   2.64651
   R11        2.05971  -0.00379   0.00000  -0.00882  -0.00882   2.05089
   R12        2.65808  -0.00647   0.00000  -0.01232  -0.01237   2.64571
   R13        2.05988  -0.00323   0.00000  -0.00752  -0.00752   2.05236
   R14        2.65751  -0.01553   0.00000  -0.02881  -0.02881   2.62870
   R15        2.05982  -0.00374   0.00000  -0.00869  -0.00869   2.05114
   R16        2.05971  -0.00237   0.00000  -0.00551  -0.00551   2.05420
   R17        2.05976   0.00300   0.00000   0.00698   0.00698   2.06674
   R18        2.05980   0.00196   0.00000   0.00455   0.00455   2.06435
   R19        2.05991   0.00233   0.00000   0.00542   0.00542   2.06533
    A1        2.09440  -0.03062   0.00000  -0.13767  -0.13767   1.95673
    A2        1.93202  -0.01168   0.00000  -0.07394  -0.07491   1.85711
    A3        1.90498  -0.01316   0.00000  -0.07206  -0.07310   1.83187
    A4        1.89249   0.01304   0.00000   0.07161   0.07306   1.96555
    A5        1.89709   0.01191   0.00000   0.02477   0.02106   1.91815
    A6        1.93201   0.00008   0.00000   0.02664   0.02661   1.95862
    A7        1.90494  -0.00041   0.00000   0.02224   0.02223   1.92717
    A8        2.09802  -0.01543   0.00000  -0.04891  -0.04896   2.04905
    A9        2.09799   0.00051   0.00000   0.00064   0.00059   2.09858
   A10        2.08696   0.01492   0.00000   0.04836   0.04845   2.13541
   A11        2.09750  -0.01052   0.00000  -0.03506  -0.03502   2.06247
   A12        2.09567   0.00532   0.00000   0.01778   0.01775   2.11342
   A13        2.09002   0.00520   0.00000   0.01728   0.01725   2.10727
   A14        2.09444   0.00149   0.00000   0.00534   0.00528   2.09972
   A15        2.09416  -0.00310   0.00000  -0.01325  -0.01322   2.08093
   A16        2.09459   0.00161   0.00000   0.00791   0.00793   2.10252
   A17        2.09533   0.00361   0.00000   0.01224   0.01213   2.10746
   A18        2.09388  -0.00175   0.00000  -0.00588  -0.00583   2.08805
   A19        2.09398  -0.00186   0.00000  -0.00636  -0.00631   2.08767
   A20        2.09451  -0.00042   0.00000  -0.00095  -0.00101   2.09350
   A21        2.09454   0.00196   0.00000   0.00834   0.00837   2.10291
   A22        2.09414  -0.00154   0.00000  -0.00739  -0.00736   2.08678
   A23        2.09747  -0.00907   0.00000  -0.02973  -0.02969   2.06778
   A24        2.09568   0.00609   0.00000   0.02186   0.02183   2.11751
   A25        2.09004   0.00298   0.00000   0.00787   0.00784   2.09788
   A26        1.91062  -0.00008   0.00000   0.00229   0.00218   1.91280
   A27        1.91062  -0.01375   0.00000  -0.06489  -0.06562   1.84500
   A28        1.91063  -0.00509   0.00000  -0.02243  -0.02297   1.88765
   A29        1.91062   0.00667   0.00000   0.02911   0.02881   1.93943
   A30        1.91069   0.00422   0.00000   0.02514   0.02518   1.93587
   A31        1.91062   0.00801   0.00000   0.03077   0.02946   1.94008
    D1       -2.18523  -0.00011   0.00000  -0.02337  -0.02036  -2.20559
    D2        2.01060   0.00070   0.00000   0.03701   0.03395   2.04455
    D3       -0.06274   0.00116   0.00000   0.00993   0.00998  -0.05276
    D4        2.63149   0.00735   0.00000   0.04506   0.04479   2.67627
    D5       -0.53247   0.00777   0.00000   0.05002   0.04970  -0.48277
    D6       -1.55961  -0.00843   0.00000  -0.07282  -0.07288  -1.63249
    D7        1.55961  -0.00801   0.00000  -0.06786  -0.06796   1.49165
    D8        0.53243  -0.00138   0.00000  -0.01371  -0.01331   0.51912
    D9       -2.63154  -0.00097   0.00000  -0.00874  -0.00839  -2.63993
   D10        1.19738  -0.00714   0.00000  -0.05820  -0.05809   1.13928
   D11       -2.99144  -0.00744   0.00000  -0.06089  -0.06097  -3.05242
   D12       -0.89708  -0.00916   0.00000  -0.07667  -0.07608  -0.97317
   D13       -0.91145   0.00778   0.00000   0.06012   0.06009  -0.85136
   D14        1.18291   0.00748   0.00000   0.05744   0.05721   1.24012
   D15       -3.00591   0.00577   0.00000   0.04165   0.04210  -2.96381
   D16       -3.02025   0.00071   0.00000  -0.00070  -0.00106  -3.02130
   D17       -0.92588   0.00041   0.00000  -0.00338  -0.00394  -0.92982
   D18        1.16848  -0.00130   0.00000  -0.01916  -0.01905   1.14943
   D19        3.13821  -0.00053   0.00000  -0.00797  -0.00797   3.13024
   D20       -0.00348  -0.00097   0.00000  -0.01451  -0.01457  -0.01805
   D21        0.01885  -0.00077   0.00000  -0.01230  -0.01235   0.00650
   D22       -3.12285  -0.00121   0.00000  -0.01884  -0.01895   3.14139
   D23       -3.13823   0.00058   0.00000   0.00667   0.00657  -3.13166
   D24        0.00354   0.00088   0.00000   0.01148   0.01145   0.01499
   D25       -0.01887   0.00061   0.00000   0.01036   0.01046  -0.00841
   D26        3.12290   0.00091   0.00000   0.01517   0.01534   3.13824
   D27       -0.00730   0.00052   0.00000   0.00695   0.00679  -0.00051
   D28        3.13432   0.00009   0.00000   0.00096   0.00088   3.13520
   D29        3.13440   0.00096   0.00000   0.01348   0.01336  -3.13543
   D30       -0.00717   0.00053   0.00000   0.00749   0.00745   0.00028
   D31       -0.00435   0.00008   0.00000   0.00107   0.00097  -0.00339
   D32        3.13733  -0.00023   0.00000  -0.00321  -0.00322   3.13411
   D33        3.13721   0.00051   0.00000   0.00706   0.00695  -3.13902
   D34       -0.00429   0.00020   0.00000   0.00278   0.00276  -0.00153
   D35        0.00433  -0.00023   0.00000  -0.00296  -0.00290   0.00143
   D36       -3.13720  -0.00044   0.00000  -0.00601  -0.00591   3.14008
   D37       -3.13735   0.00009   0.00000   0.00131   0.00129  -3.13606
   D38        0.00430  -0.00012   0.00000  -0.00173  -0.00172   0.00258
   D39        0.00734  -0.00024   0.00000  -0.00317  -0.00305   0.00429
   D40       -3.13443  -0.00054   0.00000  -0.00797  -0.00787   3.14089
   D41       -3.13431  -0.00004   0.00000  -0.00013  -0.00006  -3.13438
   D42        0.00710  -0.00034   0.00000  -0.00493  -0.00489   0.00221
         Item               Value     Threshold  Converged?
 Maximum Force            0.104366     0.000450     NO 
 RMS     Force            0.013127     0.000300     NO 
 Maximum Displacement     0.264876     0.001800     NO 
 RMS     Displacement     0.055410     0.001200     NO 
 Predicted change in Energy=-2.324074D-02
 Lowest energy point so far.  Saving SCF results.
 GradGradGradGradGradGradGradGradGradGradGradGradGradGradGradGradGradGrad

 Leave Link  103 at Mon Oct 14 01:35:46 2019, MaxMem= 10737418240 cpu:               1.0 elap:               0.1
 (Enter /apps/cent7/gaussian/g16-A.03/g16-haswell/g16/l202.exe)
                          Input orientation:                          
 ---------------------------------------------------------------------
 Center     Atomic      Atomic             Coordinates (Angstroms)
 Number     Number       Type             X           Y           Z
 ---------------------------------------------------------------------
      1          8           0        1.895707   -1.397665   -0.164526
      2         16           0        0.529198   -1.037852   -0.898712
      3          6           0       -0.424059   -0.110339    0.252549
      4          6           0       -1.363431    0.791407   -0.266098
      5          6           0       -2.135843    1.523349    0.630308
      6          6           0       -1.968821    1.352883    2.010299
      7          6           0       -1.028714    0.444063    2.510685
      8          6           0       -0.246990   -0.300228    1.633215
      9          6           0       -0.264516   -2.629821   -1.212933
     10          8           0        0.745109   -0.290455   -2.196294
     11          1           0       -1.483173    0.922223   -1.338060
     12          1           0       -2.864309    2.230874    0.247443
     13          1           0       -2.572663    1.934944    2.700304
     14          1           0       -0.901796    0.316343    3.581060
     15          1           0        0.484634   -1.006534    2.017283
     16          1           0       -0.525183   -3.103684   -0.262342
     17          1           0       -1.158676   -2.404084   -1.798489
     18          1           0        0.432292   -3.251566   -1.780719
     19          1           0        2.675619   -1.123698   -0.684536
 ---------------------------------------------------------------------
                    Distance matrix (angstroms):
                    1          2          3          4          5
     1  O    0.000000
     2  S    1.592433   0.000000
     3  C    2.685606   1.759086   0.000000
     4  C    3.927383   2.707108   1.401628   0.000000
     5  C    5.041575   4.000012   2.396214   1.391368   0.000000
     6  C    5.218234   4.518635   2.759891   2.421516   1.400475
     7  C    4.370464   4.030775   2.402529   2.818370   2.434422
     8  C    3.004562   2.749039   1.404866   2.458760   2.810519
     9  C    2.698876   1.806401   2.919055   3.716034   4.914084
    10  O    2.584158   1.512924   2.719601   3.056472   4.424867
    11  H    4.263320   2.843336   2.172083   1.086533   2.159121
    12  H    5.999481   4.849137   3.381734   2.142061   1.085284
    13  H    6.267366   5.604639   3.845931   3.401392   2.155251
    14  H    4.979284   4.893869   3.389584   3.903770   3.418578
    15  H    2.627622   2.916504   2.177883   3.444091   3.897551
    16  H    2.963238   2.405067   3.038989   3.984270   4.980008
    17  H    3.607211   2.350555   3.163493   3.549833   4.720026
    18  H    2.861925   2.384923   3.838597   4.675931   5.933649
    19  H    0.976592   2.158788   3.393086   4.489615   5.646755
                    6          7          8          9         10
     6  C    0.000000
     7  C    1.400051   0.000000
     8  C    2.416541   1.391048   0.000000
     9  C    5.399613   4.888567   3.678026   0.000000
    10  O    5.268910   5.083465   3.955945   2.731112   0.000000
    11  H    3.410694   3.904870   3.442530   3.757366   2.678133
    12  H    2.163430   3.418240   3.895793   5.702454   5.035559
    13  H    1.086060   2.154637   3.397562   6.440345   6.319549
    14  H    2.163388   1.085415   2.145468   5.662895   6.038073
    15  H    3.403872   2.153578   1.087037   3.691962   4.281921
    16  H    5.206725   4.530974   3.395570   1.093671   3.642536
    17  H    5.410916   5.166992   4.127224   1.092407   2.872294
    18  H    6.429473   5.848791   4.563636   1.092927   3.006449
    19  H    5.913242   5.137061   3.819911   3.345445   2.589706
                   11         12         13         14         15
    11  H    0.000000
    12  H    2.476676   0.000000
    13  H    4.303601   2.487802   0.000000
    14  H    4.990274   4.316236   2.487448   0.000000
    15  H    4.341739   4.982827   4.297194   2.473377   0.000000
    16  H    4.275843   5.847127   6.193320   5.158504   3.257984
    17  H    3.373665   5.345827   6.408250   6.033760   4.383347
    18  H    4.613618   6.711049   7.483931   6.577116   4.412225
    19  H    4.680646   6.543130   6.953913   5.750386   3.480513
                   16         17         18         19
    16  H    0.000000
    17  H    1.802914   0.000000
    18  H    1.801138   1.802698   0.000000
    19  H    3.787311   4.193101   3.280542   0.000000
 Stoichiometry    C7H9O2S(1+)
 Framework group  C1[X(C7H9O2S)]
 Deg. of freedom    51
 Full point group                 C1      NOp   1
 RotChk:  IX=0 Diff= 4.84D-02
 Largest Abelian subgroup         C1      NOp   1
 Largest concise Abelian subgroup C1      NOp   1
                         Standard orientation:                         
 ---------------------------------------------------------------------
 Center     Atomic      Atomic             Coordinates (Angstroms)
 Number     Number       Type             X           Y           Z
 ---------------------------------------------------------------------
      1          8           0        1.872822    1.286409   -0.764190
      2         16           0        1.391865   -0.072231   -0.086975
      3          6           0       -0.365648   -0.011187   -0.044487
      4          6           0       -1.053752   -1.232281   -0.046069
      5          6           0       -2.444006   -1.202901    0.001192
      6          6           0       -3.123759    0.020597    0.049357
      7          6           0       -2.419842    1.230808    0.054893
      8          6           0       -1.029512    1.225708    0.010513
      9          6           0        2.050018   -0.013716    1.594243
     10          8           0        1.904449   -1.297110   -0.812141
     11          1           0       -0.519417   -2.177356   -0.089343
     12          1           0       -2.994358   -2.138268   -0.005297
     13          1           0       -4.209366    0.031022    0.078935
     14          1           0       -2.951029    2.176679    0.090884
     15          1           0       -0.478887    2.162964    0.013961
     16          1           0        1.577765    0.804854    2.144731
     17          1           0        1.806695   -0.980454    2.040971
     18          1           0        3.131523    0.130949    1.531718
     19          1           0        2.468088    1.128740   -1.522168
 ---------------------------------------------------------------------
 Rotational constants (GHZ):           2.3928303           0.7954658           0.7034711
 Leave Link  202 at Mon Oct 14 01:35:46 2019, MaxMem= 10737418240 cpu:               1.0 elap:               0.1
 (Enter /apps/cent7/gaussian/g16-A.03/g16-haswell/g16/l301.exe)
 Standard basis: 6-31G(d) (6D, 7F)
 Ernie: Thresh=  0.10000D-02 Tol=  0.10000D-05 Strict=F.
 There are   172 symmetry adapted cartesian basis functions of A   symmetry.
 There are   172 symmetry adapted basis functions of A   symmetry.
   172 basis functions,   340 primitive gaussians,   172 cartesian basis functions
    41 alpha electrons       41 beta electrons
       nuclear repulsion energy       634.2249111911 Hartrees.
 IExCor=  402 DFT=T Ex+Corr=B3LYP ExCW=0 ScaHFX=  0.200000
 ScaDFX=  0.800000  0.720000  1.000000  0.810000 ScalE2=  1.000000  1.000000
 IRadAn=      5 IRanWt=     -1 IRanGd=            0 ICorTp=0 IEmpDi=  4
 NAtoms=   19 NActive=   19 NUniq=   19 SFac= 1.00D+00 NAtFMM=   60 NAOKFM=F Big=F
 Integral buffers will be    131072 words long.
 Raffenetti 2 integral format.
 Two-electron integral symmetry is turned on.
 Leave Link  301 at Mon Oct 14 01:35:46 2019, MaxMem= 10737418240 cpu:               1.2 elap:               0.1
 (Enter /apps/cent7/gaussian/g16-A.03/g16-haswell/g16/l302.exe)
 NPDir=0 NMtPBC=     1 NCelOv=     1 NCel=       1 NClECP=     1 NCelD=      1
         NCelK=      1 NCelE2=     1 NClLst=     1 CellRange=     0.0.
 One-electron integrals computed using PRISM.
 One-electron integral symmetry used in STVInt
 NBasis=   172 RedAO= T EigKep=  5.13D-04  NBF=   172
 NBsUse=   172 1.00D-06 EigRej= -1.00D+00 NBFU=   172
 Precomputing XC quadrature grid using
 IXCGrd= 4 IRadAn=           5 IRanWt=          -1 IRanGd=           0 AccXCQ= 0.00D+00.
 Generated NRdTot=       0 NPtTot=           0 NUsed=           0 NTot=          32
 NSgBfM=   172   172   172   172   172 MxSgAt=    19 MxSgA2=    19.
 Leave Link  302 at Mon Oct 14 01:35:47 2019, MaxMem= 10737418240 cpu:               3.2 elap:               0.2
 (Enter /apps/cent7/gaussian/g16-A.03/g16-haswell/g16/l303.exe)
 DipDrv:  MaxL=1.
 Leave Link  303 at Mon Oct 14 01:35:47 2019, MaxMem= 10737418240 cpu:               0.6 elap:               0.0
 (Enter /apps/cent7/gaussian/g16-A.03/g16-haswell/g16/l401.exe)
 Initial guess from the checkpoint file:  "27_p.chk"
 B after Tr=    -0.000000    0.000000   -0.000000
         Rot=    0.999874    0.015093   -0.004311   -0.002405 Ang=   1.82 deg.
 Guess basis will be translated and rotated to current coordinates.
 JPrj=2 DoOrth=T DoCkMO=T.
 Generating alternative initial guess.
 ExpMin= 1.17D-01 ExpMax= 2.19D+04 ExpMxC= 3.30D+03 IAcc=2 IRadAn=         4 AccDes= 0.00D+00
 Harris functional with IExCor=  402 and IRadAn=       4 diagonalized for initial guess.
 HarFok:  IExCor=  402 AccDes= 0.00D+00 IRadAn=         4 IDoV= 1 UseB2=F ITyADJ=14
 ICtDFT=  3500011 ScaDFX=  1.000000  1.000000  1.000000  1.000000
 FoFCou: FMM=F IPFlag=           0 FMFlag=      100000 FMFlg1=           0
         NFxFlg=           0 DoJE=T BraDBF=F KetDBF=T FulRan=T
         wScrn=  0.000000 ICntrl=       500 IOpCl=  0 I1Cent=   200000004 NGrid=           0
         NMat0=    1 NMatS0=      1 NMatT0=    0 NMatD0=    1 NMtDS0=    0 NMtDT0=    0
 Petite list used in FoFCou.
 Harris En= -820.568672454473    
 Leave Link  401 at Mon Oct 14 01:35:47 2019, MaxMem= 10737418240 cpu:               6.6 elap:               0.3
 (Enter /apps/cent7/gaussian/g16-A.03/g16-haswell/g16/l502.exe)
 Integral symmetry usage will be decided dynamically.
 Closed shell SCF:
 Using DIIS extrapolation, IDIIS=  1040.
 NGot= 10737418240 LenX= 10737352920 LenY= 10737322895
 Requested convergence on RMS density matrix=1.00D-08 within 128 cycles.
 Requested convergence on MAX density matrix=1.00D-06.
 Requested convergence on             energy=1.00D-06.
 No special actions if energy rises.
 Fock matrices will be formed incrementally for  20 cycles.
 Integral accuracy reduced to 1.0D-05 until final iterations.

 Cycle   1  Pass 0  IDiag  1:
 FoFJK:  IHMeth= 1 ICntrl=       0 DoSepK=F KAlg= 0 I1Cent=           0 FoldK=F
 IRaf= 920000000 NMat=       1 IRICut=       1 DoRegI=T DoRafI=F ISym2E= 0 IDoP0=0 IntGTp=1.
 FoFCou: FMM=F IPFlag=           0 FMFlag=      100000 FMFlg1=           0
         NFxFlg=           0 DoJE=F BraDBF=F KetDBF=F FulRan=T
         wScrn=  0.000000 ICntrl=         0 IOpCl=  0 I1Cent=           0 NGrid=           0
         NMat0=    1 NMatS0=      1 NMatT0=    0 NMatD0=    1 NMtDS0=    0 NMtDT0=    0
 Symmetry not used in FoFCou.
 E= -820.451931938778    
 DIIS: error= 5.47D-03 at cycle   1 NSaved=   1.
 NSaved= 1 IEnMin= 1 EnMin= -820.451931938778     IErMin= 1 ErrMin= 5.47D-03
 ErrMax= 5.47D-03  0.00D+00 EMaxC= 1.00D-01 BMatC= 6.34D-03 BMatP= 6.34D-03
 IDIUse=3 WtCom= 9.45D-01 WtEn= 5.47D-02
 Coeff-Com:  0.100D+01
 Coeff-En:   0.100D+01
 Coeff:      0.100D+01
 Gap=     1.846 Goal=   None    Shift=    0.000
 GapD=    1.846 DampG=2.000 DampE=1.000 DampFc=2.0000 IDamp=-1.
 RMSDP=1.14D-03 MaxDP=2.58D-02              OVMax= 3.32D-02

 Cycle   2  Pass 0  IDiag  1:
 RMSU=  1.14D-03    CP:  9.98D-01
 E= -820.457562985816     Delta-E=       -0.005631047038 Rises=F Damp=F
 DIIS: error= 5.00D-03 at cycle   2 NSaved=   2.
 NSaved= 2 IEnMin= 2 EnMin= -820.457562985816     IErMin= 2 ErrMin= 5.00D-03
 ErrMax= 5.00D-03  0.00D+00 EMaxC= 1.00D-01 BMatC= 5.04D-03 BMatP= 6.34D-03
 IDIUse=3 WtCom= 9.50D-01 WtEn= 5.00D-02
 Coeff-Com:  0.459D+00 0.541D+00
 Coeff-En:   0.000D+00 0.100D+01
 Coeff:      0.436D+00 0.564D+00
 Gap=     0.208 Goal=   None    Shift=    0.000
 RMSDP=7.35D-04 MaxDP=2.40D-02 DE=-5.63D-03 OVMax= 4.06D-02

 Cycle   3  Pass 0  IDiag  1:
 RMSU=  6.24D-04    CP:  1.00D+00  6.63D-01
 E= -820.458355536117     Delta-E=       -0.000792550301 Rises=F Damp=F
 DIIS: error= 4.36D-03 at cycle   3 NSaved=   3.
 NSaved= 3 IEnMin= 3 EnMin= -820.458355536117     IErMin= 3 ErrMin= 4.36D-03
 ErrMax= 4.36D-03  0.00D+00 EMaxC= 1.00D-01 BMatC= 3.95D-03 BMatP= 5.04D-03
 IDIUse=3 WtCom= 9.56D-01 WtEn= 4.36D-02
 Coeff-Com:  0.208D-01 0.464D+00 0.515D+00
 Coeff-En:   0.000D+00 0.459D+00 0.541D+00
 Coeff:      0.199D-01 0.464D+00 0.516D+00
 Gap=     0.208 Goal=   None    Shift=    0.000
 RMSDP=3.94D-04 MaxDP=1.17D-02 DE=-7.93D-04 OVMax= 2.00D-02

 Cycle   4  Pass 0  IDiag  1:
 RMSU=  1.23D-04    CP:  9.98D-01  8.57D-01  5.24D-01
 E= -820.461412120812     Delta-E=       -0.003056584696 Rises=F Damp=F
 DIIS: error= 5.85D-04 at cycle   4 NSaved=   4.
 NSaved= 4 IEnMin= 4 EnMin= -820.461412120812     IErMin= 4 ErrMin= 5.85D-04
 ErrMax= 5.85D-04  0.00D+00 EMaxC= 1.00D-01 BMatC= 9.22D-05 BMatP= 3.95D-03
 IDIUse=3 WtCom= 9.94D-01 WtEn= 5.85D-03
 Coeff-Com: -0.188D-01 0.194D+00 0.265D+00 0.560D+00
 Coeff-En:   0.000D+00 0.000D+00 0.000D+00 0.100D+01
 Coeff:     -0.187D-01 0.192D+00 0.264D+00 0.563D+00
 Gap=     0.207 Goal=   None    Shift=    0.000
 RMSDP=7.63D-05 MaxDP=4.21D-03 DE=-3.06D-03 OVMax= 3.55D-03

 Cycle   5  Pass 0  IDiag  1:
 RMSU=  4.42D-05    CP:  9.98D-01  8.58D-01  5.58D-01  5.41D-01
 E= -820.461492582648     Delta-E=       -0.000080461836 Rises=F Damp=F
 DIIS: error= 2.98D-04 at cycle   5 NSaved=   5.
 NSaved= 5 IEnMin= 5 EnMin= -820.461492582648     IErMin= 5 ErrMin= 2.98D-04
 ErrMax= 2.98D-04  0.00D+00 EMaxC= 1.00D-01 BMatC= 9.86D-06 BMatP= 9.22D-05
 IDIUse=3 WtCom= 9.97D-01 WtEn= 2.98D-03
 Coeff-Com: -0.111D-01 0.794D-01 0.118D+00 0.326D+00 0.487D+00
 Coeff-En:   0.000D+00 0.000D+00 0.000D+00 0.173D-01 0.983D+00
 Coeff:     -0.111D-01 0.791D-01 0.118D+00 0.325D+00 0.488D+00
 Gap=     0.208 Goal=   None    Shift=    0.000
 RMSDP=2.48D-05 MaxDP=6.02D-04 DE=-8.05D-05 OVMax= 1.76D-03

 Cycle   6  Pass 0  IDiag  1:
 RMSU=  1.53D-05    CP:  9.98D-01  8.58D-01  5.61D-01  6.08D-01  6.02D-01
 E= -820.461502157364     Delta-E=       -0.000009574716 Rises=F Damp=F
 DIIS: error= 9.96D-05 at cycle   6 NSaved=   6.
 NSaved= 6 IEnMin= 6 EnMin= -820.461502157364     IErMin= 6 ErrMin= 9.96D-05
 ErrMax= 9.96D-05  0.00D+00 EMaxC= 1.00D-01 BMatC= 1.15D-06 BMatP= 9.86D-06
 IDIUse=1 WtCom= 1.00D+00 WtEn= 0.00D+00
 Coeff-Com: -0.296D-02 0.130D-01 0.240D-01 0.940D-01 0.282D+00 0.590D+00
 Coeff:     -0.296D-02 0.130D-01 0.240D-01 0.940D-01 0.282D+00 0.590D+00
 Gap=     0.208 Goal=   None    Shift=    0.000
 RMSDP=7.40D-06 MaxDP=2.74D-04 DE=-9.57D-06 OVMax= 4.42D-04

 Initial convergence to 1.0D-05 achieved.  Increase integral accuracy.
 Cycle   7  Pass 1  IDiag  1:
 E= -820.461482461639     Delta-E=        0.000019695725 Rises=F Damp=F
 DIIS: error= 1.94D-05 at cycle   1 NSaved=   1.
 NSaved= 1 IEnMin= 1 EnMin= -820.461482461639     IErMin= 1 ErrMin= 1.94D-05
 ErrMax= 1.94D-05  0.00D+00 EMaxC= 1.00D-01 BMatC= 8.59D-08 BMatP= 8.59D-08
 IDIUse=1 WtCom= 1.00D+00 WtEn= 0.00D+00
 Coeff-Com:  0.100D+01
 Coeff:      0.100D+01
 Gap=     0.208 Goal=   None    Shift=    0.000
 RMSDP=7.40D-06 MaxDP=2.74D-04 DE= 1.97D-05 OVMax= 2.27D-04

 Cycle   8  Pass 1  IDiag  1:
 RMSU=  6.51D-06    CP:  1.00D+00
 E= -820.461482382584     Delta-E=        0.000000079055 Rises=F Damp=F
 DIIS: error= 3.88D-05 at cycle   2 NSaved=   2.
 NSaved= 2 IEnMin= 1 EnMin= -820.461482461639     IErMin= 1 ErrMin= 1.94D-05
 ErrMax= 3.88D-05  0.00D+00 EMaxC= 1.00D-01 BMatC= 1.54D-07 BMatP= 8.59D-08
 IDIUse=1 WtCom= 1.00D+00 WtEn= 0.00D+00
 Coeff-Com:  0.581D+00 0.419D+00
 Coeff:      0.581D+00 0.419D+00
 Gap=     0.208 Goal=   None    Shift=    0.000
 RMSDP=2.77D-06 MaxDP=6.93D-05 DE= 7.91D-08 OVMax= 1.89D-04

 Cycle   9  Pass 1  IDiag  1:
 RMSU=  2.30D-06    CP:  1.00D+00  7.62D-01
 E= -820.461482532500     Delta-E=       -0.000000149916 Rises=F Damp=F
 DIIS: error= 9.75D-06 at cycle   3 NSaved=   3.
 NSaved= 3 IEnMin= 3 EnMin= -820.461482532500     IErMin= 3 ErrMin= 9.75D-06
 ErrMax= 9.75D-06  0.00D+00 EMaxC= 1.00D-01 BMatC= 1.13D-08 BMatP= 8.59D-08
 IDIUse=1 WtCom= 1.00D+00 WtEn= 0.00D+00
 Coeff-Com:  0.180D+00 0.232D+00 0.588D+00
 Coeff:      0.180D+00 0.232D+00 0.588D+00
 Gap=     0.208 Goal=   None    Shift=    0.000
 RMSDP=9.51D-07 MaxDP=3.42D-05 DE=-1.50D-07 OVMax= 5.15D-05

 Cycle  10  Pass 1  IDiag  1:
 RMSU=  7.44D-07    CP:  1.00D+00  7.95D-01  7.67D-01
 E= -820.461482540782     Delta-E=       -0.000000008281 Rises=F Damp=F
 DIIS: error= 3.40D-06 at cycle   4 NSaved=   4.
 NSaved= 4 IEnMin= 4 EnMin= -820.461482540782     IErMin= 4 ErrMin= 3.40D-06
 ErrMax= 3.40D-06  0.00D+00 EMaxC= 1.00D-01 BMatC= 3.68D-09 BMatP= 1.13D-08
 IDIUse=1 WtCom= 1.00D+00 WtEn= 0.00D+00
 Coeff-Com:  0.119D-01 0.814D-01 0.411D+00 0.495D+00
 Coeff:      0.119D-01 0.814D-01 0.411D+00 0.495D+00
 Gap=     0.208 Goal=   None    Shift=    0.000
 RMSDP=3.94D-07 MaxDP=1.90D-05 DE=-8.28D-09 OVMax= 1.64D-05

 Cycle  11  Pass 1  IDiag  1:
[...]
 93,0.00004120,0.00321727,0.00667062,-0.00331124,-0.01972338,0.03273322
 ,-0.00208528,-0.14732985,0.08870888,0.09988796,0.38008192,0.00237800,-
 0.00154809,-0.00092775,0.00516808,0.00011831,0.00530970,0.02803554,-0.
 02787791,-0.00297720,0.09486365,-0.16475377,-0.09954679,-0.29793816,0.
 50900979,0.00015150,-0.00135426,0.00055470,-0.00418293,0.00681551,0.00
 513766,0.02950794,-0.04064282,0.04444542,0.05742585,-0.04764670,-0.221
 92826,-0.02417698,-0.05158574,0.67172273,-0.00014793,0.00027395,0.0001
 4532,-0.00182699,0.00079682,-0.00051692,-0.01275098,0.00878718,-0.0170
 5149,0.02083552,-0.01997373,0.01277168,-0.09311738,0.03399134,0.012227
 79,0.37986627,-0.00019547,-0.00010840,-0.00026905,0.00147299,-0.002311
 45,0.00077115,0.00870579,-0.02194879,0.02474235,-0.02423473,0.03653941
 ,-0.00852702,0.03974551,-0.11714768,0.02505455,-0.27717168,0.48412920,
 -0.00043532,0.00054544,-0.00002209,-0.00197120,0.00243337,-0.00125143,
 -0.01555930,0.02332345,-0.03522044,0.03974471,-0.04082597,-0.04333967,
 -0.02794833,0.07469077,-0.32977078,-0.06608526,-0.00245547,0.70557986,
 0.00025088,-0.00044660,0.00057301,0.00775130,-0.00061096,-0.00516062,0
 .01461530,-0.01638085,0.04462585,-0.02801128,0.02560411,0.00444136,0.0
 1463008,-0.00240957,-0.04785793,-0.15884493,0.11749729,-0.01300135,0.3
 5186894,0.00121397,-0.00086731,-0.00030065,-0.00228796,0.00846697,0.00
 797530,-0.01075452,0.02763218,-0.04674182,0.02537623,-0.03558321,-0.00
 607161,-0.00573506,0.00558112,0.05988007,0.12299854,-0.21861772,0.0284
 1811,-0.26012473,0.45566384,0.00055782,-0.00015449,0.00151970,-0.00322
 025,0.00488645,-0.00506341,0.01141778,-0.00676752,-0.04686794,0.009849
 77,-0.01243829,-0.00224516,-0.02447184,0.03139587,-0.00051720,-0.05373
 757,0.07830180,-0.15460741,-0.03619766,-0.04309866,0.75012471,-0.00075
 927,0.00162767,-0.00050521,-0.00457212,-0.00585677,0.01800976,-0.07459
 079,0.03620034,-0.03830424,0.01149662,-0.00135562,-0.01990317,-0.00757
 077,0.00048385,0.01261706,-0.01906505,0.03093595,-0.00282022,-0.148001
 61,0.09211401,0.10264828,0.38095488,0.00174053,-0.00027350,0.00173141,
 -0.00685327,0.00264088,-0.01913319,0.03191152,-0.10087059,0.07956521,0
 .00261864,-0.00016234,0.02596692,-0.00050413,-0.00403865,-0.00753914,0
 .02629547,-0.02561122,-0.00481449,0.09824940,-0.16581087,-0.10158208,-
 0.30357363,0.49764735,-0.00217945,0.00177537,-0.00113253,0.01705243,-0
 .01505877,-0.03050596,-0.01223136,0.04995223,-0.28879182,-0.04513195,0
 .05633714,-0.00735084,0.01706985,-0.01410577,-0.05425688,0.02508201,-0
 .03767431,0.05810060,0.05976113,-0.04976035,-0.22280860,-0.02244445,-0
 .04513230,0.64669827,-0.01926162,-0.03168259,-0.00368387,-0.06979927,-
 0.01055363,0.00252685,0.00705752,0.01249982,0.00199311,0.00209859,-0.0
 0001859,0.00207968,-0.00156436,-0.00061683,0.00079196,0.00011311,0.000
 21763,-0.00006620,-0.00113030,-0.00001127,0.00009901,-0.00019084,0.001
 66107,-0.00188094,0.57637689,0.00533066,0.00539746,0.00241363,-0.02975
 658,-0.13646561,0.00209263,0.00017005,-0.00051208,0.00011414,-0.001891
 24,-0.00046041,-0.00065098,0.00060781,0.00013447,-0.00046917,-0.000007
 73,-0.00006580,0.00021220,0.00014763,0.00004281,0.00007814,-0.00012473
 ,-0.00142986,-0.00020421,-0.07511525,0.37820064,-0.00684966,-0.0117648
 3,0.00527396,-0.00180005,-0.00378214,-0.07554746,-0.00091892,-0.014502
 96,0.00622889,-0.00233205,-0.00020271,-0.00373104,0.00153869,-0.000059
 54,-0.00043687,0.00005183,-0.00035203,0.00030673,0.00092122,-0.0001741
 6,0.00046958,-0.00051610,0.00030442,0.00233793,-0.00148122,-0.01922810
 ,0.60351981,0.00594797,0.01437192,-0.02653916,-0.07478614,-0.00654160,
 0.01345025,0.00807976,-0.00553696,0.01156659,-0.00038996,0.00068520,-0
 .00022003,0.00055492,-0.00082822,0.00033831,0.00022257,-0.00009643,0.0
 0042815,0.00007242,-0.00075043,0.00131315,-0.00090753,0.00420566,-0.00
 016112,0.00728299,-0.00286392,0.00798995,0.04943767,0.00033532,0.01115
 060,0.00641561,-0.00495516,-0.18503932,0.20749841,0.00384787,0.0107407
 8,-0.01080887,0.00144226,-0.00069507,0.00089374,-0.00130700,0.00090119
 ,-0.00117305,0.00004021,0.00014044,-0.00050971,-0.00040740,-0.00070485
 ,-0.00099913,0.00276415,-0.00025655,0.00115357,-0.00021930,0.00107681,
 0.03066536,-0.00082831,0.16677411,0.00343684,0.00349129,0.00018734,0.0
 0819654,0.21323421,-0.50940869,-0.00537482,0.01738325,-0.01541736,-0.0
 0111810,0.00275016,-0.00133255,-0.00030896,-0.00086966,0.00026987,-0.0
 0053966,0.00088939,-0.00041808,-0.00034438,-0.00027077,-0.00241176,0.0
 0633028,-0.00553226,0.00187014,-0.00310219,-0.00465596,-0.00022344,-0.
 01186090,-0.23028415,0.52770333,-0.00003694,0.00022715,0.00056791,-0.0
 0185093,-0.00018257,-0.00376211,0.00160568,0.00310010,-0.01740796,-0.0
 4650488,0.01326227,-0.01111048,0.00608737,-0.00367262,0.01653525,0.002
 59535,0.00552945,0.00230724,-0.00076560,-0.00013724,0.00015949,0.00062
 804,0.00530693,0.00043276,0.00040284,-0.00026289,-0.00000758,-0.000200
 22,-0.00067865,0.00146528,0.04005736,-0.00080604,0.00054937,-0.0006139
 1,-0.00050879,-0.00327241,0.00415254,0.00049800,-0.00226353,0.02170429
 ,0.01364330,-0.06407364,0.06150190,-0.00101891,0.00908188,-0.01758703,
 0.00550832,0.00089757,-0.00188896,-0.00004087,-0.00083220,-0.00042571,
 0.00529126,-0.00141384,0.00027704,0.00048212,-0.00008520,-0.00046478,-
 0.00079424,0.00075337,-0.00107313,-0.01951810,0.06139643,-0.00018322,0
 .00026494,-0.00008043,0.00020766,-0.00058980,-0.00061875,-0.00098950,0
 .00224634,-0.00425423,-0.01216242,0.06180946,-0.33598344,-0.00182450,0
 .00527994,-0.01310062,0.00255717,-0.00172207,-0.00079729,0.00047501,-0
 .00081923,0.00027164,-0.00020686,0.00089540,0.00173901,0.00009667,-0.0
 0000542,-0.00017236,0.00115861,-0.00155828,-0.00057536,0.01160245,-0.0
 6593366,0.35316431,0.00004455,-0.00017263,-0.00004461,0.00050170,0.000
 91350,-0.00056963,0.00316447,0.00381345,0.00261124,-0.00542143,0.01174
 328,-0.00513721,-0.14334894,0.13597546,-0.05052405,0.00375974,0.000351
 00,0.00057354,0.00471480,0.00276631,0.00070268,-0.00026770,-0.00051962
 ,0.00027196,-0.00023349,0.00012176,0.00032670,-0.00004421,-0.00009743,
 0.00009853,-0.00210693,-0.00249082,-0.00055301,0.14183106,0.00046912,-
 0.00032255,-0.00014061,0.00046491,0.00031065,0.00049289,0.00359125,0.0
 0226240,-0.00195651,0.00896619,-0.00836412,0.00553161,0.13609199,-0.21
 732136,0.06978272,0.00320566,0.00009654,0.00050911,0.00273201,0.003500
 55,0.00106470,-0.00060380,0.00016084,-0.00022116,-0.00000249,0.0001183
 3,0.00006784,-0.00005424,0.00002644,-0.00015782,-0.00247018,-0.0011225
 9,-0.00023582,-0.14965028,0.22240963,0.00066147,-0.00025635,-0.0001504
 5,0.00049862,-0.00086697,0.00076841,0.00227579,-0.00169322,-0.00207183
 ,0.01396071,-0.01811359,0.00965074,-0.05075942,0.06999348,-0.08775049,
 -0.01854822,0.02420603,-0.00490625,0.00087430,0.00080254,-0.00553306,0
 .00038802,-0.00032816,-0.00113431,0.00013224,-0.00001770,-0.00024405,-
 0.00006676,0.00014750,-0.00018054,-0.00057626,-0.00007130,0.00093895,0
 .05260066,-0.07434807,0.08971876,-0.00021816,0.00018164,0.00002971,-0.
 00085452,-0.00078205,-0.00013667,0.00033103,0.00012354,-0.00080015,0.0
 0480481,0.00321446,-0.00050288,0.00649312,-0.00066904,-0.00258183,-0.1
 2854646,0.08956006,0.10035609,-0.00400651,0.00966199,0.01252625,0.0025
 6162,0.00549889,-0.00112014,0.00018634,-0.00010140,-0.00015316,0.00001
 000,0.00008298,0.00016097,-0.00012709,-0.00032590,-0.00025919,-0.00205
 499,-0.00224712,-0.00025007,0.12374498,-0.00023320,0.00018988,-0.00010
 463,-0.00044965,-0.00085558,-0.00005652,0.00008623,0.00004770,0.001052
 87,0.00322982,0.00299561,0.00257312,-0.00353771,0.00901670,0.00626930,
 0.08959953,-0.13776128,-0.10151961,0.01239146,-0.00738748,-0.01630194,
 0.00553341,-0.00011931,0.00228760,0.00011020,-0.00008913,-0.00008353,-
 0.00001493,0.00014979,0.00003511,-0.00046675,0.00012581,0.00031581,-0.
 00223806,-0.00111033,-0.00043441,-0.10199886,0.13630277,0.00003035,0.0
 0001923,0.00007899,-0.00012470,-0.00003349,-0.00034685,-0.00078924,0.0
 0100534,-0.00031306,-0.00024157,0.00220563,-0.00502510,0.01650847,-0.0
 1720500,-0.01485814,0.10038933,-0.10153295,-0.18687432,-0.00665673,0.0
 0722689,0.01162139,-0.00134509,0.00265059,0.00006943,0.00001326,-0.000
 00198,0.00000333,0.00008568,-0.00011535,0.00011091,0.00073627,-0.00091
 494,-0.00061432,-0.00038522,-0.00026343,0.00099436,-0.10762048,0.10700
 315,0.19398471,-0.00013948,-0.00007438,-0.00011261,0.00128769,0.000198
 95,0.00088921,0.00267215,0.00492054,0.00211581,-0.00091180,0.00033530,
 0.00016691,0.00187458,0.00595598,-0.00020208,0.00327513,0.00346142,-0.
 01882791,-0.04845070,0.01380166,-0.01545951,0.00388920,-0.00319460,0.0
 1752899,-0.00018370,0.00009296,-0.00001915,-0.00047930,-0.00012998,0.0
 0037312,-0.00051599,-0.00051098,-0.00009538,0.00001190,0.00005501,-0.0
 0095085,-0.00181569,-0.00232516,-0.00017102,0.04144334,0.00015939,-0.0
 0019051,0.00014988,0.00043811,0.00097770,-0.00076174,0.00471664,0.0012
 7709,-0.00133900,0.00028033,-0.00095400,-0.00028327,0.00603554,-0.0007
 3042,0.00093457,0.00094057,-0.00057315,0.02423621,0.01366853,-0.063417
 69,0.05981879,-0.00070196,0.00656490,-0.01902001,-0.00000264,0.0000374
 2,0.00005611,0.00004749,-0.00030891,-0.00072154,-0.00052726,-0.0002920
 9,-0.00003363,-0.00011735,-0.00012563,0.00116050,-0.00230628,-0.000881
 22,-0.00043828,-0.01999651,0.05979023,0.00018604,-0.00010283,0.0000965
 2,-0.00031574,0.00060513,-0.00022507,0.00233645,-0.00195565,-0.0002009
 7,-0.00003538,-0.00013872,0.00061309,-0.00039403,0.00124244,0.00113188
 ,0.00046562,0.00050730,-0.00388568,-0.01513128,0.05963612,-0.33573015,
 -0.00173984,0.00461268,-0.01496021,0.00007233,-0.00000663,-0.00000810,
 0.00009943,-0.00011859,-0.00031806,-0.00007077,-0.00003868,-0.00004544
 ,0.00010889,-0.00010953,-0.00021127,-0.00029988,-0.00024106,0.00069362
 ,0.01520850,-0.06362337,0.35229224,-0.00128238,0.00020505,0.00018216,-
 0.00040672,-0.00101983,0.00004964,0.00089739,-0.00127647,0.00012316,0.
 00370824,0.00196071,0.00068886,-0.00047979,-0.00052836,0.00046952,0.00
 355256,0.00439634,0.00306354,-0.00457843,0.01188640,-0.00631618,-0.144
 45794,0.13772216,-0.05294493,0.00020792,0.00023435,-0.00021498,-0.0000
 6078,0.00000134,-0.00005482,0.00085770,0.00052950,0.00021095,-0.000626
 00,-0.00050505,-0.00014222,-0.00053556,0.00029410,-0.00043282,-0.00202
 018,-0.00257293,-0.00043478,0.14509981,-0.00073167,0.00006899,-0.00162
 565,0.00054029,-0.00159744,0.00008329,0.00121744,-0.00158403,0.0011289
 1,0.00176244,0.00338179,0.00095757,-0.00049337,-0.00018153,-0.00081764
 ,0.00480072,0.00237649,-0.00230186,0.00964679,-0.00767609,0.00683297,0
 .13659261,-0.20633449,0.06869369,0.00007946,0.00000757,-0.00008079,-0.
 00022688,0.00024858,0.00026463,0.00072287,0.00051287,-0.00002391,-0.00
 053172,-0.00045775,-0.00001373,0.00016298,-0.00062130,0.00042810,-0.00
 271913,-0.00115276,-0.00019821,-0.15064281,0.21314013,0.00038382,-0.00
 050317,0.00081081,-0.00282609,0.00221645,-0.00165863,-0.01746177,0.022
 17796,-0.00596238,0.00144852,-0.00027983,-0.00572406,0.00026498,-0.000
 39457,-0.00039810,0.00264572,-0.00180246,-0.00302913,0.01311110,-0.016
 70881,0.01208472,-0.05285723,0.06936187,-0.08909771,0.00034992,0.00010
 597,-0.00023458,0.00023959,-0.00036412,0.00050476,-0.00080613,0.001201
 32,-0.00000688,-0.00010087,-0.00002665,0.00012319,0.00060069,-0.000845
 88,0.00048207,-0.00050290,-0.00008374,0.00082736,0.05540632,-0.0735136
 8,0.09127828,-0.00090931,0.00022261,-0.00108903,-0.00149185,-0.0036170
 2,0.01092110,-0.00049812,0.00040364,-0.00044652,0.00013970,0.00003621,
 0.00005999,-0.00003440,0.00005629,0.00001751,-0.00003152,0.00006713,-0
 .00000177,-0.00011065,0.00002845,-0.00004554,0.00014312,-0.00025762,0.
 00003437,-0.04703873,0.00527861,-0.01033922,0.00041371,-0.00337339,0.0
 0042636,-0.00005285,-0.00000089,-0.00000213,-0.00001904,-0.00000714,0.
 00000973,0.00000168,0.00001173,-0.00000243,0.00002570,0.00000313,0.000
 00704,0.00019409,-0.00009438,-0.00014023,0.04490260,0.00038943,0.00176
 533,-0.00183773,0.00180472,-0.01305847,0.02855510,-0.00063426,0.001565
 17,-0.00157833,0.00024966,0.00018112,0.00040764,-0.00021107,0.00009802
 ,0.00001289,-0.00009539,0.00008388,-0.00010180,0.00012934,0.00012500,-
 0.00045211,0.00051331,-0.00060676,-0.00009013,0.00443629,-0.08661954,0
 .10013677,-0.00239840,-0.00692313,0.00106833,-0.00010746,0.00009639,0.
 00004975,-0.00003460,-0.00001705,0.00002268,-0.00002225,0.00001778,-0.
 00001878,0.00005434,-0.00001532,-0.00001717,-0.00042506,-0.00015442,-0
 .00053889,-0.00300949,0.09282179,-0.00055975,-0.00061545,-0.00019062,0
 .00107145,-0.00005523,0.00404618,-0.00005295,0.00045291,-0.00019367,-0
 .00017104,0.00018895,-0.00004624,-0.00001546,-0.00003790,-0.00016201,0
 .00003646,-0.00006430,0.00008165,-0.00014901,0.00007637,-0.00008710,0.
 00044741,-0.00071434,-0.00016120,-0.00964089,0.10182443,-0.29407313,-0
 .00120873,-0.00298676,0.00171210,-0.00003068,0.00004289,0.00000876,0.0
 0001183,0.00000376,-0.00000814,0.00000150,0.00001108,-0.00000253,0.000
 04077,-0.00002338,-0.00002729,-0.00012446,-0.00036061,-0.00012417,0.01
 103283,-0.10839132,0.30937752,0.00033001,-0.00076601,0.00017038,-0.009
 16995,-0.00119184,-0.00319926,0.00029330,-0.00003098,0.00046164,0.0001
 7610,-0.00017448,0.00007708,-0.00001572,-0.00002899,0.00004030,0.00002
 913,-0.00004859,0.00007597,-0.00016036,0.00010854,0.00004578,0.0001144
 0,0.00017527,-0.00023929,-0.29826107,0.00980361,-0.09338570,0.00141966
 ,0.00032979,0.00097734,0.00005349,-0.00000615,-0.00001061,-0.00000056,
 0.00001761,0.00000802,0.00001271,0.00001315,0.00000402,-0.00001762,0.0
 0000738,0.00001113,0.00001124,0.00001332,-0.00003709,0.00277659,0.0007
 6827,0.00148336,0.31514226,-0.00552331,-0.00802264,-0.00066456,-0.0286
 3589,0.00007268,-0.01212598,0.00085286,0.00019480,0.00141272,0.0003482
 8,-0.00006533,-0.00032640,0.00003703,-0.00018330,0.00016623,0.00002697
 ,-0.00003959,0.00004597,-0.00018522,0.00003284,0.00001973,0.00009217,0
 .00023453,-0.00008470,0.01235141,-0.04661426,0.00506795,0.00281829,0.0
 0051684,0.00063859,-0.00004333,-0.00004555,0.00004429,0.00000286,-0.00
 002896,-0.00004297,0.00002257,0.00001601,0.00000149,-0.00002121,-0.000
 01185,0.00000052,-0.00000724,0.00001484,0.00003545,0.01311671,0.001066
 37,0.00259437,-0.00836566,0.05024549,0.00016134,0.00015805,0.00048504,
 -0.00009373,-0.00097602,-0.00247593,0.00026756,0.00017633,0.00015786,0
 .00013096,-0.00017588,0.00004940,0.00002555,-0.00003057,0.00005658,0.0
 0000668,-0.00000600,-0.00003808,0.00004260,-0.00001299,-0.00000499,-0.
 00008825,0.00015227,-0.00030547,-0.09371423,0.00379331,-0.08242825,-0.
 00004524,0.00027431,-0.00024359,0.00001185,0.00000737,0.00003794,-0.00
 000125,-0.00000125,0.00000599,-0.00000115,-0.00001060,-0.00000032,-0.0
 0001225,-0.00000526,-0.00000573,-0.00003396,0.00000445,0.00008410,-0.0
 2631691,-0.00170713,-0.00689442,0.10080052,-0.00349666,0.08219392,-0.0
 0041060,0.00009446,0.00013373,0.00766738,-0.00775798,-0.00946799,-0.00
 079612,-0.00289941,0.00059005,-0.00030568,-0.00006124,-0.00076055,0.00
 040022,0.00002401,-0.00016555,0.00004634,-0.00014057,0.00009336,0.0001
 2258,0.00010427,0.00005566,0.00018812,-0.00024159,0.00024344,-0.152238
 33,0.08593825,0.10944555,-0.00067007,0.00132427,-0.00009674,-0.0001233
 1,-0.00007270,-0.00002750,0.00007116,0.00000007,-0.00005440,-0.0000355
 7,-0.00002396,-0.00000519,0.00001533,-0.00001381,-0.00002263,-0.000065
 86,-0.00000147,-0.00000171,0.00138241,-0.00175829,-0.00244097,-0.01308
 708,0.01459178,0.01894457,0.15763534,0.00055557,0.00195401,0.00128593,
 0.01739467,-0.02179247,-0.02164224,-0.00181001,-0.00423244,0.00064154,
 -0.00088217,0.00005722,-0.00106588,0.00061117,0.00012713,-0.00024505,-
 0.00005995,-0.00008684,0.00005590,0.00057620,0.00000279,-0.00007087,-0
 .00000721,-0.00027248,0.00094966,0.08452529,-0.11275098,-0.08623957,-0
 .00143599,0.00349285,0.00211144,-0.00013122,-0.00017818,-0.00003970,0.
 00011055,0.00001358,-0.00007656,-0.00009107,-0.00005252,-0.00000994,0.
 00005141,0.00000342,-0.00002619,-0.00026887,-0.00009308,-0.00018475,-0
 .00907188,0.00957180,0.00801003,-0.00068837,0.00161676,0.00174418,-0.0
 8924012,0.12261298,-0.00066805,0.00042034,-0.00027524,-0.00062247,-0.0
 0108155,-0.00027745,0.00052682,0.00063614,0.00048108,-0.00012651,-0.00
 006045,0.00010739,-0.00000934,-0.00014518,-0.00005892,0.00005006,-0.00
 008723,0.00015668,-0.00026969,0.00008506,0.00007762,0.00000763,0.00002
 096,-0.00015029,0.10867317,-0.08694480,-0.16020031,-0.00000275,0.00009
 938,-0.00018600,0.00005521,0.00001474,0.00004184,0.00001239,0.00002644
 ,0.00000720,0.00003374,0.00001824,0.00000731,-0.00002123,0.00000187,0.
 00000917,0.00018612,0.00011204,0.00007100,0.01592993,-0.01532775,-0.01
 362173,-0.00689346,0.00769421,0.00863634,-0.11660137,0.09438304,0.1650
 3097,-0.15439429,-0.17773605,-0.01585404,-0.03191479,-0.02960229,-0.00
 430110,0.00265649,0.00076436,0.00010581,-0.00026051,0.00078260,-0.0005
 8386,-0.00003587,-0.00024044,-0.00043166,0.00003552,-0.00005309,0.0000
 7427,0.00003408,-0.00025916,0.00007289,0.00040762,-0.00024109,0.000856
 68,-0.00382449,0.00239804,-0.00225616,0.00409655,0.00182842,0.00133533
 ,-0.00000309,0.00014192,0.00000579,0.00002390,-0.00005352,-0.00006137,
 0.00004825,0.00001864,0.00000709,0.00003946,-0.00005836,-0.00005112,-0
 .00001531,-0.00009751,0.00028338,0.00020689,0.00035091,0.00026832,0.00
 035347,-0.00147908,-0.00008467,0.00020376,-0.00013799,-0.00026019,0.18
 234239,-0.21492375,-0.33725247,-0.00524575,0.00748970,0.01053445,-0.00
 134434,0.00064526,-0.00017679,0.00145437,0.00032543,-0.00009339,-0.000
 75311,0.00000157,-0.00028588,0.00014478,0.00004319,0.00000839,-0.00005
 268,-0.00003656,-0.00015068,-0.00010766,0.00007500,-0.00004803,-0.0000
 7458,0.00185929,0.00007735,0.00063668,0.00024199,-0.00204397,0.0016988
 9,0.00004950,0.00016557,0.00005560,0.00005432,-0.00002862,-0.00006970,
 0.00003485,0.00001611,-0.00000628,0.00004439,0.00000278,-0.00002755,0.
 00001668,0.00010161,0.00014753,0.00020729,0.00000205,0.00004452,0.0000
 6413,0.00100032,0.00011208,0.00013401,0.00000648,0.00013452,0.20367369
 ,0.32816472,-0.00563936,0.00919763,-0.01050237,-0.01576294,-0.01527518
 ,0.00169400,0.00012425,0.00019619,-0.00030461,0.00000787,0.00016527,-0
 .00018273,-0.00003133,-0.00002655,-0.00008059,0.00004945,0.00002030,-0
 .00006487,-0.00005694,-0.00014139,-0.00029257,0.00028222,-0.00048576,-
 0.00015953,-0.00325865,0.00155050,-0.00084062,0.00343496,0.00177012,-0
 .00164305,-0.00010174,0.00011002,0.00004667,-0.00000258,-0.00001821,-0
 .00001722,0.00001668,0.00003189,-0.00001146,0.00005160,-0.00002470,-0.
 00004590,0.00031887,0.00043044,-0.00003065,-0.00005508,-0.00019204,0.0
 0036605,-0.00039014,-0.00098025,0.00068961,0.00013826,0.00041904,0.000
 14332,0.02087461,0.00325268,0.01123651\\-0.00001065,0.00000109,-0.0000
 0289,0.00000882,-0.00000843,-0.00001036,-0.00000684,0.00001610,0.00001
 022,0.00000566,-0.00000261,-0.00000122,-0.00000175,-0.00000034,0.00000
 421,-0.00000283,0.00000203,-0.00000797,0.00000493,-0.00000598,-0.00000
 480,-0.00000194,0.00000032,0.00000058,0.00000585,-0.00000330,0.0000058
 4,-0.00000302,-0.00000188,0.00000573,-0.00000049,0.00000099,-0.0000000
 2,0.00000167,0.00000055,-0.00000206,0.00000212,0.00000020,0.00000019,0
 .00000067,0.00000028,-0.00000049,0.00000067,-0.00000137,0.00000177,-0.
 00000280,-0.00000281,0.00000066,0.00000039,0.00000064,0.00000064,0.000
 00084,0.00000596,-0.00000176,-0.00000130,-0.00000143,0.00000171\\\@


 SCIENCE AND PEACE WILL TRIUMPH OVER IGNORANCE AND WAR

                          -- PASTEUR
 Job cpu time:       0 days  0 hours 10 minutes 37.8 seconds.
 Elapsed time:       0 days  0 hours  0 minutes 27.1 seconds.
 File lengths (MBytes):  RWF=     76 Int=      0 D2E=      0 Chk=      4 Scr=      1
 Normal termination of Gaussian 16 at Mon Oct 14 01:37:27 2019.
real 106.61
user 2376.70
sys 20.33
Machine:
brown-a456
brown-a456
brown-a456
brown-a456
brown-a456
brown-a456
brown-a456
brown-a456
brown-a456
brown-a456
brown-a456
brown-a456
brown-a456
brown-a456
brown-a456
brown-a456
brown-a456
brown-a456
brown-a456
brown-a456
brown-a456
brown-a456
brown-a456
brown-a456
