Title Card Required                                                     
Freq      RB3LYP                                                      6-31G(d)            
Number of atoms                            I               13
Info1-9                                    I   N=           9
          36          36        1002           0           0         100
           6          18        -502
Full Title                                 C   N=           2
Title Card Required     
Route                                      C   N=           6
#P opt freq b3lyp/6-31g(d) geom=connectivity temperature=0.0
01          
Charge                                     I                0
Multiplicity                               I                1
Number of electrons                        I               62
Number of alpha electrons                  I               31
Number of beta electrons                   I               31
Number of basis functions                  I              121
Number of independent functions            I              121
Number of point charges in /Mol/           I                0
Number of translation vectors              I                0
Atomic numbers                             I   N=          13
           6           6          16           8           6           6
           8           1           1           1           1           1
           1
Nuclear charges                            R   N=          13
  6.00000000E+00  6.00000000E+00  1.60000000E+01  8.00000000E+00  6.00000000E+00
  6.00000000E+00  8.00000000E+00  1.00000000E+00  1.00000000E+00  1.00000000E+00
  1.00000000E+00  1.00000000E+00  1.00000000E+00
Current cartesian coordinates              R   N=          39
  4.62180634E+00  1.49757426E+00  8.32191845E-03  2.38489831E+00  1.37033379E+00
  1.14512030E+00  1.11354110E-04 -7.38123533E-01 -4.40040983E-05  1.02552668E+00
 -2.09780779E+00 -2.19818200E+00 -2.38510185E+00  1.37054793E+00 -1.14472821E+00
 -4.62209838E+00  1.49731875E+00 -8.05614609E-03 -1.02531209E+00 -2.09865037E+00
  2.19759018E+00  6.11530939E+00  2.70485218E+00  7.35222823E-01  5.01459808E+00
  3.74820235E-01 -1.66476925E+00  1.85766584E+00  2.40344466E+00  2.83881879E+00
 -1.85782590E+00  2.40435875E+00 -2.83798565E+00 -6.11546333E+00  2.70477678E+00
 -7.34952569E-01 -5.01480894E+00  3.74740764E-01  1.66515728E+00
Number of symbols in /Mol/                 I                0
Force Field                                I                0
Atom Types                                 C   N=          13
                                                            
                                                            
                                    
Int Atom Types                             I   N=          13
           0           0           0           0           0           0
           0           0           0           0           0           0
           0
MM charges                                 R   N=          13
  0.00000000E+00  0.00000000E+00  0.00000000E+00  0.00000000E+00  0.00000000E+00
  0.00000000E+00  0.00000000E+00  0.00000000E+00  0.00000000E+00  0.00000000E+00
  0.00000000E+00  0.00000000E+00  0.00000000E+00
Integer atomic weights                     I   N=          13
          12          12          32          16          12          12
          16           1           1           1           1           1
           1
Real atomic weights                        R   N=          13
  1.20000000E+01  1.20000000E+01  3.19720718E+01  1.59949146E+01  1.20000000E+01
  1.20000000E+01  1.59949146E+01  1.00782504E+00  1.00782504E+00  1.00782504E+00
  1.00782504E+00  1.00782504E+00  1.00782504E+00
Atom fragment info                         I   N=          13
           0           0           0           0           0           0
           0           0           0           0           0           0
           0
Atom residue num                           I   N=          13
           0           0           0           0           0           0
           0           0           0           0           0           0
           0
Nuclear spins                              I   N=          13
           0           0           0           0           0           0
           0           1           1           1           1           1
           1
Nuclear ZEff                               R   N=          13
 -3.60000000E+00 -3.60000000E+00 -1.36000000E+01 -5.60000000E+00 -3.60000000E+00
 -3.60000000E+00 -5.60000000E+00 -1.00000000E+00 -1.00000000E+00 -1.00000000E+00
 -1.00000000E+00 -1.00000000E+00 -1.00000000E+00
Nuclear ZNuc                               R   N=          13
  6.00000000E+00  6.00000000E+00  1.60000000E+01  8.00000000E+00  6.00000000E+00
  6.00000000E+00  8.00000000E+00  1.00000000E+00  1.00000000E+00  1.00000000E+00
  1.00000000E+00  1.00000000E+00  1.00000000E+00
Nuclear QMom                               R   N=          13
  0.00000000E+00  0.00000000E+00  0.00000000E+00  0.00000000E+00  0.00000000E+00
  0.00000000E+00  0.00000000E+00  0.00000000E+00  0.00000000E+00  0.00000000E+00
  0.00000000E+00  0.00000000E+00  0.00000000E+00
Nuclear GFac                               R   N=          13
  0.00000000E+00  0.00000000E+00  0.00000000E+00  0.00000000E+00  0.00000000E+00
  0.00000000E+00  0.00000000E+00  2.79284600E+00  2.79284600E+00  2.79284600E+00
  2.79284600E+00  2.79284600E+00  2.79284600E+00
MicOpt                                     I   N=          13
          -1          -1          -1          -1          -1          -1
          -1          -1          -1          -1          -1          -1
          -1
Number of residues                         I                0
Number of secondary structures             I                0
Redundant internal dimensions              I   N=           4
          50          12          18          20
Redundant internal coordinate indices      I   N=         200
           1           2           0           0           1           8
           0           0           1           9           0           0
           2           3           0           0           2          10
           0           0           3           4           0           0
           3           5           0           0           3           7
           0           0           5           6           0           0
           5          11           0           0           6          12
           0           0           6          13           0           0
           2           1           8           0           2           1
           9           0           8           1           9           0
           1           2           3           0           1           2
          10           0           3           2          10           0
           2           3           4           0           2           3
           5           0           2           3           7           0
           4           3           5           0           4           3
           7           0           5           3           7           0
           3           5           6           0           3           5
          11           0           6           5          11           0
           5           6          12           0           5           6
          13           0          12           6          13           0
           8           1           2           3           8           1
           2          10           9           1           2           3
           9           1           2          10           1           2
           3           4           1           2           3           5
           1           2           3           7          10           2
           3           4          10           2           3           5
          10           2           3           7           2           3
           5           6           2           3           5          11
           4           3           5           6           4           3
           5          11           7           3           5           6
           7           3           5          11           3           5
           6          12           3           5           6          13
          11           5           6          12          11           5
           6          13
Redundant internal coordinates             R   N=          50
  2.51242079E+00  2.05340114E+00  2.05282635E+00  3.38292808E+00  2.05278025E+00
  2.78065254E+00  3.38319956E+00  2.78066944E+00  2.51241869E+00  2.05277995E+00
  2.05340502E+00  2.05281419E+00  2.11434191E+00  2.10764751E+00  2.06111737E+00
  2.10138417E+00  2.18524505E+00  1.99534944E+00  1.88851480E+00  1.79575633E+00
  1.87274159E+00  1.87265288E+00  2.11940793E+00  1.88848411E+00  2.10145923E+00
  1.99532125E+00  2.18520423E+00  2.11419996E+00  2.10772609E+00  2.06118582E+00
 -3.09192503E+00 -6.19200229E-03  3.59442623E-02  3.12167729E+00  3.92553037E-03
 -1.97435408E+00  2.31897322E+00 -3.08758304E+00  1.21732266E+00 -7.72535345E-01
 -1.97438148E+00  1.21717080E+00  2.31894605E+00 -7.72686979E-01  3.98573375E-03
 -3.08764729E+00 -3.09193402E+00  3.63860862E-02 -6.06126346E-03  3.12225884E+00
ZRed-IntVec                                I   N=          50
           0           0           0           0           0           0
           0           0           0           0           0           0
           0           0           0           0           0           0
           0           0           0           0           0           0
           0           0           0           0           0           0
           0           0           0           0           0           0
           0           0           0           0           0           0
           0           0           0           0           0           0
           0           0
ZRed-FPVec                                 R   N=          50
  0.00000000E+00  0.00000000E+00  0.00000000E+00  0.00000000E+00  0.00000000E+00
  0.00000000E+00  0.00000000E+00  0.00000000E+00  0.00000000E+00  0.00000000E+00
  0.00000000E+00  0.00000000E+00  0.00000000E+00  0.00000000E+00  0.00000000E+00
  0.00000000E+00  0.00000000E+00  0.00000000E+00  0.00000000E+00  0.00000000E+00
  0.00000000E+00  0.00000000E+00  0.00000000E+00  0.00000000E+00  0.00000000E+00
  0.00000000E+00  0.00000000E+00  0.00000000E+00  0.00000000E+00  0.00000000E+00
  0.00000000E+00  0.00000000E+00  0.00000000E+00  0.00000000E+00  0.00000000E+00
  0.00000000E+00  0.00000000E+00  0.00000000E+00  0.00000000E+00  0.00000000E+00
  0.00000000E+00  0.00000000E+00  0.00000000E+00  0.00000000E+00  0.00000000E+00
  0.00000000E+00  0.00000000E+00  0.00000000E+00  0.00000000E+00  0.00000000E+00
ZRed-Constraint1                           R   N=          50
  2.51242079E+00  2.05340114E+00  2.05282635E+00  3.38292808E+00  2.05278025E+00
  2.78065254E+00  3.38319956E+00  2.78066944E+00  2.51241869E+00  2.05277995E+00
  2.05340502E+00  2.05281419E+00  2.11434191E+00  2.10764751E+00  2.06111737E+00
  2.10138417E+00  2.18524505E+00  1.99534944E+00  1.88851480E+00  1.79575633E+00
  1.87274159E+00  1.87265288E+00  2.11940793E+00  1.88848411E+00  2.10145923E+00
  1.99532125E+00  2.18520423E+00  2.11419996E+00  2.10772609E+00  2.06118582E+00
 -3.09192503E+00 -6.19200229E-03  3.59442623E-02  3.12167729E+00  3.92553037E-03
 -1.97435408E+00  2.31897322E+00 -3.08758304E+00  1.21732266E+00 -7.72535345E-01
 -1.97438148E+00  1.21717080E+00  2.31894605E+00 -7.72686979E-01  3.98573375E-03
 -3.08764729E+00 -3.09193402E+00  3.63860862E-02 -6.06126346E-03  3.12225884E+00
ZRed-Constraint2                           R   N=          50
  2.52465709E+00  2.05983372E+00  2.05973966E+00  3.30242351E+00  2.05969435E+00
  3.03883367E+00  3.30196598E+00  3.03864762E+00  2.52497834E+00  2.05974856E+00
  2.05972712E+00  2.05974708E+00  2.09440426E+00  2.09438433E+00  2.09439670E+00
  2.13370500E+00  1.83738097E+00  2.31209933E+00  1.92329422E+00  1.92347941E+00
  1.91193887E+00  1.91434095E+00  1.88012797E+00  1.91011362E+00  2.12557509E+00
  2.31396929E+00  1.84364093E+00  2.09436001E+00  2.09431635E+00  2.09450894E+00
 -1.92030396E+00  1.22115737E+00  1.22144351E+00 -1.92028047E+00  6.88700307E-01
 -1.42641147E+00  2.75423450E+00 -2.45272059E+00  1.71535295E+00 -3.87186393E-01
 -1.04213264E+00  2.09942299E+00  3.12060697E+00 -2.10227097E-02  1.06150370E+00
 -2.08012598E+00  2.14205536E+00 -9.99469244E-01 -9.99508983E-01  2.14215172E+00
SymInf integers                            I   N=          26
           1           1           1           1           1           0
           0           0           0           0           0           0
           0           0           0           0           0           0
           0           0           0           0           0           0
           0           0
RotTr to input orientation                 R   N=          12
  2.41784611E-01 -9.66005606E-01  9.15061278E-02  6.54890968E-01  2.32043533E-01
  7.19217366E-01 -7.16001412E-01 -1.13969154E-01  6.88732901E-01  5.59279820E+00
  4.43521561E+00  7.01871536E-01
Number of contracted shells                I               41
Number of primitive shells                 I              107
Pure/Cartesian d shells                    I                1
Pure/Cartesian f shells                    I                0
Highest angular momentum                   I                2
Largest degree of contraction              I                6
Shell types                                I   N=          41
           0          -1          -1           2           0          -1
          -1           2           0          -1          -1          -1
           2           0          -1          -1           2           0
          -1          -1           2           0          -1          -1
           2           0          -1          -1           2           0
           0           0           0           0           0           0
           0           0           0           0           0
Number of primitives per shell             I   N=          41
           6           3           1           1           6           3
           1           1           6           6           3           1
           1           6           3           1           1           6
           3           1           1           6           3           1
           1           6           3           1           1           3
           1           3           1           3           1           3
           1           3           1           3           1
Shell to atom map                          I   N=          41
           1           1           1           1           2           2
           2           2           3           3           3           3
           3           4           4           4           4           5
           5           5           5           6           6           6
           6           7           7           7           7           8
           8           9           9          10          10          11
          11          12          12          13          13
Primitive exponents                        R   N=         107
  3.04752488E+03  4.57369518E+02  1.03948685E+02  2.92101553E+01  9.28666296E+00
  3.16392696E+00  7.86827235E+00  1.88128854E+00  5.44249258E-01  1.68714478E-01
  8.00000000E-01  3.04752488E+03  4.57369518E+02  1.03948685E+02  2.92101553E+01
  9.28666296E+00  3.16392696E+00  7.86827235E+00  1.88128854E+00  5.44249258E-01
  1.68714478E-01  8.00000000E-01  2.19171000E+04  3.30149000E+03  7.54146000E+02
  2.12711000E+02  6.79896000E+01  2.30515000E+01  4.23735000E+02  1.00710000E+02
  3.21599000E+01  1.18079000E+01  4.63110000E+00  1.87025000E+00  2.61584000E+00
  9.22167000E-01  3.41287000E-01  1.17167000E-01  6.50000000E-01  5.48467166E+03
  8.25234946E+02  1.88046958E+02  5.29645000E+01  1.68975704E+01  5.79963534E+00
  1.55396162E+01  3.59993359E+00  1.01376175E+00  2.70005823E-01  8.00000000E-01
  3.04752488E+03  4.57369518E+02  1.03948685E+02  2.92101553E+01  9.28666296E+00
  3.16392696E+00  7.86827235E+00  1.88128854E+00  5.44249258E-01  1.68714478E-01
  8.00000000E-01  3.04752488E+03  4.57369518E+02  1.03948685E+02  2.92101553E+01
  9.28666296E+00  3.16392696E+00  7.86827235E+00  1.88128854E+00  5.44249258E-01
  1.68714478E-01  8.00000000E-01  5.48467166E+03  8.25234946E+02  1.88046958E+02
  5.29645000E+01  1.68975704E+01  5.79963534E+00  1.55396162E+01  3.59993359E+00
  1.01376175E+00  2.70005823E-01  8.00000000E-01  1.87311370E+01  2.82539436E+00
  6.40121692E-01  1.61277759E-01  1.87311370E+01  2.82539436E+00  6.40121692E-01
  1.61277759E-01  1.87311370E+01  2.82539436E+00  6.40121692E-01  1.61277759E-01
  1.87311370E+01  2.82539436E+00  6.40121692E-01  1.61277759E-01  1.87311370E+01
  2.82539436E+00  6.40121692E-01  1.61277759E-01  1.87311370E+01  2.82539436E+00
  6.40121692E-01  1.61277759E-01
Contraction coefficients                   R   N=         107
  1.83473713E-03  1.40373228E-02  6.88426223E-02  2.32184443E-01  4.67941348E-01
  3.62311985E-01 -1.19332420E-01 -1.60854152E-01  1.14345644E+00  1.00000000E+00
  1.00000000E+00  1.83473713E-03  1.40373228E-02  6.88426223E-02  2.32184443E-01
  4.67941348E-01  3.62311985E-01 -1.19332420E-01 -1.60854152E-01  1.14345644E+00
  1.00000000E+00  1.00000000E+00  1.86924085E-03  1.42303065E-02  6.96962317E-02
  2.38487108E-01  4.83307220E-01  3.38074154E-01 -2.37677050E-03 -3.16930067E-02
 -1.13317024E-01  5.60900118E-02  5.92255124E-01  4.55006095E-01 -2.50373114E-01
  6.69567631E-02  1.05450627E+00  1.00000000E+00  1.00000000E+00  1.83107443E-03
  1.39501722E-02  6.84450781E-02  2.32714336E-01  4.70192898E-01  3.58520853E-01
 -1.10777550E-01 -1.48026263E-01  1.13076702E+00  1.00000000E+00  1.00000000E+00
  1.83473713E-03  1.40373228E-02  6.88426223E-02  2.32184443E-01  4.67941348E-01
  3.62311985E-01 -1.19332420E-01 -1.60854152E-01  1.14345644E+00  1.00000000E+00
  1.00000000E+00  1.83473713E-03  1.40373228E-02  6.88426223E-02  2.32184443E-01
  4.67941348E-01  3.62311985E-01 -1.19332420E-01 -1.60854152E-01  1.14345644E+00
  1.00000000E+00  1.00000000E+00  1.83107443E-03  1.39501722E-02  6.84450781E-02
  2.32714336E-01  4.70192898E-01  3.58520853E-01 -1.10777550E-01 -1.48026263E-01
  1.13076702E+00  1.00000000E+00  1.00000000E+00  3.34946043E-02  2.34726953E-01
  8.13757326E-01  1.00000000E+00  3.34946043E-02  2.34726953E-01  8.13757326E-01
  1.00000000E+00  3.34946043E-02  2.34726953E-01  8.13757326E-01  1.00000000E+00
  3.34946043E-02  2.34726953E-01  8.13757326E-01  1.00000000E+00  3.34946043E-02
  2.34726953E-01  8.13757326E-01  1.00000000E+00  3.34946043E-02  2.34726953E-01
  8.13757326E-01  1.00000000E+00
P(S=P) Contraction coefficients            R   N=         107
  0.00000000E+00  0.00000000E+00  0.00000000E+00  0.00000000E+00  0.00000000E+00
  0.00000000E+00  6.89990666E-02  3.16423961E-01  7.44308291E-01  1.00000000E+00
  0.00000000E+00  0.00000000E+00  0.00000000E+00  0.00000000E+00  0.00000000E+00
  0.00000000E+00  0.00000000E+00  6.89990666E-02  3.16423961E-01  7.44308291E-01
  1.00000000E+00  0.00000000E+00  0.00000000E+00  0.00000000E+00  0.00000000E+00
  0.00000000E+00  0.00000000E+00  0.00000000E+00  4.06100998E-03  3.06812999E-02
  1.30451999E-01  3.27204999E-01  4.52850998E-01  2.56041999E-01 -1.45104895E-02
  3.10262776E-01  7.54482456E-01  1.00000000E+00  0.00000000E+00  0.00000000E+00
  0.00000000E+00  0.00000000E+00  0.00000000E+00  0.00000000E+00  0.00000000E+00
  7.08742682E-02  3.39752839E-01  7.27158577E-01  1.00000000E+00  0.00000000E+00
  0.00000000E+00  0.00000000E+00  0.00000000E+00  0.00000000E+00  0.00000000E+00
  0.00000000E+00  6.89990666E-02  3.16423961E-01  7.44308291E-01  1.00000000E+00
  0.00000000E+00  0.00000000E+00  0.00000000E+00  0.00000000E+00  0.00000000E+00
  0.00000000E+00  0.00000000E+00  6.89990666E-02  3.16423961E-01  7.44308291E-01
  1.00000000E+00  0.00000000E+00  0.00000000E+00  0.00000000E+00  0.00000000E+00
  0.00000000E+00  0.00000000E+00  0.00000000E+00  7.08742682E-02  3.39752839E-01
  7.27158577E-01  1.00000000E+00  0.00000000E+00  0.00000000E+00  0.00000000E+00
  0.00000000E+00  0.00000000E+00  0.00000000E+00  0.00000000E+00  0.00000000E+00
  0.00000000E+00  0.00000000E+00  0.00000000E+00  0.00000000E+00  0.00000000E+00
  0.00000000E+00  0.00000000E+00  0.00000000E+00  0.00000000E+00  0.00000000E+00
  0.00000000E+00  0.00000000E+00  0.00000000E+00  0.00000000E+00  0.00000000E+00
  0.00000000E+00  0.00000000E+00
Coordinates of each shell                  R   N=         123
  4.62180634E+00  1.49757426E+00  8.32191845E-03  4.62180634E+00  1.49757426E+00
  8.32191845E-03  4.62180634E+00  1.49757426E+00  8.32191845E-03  4.62180634E+00
  1.49757426E+00  8.32191845E-03  2.38489831E+00  1.37033379E+00  1.14512030E+00
  2.38489831E+00  1.37033379E+00  1.14512030E+00  2.38489831E+00  1.37033379E+00
  1.14512030E+00  2.38489831E+00  1.37033379E+00  1.14512030E+00  1.11354110E-04
 -7.38123533E-01 -4.40040983E-05  1.11354110E-04 -7.38123533E-01 -4.40040983E-05
  1.11354110E-04 -7.38123533E-01 -4.40040983E-05  1.11354110E-04 -7.38123533E-01
 -4.40040983E-05  1.11354110E-04 -7.38123533E-01 -4.40040983E-05  1.02552668E+00
 -2.09780779E+00 -2.19818200E+00  1.02552668E+00 -2.09780779E+00 -2.19818200E+00
  1.02552668E+00 -2.09780779E+00 -2.19818200E+00  1.02552668E+00 -2.09780779E+00
 -2.19818200E+00 -2.38510185E+00  1.37054793E+00 -1.14472821E+00 -2.38510185E+00
  1.37054793E+00 -1.14472821E+00 -2.38510185E+00  1.37054793E+00 -1.14472821E+00
 -2.38510185E+00  1.37054793E+00 -1.14472821E+00 -4.62209838E+00  1.49731875E+00
 -8.05614609E-03 -4.62209838E+00  1.49731875E+00 -8.05614609E-03 -4.62209838E+00
  1.49731875E+00 -8.05614609E-03 -4.62209838E+00  1.49731875E+00 -8.05614609E-03
 -1.02531209E+00 -2.09865037E+00  2.19759018E+00 -1.02531209E+00 -2.09865037E+00
  2.19759018E+00 -1.02531209E+00 -2.09865037E+00  2.19759018E+00 -1.02531209E+00
 -2.09865037E+00  2.19759018E+00  6.11530939E+00  2.70485218E+00  7.35222823E-01
  6.11530939E+00  2.70485218E+00  7.35222823E-01  5.01459808E+00  3.74820235E-01
 -1.66476925E+00  5.01459808E+00  3.74820235E-01 -1.66476925E+00  1.85766584E+00
  2.40344466E+00  2.83881879E+00  1.85766584E+00  2.40344466E+00  2.83881879E+00
 -1.85782590E+00  2.40435875E+00 -2.83798565E+00 -1.85782590E+00  2.40435875E+00
 -2.83798565E+00 -6.11546333E+00  2.70477678E+00 -7.34952569E-01 -6.11546333E+00
  2.70477678E+00 -7.34952569E-01 -5.01480894E+00  3.74740764E-01  1.66515728E+00
 -5.01480894E+00  3.74740764E-01  1.66515728E+00
Num ILSW                                   I              100
ILSW                                       I   N=         100
           0           1           0           0           2           0
           0           0           0           0         402          -1
           5           0           0           0           2           0
           0           0           0           0           1           0
           1           0           0           0           0           0
           0           0      100000           0          -1           0
           0           0           0           0           0           0
           0           0           0           1           0           0
           0 -2000000000           1           0           0           0
           0           0           4          52           0           0
           0           0           5           0           0           0
           0           0           0          13           0           1
           0           0           0           0           0           0
           0           0           0           0           0           0
           0           0           0           0           0           0
           0           0           0           0           0           0
           0           0           0           0
Num RLSW                                   I               52
RLSW                                       R   N=          52
  8.00000000E-01  7.20000000E-01  1.00000000E+00  8.10000000E-01  2.00000000E-01
  0.00000000E+00  0.00000000E+00  1.00000000E+00  0.00000000E+00  0.00000000E+00
  0.00000000E+00  0.00000000E+00  1.00000000E+00  0.00000000E+00  0.00000000E+00
  0.00000000E+00  0.00000000E+00  1.00000000E+00  0.00000000E+00  0.00000000E+00
  0.00000000E+00  0.00000000E+00  1.00000000E+00  0.00000000E+00  0.00000000E+00
  0.00000000E+00  0.00000000E+00  1.00000000E+00  0.00000000E+00  0.00000000E+00
  0.00000000E+00  0.00000000E+00  1.00000000E+00  0.00000000E+00  0.00000000E+00
  0.00000000E+00  0.00000000E+00  0.00000000E+00  1.00000000E+00  1.00000000E+00
  0.00000000E+00  1.00000000E+00  0.00000000E+00  0.00000000E+00  0.00000000E+00
  0.00000000E+00  0.00000000E+00  0.00000000E+00  0.00000000E+00  0.00000000E+00
  0.00000000E+00  0.00000000E+00
MxBond                                     I                4
NBond                                      I   N=          13
           3           3           4           1           3           3
           1           1           1           1           1           1
           1
IBond                                      I   N=          52
           2           8           9           0           1           3
          10           0           2           4           5           7
           3           0           0           0           3           6
          11           0           5          12          13           0
           3           0           0           0           1           0
           0           0           1           0           0           0
           2           0           0           0           5           0
           0           0           6           0           0           0
           6           0           0           0
RBond                                      R   N=          52
  2.00000000E+00  1.00000000E+00  1.00000000E+00  0.00000000E+00  2.00000000E+00
  1.00000000E+00  1.00000000E+00  0.00000000E+00  1.00000000E+00  2.00000000E+00
  1.00000000E+00  2.00000000E+00  2.00000000E+00  0.00000000E+00  0.00000000E+00
  0.00000000E+00  1.00000000E+00  2.00000000E+00  1.00000000E+00  0.00000000E+00
  2.00000000E+00  1.00000000E+00  1.00000000E+00  0.00000000E+00  2.00000000E+00
  0.00000000E+00  0.00000000E+00  0.00000000E+00  1.00000000E+00  0.00000000E+00
  0.00000000E+00  0.00000000E+00  1.00000000E+00  0.00000000E+00  0.00000000E+00
  0.00000000E+00  1.00000000E+00  0.00000000E+00  0.00000000E+00  0.00000000E+00
  1.00000000E+00  0.00000000E+00  0.00000000E+00  0.00000000E+00  1.00000000E+00
  0.00000000E+00  0.00000000E+00  0.00000000E+00  1.00000000E+00  0.00000000E+00
  0.00000000E+00  0.00000000E+00
Virial Ratio                               R      2.006198092025143E+00
SCF Energy                                 R     -7.045489193842255E+02
Total Energy                               R     -7.045489193842255E+02
RMS Force                                  R      1.657233862259712E-05
RMS Density                                R      4.872862443146805E-09
NImag                                      I                0
Job Status                                 I                1
Nuclear derivative order                   I                2
External E-field                           R   N=          35
  0.00000000E+00  0.00000000E+00  0.00000000E+00  0.00000000E+00  0.00000000E+00
  0.00000000E+00  0.00000000E+00  0.00000000E+00  0.00000000E+00  0.00000000E+00
  0.00000000E+00  0.00000000E+00  0.00000000E+00  0.00000000E+00  0.00000000E+00
  0.00000000E+00  0.00000000E+00  0.00000000E+00  0.00000000E+00  0.00000000E+00
  0.00000000E+00  0.00000000E+00  0.00000000E+00  0.00000000E+00  0.00000000E+00
  0.00000000E+00  0.00000000E+00  0.00000000E+00  0.00000000E+00  0.00000000E+00
  0.00000000E+00  0.00000000E+00  0.00000000E+00  0.00000000E+00  0.00000000E+00
IOpCl                                      I                0
IROHF                                      I                0
Alpha Orbital Energies                     R   N=         121
 -8.90956015E+01 -1.91396172E+01 -1.91396117E+01 -1.02336980E+01 -1.02336886E+01
 -1.02260880E+01 -1.02260757E+01 -8.12452875E+00 -6.08876032E+00 -6.08823352E+00
 -6.08782716E+00 -1.09710741E+00 -9.94472358E-01 -8.21195982E-01 -8.02367217E-01
 -6.96568307E-01 -6.19795010E-01 -5.64343489E-01 -5.30531508E-01 -4.92076803E-01
 -4.78565711E-01 -4.77178519E-01 -4.32851192E-01 -4.13059089E-01 -4.10922343E-01
 -3.32387189E-01 -3.25033652E-01 -3.10500457E-01 -3.08600163E-01 -2.95704227E-01
 -2.84698404E-01 -5.47466282E-02 -1.23532774E-02  7.69123930E-02  7.89459517E-02
  9.12784003E-02  1.12268407E-01  1.23581980E-01  1.23728114E-01  1.43415025E-01
  1.54012200E-01  2.08808775E-01  2.28969877E-01  2.81002131E-01  3.02661079E-01
  3.51890638E-01  3.74235323E-01  4.43150872E-01  4.54330875E-01  4.65346107E-01
  4.89044279E-01  5.25398194E-01  5.39050736E-01  5.60216459E-01  5.85300194E-01
  6.45319449E-01  6.57366881E-01  6.88652821E-01  6.88761436E-01  7.43633051E-01
  7.92848221E-01  8.01783251E-01  8.24131127E-01  8.40693561E-01  8.53910841E-01
  8.67254845E-01  8.69787035E-01  9.04616963E-01  9.20649932E-01  9.23483046E-01
  9.47137407E-01  9.99057075E-01  1.04785261E+00  1.06286082E+00  1.07448155E+00
  1.09933147E+00  1.12284785E+00  1.15199210E+00  1.17660217E+00  1.18752279E+00
  1.27202316E+00  1.31524219E+00  1.43769195E+00  1.43971846E+00  1.50160129E+00
  1.57588374E+00  1.59288049E+00  1.64301471E+00  1.79325110E+00  1.80872250E+00
  1.81285807E+00  1.81324274E+00  1.83951019E+00  1.87799126E+00  1.88642407E+00
  1.92583128E+00  1.95329909E+00  1.96751093E+00  1.97390616E+00  2.04405140E+00
  2.06998062E+00  2.11574817E+00  2.19811121E+00  2.24219023E+00  2.27659028E+00