 Entering Gaussian System, Link 0=/apps/cent7/gaussian/g16-A.03/g16-haswell/g16/g16
 Initial command:
 /apps/cent7/gaussian/g16-A.03/g16-haswell/g16/l1.exe "/scratch/brown/finej/gaussian/Gau-351976.inp" -scrdir="/scratch/brown/finej/gaussian/"
 Entering Link 1 = /apps/cent7/gaussian/g16-A.03/g16-haswell/g16/l1.exe PID=    351977.
  
 Copyright (c) 1988,1990,1992,1993,1995,1998,2003,2009,2016,
            Gaussian, Inc.  All Rights Reserved.
  
 This is part of the Gaussian(R) 16 program.  It is based on
 the Gaussian(R) 09 system (copyright 2009, Gaussian, Inc.),
 the Gaussian(R) 03 system (copyright 2003, Gaussian, Inc.),
 the Gaussian(R) 98 system (copyright 1998, Gaussian, Inc.),
 the Gaussian(R) 94 system (copyright 1995, Gaussian, Inc.),
 the Gaussian 92(TM) system (copyright 1992, Gaussian, Inc.),
 the Gaussian 90(TM) system (copyright 1990, Gaussian, Inc.),
 the Gaussian 88(TM) system (copyright 1988, Gaussian, Inc.),
 the Gaussian 86(TM) system (copyright 1986, Carnegie Mellon
 University), and the Gaussian 82(TM) system (copyright 1983,
 Carnegie Mellon University). Gaussian is a federally registered
 trademark of Gaussian, Inc.
  
 This software contains proprietary and confidential information,
 including trade secrets, belonging to Gaussian, Inc.
  
 This software is provided under written license and may be
 used, copied, transmitted, or stored only in accord with that
 written license.
  
 The following legend is applicable only to US Government
 contracts under FAR:
  
                    RESTRICTED RIGHTS LEGEND
  
 Use, reproduction and disclosure by the US Government is
 subject to restrictions as set forth in subparagraphs (a)
 and (c) of the Commercial Computer Software - Restricted
 Rights clause in FAR 52.227-19.
  
 Gaussian, Inc.
 340 Quinnipiac St., Bldg. 40, Wallingford CT 06492
  
  
 ---------------------------------------------------------------
 Warning -- This program may not be used in any manner that
 competes with the business of Gaussian, Inc. or will provide
 assistance to any competitor of Gaussian, Inc.  The licensee
 of this program is prohibited from giving any competitor of
 Gaussian, Inc. access to this program.  By using this program,
 the user acknowledges that Gaussian, Inc. is engaged in the
 business of creating and licensing software in the field of
 computational chemistry and represents and warrants to the
 licensee that it is not a competitor of Gaussian, Inc. and that
 it will not use this program in any manner prohibited above.
 ---------------------------------------------------------------
  

 Cite this work as:
 Gaussian 16, Revision A.03,
 M. J. Frisch, G. W. Trucks, H. B. Schlegel, G. E. Scuseria, 
 M. A. Robb, J. R. Cheeseman, G. Scalmani, V. Barone, 
 G. A. Petersson, H. Nakatsuji, X. Li, M. Caricato, A. V. Marenich, 
 J. Bloino, B. G. Janesko, R. Gomperts, B. Mennucci, H. P. Hratchian, 
 J. V. Ortiz, A. F. Izmaylov, J. L. Sonnenberg, D. Williams-Young, 
 F. Ding, F. Lipparini, F. Egidi, J. Goings, B. Peng, A. Petrone, 
 T. Henderson, D. Ranasinghe, V. G. Zakrzewski, J. Gao, N. Rega, 
 G. Zheng, W. Liang, M. Hada, M. Ehara, K. Toyota, R. Fukuda, 
 J. Hasegawa, M. Ishida, T. Nakajima, Y. Honda, O. Kitao, H. Nakai, 
 T. Vreven, K. Throssell, J. A. Montgomery, Jr., J. E. Peralta, 
 F. Ogliaro, M. J. Bearpark, J. J. Heyd, E. N. Brothers, K. N. Kudin, 
 V. N. Staroverov, T. A. Keith, R. Kobayashi, J. Normand, 
 K. Raghavachari, A. P. Rendell, J. C. Burant, S. S. Iyengar, 
 J. Tomasi, M. Cossi, J. M. Millam, M. Klene, C. Adamo, R. Cammi, 
 J. W. Ochterski, R. L. Martin, K. Morokuma, O. Farkas, 
 J. B. Foresman, and D. J. Fox, Gaussian, Inc., Wallingford CT, 2016.
 
 ******************************************
 Gaussian 16:  ES64L-G16RevA.03 25-Dec-2016
                14-Oct-2019 
 ******************************************
 %chk=28.chk
 %nprocshared=24
 Will use up to   24 processors via shared memory.
 %mem=80GB
 --------------------------------------------------------------
 #P opt freq b3lyp/6-31g(d) geom=connectivity temperature=0.001
 --------------------------------------------------------------
 1/18=20,19=15,26=3,38=1,57=2,112=-1000/1,3;
 2/9=110,12=2,17=6,18=5,40=1/2;
 3/5=1,6=6,7=1,11=2,25=1,30=1,71=1,74=-5/1,2,3;
 4//1;
 5/5=2,38=5/2;
 6/7=2,8=2,9=2,10=2,28=1/1;
 7//1,2,3,16;
 1/18=20,19=15,26=3/3(2);
 2/9=110/2;
 99//99;
 2/9=110/2;
 3/5=1,6=6,7=1,11=2,25=1,30=1,71=1,74=-5/1,2,3;
 4/5=5,16=3,69=1/1;
 5/5=2,38=5/2;
 7//1,2,3,16;
 1/18=20,19=15,26=3/3(-5);
 2/9=110/2;
 6/7=2,8=2,9=2,10=2,19=2,28=1/1;
 99/9=1/99;
 Leave Link    1 at Mon Oct 14 01:38:04 2019, MaxMem= 10737418240 cpu:               1.6 elap:               0.1
 (Enter /apps/cent7/gaussian/g16-A.03/g16-haswell/g16/l101.exe)
 -------------------
 Title Card Required
 -------------------
 Symbolic Z-matrix:
 Charge =  0 Multiplicity = 1
 C                     4.1742    0.5731    1.4406 
 C                     3.0409    1.2787    1.3893 
 S                     2.5625    2.1726   -0.0341 
 O                     2.9124    1.3333   -1.3604 
 C                     3.3809    3.7157   -0.0811 
 C                     3.2391    4.6176    0.8945 
 O                     0.9724    2.4106   -0.0107 
 H                     4.1376   -0.5161    1.4616 
 H                     5.1354    1.0866    1.4616 
 H                     2.5748    1.1447    2.3654 
 H                     4.0595    4.1689   -0.8037 
 H                     4.1154    4.9854    1.4282 
 H                     2.2471    4.9854    1.1566 
 
 ITRead=  0  0  0  0  0  0  0  0  0  0  0  0  0
 MicOpt= -1 -1 -1 -1 -1 -1 -1 -1 -1 -1 -1 -1 -1
 NAtoms=     13 NQM=       13 NQMF=       0 NMMI=      0 NMMIF=      0
                NMic=       0 NMicF=      0.
                    Isotopes and Nuclear Properties:
 (Nuclear quadrupole moments (NQMom) in fm**2, nuclear magnetic moments (NMagM)
  in nuclear magnetons)

  Atom         1           2           3           4           5           6           7           8           9          10
 IAtWgt=          12          12          32          16          12          12          16           1           1           1
 AtmWgt=  12.0000000  12.0000000  31.9720718  15.9949146  12.0000000  12.0000000  15.9949146   1.0078250   1.0078250   1.0078250
 NucSpn=           0           0           0           0           0           0           0           1           1           1
 AtZEff=  -0.0000000  -0.0000000  -0.0000000  -0.0000000  -0.0000000  -0.0000000  -0.0000000  -0.0000000  -0.0000000  -0.0000000
 NQMom=    0.0000000   0.0000000   0.0000000   0.0000000   0.0000000   0.0000000   0.0000000   0.0000000   0.0000000   0.0000000
 NMagM=    0.0000000   0.0000000   0.0000000   0.0000000   0.0000000   0.0000000   0.0000000   2.7928460   2.7928460   2.7928460
 AtZNuc=   6.0000000   6.0000000  16.0000000   8.0000000   6.0000000   6.0000000   8.0000000   1.0000000   1.0000000   1.0000000

  Atom        11          12          13
 IAtWgt=           1           1           1
 AtmWgt=   1.0078250   1.0078250   1.0078250
 NucSpn=           1           1           1
 AtZEff=  -0.0000000  -0.0000000  -0.0000000
 NQMom=    0.0000000   0.0000000   0.0000000
 NMagM=    2.7928460   2.7928460   2.7928460
 AtZNuc=   1.0000000   1.0000000   1.0000000
 Leave Link  101 at Mon Oct 14 01:38:04 2019, MaxMem= 10737418240 cpu:               8.3 elap:               0.4
 (Enter /apps/cent7/gaussian/g16-A.03/g16-haswell/g16/l103.exe)

 GradGradGradGradGradGradGradGradGradGradGradGradGradGradGradGradGradGrad
 Berny optimization.
 Initialization pass.
                           ----------------------------
                           !    Initial Parameters    !
                           ! (Angstroms and Degrees)  !
 --------------------------                            --------------------------
 ! Name  Definition              Value          Derivative Info.                !
 --------------------------------------------------------------------------------
 ! R1    R(1,2)                  1.336          estimate D2E/DX2                !
 ! R2    R(1,8)                  1.09           estimate D2E/DX2                !
 ! R3    R(1,9)                  1.09           estimate D2E/DX2                !
 ! R4    R(2,3)                  1.7476         estimate D2E/DX2                !
 ! R5    R(2,10)                 1.0899         estimate D2E/DX2                !
 ! R6    R(3,4)                  1.6081         estimate D2E/DX2                !
 ! R7    R(3,5)                  1.7473         estimate D2E/DX2                !
 ! R8    R(3,7)                  1.608          estimate D2E/DX2                !
 ! R9    R(5,6)                  1.3362         estimate D2E/DX2                !
 ! R10   R(5,11)                 1.09           estimate D2E/DX2                !
 ! R11   R(6,12)                 1.09           estimate D2E/DX2                !
 ! R12   R(6,13)                 1.09           estimate D2E/DX2                !
 ! A1    A(2,1,8)              120.0005         estimate D2E/DX2                !
 ! A2    A(2,1,9)              119.9994         estimate D2E/DX2                !
 ! A3    A(8,1,9)              120.0001         estimate D2E/DX2                !
 ! A4    A(1,2,3)              122.2523         estimate D2E/DX2                !
 ! A5    A(1,2,10)             105.2742         estimate D2E/DX2                !
 ! A6    A(3,2,10)             132.4735         estimate D2E/DX2                !
 ! A7    A(2,3,4)              110.1966         estimate D2E/DX2                !
 ! A8    A(2,3,5)              110.2073         estimate D2E/DX2                !
 ! A9    A(2,3,7)              109.546          estimate D2E/DX2                !
 ! A10   A(4,3,5)              109.6837         estimate D2E/DX2                !
 ! A11   A(4,3,7)              107.7234         estimate D2E/DX2                !
 ! A12   A(5,3,7)              109.4414         estimate D2E/DX2                !
 ! A13   A(3,5,6)              121.7865         estimate D2E/DX2                !
 ! A14   A(3,5,11)             132.5807         estimate D2E/DX2                !
 ! A15   A(6,5,11)             105.6328         estimate D2E/DX2                !
 ! A16   A(5,6,12)             119.998          estimate D2E/DX2                !
 ! A17   A(5,6,13)             119.9955         estimate D2E/DX2                !
 ! A18   A(12,6,13)            120.0065         estimate D2E/DX2                !
 ! D1    D(8,1,2,3)           -110.0253         estimate D2E/DX2                !
 ! D2    D(8,1,2,10)            69.9672         estimate D2E/DX2                !
 ! D3    D(9,1,2,3)             69.9836         estimate D2E/DX2                !
 ! D4    D(9,1,2,10)          -110.024          estimate D2E/DX2                !
 ! D5    D(1,2,3,4)             39.4596         estimate D2E/DX2                !
 ! D6    D(1,2,3,5)            -81.7274         estimate D2E/DX2                !
 ! D7    D(1,2,3,7)            157.806          estimate D2E/DX2                !
 ! D8    D(10,2,3,4)          -140.5305         estimate D2E/DX2                !
 ! D9    D(10,2,3,5)            98.2825         estimate D2E/DX2                !
 ! D10   D(10,2,3,7)           -22.1841         estimate D2E/DX2                !
 ! D11   D(2,3,5,6)            -59.7098         estimate D2E/DX2                !
 ! D12   D(2,3,5,11)           120.2881         estimate D2E/DX2                !
 ! D13   D(4,3,5,6)            178.7976         estimate D2E/DX2                !
 ! D14   D(4,3,5,11)            -1.2045         estimate D2E/DX2                !
 ! D15   D(7,3,5,6)             60.8197         estimate D2E/DX2                !
 ! D16   D(7,3,5,11)          -119.1824         estimate D2E/DX2                !
 ! D17   D(3,5,6,12)           122.7307         estimate D2E/DX2                !
 ! D18   D(3,5,6,13)           -57.2654         estimate D2E/DX2                !
 ! D19   D(11,5,6,12)          -57.2676         estimate D2E/DX2                !
 ! D20   D(11,5,6,13)          122.7363         estimate D2E/DX2                !
 --------------------------------------------------------------------------------
 Trust Radius=3.00D-01 FncErr=1.00D-07 GrdErr=1.00D-06 EigMax=2.50D+02 EigMin=1.00D-04
 Number of steps in this run=     60 maximum allowed number of steps=    100.
 GradGradGradGradGradGradGradGradGradGradGradGradGradGradGradGradGradGrad

 Leave Link  103 at Mon Oct 14 01:38:05 2019, MaxMem= 10737418240 cpu:               0.8 elap:               0.1
 (Enter /apps/cent7/gaussian/g16-A.03/g16-haswell/g16/l202.exe)
                          Input orientation:                          
 ---------------------------------------------------------------------
 Center     Atomic      Atomic             Coordinates (Angstroms)
 Number     Number       Type             X           Y           Z
 ---------------------------------------------------------------------
      1          6           0        4.174200    0.573100    1.440600
      2          6           0        3.040900    1.278700    1.389300
      3         16           0        2.562500    2.172600   -0.034100
      4          8           0        2.912400    1.333300   -1.360400
      5          6           0        3.380900    3.715700   -0.081100
      6          6           0        3.239100    4.617600    0.894500
      7          8           0        0.972400    2.410600   -0.010700
      8          1           0        4.137600   -0.516100    1.461600
      9          1           0        5.135400    1.086600    1.461600
     10          1           0        2.574800    1.144700    2.365400
     11          1           0        4.059500    4.168900   -0.803700
     12          1           0        4.115400    4.985400    1.428200
     13          1           0        2.247100    4.985400    1.156600
 ---------------------------------------------------------------------
                    Distance matrix (angstroms):
                    1          2          3          4          5
     1  C    0.000000
     2  C    1.335991   0.000000
     3  S    2.707530   1.747567   0.000000
     4  O    3.164750   2.753242   1.608082   0.000000
     5  C    3.580619   2.866469   1.747325   2.744436   0.000000
     6  C    4.186958   3.381178   2.701502   3.997241   1.336161
     7  O    3.966636   2.742242   1.607983   2.597280   2.740276
     8  H    1.090017   2.104587   3.456467   3.589579   4.567346
     9  H    1.089967   2.104533   3.168017   3.600871   3.517152
    10  H    1.933924   1.089943   2.610427   3.745815   3.639396
    11  H    4.240261   3.768296   2.611227   3.109080   1.089972
    12  H    4.412709   3.859493   3.530108   4.749877   2.104665
    13  H    4.823149   3.797880   3.070682   4.485058   2.104648
                    6          7          8          9         10
     6  C    0.000000
     7  O    3.290618   0.000000
     8  H    5.242498   4.555407   0.000000
     9  H    4.047903   4.609904   1.887923   0.000000
    10  H    3.829605   3.133056   2.453050   2.716045   0.000000
    11  H    1.938626   3.640145   5.204508   3.973628   4.625291
    12  H    1.089961   4.310276   5.501646   4.030156   4.242967
    13  H    1.089971   3.101136   5.825248   4.861681   4.039748
                   11         12         13
    11  H    0.000000
    12  H    2.377220   0.000000
    13  H    2.791817   1.887938   0.000000
 Stoichiometry    C4H6O2S
 Framework group  C1[X(C4H6O2S)]
 Deg. of freedom    33
 Full point group                 C1      NOp   1
 Largest Abelian subgroup         C1      NOp   1
 Largest concise Abelian subgroup C1      NOp   1
                         Standard orientation:                         
 ---------------------------------------------------------------------
 Center     Atomic      Atomic             Coordinates (Angstroms)
 Number     Number       Type             X           Y           Z
 ---------------------------------------------------------------------
      1          6           0        2.091361    1.275286   -0.036340
      2          6           0        1.169652    0.646528    0.698498
      3         16           0        0.003303   -0.448018   -0.005484
      4          8           0        0.698330   -1.339359   -1.149326
      5          6           0       -1.331196    0.449650   -0.688456
      6          6           0       -2.094471    1.252985    0.058130
      7          8           0       -0.547949   -1.447814    1.126832
      8          1           0        3.141856    0.998749    0.053798
      9          1           0        1.792898    2.064887   -0.725890
     10          1           0        1.343688    0.977732    1.722212
     11          1           0       -1.734927    0.516399   -1.698696
     12          1           0       -2.195980    2.306173   -0.203601
     13          1           0       -2.615495    0.855035    0.928882
 ---------------------------------------------------------------------
 Rotational constants (GHZ):           2.7037363           2.0578462           1.6207436
 Leave Link  202 at Mon Oct 14 01:38:05 2019, MaxMem= 10737418240 cpu:               0.4 elap:               0.0
 (Enter /apps/cent7/gaussian/g16-A.03/g16-haswell/g16/l301.exe)
 Standard basis: 6-31G(d) (6D, 7F)
 Ernie: Thresh=  0.10000D-02 Tol=  0.10000D-05 Strict=F.
 There are   121 symmetry adapted cartesian basis functions of A   symmetry.
 There are   121 symmetry adapted basis functions of A   symmetry.
   121 basis functions,   244 primitive gaussians,   121 cartesian basis functions
    31 alpha electrons       31 beta electrons
       nuclear repulsion energy       377.8589237989 Hartrees.
 IExCor=  402 DFT=T Ex+Corr=B3LYP ExCW=0 ScaHFX=  0.200000
 ScaDFX=  0.800000  0.720000  1.000000  0.810000 ScalE2=  1.000000  1.000000
 IRadAn=      5 IRanWt=     -1 IRanGd=            0 ICorTp=0 IEmpDi=  4
 NAtoms=   13 NActive=   13 NUniq=   13 SFac= 1.00D+00 NAtFMM=   60 NAOKFM=F Big=F
 Integral buffers will be    131072 words long.
 Raffenetti 2 integral format.
 Two-electron integral symmetry is turned on.
 Leave Link  301 at Mon Oct 14 01:38:05 2019, MaxMem= 10737418240 cpu:               1.7 elap:               0.1
 (Enter /apps/cent7/gaussian/g16-A.03/g16-haswell/g16/l302.exe)
 NPDir=0 NMtPBC=     1 NCelOv=     1 NCel=       1 NClECP=     1 NCelD=      1
         NCelK=      1 NCelE2=     1 NClLst=     1 CellRange=     0.0.
 One-electron integrals computed using PRISM.
 One-electron integral symmetry used in STVInt
 NBasis=   121 RedAO= T EigKep=  3.92D-03  NBF=   121
 NBsUse=   121 1.00D-06 EigRej= -1.00D+00 NBFU=   121
 Precomputing XC quadrature grid using
 IXCGrd= 4 IRadAn=           5 IRanWt=          -1 IRanGd=           0 AccXCQ= 0.00D+00.
 Generated NRdTot=       0 NPtTot=           0 NUsed=           0 NTot=          32
 NSgBfM=   121   121   121   121   121 MxSgAt=    13 MxSgA2=    13.
 Leave Link  302 at Mon Oct 14 01:38:05 2019, MaxMem= 10737418240 cpu:               3.2 elap:               0.2
 (Enter /apps/cent7/gaussian/g16-A.03/g16-haswell/g16/l303.exe)
 DipDrv:  MaxL=1.
 Leave Link  303 at Mon Oct 14 01:38:05 2019, MaxMem= 10737418240 cpu:               1.3 elap:               0.1
 (Enter /apps/cent7/gaussian/g16-A.03/g16-haswell/g16/l401.exe)
 ExpMin= 1.17D-01 ExpMax= 2.19D+04 ExpMxC= 3.30D+03 IAcc=3 IRadAn=         5 AccDes= 0.00D+00
 Harris functional with IExCor=  402 and IRadAn=       5 diagonalized for initial guess.
 HarFok:  IExCor=  402 AccDes= 0.00D+00 IRadAn=         5 IDoV= 1 UseB2=F ITyADJ=14
 ICtDFT=  3500011 ScaDFX=  1.000000  1.000000  1.000000  1.000000
 FoFCou: FMM=F IPFlag=           0 FMFlag=      100000 FMFlg1=           0
         NFxFlg=           0 DoJE=T BraDBF=F KetDBF=T FulRan=T
         wScrn=  0.000000 ICntrl=       500 IOpCl=  0 I1Cent=   200000004 NGrid=           0
         NMat0=    1 NMatS0=      1 NMatT0=    0 NMatD0=    1 NMtDS0=    0 NMtDT0=    0
 Petite list used in FoFCou.
 Harris En= -704.433442066426    
 JPrj=0 DoOrth=F DoCkMO=F.
 Leave Link  401 at Mon Oct 14 01:38:05 2019, MaxMem= 10737418240 cpu:               5.3 elap:               0.2
 (Enter /apps/cent7/gaussian/g16-A.03/g16-haswell/g16/l502.exe)
 Integral symmetry usage will be decided dynamically.
 Closed shell SCF:
 Using DIIS extrapolation, IDIIS=  1040.
 NGot= 10737418240 LenX= 10737384591 LenY= 10737369509
 Requested convergence on RMS density matrix=1.00D-08 within 128 cycles.
 Requested convergence on MAX density matrix=1.00D-06.
 Requested convergence on             energy=1.00D-06.
 No special actions if energy rises.
 Fock matrices will be formed incrementally for  20 cycles.
 Integral accuracy reduced to 1.0D-05 until final iterations.

 Cycle   1  Pass 0  IDiag  1:
 FoFJK:  IHMeth= 1 ICntrl=       0 DoSepK=F KAlg= 0 I1Cent=           0 FoldK=F
 IRaf= 970000000 NMat=       1 IRICut=       1 DoRegI=T DoRafI=F ISym2E= 0 IDoP0=0 IntGTp=1.
 FoFCou: FMM=F IPFlag=           0 FMFlag=      100000 FMFlg1=           0
         NFxFlg=           0 DoJE=F BraDBF=F KetDBF=F FulRan=T
         wScrn=  0.000000 ICntrl=         0 IOpCl=  0 I1Cent=           0 NGrid=           0
         NMat0=    1 NMatS0=      1 NMatT0=    0 NMatD0=    1 NMtDS0=    0 NMtDT0=    0
 Symmetry not used in FoFCou.
 E= -703.920890157784    
 DIIS: error= 3.98D-02 at cycle   1 NSaved=   1.
 NSaved= 1 IEnMin= 1 EnMin= -703.920890157784     IErMin= 1 ErrMin= 3.98D-02
 ErrMax= 3.98D-02  0.00D+00 EMaxC= 1.00D-01 BMatC= 4.67D-01 BMatP= 4.67D-01
 IDIUse=3 WtCom= 6.02D-01 WtEn= 3.98D-01
 Coeff-Com:  0.100D+01
 Coeff-En:   0.100D+01
 Coeff:      0.100D+01
 Gap=     0.130 Goal=   None    Shift=    0.000
 GapD=    0.130 DampG=1.000 DampE=0.500 DampFc=0.5000 IDamp=-1.
 Damping current iteration by 5.00D-01
 RMSDP=2.20D-02 MaxDP=6.76D-01              OVMax= 4.70D-01

 Cycle   2  Pass 0  IDiag  1:
 RMSU=  1.10D-02    CP:  1.01D+00
 E= -703.733905864298     Delta-E=        0.186984293486 Rises=F Damp=T
 DIIS: error= 3.19D-02 at cycle   2 NSaved=   2.
 NSaved= 2 IEnMin= 1 EnMin= -703.920890157784     IErMin= 2 ErrMin= 3.19D-02
 ErrMax= 3.19D-02  0.00D+00 EMaxC= 1.00D-01 BMatC= 2.71D-01 BMatP= 4.67D-01
 IDIUse=3 WtCom= 6.81D-01 WtEn= 3.19D-01
 Coeff-Com:  0.420D+00 0.580D+00
 Coeff-En:   0.617D+00 0.383D+00
 Coeff:      0.483D+00 0.517D+00
 Gap=     0.134 Goal=   None    Shift=    0.000
 RMSDP=8.06D-03 MaxDP=1.76D-01 DE= 1.87D-01 OVMax= 4.89D-01

 Cycle   3  Pass 0  IDiag  1:
 RMSU=  4.61D-03    CP:  1.00D+00  4.00D-01
 E= -704.241990021701     Delta-E=       -0.508084157403 Rises=F Damp=F
 DIIS: error= 1.55D-02 at cycle   3 NSaved=   3.
 NSaved= 3 IEnMin= 3 EnMin= -704.241990021701     IErMin= 3 ErrMin= 1.55D-02
 ErrMax= 1.55D-02  0.00D+00 EMaxC= 1.00D-01 BMatC= 7.75D-02 BMatP= 2.71D-01
 IDIUse=3 WtCom= 8.45D-01 WtEn= 1.55D-01
 Coeff-Com:  0.222D+00 0.323D+00 0.455D+00
 Coeff-En:   0.102D-01 0.000D+00 0.990D+00
 Coeff:      0.189D+00 0.273D+00 0.538D+00
 Gap=     0.124 Goal=   None    Shift=    0.000
 RMSDP=3.79D-03 MaxDP=6.86D-02 DE=-5.08D-01 OVMax= 1.02D-01

 Cycle   4  Pass 0  IDiag  1:
 RMSU=  2.19D-03    CP:  1.01D+00  4.94D-01  3.71D-01
 E= -704.318285236972     Delta-E=       -0.076295215270 Rises=F Damp=F
 DIIS: error= 6.24D-03 at cycle   4 NSaved=   4.
 NSaved= 4 IEnMin= 4 EnMin= -704.318285236972     IErMin= 4 ErrMin= 6.24D-03
 ErrMax= 6.24D-03  0.00D+00 EMaxC= 1.00D-01 BMatC= 1.04D-02 BMatP= 7.75D-02
 IDIUse=3 WtCom= 9.38D-01 WtEn= 6.24D-02
 Coeff-Com:  0.474D-01 0.593D-01 0.278D+00 0.615D+00
 Coeff-En:   0.000D+00 0.000D+00 0.877D-01 0.912D+00
 Coeff:      0.445D-01 0.556D-01 0.267D+00 0.633D+00
 Gap=     0.132 Goal=   None    Shift=    0.000
 RMSDP=1.34D-03 MaxDP=2.64D-02 DE=-7.63D-02 OVMax= 5.48D-02

 Cycle   5  Pass 0  IDiag  1:
 RMSU=  7.32D-04    CP:  1.01D+00  4.61D-01  5.31D-01  6.49D-01
 E= -704.326307281971     Delta-E=       -0.008022044999 Rises=F Damp=F
 DIIS: error= 3.58D-03 at cycle   5 NSaved=   5.
 NSaved= 5 IEnMin= 5 EnMin= -704.326307281971     IErMin= 5 ErrMin= 3.58D-03
 ErrMax= 3.58D-03  0.00D+00 EMaxC= 1.00D-01 BMatC= 2.75D-03 BMatP= 1.04D-02
 IDIUse=3 WtCom= 9.64D-01 WtEn= 3.58D-02
 Coeff-Com:  0.497D-02 0.691D-03 0.135D+00 0.446D+00 0.413D+00
 Coeff-En:   0.000D+00 0.000D+00 0.000D+00 0.201D+00 0.799D+00
 Coeff:      0.479D-02 0.666D-03 0.130D+00 0.438D+00 0.427D+00
 Gap=     0.115 Goal=   None    Shift=    0.000
 RMSDP=5.80D-04 MaxDP=9.76D-03 DE=-8.02D-03 OVMax= 3.18D-02

 Cycle   6  Pass 0  IDiag  1:
 RMSU=  2.61D-04    CP:  1.01D+00  4.68D-01  5.20D-01  7.58D-01  3.87D-01
 E= -704.328927125446     Delta-E=       -0.002619843475 Rises=F Damp=F
 DIIS: error= 8.46D-04 at cycle   6 NSaved=   6.
 NSaved= 6 IEnMin= 6 EnMin= -704.328927125446     IErMin= 6 ErrMin= 8.46D-04
 ErrMax= 8.46D-04  0.00D+00 EMaxC= 1.00D-01 BMatC= 3.07D-04 BMatP= 2.75D-03
 IDIUse=3 WtCom= 9.92D-01 WtEn= 8.46D-03
 Coeff-Com: -0.415D-03-0.444D-02 0.519D-01 0.197D+00 0.288D+00 0.469D+00
 Coeff-En:   0.000D+00 0.000D+00 0.000D+00 0.000D+00 0.923D-01 0.908D+00
 Coeff:     -0.412D-03-0.441D-02 0.514D-01 0.195D+00 0.286D+00 0.472D+00
 Gap=     0.115 Goal=   None    Shift=    0.000
 RMSDP=1.88D-04 MaxDP=3.61D-03 DE=-2.62D-03 OVMax= 7.08D-03

 Cycle   7  Pass 0  IDiag  1:
 RMSU=  1.14D-04    CP:  1.01D+00  4.67D-01  5.18D-01  7.58D-01  4.91D-01
                    CP:  5.14D-01
 E= -704.329165398954     Delta-E=       -0.000238273508 Rises=F Damp=F
 DIIS: error= 4.59D-04 at cycle   7 NSaved=   7.
 NSaved= 7 IEnMin= 7 EnMin= -704.329165398954     IErMin= 7 ErrMin= 4.59D-04
 ErrMax= 4.59D-04  0.00D+00 EMaxC= 1.00D-01 BMatC= 5.68D-05 BMatP= 3.07D-04
 IDIUse=3 WtCom= 9.95D-01 WtEn= 4.59D-03
 Coeff-Com: -0.356D-03-0.292D-02 0.192D-01 0.767D-01 0.152D+00 0.344D+00
 Coeff-Com:  0.411D+00
 Coeff-En:   0.000D+00 0.000D+00 0.000D+00 0.000D+00 0.000D+00 0.116D+00
 Coeff-En:   0.884D+00
 Coeff:     -0.354D-03-0.291D-02 0.191D-01 0.764D-01 0.151D+00 0.343D+00
 Coeff:      0.413D+00
 Gap=     0.115 Goal=   None    Shift=    0.000
 RMSDP=8.22D-05 MaxDP=1.39D-03 DE=-2.38D-04 OVMax= 3.00D-03

 Cycle   8  Pass 0  IDiag  1:
 RMSU=  5.11D-05    CP:  1.01D+00  4.66D-01  5.20D-01  7.55D-01  4.94D-01
                    CP:  6.32D-01  5.32D-01
 E= -704.329211923402     Delta-E=       -0.000046524448 Rises=F Damp=F
 DIIS: error= 1.46D-04 at cycle   8 NSaved=   8.
 NSaved= 8 IEnMin= 8 EnMin= -704.329211923402     IErMin= 8 ErrMin= 1.46D-04
 ErrMax= 1.46D-04  0.00D+00 EMaxC= 1.00D-01 BMatC= 6.96D-06 BMatP= 5.68D-05
 IDIUse=3 WtCom= 9.99D-01 WtEn= 1.46D-03
 Coeff-Com: -0.109D-03-0.994D-03-0.831D-03-0.615D-03 0.280D-01 0.110D+00
 Coeff-Com:  0.289D+00 0.575D+00
 Coeff-En:   0.000D+00 0.000D+00 0.000D+00 0.000D+00 0.000D+00 0.000D+00
 Coeff-En:   0.128D+00 0.872D+00
 Coeff:     -0.109D-03-0.993D-03-0.830D-03-0.614D-03 0.279D-01 0.110D+00
 Coeff:      0.289D+00 0.575D+00
 Gap=     0.116 Goal=   None    Shift=    0.000
 RMSDP=2.50D-05 MaxDP=4.44D-04 DE=-4.65D-05 OVMax= 1.09D-03

 Cycle   9  Pass 0  IDiag  1:
 RMSU=  1.19D-05    CP:  1.01D+00  4.65D-01  5.20D-01  7.52D-01  5.02D-01
                    CP:  6.42D-01  6.46D-01  7.22D-01
 E= -704.329218513187     Delta-E=       -0.000006589785 Rises=F Damp=F
 DIIS: error= 2.54D-05 at cycle   9 NSaved=   9.
 NSaved= 9 IEnMin= 9 EnMin= -704.329218513187     IErMin= 9 ErrMin= 2.54D-05
 ErrMax= 2.54D-05  0.00D+00 EMaxC= 1.00D-01 BMatC= 1.84D-07 BMatP= 6.96D-06
 IDIUse=1 WtCom= 1.00D+00 WtEn= 0.00D+00
 Coeff-Com: -0.120D-03-0.136D-03-0.141D-02-0.341D-02 0.231D-02 0.258D-01
 Coeff-Com:  0.946D-01 0.219D+00 0.664D+00
 Coeff:     -0.120D-03-0.136D-03-0.141D-02-0.341D-02 0.231D-02 0.258D-01
 Coeff:      0.946D-01 0.219D+00 0.664D+00
 Gap=     0.116 Goal=   None    Shift=    0.000
 RMSDP=6.05D-06 MaxDP=1.33D-04 DE=-6.59D-06 OVMax= 2.48D-04

 Initial convergence to 1.0D-05 achieved.  Increase integral accuracy.
 Cycle  10  Pass 1  IDiag  1:
 E= -704.329222538534     Delta-E=       -0.000004025347 Rises=F Damp=F
 DIIS: error= 2.43D-05 at cycle   1 NSaved=   1.
 NSaved= 1 IEnMin= 1 EnMin= -704.329222538534     IErMin= 1 ErrMin= 2.43D-05
 ErrMax= 2.43D-05  0.00D+00 EMaxC= 1.00D-01 BMatC= 1.05D-07 BMatP= 1.05D-07
 IDIUse=1 WtCom= 1.00D+00 WtEn= 0.00D+00
 Coeff-Com:  0.100D+01
 Coeff:      0.100D+01
 Gap=     0.116 Goal=   None    Shift=    0.000
 RMSDP=6.05D-06 MaxDP=1.33D-04 DE=-4.03D-06 OVMax= 4.41D-04

 Cycle  11  Pass 1  IDiag  1:
 RMSU=  9.41D-06    CP:  1.00D+00
 E= -704.329222117323     Delta-E=        0.000000421211 Rises=F Damp=F
 DIIS: error= 5.64D-05 at cycle   2 NSaved=   2.
 NSaved= 2 IEnMin= 1 EnMin= -704.329222538534     IErMin= 1 ErrMin= 2.43D-05
 ErrMax= 5.64D-05  0.00D+00 EMaxC= 1.00D-01 BMatC= 5.21D-07 BMatP= 1.05D-07
 IDIUse=1 WtCom= 1.00D+00 WtEn= 0.00D+00
 Coeff-Com:  0.694D+00 0.306D+00
 Coeff:      0.694D+00 0.306D+00
 Gap=     0.116 Goal=   None    Shift=    0.000
 RMSDP=6.55D-06 MaxDP=1.56D-04 DE= 4.21D-07 OVMax= 3.52D-04

 Cycle  12  Pass 1  IDiag  1:
 RMSU=  2.28D-06    CP:  1.00D+00  3.50D-01
 E= -704.329222651276     Delta-E=       -0.000000533953 Rises=F Damp=F
 DIIS: error= 5.10D-06 at cycle   3 NSaved=   3.
 NSaved= 3 IEnMin= 3 EnMin= -704.329222651276     IErMin= 3 ErrMin= 5.10D-06
 ErrMax= 5.10D-06  0.00D+00 EMaxC= 1.00D-01 BMatC= 3.25D-09 BMatP= 1.05D-07
 IDIUse=1 WtCom= 1.00D+00 WtEn= 0.00D+00
 Coeff-Com:  0.292D+00 0.147D+00 0.561D+00
 Coeff:      0.292D+00 0.147D+00 0.561D+00
 Gap=     0.116 Goal=   None    Shift=    0.000
 RMSDP=8.12D-07 MaxDP=1.78D-05 DE=-5.34D-07 OVMax= 5.40D-05

 Cycle  13  Pass 1  IDiag  1:
 RMSU=  7.80D-07    CP:  1.00D+00  3.62D-01  9.14D-01
 E= -704.329222654626     Delta-E=       -0.000000003349 Rises=F Damp=F
 DIIS: error= 1.90D-06 at cycle   4 NSaved=   4.
 NSaved= 4 IEnMin= 4 EnMin= -704.329222654626     IErMin= 4 ErrMin= 1.90D-06
 ErrMax= 1.90D-06  0.00D+00 EMaxC= 1.00D-01 BMatC= 6.57D-10 BMatP= 3.25D-09
 IDIUse=1 WtCom= 1.00D+00 WtEn= 0.00D+00
 Coeff-Com: -0.993D-02 0.871D-02 0.320D+00 0.682D+00
 Coeff:     -0.993D-02 0.871D-02 0.320D+00 0.682D+00
 Gap=     0.116 Goal=   None    Shift=    0.000
 RMSDP=3.78D-07 MaxDP=6.72D-06 DE=-3.35D-09 OVMax= 2.07D-05

 Cycle  14  Pass 1  IDiag  1:
 RMSU=  2.26D-07    CP:  1.00D+00  3.68D-01  1.01D+00  7.55D-01
 E= -704.329222655358     Delta-E=       -0.000000000732 Rises=F Damp=F
 DIIS: error= 7.69D-07 at cycle   5 NSaved=   5.
 NSaved= 5 IEnMin= 5 EnMin= -704.329222655358     IErMin= 5 ErrMin= 7.69D-07
 ErrMax= 7.69D-07  0.00D+00 EMaxC= 1.00D-01 BMatC= 1.80D-10 BMatP= 6.57D-10
 IDIUse=1 WtCom= 1.00D+00 WtEn= 0.00D+00
 Coeff-Com: -0.255D-01-0.250D-02 0.187D+00 0.469D+00 0.372D+00
 Coeff:     -0.255D-01-0.250D-02 0.187D+00 0.469D+00 0.372D+00
 Gap=     0.116 Goal=   None    Shift=    0.000
 RMSDP=1.51D-07 MaxDP=2.83D-06 DE=-7.32D-10 OVMax= 5.16D-06

 Cycle  15  Pass 1  IDiag  1:
 RMSU=  1.13D-07    CP:  1.00D+00  3.69D-01  1.03D+00  8.09D-01  6.36D-01
 E= -704.329222655511     Delta-E=       -0.000000000153 Rises=F Damp=F
 DIIS: error= 2.77D-07 at cycle   6 NSaved=   6.
 NSaved= 6 IEnMin= 6 EnMin= -704.329222655511     IErMin= 6 ErrMin= 2.77D-07
 ErrMax= 2.77D-07  0.00D+00 EMaxC= 1.00D-01 BMatC= 2.45D-11 BMatP= 1.80D-10
 IDIUse=1 WtCom= 1.00D+00 WtEn= 0.00D+00
 Coeff-Com: -0.157D-01-0.305D-02 0.571D-01 0.172D+00 0.271D+00 0.518D+00
 Coeff:     -0.157D-01-0.305D-02 0.571D-01 0.172D+00 0.271D+00 0.518D+00
 Gap=     0.116 Goal=   None    Shift=    0.000
 RMSDP=5.72D-08 MaxDP=8.95D-07 DE=-1.53D-10 OVMax= 1.99D-06

 Cycle  16  Pass 1  IDiag  1:
 RMSU=  3.88D-08    CP:  1.00D+00  3.71D-01  1.03D+00  8.20D-01  7.67D-01
                    CP:  8.05D-01
 E= -704.329222655537     Delta-E=       -0.000000000026 Rises=F Damp=F
 DIIS: error= 8.31D-08 at cycle   7 NSaved=   7.
 NSaved= 7 IEnMin= 7 EnMin= -704.329222655537     IErMin= 7 ErrMin= 8.31D-08
 ErrMax= 8.31D-08  0.00D+00 EMaxC= 1.00D-01 BMatC= 2.56D-12 BMatP= 2.45D-11
 IDIUse=1 WtCom= 1.00D+00 WtEn= 0.00D+00
 Coeff-Com: -0.370D-02-0.123D-02-0.120D-01-0.133D-01 0.814D-01 0.297D+00
 Coeff-Com:  0.652D+00
 Coeff:     -0.370D-02-0.123D-02-0.120D-01-0.133D-01 0.814D-01 0.297D+00
 Coeff:      0.652D+00
 Gap=     0.116 Goal=   None    Shift=    0.000
 RMSDP=2.83D-08 MaxDP=5.33D-07 DE=-2.57D-11 OVMax= 1.57D-06

 Cycle  17  Pass 1  IDiag  1:
 RMSU=  2.19D-08    CP:  1.00D+00  3.72D-01  1.04D+00  8.26D-01  8.05D-01
                    CP:  8.81D-01  8.67D-01
 E= -704.329222655540     Delta-E=       -0.000000000003 Rises=F Damp=F
 DIIS: error= 6.48D-08 at cycle   8 NSaved=   8.
 NSaved= 8 IEnMin= 8 EnMin= -704.329222655540     IErMin= 8 ErrMin= 6.48D-08
 ErrMax= 6.48D-08  0.00D+00 EMaxC= 1.00D-01 BMatC= 1.48D-12 BMatP= 2.56D-12
 IDIUse=1 WtCom= 1.00D+00 WtEn= 0.00D+00
 Coeff-Com: -0.578D-03-0.403D-03-0.136D-01-0.273D-01 0.237D-01 0.139D+00
 Coeff-Com:  0.490D+00 0.390D+00
 Coeff:     -0.578D-03-0.403D-03-0.136D-01-0.273D-01 0.237D-01 0.139D+00
 Coeff:      0.490D+00 0.390D+00
 Gap=     0.116 Goal=   None    Shift=    0.000
 RMSDP=1.31D-08 MaxDP=2.77D-07 DE=-3.41D-12 OVMax= 5.39D-07

 Cycle  18  Pass 1  IDiag  1:
 RMSU=  4.75D-09    CP:  1.00D+00  3.71D-01  1.04D+00  8.28D-01  8.20D-01
                    CP:  8.99D-01  8.78D-01  4.93D-01
 E= -704.329222655541     Delta-E=       -0.000000000001 Rises=F Damp=F
 DIIS: error= 1.31D-08 at cycle   9 NSaved=   9.
 NSaved= 9 IEnMin= 9 EnMin= -704.329222655541     IErMin= 9 ErrMin= 1.31D-08
 ErrMax= 1.31D-08  0.00D+00 EMaxC= 1.00D-01 BMatC= 5.05D-14 BMatP= 1.48D-12
 IDIUse=1 WtCom= 1.00D+00 WtEn= 0.00D+00
 Coeff-Com:  0.290D-03-0.995D-04-0.716D-02-0.165D-01-0.496D-03 0.379D-01
 Coeff-Com:  0.191D+00 0.195D+00 0.600D+00
 Coeff:      0.290D-03-0.995D-04-0.716D-02-0.165D-01-0.496D-03 0.379D-01
 Coeff:      0.191D+00 0.195D+00 0.600D+00
 Gap=     0.116 Goal=   None    Shift=    0.000
 RMSDP=3.10D-09 MaxDP=5.56D-08 DE=-6.82D-13 OVMax= 1.46D-07

 SCF Done:  E(RB3LYP) =  -704.329222656     A.U. after   18 cycles
            NFock= 18  Conv=0.31D-08     -V/T= 2.0064
 KE= 6.998756822190D+02 PE=-2.415336869613D+03 EE= 6.332730409390D+02
 Leave Link  502 at Mon Oct 14 01:38:08 2019, MaxMem= 10737418240 cpu:              60.4 elap:               2.6
 (Enter /apps/cent7/gaussian/g16-A.03/g16-haswell/g16/l601.exe)
 Copying SCF densities to generalized density rwf, IOpCl= 0 IROHF=0.

 **********************************************************************

            Population analysis using the SCF density.

 **********************************************************************

 Orbital symmetries:
       Occupied  (A) (A) (A) (A) (A) (A) (A) (A) (A) (A) (A) (A)
                 (A) (A) (A) (A) (A) (A) (A) (A) (A) (A) (A) (A)
                 (A) (A) (A) (A) (A) (A) (A)
       Virtual   (A) (A) (A) (A) (A) (A) (A) (A) (A) (A) (A) (A)
                 (A) (A) (A) (A) (A) (A) (A) (A) (A) (A) (A) (A)
                 (A) (A) (A) (A) (A) (A) (A) (A) (A) (A) (A) (A)
                 (A) (A) (A) (A) (A) (A) (A) (A) (A) (A) (A) (A)
                 (A) (A) (A) (A) (A) (A) (A) (A) (A) (A) (A) (A)
                 (A) (A) (A) (A) (A) (A) (A) (A) (A) (A) (A) (A)
                 (A) (A) (A) (A) (A) (A) (A) (A) (A) (A) (A) (A)
                 (A) (A) (A) (A) (A) (A)
 The electronic state is 1-A.
 Alpha  occ. eigenvalues --  -89.10074 -19.13570 -19.12772 -10.25084 -10.24772
 Alpha  occ. eigenvalues --  -10.24067 -10.23576  -8.12818  -6.09235  -6.09180
 Alpha  occ. eigenvalues --   -6.09158  -1.02653  -0.92069  -0.84450  -0.82139
 Alpha  occ. eigenvalues --   -0.71864  -0.63202  -0.57905  -0.53072  -0.49607
 Alpha  occ. eigenvalues --   -0.48359  -0.46754  -0.45660  -0.43776  -0.40489
 Alpha  occ. eigenvalues --   -0.30025  -0.29530  -0.27716  -0.26082  -0.25701
 Alpha  occ. eigenvalues --   -0.24033
 Alpha virt. eigenvalues --   -0.12480  -0.10483   0.01831   0.04247   0.08147
 Alpha virt. eigenvalues --    0.09855   0.10566   0.12622   0.14077   0.14800
 Alpha virt. eigenvalues --    0.18476   0.19975   0.24789   0.30435   0.34879
 Alpha virt. eigenvalues --    0.35668   0.39735   0.40457   0.42859   0.51549
 Alpha virt. eigenvalues --    0.54771   0.56048   0.59699   0.61249   0.62035
 Alpha virt. eigenvalues --    0.63476   0.66912   0.70573   0.73745   0.77172
 Alpha virt. eigenvalues --    0.80651   0.80992   0.81341   0.82996   0.85122
 Alpha virt. eigenvalues --    0.85979   0.89061   0.90080   0.91047   0.91228
 Alpha virt. eigenvalues --    0.93866   0.94841   0.97920   1.01377   1.04478
 Alpha virt. eigenvalues --    1.05178   1.09516   1.13338   1.15223   1.17422
 Alpha virt. eigenvalues --    1.21288   1.46134   1.55801   1.56634   1.63488
 Alpha virt. eigenvalues --    1.65093   1.70652   1.73977   1.78742   1.81519
 Alpha virt. eigenvalues --    1.84367   1.84929   1.85868   1.87983   1.89370
 Alpha virt. eigenvalues --    1.91682   1.93768   2.03129   2.05614   2.07357
 Alpha virt. eigenvalues --    2.08216   2.12299   2.14456   2.21002   2.23703
 Alpha virt. eigenvalues --    2.36612   2.39596   2.46305   2.50176   2.55778
 Alpha virt. eigenvalues --    2.63697   2.69704   2.71849   3.76465   3.86557
 Alpha virt. eigenvalues --    3.93051   4.12088   4.15747   4.21965   4.26200
          Condensed to atoms (all electrons):
               1          2          3          4          5          6
     1  C    5.167887   0.465622  -0.026441  -0.003105   0.000245   0.000598
     2  C    0.465622   5.652992   0.087052  -0.044353  -0.048256  -0.010814
     3  S   -0.026441   0.087052  14.096198   0.362143   0.077870  -0.015013
     4  O   -0.003105  -0.044353   0.362143   8.314948  -0.040718   0.002405
     5  C    0.000245  -0.048256   0.077870  -0.040718   5.623181   0.475296
     6  C    0.000598  -0.010814  -0.015013   0.002405   0.475296   5.200858
     7  O    0.001939  -0.036633   0.360826  -0.051066  -0.059246   0.002044
     8  H    0.368670  -0.037495   0.001454  -0.000257  -0.000129  -0.000011
     9  H    0.359727  -0.053616  -0.009372  -0.000310   0.002972   0.000687
    10  H   -0.066109   0.365282  -0.016272   0.000601   0.001186   0.000700
    11  H   -0.000229   0.001575  -0.008758  -0.001940   0.363241  -0.069370
    12  H    0.000058  -0.000984   0.000866  -0.000025  -0.039806   0.364498
    13  H   -0.000000  -0.000064   0.001778   0.000028  -0.050520   0.363936
               7          8          9         10         11         12
     1  C    0.001939   0.368670   0.359727  -0.066109  -0.000229   0.000058
     2  C   -0.036633  -0.037495  -0.053616   0.365282   0.001575  -0.000984
     3  S    0.360826   0.001454  -0.009372  -0.016272  -0.008758   0.000866
     4  O   -0.051066  -0.000257  -0.000310   0.000601  -0.001940  -0.000025
     5  C   -0.059246  -0.000129   0.002972   0.001186   0.363241  -0.039806
     6  C    0.002044  -0.000011   0.000687   0.000700  -0.069370   0.364498
     7  O    8.330081  -0.000019  -0.000015  -0.002706   0.001055   0.000011
     8  H   -0.000019   0.495645  -0.035213  -0.004894   0.000006  -0.000002
     9  H   -0.000015  -0.035213   0.541175   0.007637  -0.000070   0.000051
    10  H   -0.002706  -0.004894   0.007637   0.486762  -0.000023   0.000029
    11  H    0.001055   0.000006  -0.000070  -0.000023   0.495753  -0.006266
    12  H    0.000011  -0.000002   0.000051   0.000029  -0.006266   0.532479
    13  H    0.003604   0.000000   0.000004   0.000025   0.007113  -0.033683
              13
     1  C   -0.000000
     2  C   -0.000064
     3  S    0.001778
     4  O    0.000028
     5  C   -0.050520
     6  C    0.363936
     7  O    0.003604
     8  H    0.000000
     9  H    0.000004
    10  H    0.000025
    11  H    0.007113
    12  H   -0.033683
    13  H    0.503967
 Mulliken charges:
               1
     1  C   -0.268862
     2  C   -0.340309
     3  S    1.087668
     4  O   -0.538353
     5  C   -0.305317
     6  C   -0.315815
     7  O   -0.549873
     8  H    0.212245
     9  H    0.186341
    10  H    0.227780
    11  H    0.217913
    12  H    0.182772
    13  H    0.203810
 Sum of Mulliken charges =  -0.00000
 Mulliken charges with hydrogens summed into heavy atoms:
               1
     1  C    0.129723
     2  C   -0.112529
     3  S    1.087668
     4  O   -0.538353
     5  C   -0.087403
     6  C    0.070767
     7  O   -0.549873
 Electronic spatial extent (au):  <R**2>=            857.7532
 Charge=             -0.0000 electrons
 Dipole moment (field-independent basis, Debye):
    X=             -0.0042    Y=              6.7546    Z=             -0.0128  Tot=              6.7546
 Quadrupole moment (field-independent basis, Debye-Ang):
   XX=            -39.4706   YY=            -51.1316   ZZ=            -50.3594
   XY=              1.0197   XZ=              4.0920   YZ=              0.6439
 Traceless Quadrupole moment (field-independent basis, Debye-Ang):
   XX=              7.5166   YY=             -4.1444   ZZ=             -3.3722
   XY=              1.0197   XZ=              4.0920   YZ=              0.6439
 Octapole moment (field-independent basis, Debye-Ang**2):
  XXX=              7.7137  YYY=              8.3555  ZZZ=              0.5073  XYY=             -0.4513
  XXY=              9.8313  XXZ=              0.9332  XZZ=             -2.3609  YZZ=              6.4116
  YYZ=             -2.0750  XYZ=             -2.6138
 Hexadecapole moment (field-independent basis, Debye-Ang**3):
 XXXX=           -496.0127 YYYY=           -354.3708 ZZZZ=           -191.3815 XXXY=              5.5863
 XXXZ=             -7.5161 YYYX=             -4.8659 YYYZ=             -3.4364 ZZZX=              9.5682
 ZZZY=              4.3752 XXYY=           -143.8993 XXZZ=           -117.7439 YYZZ=            -97.9173
 XXYZ=             -0.4090 YYXZ=              2.0363 ZZXY=              2.1450
 N-N= 3.778589237989D+02 E-N=-2.415336870510D+03  KE= 6.998756822190D+02
 No NMR shielding tensors so no spin-rotation constants.
 Leave Link  601 at Mon Oct 14 01:38:08 2019, MaxMem= 10737418240 cpu:               2.4 elap:               0.1
 (Enter /apps/cent7/gaussian/g16-A.03/g16-haswell/g16/l701.exe)
 ... and contract with generalized density number  0.
 Compute integral first derivatives.
 Leave Link  701 at Mon Oct 14 01:38:08 2019, MaxMem= 10737418240 cpu:               3.1 elap:               0.2
 (Enter /apps/cent7/gaussian/g16-A.03/g16-haswell/g16/l702.exe)
 L702 exits ... SP integral derivatives will be done elsewhere.
 Leave Link  702 at Mon Oct 14 01:38:08 2019, MaxMem= 10737418240 cpu:               0.5 elap:               0.0
 (Enter /apps/cent7/gaussian/g16-A.03/g16-haswell/g16/l703.exe)
 Integral derivatives from FoFJK, PRISM(SPDF).
 Compute integral first derivatives, UseDBF=F ICtDFT=           0.
 Calling FoFJK, ICntrl=      2127 FMM=F ISym2X=0 I1Cent= 0 IOpClX= 0 NMat=1 NMatS=1 NMatT=0.
 FoFJK:  IHMeth= 1 ICntrl=    2127 DoSepK=F KAlg= 0 I1Cent=           0 FoldK=F
 IRaf=         0 NMat=       1 IRICut=       1 DoRegI=T DoRafI=F ISym2E= 0 IDoP0=0 IntGTp=1.
 FoFCou: FMM=F IPFlag=           0 FMFlag=      100000 FMFlg1=         800
         NFxFlg=           0 DoJE=F BraDBF=F KetDBF=F FulRan=T
         wScrn=  0.000000 ICntrl=      2127 IOpCl=  0 I1Cent=           0 NGrid=           0
         NMat0=    1 NMatS0=      1 NMatT0=    0 NMatD0=    1 NMtDS0=    0 NMtDT0=    0
 Symmetry not used in FoFCou.
 Leave Link  703 at Mon Oct 14 01:38:09 2019, MaxMem= 10737418240 cpu:              11.7 elap:               0.5
 (Enter /apps/cent7/gaussian/g16-A.03/g16-haswell/g16/l716.exe)
 Dipole        =-1.64098479D-03 2.65744689D+00-5.04858353D-03
 ***** Axes restored to original set *****
 -------------------------------------------------------------------
 Center     Atomic                   Forces (Hartrees/Bohr)
 Number     Number              X              Y              Z
 -------------------------------------------------------------------
      1        6           0.042259861   -0.006510776   -0.009118840
      2        6          -0.007924292   -0.003612593    0.017341433
      3       16          -0.117690509   -0.008934463   -0.120171363
      4        8           0.003463323    0.046007907    0.088170287
      5        6           0.024410603    0.014209548   -0.005634044
      6        6          -0.024722125    0.015094413    0.026039611
      7        8           0.090112137   -0.010474372    0.021722997
      8        1           0.003608593   -0.000484279    0.035873452
      9        1           0.009193877   -0.008837832   -0.036906827
     10        1          -0.045727175   -0.005390640   -0.018846484
     11        1           0.024031839   -0.039483809   -0.006996431
     12        1           0.000692810    0.027107586   -0.019638714
     13        1          -0.001708943   -0.018690689    0.028164923
 -------------------------------------------------------------------
 Cartesian Forces:  Max     0.120171363 RMS     0.039666324
 Leave Link  716 at Mon Oct 14 01:38:09 2019, MaxMem= 10737418240 cpu:               0.6 elap:               0.0
 (Enter /apps/cent7/gaussian/g16-A.03/g16-haswell/g16/l103.exe)

 GradGradGradGradGradGradGradGradGradGradGradGradGradGradGradGradGradGrad
 Berny optimization.
 FormGI is forming the generalized inverse of G from B-inverse, IUseBI=4.
 Internal  Forces:  Max     0.095980000 RMS     0.027644195
 Search for a local minimum.
 Step number   1 out of a maximum of   60
 All quantities printed in internal units (Hartrees-Bohrs-Radians)
 RMS Force = .27644D-01 SwitMx=.10000D-02 MixMth= 1
 Mixed Optimization -- RFO/linear search
 Second derivative matrix not updated -- first step.
 ITU=  0
     Eigenvalues ---    0.01064   0.01067   0.01589   0.01590   0.02933
     Eigenvalues ---    0.02933   0.02935   0.02935   0.08163   0.09660
     Eigenvalues ---    0.15012   0.16000   0.16000   0.16000   0.16000
     Eigenvalues ---    0.16000   0.16000   0.20388   0.22000   0.22000
     Eigenvalues ---    0.25000   0.30724   0.30748   0.34811   0.34816
     Eigenvalues ---    0.34816   0.34816   0.34817   0.34819   0.49686
     Eigenvalues ---    0.49704   0.58074   0.58113
 RFO step:  Lambda=-1.18518809D-01 EMin= 1.06388612D-02
 Linear search not attempted -- first point.
 Maximum step size (   0.300) exceeded in Quadratic search.
    -- Step size scaled by   0.767
 Iteration  1 RMS(Cart)=  0.09557040 RMS(Int)=  0.00591906
 Iteration  2 RMS(Cart)=  0.00620731 RMS(Int)=  0.00029423
 Iteration  3 RMS(Cart)=  0.00002690 RMS(Int)=  0.00029324
 Iteration  4 RMS(Cart)=  0.00000000 RMS(Int)=  0.00029324
 ITry= 1 IFail=0 DXMaxC= 3.23D-01 DCOld= 1.00D+10 DXMaxT= 3.00D-01 DXLimC= 3.00D+00 Rises=F
 Variable       Old X    -DE/DX   Delta X   Delta X   Delta X     New X
                                 (Linear)    (Quad)   (Total)
    R1        2.52466   0.05468   0.00000   0.05992   0.05992   2.58458
    R2        2.05983   0.00105   0.00000   0.00173   0.00173   2.06157
    R3        2.05974   0.00323   0.00000   0.00531   0.00531   2.06505
    R4        3.30242   0.00360   0.00000   0.00647   0.00647   3.30890
    R5        2.05969   0.00334   0.00000   0.00549   0.00549   2.06518
    R6        3.03883  -0.09598   0.00000  -0.11958  -0.11958   2.91926
    R7        3.30197   0.00849   0.00000   0.01527   0.01527   3.31724
    R8        3.03865  -0.09034   0.00000  -0.11252  -0.11252   2.92613
    R9        2.52498   0.04384   0.00000   0.04806   0.04806   2.57304
   R10        2.05975   0.00318   0.00000   0.00523   0.00523   2.06498
   R11        2.05973   0.00009   0.00000   0.00015   0.00015   2.05987
   R12        2.05975   0.00202   0.00000   0.00332   0.00332   2.06307
    A1        2.09440  -0.00087   0.00000  -0.00240  -0.00240   2.09200
    A2        2.09438   0.01165   0.00000   0.03208   0.03207   2.12645
    A3        2.09440  -0.01078   0.00000  -0.02968  -0.02969   2.06471
    A4        2.13371  -0.00115   0.00000  -0.00259  -0.00261   2.13110
    A5        1.83738   0.03878   0.00000   0.10646   0.10644   1.94382
    A6        2.31210  -0.03763   0.00000  -0.10386  -0.10387   2.20823
    A7        1.92329  -0.01328   0.00000  -0.03995  -0.04042   1.88288
    A8        1.92348  -0.00117   0.00000  -0.01778  -0.01833   1.90515
    A9        1.91194  -0.01258   0.00000  -0.03243  -0.03231   1.87963
   A10        1.91434  -0.00184   0.00000  -0.00594  -0.00716   1.90718
   A11        1.88013   0.02413   0.00000   0.08141   0.08099   1.96112
   A12        1.91011   0.00534   0.00000   0.01706   0.01643   1.92655
   A13        2.12558  -0.00342   0.00000  -0.00774  -0.00774   2.11783
   A14        2.31397  -0.03407   0.00000  -0.09461  -0.09461   2.21936
   A15        1.84364   0.03748   0.00000   0.10235   0.10235   1.94599
   A16        2.09436   0.00044   0.00000   0.00122   0.00122   2.09558
   A17        2.09432   0.00824   0.00000   0.02270   0.02269   2.11701
   A18        2.09451  -0.00869   0.00000  -0.02392  -0.02392   2.07059
    D1       -1.92030  -0.03112   0.00000  -0.16100  -0.16064  -2.08094
    D2        1.22116  -0.03259   0.00000  -0.16935  -0.16971   1.05144
    D3        1.22144  -0.03259   0.00000  -0.16858  -0.16822   1.05322
    D4       -1.92028  -0.03406   0.00000  -0.17694  -0.17730  -2.09758
    D5        0.68870  -0.01073   0.00000  -0.04647  -0.04584   0.64286
    D6       -1.42641   0.00100   0.00000  -0.00135  -0.00131  -1.42773
    D7        2.75423   0.00314   0.00000   0.00935   0.00930   2.76354
    D8       -2.45272  -0.00882   0.00000  -0.03555  -0.03534  -2.48806
    D9        1.71535   0.00291   0.00000   0.00956   0.00918   1.72454
   D10       -0.38719   0.00505   0.00000   0.02026   0.01980  -0.36739
   D11       -1.04213  -0.00342   0.00000  -0.01738  -0.01715  -1.05928
   D12        2.09942  -0.00274   0.00000  -0.01349  -0.01339   2.08603
   D13        3.12061   0.01507   0.00000   0.04771   0.04794  -3.11463
   D14       -0.02102   0.01576   0.00000   0.05160   0.05170   0.03068
   D15        1.06150  -0.01632   0.00000  -0.05779  -0.05805   1.00345
   D16       -2.08013  -0.01564   0.00000  -0.05389  -0.05429  -2.13442
   D17        2.14206   0.02986   0.00000   0.15497   0.15509   2.29715
   D18       -0.99947   0.02949   0.00000   0.15305   0.15317  -0.84630
   D19       -0.99951   0.02934   0.00000   0.15200   0.15188  -0.84763
   D20        2.14215   0.02897   0.00000   0.15007   0.14995   2.29210
         Item               Value     Threshold  Converged?
 Maximum Force            0.095980     0.000450     NO 
 RMS     Force            0.027644     0.000300     NO 
 Maximum Displacement     0.323285     0.001800     NO 
 RMS     Displacement     0.095472     0.001200     NO 
 Predicted change in Energy=-7.445370D-02
 Lowest energy point so far.  Saving SCF results.
 GradGradGradGradGradGradGradGradGradGradGradGradGradGradGradGradGradGrad

 Leave Link  103 at Mon Oct 14 01:38:09 2019, MaxMem= 10737418240 cpu:               0.7 elap:               0.1
 (Enter /apps/cent7/gaussian/g16-A.03/g16-haswell/g16/l202.exe)
                          Input orientation:                          
 ---------------------------------------------------------------------
 Center     Atomic      Atomic             Coordinates (Angstroms)
 Number     Number       Type             X           Y           Z
 ---------------------------------------------------------------------
      1          6           0        4.183389    0.559534    1.420990
      2          6           0        3.024543    1.283975    1.367515
      3         16           0        2.553247    2.181502   -0.060177
      4          8           0        2.975377    1.359401   -1.298070
      5          6           0        3.392699    3.723114   -0.074652
      6          6           0        3.224005    4.630839    0.926107
      7          8           0        1.022016    2.401820    0.006586
      8          1           0        4.143465   -0.517297    1.591219
      9          1           0        5.162260    1.027460    1.290525
     10          1           0        2.464937    1.209790    2.303277
     11          1           0        4.085840    4.090134   -0.835528
     12          1           0        4.091963    5.095386    1.394110
     13          1           0        2.228458    4.910844    1.275898
 ---------------------------------------------------------------------
                    Distance matrix (angstroms):
                    1          2          3          4          5
     1  C    0.000000
     2  C    1.367699   0.000000
     3  S    2.735324   1.750993   0.000000
     4  O    3.080969   2.667105   1.544805   0.000000
     5  C    3.587531   2.857409   1.755408   2.694077   0.000000
     6  C    4.211990   3.381734   2.724321   3.963722   1.361596
     7  O    3.922861   2.666799   1.548440   2.569899   2.715245
     8  H    1.090933   2.132278   3.541104   3.637914   4.617344
     9  H    1.092778   2.154428   3.156447   3.404918   3.501658
    10  H    2.038220   1.092846   2.556939   3.640416   3.582191
    11  H    4.191244   3.722133   2.567661   2.983953   1.092739
    12  H    4.536853   3.958149   3.601849   4.738373   2.128230
    13  H    4.772495   3.714341   3.056124   4.449264   2.142463
                    6          7          8          9         10
     6  C    0.000000
     7  O    3.265394   0.000000
     8  H    5.271725   4.558043   0.000000
     9  H    4.107795   4.547415   1.874735   0.000000
    10  H    3.765151   2.962727   2.511436   2.886947   0.000000
    11  H    2.034326   3.598135   5.207767   3.880561   4.558049
    12  H    1.090037   4.313362   5.616378   4.207646   4.309484
    13  H    1.091728   3.059715   5.764668   4.867041   3.848277
                   11         12         13
    11  H    0.000000
    12  H    2.445783   0.000000
    13  H    2.929429   1.876348   0.000000
 Stoichiometry    C4H6O2S
 Framework group  C1[X(C4H6O2S)]
 Deg. of freedom    33
 Full point group                 C1      NOp   1
 RotChk:  IX=2 Diff= 2.97D-02
 Largest Abelian subgroup         C1      NOp   1
 Largest concise Abelian subgroup C1      NOp   1
                         Standard orientation:                         
 ---------------------------------------------------------------------
 Center     Atomic      Atomic             Coordinates (Angstroms)
 Number     Number       Type             X           Y           Z
 ---------------------------------------------------------------------
      1          6           0        2.085403    1.290235   -0.019863
      2          6           0        1.143706    0.625304    0.716121
      3         16           0       -0.000178   -0.479607   -0.016463
      4          8           0        0.729064   -1.234883   -1.149683
      5          6           0       -1.333234    0.438228   -0.696167
      6          6           0       -2.124708    1.222670    0.086242
      7          8           0       -0.511085   -1.431827    1.092553
      8          1           0        3.145332    1.134160    0.185869
      9          1           0        1.809350    1.977581   -0.823302
     10          1           0        1.220716    0.872280    1.777905
     11          1           0       -1.646533    0.470713   -1.742526
     12          1           0       -2.345137    2.247230   -0.213542
     13          1           0       -2.551711    0.846802    1.018047
 ---------------------------------------------------------------------
 Rotational constants (GHZ):           2.7868247           2.0541088           1.6476603
 Leave Link  202 at Mon Oct 14 01:38:09 2019, MaxMem= 10737418240 cpu:               0.2 elap:               0.0
 (Enter /apps/cent7/gaussian/g16-A.03/g16-haswell/g16/l301.exe)
 Standard basis: 6-31G(d) (6D, 7F)
 Ernie: Thresh=  0.10000D-02 Tol=  0.10000D-05 Strict=F.
 There are   121 symmetry adapted cartesian basis functions of A   symmetry.
 There are   121 symmetry adapted basis functions of A   symmetry.
   121 basis functions,   244 primitive gaussians,   121 cartesian basis functions
    31 alpha electrons       31 beta electrons
       nuclear repulsion energy       381.4242016900 Hartrees.
 IExCor=  402 DFT=T Ex+Corr=B3LYP ExCW=0 ScaHFX=  0.200000
 ScaDFX=  0.800000  0.720000  1.000000  0.810000 ScalE2=  1.000000  1.000000
 IRadAn=      5 IRanWt=     -1 IRanGd=            0 ICorTp=0 IEmpDi=  4
 NAtoms=   13 NActive=   13 NUniq=   13 SFac= 1.00D+00 NAtFMM=   60 NAOKFM=F Big=F
 Integral buffers will be    131072 words long.
 Raffenetti 2 integral format.
 Two-electron integral symmetry is turned on.
 Leave Link  301 at Mon Oct 14 01:38:09 2019, MaxMem= 10737418240 cpu:               1.8 elap:               0.1
 (Enter /apps/cent7/gaussian/g16-A.03/g16-haswell/g16/l302.exe)
 NPDir=0 NMtPBC=     1 NCelOv=     1 NCel=       1 NClECP=     1 NCelD=      1
         NCelK=      1 NCelE2=     1 NClLst=     1 CellRange=     0.0.
 One-electron integrals computed using PRISM.
 One-electron integral symmetry used in STVInt
 NBasis=   121 RedAO= T EigKep=  3.68D-03  NBF=   121
 NBsUse=   121 1.00D-06 EigRej= -1.00D+00 NBFU=   121
 Precomputing XC quadrature grid using
 IXCGrd= 4 IRadAn=           5 IRanWt=          -1 IRanGd=           0 AccXCQ= 0.00D+00.
 Generated NRdTot=       0 NPtTot=           0 NUsed=           0 NTot=          32
 NSgBfM=   121   121   121   121   121 MxSgAt=    13 MxSgA2=    13.
 Leave Link  302 at Mon Oct 14 01:38:09 2019, MaxMem= 10737418240 cpu:               2.8 elap:               0.1
 (Enter /apps/cent7/gaussian/g16-A.03/g16-haswell/g16/l303.exe)
 DipDrv:  MaxL=1.
 Leave Link  303 at Mon Oct 14 01:38:09 2019, MaxMem= 10737418240 cpu:               1.1 elap:               0.1
 (Enter /apps/cent7/gaussian/g16-A.03/g16-haswell/g16/l401.exe)
 Initial guess from the checkpoint file:  "28.chk"
 B after Tr=    -0.000000   -0.000000    0.000000
         Rot=    0.999927   -0.008711    0.002514   -0.008028 Ang=  -1.39 deg.
 Guess basis will be translated and rotated to current coordinates.
 JPrj=2 DoOrth=T DoCkMO=T.
 Generating alternative initial guess.
 ExpMin= 1.17D-01 ExpMax= 2.19D+04 ExpMxC= 3.30D+03 IAcc=2 IRadAn=         4 AccDes= 0.00D+00
 Harris functional with IExCor=  402 and IRadAn=       4 diagonalized for initial guess.
 HarFok:  IExCor=  402 AccDes= 0.00D+00 IRadAn=         4 IDoV= 1 UseB2=F ITyADJ=14
 ICtDFT=  3500011 ScaDFX=  1.000000  1.000000  1.000000  1.000000
 FoFCou: FMM=F IPFlag=           0 FMFlag=      100000 FMFlg1=           0
         NFxFlg=           0 DoJE=T BraDBF=F KetDBF=T FulRan=T
         wScrn=  0.000000 ICntrl=       500 IOpCl=  0 I1Cent=   200000004 NGrid=           0
         NMat0=    1 NMatS0=      1 NMatT0=    0 NMatD0=    1 NMtDS0=    0 NMtDT0=    0
 Petite list used in FoFCou.
 Harris En= -704.488808106683    
 Leave Link  401 at Mon Oct 14 01:38:10 2019, MaxMem= 10737418240 cpu:               5.2 elap:               0.2
 (Enter /apps/cent7/gaussian/g16-A.03/g16-haswell/g16/l502.exe)
 Integral symmetry usage will be decided dynamically.
 Closed shell SCF:
 Using DIIS extrapolation, IDIIS=  1040.
 NGot= 10737418240 LenX= 10737384591 LenY= 10737369509
 Requested convergence on RMS density matrix=1.00D-08 within 128 cycles.
 Requested convergence on MAX density matrix=1.00D-06.
 Requested convergence on             energy=1.00D-06.
 No special actions if energy rises.
 Fock matrices will be formed incrementally for  20 cycles.
 Integral accuracy reduced to 1.0D-05 until final iterations.

 Cycle   1  Pass 0  IDiag  1:
 FoFJK:  IHMeth= 1 ICntrl=       0 DoSepK=F KAlg= 0 I1Cent=           0 FoldK=F
 IRaf= 970000000 NMat=       1 IRICut=       1 DoRegI=T DoRafI=F ISym2E= 0 IDoP0=0 IntGTp=1.
 FoFCou: FMM=F IPFlag=           0 FMFlag=      100000 FMFlg1=           0
         NFxFlg=           0 DoJE=F BraDBF=F KetDBF=F FulRan=T
         wScrn=  0.000000 ICntrl=         0 IOpCl=  0 I1Cent=           0 NGrid=           0
         NMat0=    1 NMatS0=      1 NMatT0=    0 NMatD0=    1 NMtDS0=    0 NMtDT0=    0
 Symmetry not used in FoFCou.
 E= -704.392156039720    
 DIIS: error= 4.44D-03 at cycle   1 NSaved=   1.
 NSaved= 1 IEnMin= 1 EnMin= -704.392156039720     IErMin= 1 ErrMin= 4.44D-03
 ErrMax= 4.44D-03  0.00D+00 EMaxC= 1.00D-01 BMatC= 7.49D-03 BMatP= 7.49D-03
 IDIUse=3 WtCom= 9.56D-01 WtEn= 4.44D-02
 Coeff-Com:  0.100D+01
 Coeff-En:   0.100D+01
 Coeff:      0.100D+01
 Gap=     1.752 Goal=   None    Shift=    0.000
 GapD=    1.752 DampG=2.000 DampE=1.000 DampFc=2.0000 IDamp=-1.
 RMSDP=1.84D-03 MaxDP=2.62D-02              OVMax= 4.02D-02

 Cycle   2  Pass 0  IDiag  1:
 RMSU=  1.82D-03    CP:  9.92D-01
 E= -704.404994375819     Delta-E=       -0.012838336098 Rises=F Damp=F
 DIIS: error= 3.36D-03 at cycle   2 NSaved=   2.
 NSaved= 2 IEnMin= 2 EnMin= -704.404994375819     IErMin= 2 ErrMin= 3.36D-03
 ErrMax= 3.36D-03  0.00D+00 EMaxC= 1.00D-01 BMatC= 3.06D-03 BMatP= 7.49D-03
 IDIUse=3 WtCom= 9.66D-01 WtEn= 3.36D-02
 Coeff-Com:  0.320D+00 0.680D+00
 Coeff-En:   0.000D+00 0.100D+01
 Coeff:      0.309D+00 0.691D+00
 Gap=     0.140 Goal=   None    Shift=    0.000
 RMSDP=1.09D-03 MaxDP=2.31D-02 DE=-1.28D-02 OVMax= 2.60D-02

 Cycle   3  Pass 0  IDiag  1:
 RMSU=  9.57D-04    CP:  9.97D-01  7.25D-01
 E= -704.403793444656     Delta-E=        0.001200931163 Rises=F Damp=F
 DIIS: error= 4.02D-03 at cycle   3 NSaved=   3.
 NSaved= 3 IEnMin= 2 EnMin= -704.404994375819     IErMin= 2 ErrMin= 3.36D-03
 ErrMax= 4.02D-03  0.00D+00 EMaxC= 1.00D-01 BMatC= 4.60D-03 BMatP= 3.06D-03
 IDIUse=3 WtCom= 1.36D-01 WtEn= 8.64D-01
 Coeff-Com: -0.210D-01 0.560D+00 0.461D+00
 Coeff-En:   0.000D+00 0.573D+00 0.427D+00
 Coeff:     -0.286D-02 0.571D+00 0.432D+00
 Gap=     0.142 Goal=   None    Shift=    0.000
 RMSDP=6.17D-04 MaxDP=1.21D-02 DE= 1.20D-03 OVMax= 1.78D-02

 Cycle   4  Pass 0  IDiag  1:
 RMSU=  1.68D-04    CP:  9.94D-01  9.26D-01  5.26D-01
 E= -704.407548904654     Delta-E=       -0.003755459998 Rises=F Damp=F
 DIIS: error= 4.62D-04 at cycle   4 NSaved=   4.
 NSaved= 4 IEnMin= 4 EnMin= -704.407548904654     IErMin= 4 ErrMin= 4.62D-04
 ErrMax= 4.62D-04  0.00D+00 EMaxC= 1.00D-01 BMatC= 5.95D-05 BMatP= 3.06D-03
 IDIUse=3 WtCom= 9.95D-01 WtEn= 4.62D-03
 Coeff-Com: -0.260D-01 0.254D+00 0.209D+00 0.563D+00
 Coeff-En:   0.000D+00 0.000D+00 0.000D+00 0.100D+01
 Coeff:     -0.259D-01 0.253D+00 0.208D+00 0.565D+00
 Gap=     0.141 Goal=   None    Shift=    0.000
 RMSDP=1.04D-04 MaxDP=2.60D-03 DE=-3.76D-03 OVMax= 3.98D-03

 Cycle   5  Pass 0  IDiag  1:
 RMSU=  7.45D-05    CP:  9.94D-01  9.43D-01  5.06D-01  6.25D-01
 E= -704.407586579001     Delta-E=       -0.000037674347 Rises=F Damp=F
 DIIS: error= 2.13D-04 at cycle   5 NSaved=   5.
 NSaved= 5 IEnMin= 5 EnMin= -704.407586579001     IErMin= 5 ErrMin= 2.13D-04
 ErrMax= 2.13D-04  0.00D+00 EMaxC= 1.00D-01 BMatC= 2.22D-05 BMatP= 5.95D-05
 IDIUse=3 WtCom= 9.98D-01 WtEn= 2.13D-03
 Coeff-Com: -0.129D-01 0.841D-01 0.722D-01 0.379D+00 0.478D+00
 Coeff-En:   0.000D+00 0.000D+00 0.000D+00 0.291D+00 0.709D+00
 Coeff:     -0.128D-01 0.840D-01 0.721D-01 0.379D+00 0.478D+00
 Gap=     0.141 Goal=   None    Shift=    0.000
 RMSDP=5.09D-05 MaxDP=8.26D-04 DE=-3.77D-05 OVMax= 2.34D-03

 Cycle   6  Pass 0  IDiag  1:
 RMSU=  2.96D-05    CP:  9.94D-01  9.41D-01  5.22D-01  7.72D-01  6.06D-01
 E= -704.407608148509     Delta-E=       -0.000021569508 Rises=F Damp=F
 DIIS: error= 7.41D-05 at cycle   6 NSaved=   6.
 NSaved= 6 IEnMin= 6 EnMin= -704.407608148509     IErMin= 6 ErrMin= 7.41D-05
 ErrMax= 7.41D-05  0.00D+00 EMaxC= 1.00D-01 BMatC= 2.69D-06 BMatP= 2.22D-05
 IDIUse=1 WtCom= 1.00D+00 WtEn= 0.00D+00
 Coeff-Com: -0.303D-02 0.875D-02 0.971D-02 0.132D+00 0.305D+00 0.547D+00
 Coeff:     -0.303D-02 0.875D-02 0.971D-02 0.132D+00 0.305D+00 0.547D+00
 Gap=     0.141 Goal=   None    Shift=    0.000
 RMSDP=1.59D-05 MaxDP=5.78D-04 DE=-2.16D-05 OVMax= 4.78D-04

 Cycle   7  Pass 0  IDiag  1:
 RMSU=  9.60D-06    CP:  9.94D-01  9.41D-01  5.26D-01  7.87D-01  6.78D-01
                    CP:  6.55D-01
 E= -704.407610485818     Delta-E=       -0.000002337309 Rises=F Damp=F
 DIIS: error= 2.88D-05 at cycle   7 NSaved=   7.
 NSaved= 7 IEnMin= 7 EnMin= -704.407610485818     IErMin= 7 ErrMin= 2.88D-05
 ErrMax= 2.88D-05  0.00D+00 EMaxC= 1.00D-01 BMatC= 2.04D-07 BMatP= 2.69D-06
 IDIUse=1 WtCom= 1.00D+00 WtEn= 0.00D+00
 Coeff-Com: -0.105D-03-0.663D-02-0.484D-02 0.187D-01 0.112D+00 0.275D+00
 Coeff-Com:  0.606D+00
 Coeff:     -0.105D-03-0.663D-02-0.484D-02 0.187D-01 0.112D+00 0.275D+00
 Coeff:      0.606D+00
 Gap=     0.141 Goal=   None    Shift=    0.000
 RMSDP=6.16D-06 MaxDP=9.51D-05 DE=-2.34D-06 OVMax= 2.54D-04

 Initial convergence to 1.0D-05 achieved.  Increase integral accuracy.
 Cycle   8  Pass 1  IDiag  1:
 E= -704.407603440980     Delta-E=        0.000007044838 Rises=F Damp=F
 DIIS: error= 1.96D-05 at cycle   1 NSaved=   1.
 NSaved= 1 IEnMin= 1 EnMin= -704.407603440980     IErMin= 1 ErrMin= 1.96D-05
 ErrMax= 1.96D-05  0.00D+00 EMaxC= 1.00D-01 BMatC= 1.30D-07 BMatP= 1.30D-07
 IDIUse=1 WtCom= 1.00D+00 WtEn= 0.00D+00
 Coeff-Com:  0.100D+01
 Coeff:      0.100D+01
 Gap=     0.141 Goal=   None    Shift=    0.000
 RMSDP=6.16D-06 MaxDP=9.51D-05 DE= 7.04D-06 OVMax= 3.94D-04

 Cycle   9  Pass 1  IDiag  1:
 RMSU=  1.08D-05    CP:  1.00D+00
 E= -704.407602812130     Delta-E=        0.000000628850 Rises=F Damp=F
 DIIS: error= 5.52D-05 at cycle   2 NSaved=   2.
 NSaved= 2 IEnMin= 1 EnMin= -704.407603440980     IErMin= 1 ErrMin= 1.96D-05
 ErrMax= 5.52D-05  0.00D+00 EMaxC= 1.00D-01 BMatC= 8.51D-07 BMatP= 1.30D-07
 IDIUse=1 WtCom= 1.00D+00 WtEn= 0.00D+00
 Coeff-Com:  0.722D+00 0.278D+00
 Coeff:      0.722D+00 0.278D+00
 Gap=     0.141 Goal=   None    Shift=    0.000
 RMSDP=7.54D-06 MaxDP=1.31D-04 DE= 6.29D-07 OVMax= 2.83D-04

 Cycle  10  Pass 1  IDiag  1:
 RMSU=  2.28D-06    CP:  1.00D+00  3.38D-01
 E= -704.407603558516     Delta-E=       -0.000000746386 Rises=F Damp=F
 DIIS: error= 2.48D-06 at cycle   3 NSaved=   3.
 NSaved= 3 IEnMin= 3 EnMin= -704.407603558516     IErMin= 3 ErrMin= 2.48D-06
 ErrMax= 2.48D-06  0.00D+00 EMaxC= 1.00D-01 BMatC= 2.68D-09 BMatP= 1.30D-07
 IDIUse=1 WtCom= 1.00D+00 WtEn= 0.00D+00
 Coeff-Com:  0.304D+00 0.124D+00 0.572D+00
 Coeff:      0.304D+00 0.124D+00 0.572D+00
 Gap=     0.141 Goal=   None    Shift=    0.000
 RMSDP=6.69D-07 MaxDP=2.18D-05 DE=-7.46D-07 OVMax= 3.03D-05

 Cycle  11  Pass 1  IDiag  1:
 RMSU=  6.20D-07    CP:  1.00D+00  3.51D-01  9.15D-01
 E= -704.407603560018     Delta-E=       -0.000000001502 Rises=F Damp=F
 DIIS: error= 2.22D-06 at cycle   4 NSaved=   4.
 NSaved= 4 IEnMin= 4 EnMin= -704.407603560018     IErMin= 4 ErrMin= 2.22D-06
 ErrMax= 2.22D-06  0.00D+00 EMaxC= 1.00D-01 BMatC= 1.10D-09 BMatP= 2.68D-09
 IDIUse=1 WtCom= 1.00D+00 WtEn= 0.00D+00
 Coeff-Com:  0.578D-01 0.251D-01 0.383D+00 0.534D+00
 Coeff:      0.578D-01 0.251D-01 0.383D+00 0.534D+00
 Gap=     0.141 Goal=   None    Shift=    0.000
 RMSDP=3.43D-07 MaxDP=8.90D-06 DE=-1.50D-09 OVMax= 1.83D-05

 Cycle  12  Pass 1  IDiag  1:
 RMSU=  2.56D-07    CP:  1.00D+00  3.49D-01  9.55D-01  6.66D-01
 E= -704.407603560967     Delta-E=       -0.000000000949 Rises=F Damp=F
 DIIS: error= 1.10D-06 at cycle   5 NSaved=   5.
 NSaved= 5 IEnMin= 5 EnMin= -704.407603560967     IErMin= 5 ErrMin= 1.10D-06
 ErrMax= 1.10D-06  0.00D+00 EMaxC= 1.00D-01 BMatC= 1.94D-10 BMatP= 1.10D-09
 IDIUse=1 WtCom= 1.00D+00 WtEn= 0.00D+00
 Coeff-Com: -0.637D-02-0.249D-02 0.167D+00 0.362D+00 0.480D+00
 Coeff:     -0.637D-02-0.249D-02 0.167D+00 0.362D+00 0.480D+00
 Gap=     0.141 Goal=   None    Shift=    0.000
 RMSDP=1.27D-07 MaxDP=4.72D-06 DE=-9.49D-10 OVMax= 5.49D-06

 Cycle  13  Pass 1  IDiag  1:
 RMSU=  6.57D-08    CP:  1.00D+00  3.50D-01  9.65D-01  7.07D-01  6.04D-01
 E= -704.407603561172     Delta-E=       -0.000000000205 Rises=F Damp=F
 DIIS: error= 1.54D-07 at cycle   6 NSaved=   6.
 NSaved= 6 IEnMin= 6 EnMin= -704.407603561172     IErMin= 6 ErrMin= 1.54D-07
 ErrMax= 1.54D-07  0.00D+00 EMaxC= 1.00D-01 BMatC= 7.79D-12 BMatP= 1.94D-10
 IDIUse=1 WtCom= 1.00D+00 WtEn= 0.00D+00
 Coeff-Com: -0.551D-02-0.266D-02 0.708D-01 0.173D+00 0.253D+00 0.512D+00
 Coeff:     -0.551D-02-0.266D-02 0.708D-01 0.173D+00 0.253D+00 0.512D+00
 Gap=     0.141 Goal=   None    Shift=    0.000
 RMSDP=3.66D-08 MaxDP=7.57D-07 DE=-2.05D-10 OVMax= 1.09D-06

 Cycle  14  Pass 1  IDiag  1:
 RMSU=  2.91D-08    CP:  1.00D+00  3.50D-01  9.71D-01  7.13D-01  6.05D-01
                    CP:  7.67D-01
 E= -704.407603561180     Delta-E=       -0.000000000008 Rises=F Damp=F
 DIIS: error= 9.12D-08 at cycle   7 NSaved=   7.
 NSaved= 7 IEnMin= 7 EnMin= -704.407603561180     IErMin= 7 ErrMin= 9.12D-08
 ErrMax= 9.12D-08  0.00D+00 EMaxC= 1.00D-01 BMatC= 2.58D-12 BMatP= 7.79D-12
 IDIUse=1 WtCom= 1.00D+00 WtEn= 0.00D+00
 Coeff-Com: -0.342D-02-0.187D-02 0.130D-01 0.459D-01 0.721D-01 0.364D+00
 Coeff-Com:  0.510D+00
 Coeff:     -0.342D-02-0.187D-02 0.130D-01 0.459D-01 0.721D-01 0.364D+00
 Coeff:      0.510D+00
 Gap=     0.141 Goal=   None    Shift=    0.000
 RMSDP=1.61D-08 MaxDP=3.39D-07 DE=-7.73D-12 OVMax= 5.05D-07

 Cycle  15  Pass 1  IDiag  1:
 RMSU=  8.74D-09    CP:  1.00D+00  3.50D-01  9.70D-01  7.16D-01  6.23D-01
                    CP:  9.02D-01  7.21D-01
 E= -704.407603561178     Delta-E=        0.000000000002 Rises=F Damp=F
 DIIS: error= 2.45D-08 at cycle   8 NSaved=   8.
 NSaved= 8 IEnMin= 7 EnMin= -704.407603561180     IErMin= 8 ErrMin= 2.45D-08
 ErrMax= 2.45D-08  0.00D+00 EMaxC= 1.00D-01 BMatC= 1.48D-13 BMatP= 2.58D-12
 IDIUse=1 WtCom= 1.00D+00 WtEn= 0.00D+00
 Coeff-Com: -0.687D-03-0.539D-03-0.383D-02-0.121D-02-0.306D-02 0.105D+00
 Coeff-Com:  0.236D+00 0.668D+00
 Coeff:     -0.687D-03-0.539D-03-0.383D-02-0.121D-02-0.306D-02 0.105D+00
 Coeff:      0.236D+00 0.668D+00
 Gap=     0.141 Goal=   None    Shift=    0.000
 RMSDP=5.31D-09 MaxDP=9.90D-08 DE= 1.82D-12 OVMax= 2.45D-07

 SCF Done:  E(RB3LYP) =  -704.407603561     A.U. after   15 cycles
            NFock= 15  Conv=0.53D-08     -V/T= 2.0065
 KE= 6.998270179491D+02 PE=-2.422439700774D+03 EE= 6.367808775741D+02
 Leave Link  502 at Mon Oct 14 01:38:12 2019, MaxMem= 10737418240 cpu:              51.4 elap:               2.2
 (Enter /apps/cent7/gaussian/g16-A.03/g16-haswell/g16/l701.exe)
 ... and contract with generalized density number  0.
 Compute integral first derivatives.
 Leave Link  701 at Mon Oct 14 01:38:12 2019, MaxMem= 10737418240 cpu:               2.3 elap:               0.1
 (Enter /apps/cent7/gaussian/g16-A.03/g16-haswell/g16/l702.exe)
 L702 exits ... SP integral derivatives will be done elsewhere.
 Leave Link  702 at Mon Oct 14 01:38:12 2019, MaxMem= 10737418240 cpu:               0.4 elap:               0.0
 (Enter /apps/cent7/gaussian/g16-A.03/g16-haswell/g16/l703.exe)
 Integral derivatives from FoFJK, PRISM(SPDF).
 Compute integral first derivatives, UseDBF=F ICtDFT=           0.
 Calling FoFJK, ICntrl=      2127 FMM=F ISym2X=0 I1Cent= 0 IOpClX= 0 NMat=1 NMatS=1 NMatT=0.
 FoFJK:  IHMeth= 1 ICntrl=    2127 DoSepK=F KAlg= 0 I1Cent=           0 FoldK=F
 IRaf=         0 NMat=       1 IRICut=       1 DoRegI=T DoRafI=F ISym2E= 0 IDoP0=0 IntGTp=1.
 FoFCou: FMM=F IPFlag=           0 FMFlag=      100000 FMFlg1=         800
         NFxFlg=           0 DoJE=F BraDBF=F KetDBF=F FulRan=T
         wScrn=  0.000000 ICntrl=      2127 IOpCl=  0 I1Cent=           0 NGrid=           0
         NMat0=    1 NMatS0=      1 NMatT0=    0 NMatD0=    1 NMtDS0=    0 NMtDT0=    0
 Symmetry not used in FoFCou.
 Leave Link  703 at Mon Oct 14 01:38:12 2019, MaxMem= 10737418240 cpu:              11.0 elap:               0.5
 (Enter /apps/cent7/gaussian/g16-A.03/g16-haswell/g16/l716.exe)
 Dipole        =-1.18354150D-01 2.43478743D+00 2.84427493D-02
 ***** Axes restored to original set *****
 -------------------------------------------------------------------
 Center     Atomic                   Forces (Hartrees/Bohr)
 Number     Number              X              Y              Z
 -------------------------------------------------------------------
      1        6           0.002371573    0.009955710   -0.006300801
      2        6           0.025858959   -0.018838994    0.024529336
      3       16          -0.082857276   -0.007525198   -0.086308098
      4        8           0.000264060    0.035244490    0.058476179
      5        6           0.014158817    0.034349223    0.013885825
      6        6          -0.012594837   -0.006383097   -0.001675231
      7        8           0.063543689   -0.005540113    0.014610573
      8        1           0.004036950    0.005329163    0.030346095
      9        1          -0.000687248   -0.009885234   -0.031337906
     10        1          -0.030886800   -0.008048002   -0.021121222
     11        1           0.016590022   -0.031348081    0.001983957
     12        1          -0.002844385    0.021236809   -0.017737643
     13        1           0.003046477   -0.018546678    0.020648938
 -------------------------------------------------------------------
 Cartesian Forces:  Max     0.086308098 RMS     0.029170456
 Leave Link  716 at Mon Oct 14 01:38:13 2019, MaxMem= 10737418240 cpu:               0.4 elap:               0.0
 (Enter /apps/cent7/gaussian/g16-A.03/g16-haswell/g16/l103.exe)

 GradGradGradGradGradGradGradGradGradGradGradGradGradGradGradGradGradGrad
 Berny optimization.
 Using GEDIIS/GDIIS optimizer.
 FormGI is forming the generalized inverse of G from B-inverse, IUseBI=4.
 Internal  Forces:  Max     0.065542776 RMS     0.018794921
 Search for a local minimum.
 Step number   2 out of a maximum of   60
 All quantities printed in internal units (Hartrees-Bohrs-Radians)
 RMS Force = .18795D-01 SwitMx=.10000D-02 MixMth= 1
 Mixed Optimization -- RFO/linear search
 Update second derivatives using D2CorX and points    1    2
 DE= -7.84D-02 DEPred=-7.45D-02 R= 1.05D+00
 TightC=F SS=  1.41D+00  RLast= 5.58D-01 DXNew= 5.0454D-01 1.6726D+00
 Trust test= 1.05D+00 RLast= 5.58D-01 DXMaxT set to 5.05D-01
 ITU=  1  0
 Use linear search instead of GDIIS.
 Linear search step of   0.577 exceeds DXMaxT=   0.505 but not scaled.
 Quartic linear search produced a step of  1.92424.
 Iteration  1 RMS(Cart)=  0.14165392 RMS(Int)=  0.04652523
 Iteration  2 RMS(Cart)=  0.05504069 RMS(Int)=  0.00320303
 Iteration  3 RMS(Cart)=  0.00283710 RMS(Int)=  0.00170124
 Iteration  4 RMS(Cart)=  0.00000663 RMS(Int)=  0.00170123
 Iteration  5 RMS(Cart)=  0.00000000 RMS(Int)=  0.00170123
 ITry= 1 IFail=0 DXMaxC= 5.62D-01 DCOld= 1.00D+10 DXMaxT= 5.05D-01 DXLimC= 3.00D+00 Rises=F
 Variable       Old X    -DE/DX   Delta X   Delta X   Delta X     New X
                                 (Linear)    (Quad)   (Total)
    R1        2.58458   0.00170   0.11530   0.00000   0.11530   2.69987
    R2        2.06157  -0.00067   0.00333   0.00000   0.00333   2.06490
    R3        2.06505  -0.00111   0.01022   0.00000   0.01022   2.07527
    R4        3.30890   0.00803   0.01246   0.00000   0.01246   3.32136
    R5        2.06518  -0.00172   0.01056   0.00000   0.01056   2.07574
    R6        2.91926  -0.06554  -0.23009   0.00000  -0.23009   2.68917
    R7        3.31724   0.00803   0.02939   0.00000   0.02939   3.34663
    R8        2.92613  -0.06300  -0.21652   0.00000  -0.21652   2.70961
    R9        2.57304  -0.00002   0.09249   0.00000   0.09249   2.66553
   R10        2.06498  -0.00139   0.01006   0.00000   0.01006   2.07504
   R11        2.05987  -0.00083   0.00028   0.00000   0.00028   2.06015
   R12        2.06307  -0.00092   0.00639   0.00000   0.00639   2.06945
    A1        2.09200   0.00011  -0.00463   0.00000  -0.00467   2.08733
    A2        2.12645   0.00482   0.06171   0.00000   0.06167   2.18812
    A3        2.06471  -0.00493  -0.05713   0.00000  -0.05717   2.00754
    A4        2.13110   0.00052  -0.00502   0.00000  -0.00509   2.12600
    A5        1.94382   0.02563   0.20482   0.00000   0.20467   2.14849
    A6        2.20823  -0.02616  -0.19988   0.00000  -0.19990   2.00833
    A7        1.88288  -0.00565  -0.07777   0.00000  -0.08062   1.80226
    A8        1.90515  -0.00207  -0.03526   0.00000  -0.03775   1.86741
    A9        1.87963  -0.00834  -0.06218   0.00000  -0.06176   1.81786
   A10        1.90718  -0.00453  -0.01378   0.00000  -0.02101   1.88617
   A11        1.96112   0.01763   0.15585   0.00000   0.15292   2.11404
   A12        1.92655   0.00231   0.03162   0.00000   0.02752   1.95407
   A13        2.11783  -0.00162  -0.01490   0.00000  -0.01491   2.10293
   A14        2.21936  -0.02360  -0.18205   0.00000  -0.18206   2.03730
   A15        1.94599   0.02522   0.19694   0.00000   0.19692   2.14291
   A16        2.09558   0.00065   0.00235   0.00000   0.00235   2.09793
   A17        2.11701   0.00319   0.04367   0.00000   0.04367   2.16068
   A18        2.07059  -0.00384  -0.04602   0.00000  -0.04602   2.02457
    D1       -2.08094  -0.02706  -0.30910   0.00000  -0.30722  -2.38816
    D2        1.05144  -0.02834  -0.32657   0.00000  -0.32845   0.72299
    D3        1.05322  -0.02786  -0.32370   0.00000  -0.32181   0.73141
    D4       -2.09758  -0.02914  -0.34116   0.00000  -0.34304  -2.44062
    D5        0.64286  -0.00942  -0.08821   0.00000  -0.08463   0.55823
    D6       -1.42773   0.00038  -0.00253   0.00000  -0.00209  -1.42982
    D7        2.76354   0.00365   0.01790   0.00000   0.01796   2.78150
    D8       -2.48806  -0.00826  -0.06801   0.00000  -0.06715  -2.55521
    D9        1.72454   0.00154   0.01767   0.00000   0.01539   1.73993
   D10       -0.36739   0.00481   0.03810   0.00000   0.03545  -0.33194
   D11       -1.05928  -0.00162  -0.03300   0.00000  -0.03145  -1.09073
   D12        2.08603  -0.00090  -0.02577   0.00000  -0.02513   2.06090
   D13       -3.11463   0.00900   0.09226   0.00000   0.09337  -3.02127
   D14        0.03068   0.00972   0.09949   0.00000   0.09969   0.13036
   D15        1.00345  -0.01168  -0.11170   0.00000  -0.11300   0.89046
   D16       -2.13442  -0.01097  -0.10447   0.00000  -0.10668  -2.24110
   D17        2.29715   0.02505   0.29844   0.00000   0.29908   2.59623
   D18       -0.84630   0.02477   0.29473   0.00000   0.29537  -0.55093
   D19       -0.84763   0.02435   0.29225   0.00000   0.29160  -0.55603
   D20        2.29210   0.02407   0.28854   0.00000   0.28790   2.58000
         Item               Value     Threshold  Converged?
 Maximum Force            0.065543     0.000450     NO 
 RMS     Force            0.018795     0.000300     NO 
 Maximum Displacement     0.562109     0.001800     NO 
 RMS     Displacement     0.181451     0.001200     NO 
 Predicted change in Energy=-7.741884D-02
 Lowest energy point so far.  Saving SCF results.
 GradGradGradGradGradGradGradGradGradGradGradGradGradGradGradGradGradGrad

 Leave Link  103 at Mon Oct 14 01:38:13 2019, MaxMem= 10737418240 cpu:               0.5 elap:               0.1
 (Enter /apps/cent7/gaussian/g16-A.03/g16-haswell/g16/l202.exe)
                          Input orientation:                          
 ---------------------------------------------------------------------
 Center     Atomic      Atomic             Coordinates (Angstroms)
 Number     Number       Type             X           Y           Z
 ---------------------------------------------------------------------
      1          6           0        4.203201    0.535416    1.383683
      2          6           0        2.995241    1.296138    1.325784
      3         16           0        2.536866    2.198913   -0.110879
      4          8           0        3.072776    1.417248   -1.172415
      5          6           0        3.417879    3.734351   -0.060369
      6          6           0        3.196892    4.652117    0.987718
      7          8           0        1.122428    2.387409    0.029854
      8          1           0        4.191712   -0.462477    1.828726
      9          1           0        5.177344    0.858648    0.993070
     10          1           0        2.274322    1.340938    2.153324
     11          1           0        4.121966    3.926971   -0.880676
     12          1           0        4.005163    5.298631    1.330094
     13          1           0        2.236409    4.772197    1.499885
 ---------------------------------------------------------------------
                    Distance matrix (angstroms):
                    1          2          3          4          5
     1  C    0.000000
     2  C    1.428712   0.000000
     3  S    2.788837   1.757586   0.000000
[...]
 ! R9    R(5,6)                  1.3295         -DE/DX =    0.0                 !
 ! R10   R(5,11)                 1.0863         -DE/DX =    0.0                 !
 ! R11   R(6,12)                 1.0866         -DE/DX =    0.0                 !
 ! R12   R(6,13)                 1.0863         -DE/DX =    0.0                 !
 ! A1    A(2,1,8)              121.1429         -DE/DX =    0.0                 !
 ! A2    A(2,1,9)              120.7593         -DE/DX =    0.0                 !
 ! A3    A(8,1,9)              118.0933         -DE/DX =    0.0                 !
 ! A4    A(1,2,3)              120.4004         -DE/DX =    0.0                 !
 ! A5    A(1,2,10)             125.2053         -DE/DX =    0.0                 !
 ! A6    A(3,2,10)             114.3251         -DE/DX =    0.0                 !
 ! A7    A(2,3,4)              108.2039         -DE/DX =    0.0                 !
 ! A8    A(2,3,5)              102.8893         -DE/DX =    0.0                 !
 ! A9    A(2,3,7)              107.3002         -DE/DX =    0.0                 !
 ! A10   A(4,3,5)              107.2951         -DE/DX =    0.0                 !
 ! A11   A(4,3,7)              121.4331         -DE/DX =    0.0                 !
 ! A12   A(5,3,7)              108.2022         -DE/DX =    0.0                 !
 ! A13   A(3,5,6)              120.4047         -DE/DX =    0.0                 !
 ! A14   A(3,5,11)             114.3235         -DE/DX =    0.0                 !
 ! A15   A(6,5,11)             125.203          -DE/DX =    0.0                 !
 ! A16   A(5,6,12)             121.1347         -DE/DX =    0.0                 !
 ! A17   A(5,6,13)             120.7638         -DE/DX =    0.0                 !
 ! A18   A(12,6,13)            118.0972         -DE/DX =    0.0                 !
 ! D1    D(8,1,2,3)           -177.1543         -DE/DX =    0.0                 !
 ! D2    D(8,1,2,10)            -0.3548         -DE/DX =    0.0                 !
 ! D3    D(9,1,2,3)              2.0595         -DE/DX =    0.0                 !
 ! D4    D(9,1,2,10)           178.8589         -DE/DX =    0.0                 !
 ! D5    D(1,2,3,4)              0.2249         -DE/DX =    0.0                 !
 ! D6    D(1,2,3,5)           -113.1222         -DE/DX =    0.0                 !
 ! D7    D(1,2,3,7)            132.8674         -DE/DX =    0.0                 !
 ! D8    D(10,2,3,4)          -176.9055         -DE/DX =    0.0                 !
 ! D9    D(10,2,3,5)            69.7475         -DE/DX =    0.0                 !
 ! D10   D(10,2,3,7)           -44.263          -DE/DX =    0.0                 !
 ! D11   D(2,3,5,6)           -113.1237         -DE/DX =    0.0                 !
 ! D12   D(2,3,5,11)            69.7387         -DE/DX =    0.0                 !
 ! D13   D(4,3,5,6)            132.8658         -DE/DX =    0.0                 !
 ! D14   D(4,3,5,11)           -44.2717         -DE/DX =    0.0                 !
 ! D15   D(7,3,5,6)              0.2284         -DE/DX =    0.0                 !
 ! D16   D(7,3,5,11)          -176.9092         -DE/DX =    0.0                 !
 ! D17   D(3,5,6,12)          -177.1548         -DE/DX =    0.0                 !
 ! D18   D(3,5,6,13)             2.0848         -DE/DX =    0.0                 !
 ! D19   D(11,5,6,12)           -0.3473         -DE/DX =    0.0                 !
 ! D20   D(11,5,6,13)          178.8923         -DE/DX =    0.0                 !
 --------------------------------------------------------------------------------
 GradGradGradGradGradGradGradGradGradGradGradGradGradGradGradGradGradGrad

 Leave Link  103 at Mon Oct 14 01:39:03 2019, MaxMem= 10737418240 cpu:               1.0 elap:               0.1
 (Enter /apps/cent7/gaussian/g16-A.03/g16-haswell/g16/l9999.exe)

 ----------------------------------------------------------------------

 Electric dipole moment (input orientation):
 (Debye = 10**-18 statcoulomb cm , SI units = C m)
                  (au)            (Debye)         (10**-30 SI)
   Tot        0.181066D+01      0.460224D+01      0.153514D+02
   x          0.118556D+01      0.301340D+01      0.100516D+02
   y          0.419952D+00      0.106741D+01      0.356050D+01
   z          0.130253D+01      0.331069D+01      0.110433D+02

 Dipole polarizability, Alpha (input orientation).
 (esu units = cm**3 , SI units = C**2 m**2 J**-1)
 Alpha(0;0):
               (au)            (10**-24 esu)      (10**-40 SI)
   iso        0.634435D+02      0.940136D+01      0.104604D+02
   aniso      0.457794D+02      0.678380D+01      0.754800D+01
   xx         0.551824D+02      0.817719D+01      0.909835D+01
   yx        -0.163779D+02     -0.242695D+01     -0.270035D+01
   yy         0.868294D+02      0.128668D+02      0.143162D+02
   zx        -0.196234D+01     -0.290788D+00     -0.323546D+00
   zy         0.213211D+01      0.315946D+00      0.351537D+00
   zz         0.483187D+02      0.716009D+01      0.796667D+01

 ----------------------------------------------------------------------

 Dipole orientation:
     6          4.29533139         -0.88363965          6.69355439
     6          2.72028633          1.06964172          6.56634130
    16          3.34687412          3.63948805          4.45743637
     8          5.70936534          3.09088461          3.09740034
     6          3.97365964          6.21020225          6.56566019
     6          2.39876537          8.16362948          6.69245836
     8          0.98438672          4.18784878          3.09726128
     1          3.89338581         -2.49506584          7.90111459
     1          6.01328789         -0.92191126          5.57049750
     1          0.95433620          1.23516956          7.59974703
     1          5.73955762          6.04481029          7.59917621
     1          2.80116782          9.77523467          7.89963405
     1          0.68030374          8.20150344          5.57018332

 Electric dipole moment (dipole orientation):
 (Debye = 10**-18 statcoulomb cm , SI units = C m)
                  (au)            (Debye)         (10**-30 SI)
   Tot        0.181066D+01      0.460224D+01      0.153514D+02
   x          0.000000D+00      0.000000D+00      0.000000D+00
   y          0.000000D+00      0.000000D+00      0.000000D+00
   z          0.181066D+01      0.460224D+01      0.153514D+02

 Dipole polarizability, Alpha (dipole orientation).
 (esu units = cm**3 , SI units = C**2 m**2 J**-1)
 Alpha(0;0):
               (au)            (10**-24 esu)      (10**-40 SI)
   iso        0.634435D+02      0.940136D+01      0.104604D+02
   aniso      0.457794D+02      0.678380D+01      0.754800D+01
   xx         0.568340D+02      0.842193D+01      0.937066D+01
   yx        -0.168678D+02     -0.249955D+01     -0.278113D+01
   yy         0.862751D+02      0.127846D+02      0.142248D+02
   zx         0.280380D-02      0.415481D-03      0.462285D-03
   zy        -0.340371D-02     -0.504378D-03     -0.561196D-03
   zz         0.472214D+02      0.699749D+01      0.778576D+01

 ----------------------------------------------------------------------
 1\1\GINC-BROWN-A004\Freq\RB3LYP\6-31G(d)\C4H6O2S1\FINEJ\14-Oct-2019\0\
 \#P Geom=AllCheck Guess=TCheck SCRF=Check GenChk RB3LYP/6-31G(d) Freq\
 \Title Card Required\\0,1\C,4.0667634836,0.1677908542,1.168215915\C,3.
 3057390161,1.2270874335,1.4257908577\S,2.7038130697,2.2563249819,0.090
 4788015\O,3.196664706,1.6977556991,-1.1784916982\C,3.5631108984,3.8035
 817799,0.3603326354\C,2.8901514402,4.8941218084,0.714532286\O,1.268452
 946,2.4809082323,0.3239707916\H,4.4008221446,-0.4912652659,1.964945382
 9\H,4.3618460131,-0.0699610864,0.1501454907\H,2.9545811276,1.521313578
 8,2.4107442493\H,4.6304059297,3.7631085695,0.1621989314\H,3.3929436402
 ,5.8496176809,0.8368437942\H,1.8169055849,4.8561157338,0.8780925625\\V
 ersion=ES64L-G16RevA.03\State=1-A\HF=-704.5489194\RMSD=4.873e-09\RMSF=
 1.657e-05\ZeroPoint=0.0956905\Thermal=0.0956905\Dipole=1.1855628,0.419
 952,1.302526\DipoleDeriv=-0.0906424,-0.1143268,0.0113107,-0.0928817,-0
 .0162147,-0.0420638,-0.0676022,0.120265,0.0126393,-0.2817877,-0.067891
 4,-0.0846992,-0.0102187,-0.4228154,0.003847,-0.0875938,0.0175314,-0.12
 36894,1.6299452,0.1771725,0.0860391,-0.1453374,2.0641178,0.0429614,0.1
 901217,-0.2505594,1.6950141,-0.5400631,0.0142569,0.1325926,0.029556,-0
 .7762192,-0.1432122,-0.001329,-0.0772816,-0.9760531,-0.1218602,0.04305
 93,-0.0805507,0.0588516,-0.3788339,0.018949,-0.1013625,0.0721189,-0.32
 72812,0.0467834,-0.1360569,-0.0329239,0.0439626,0.0071464,0.0390259,-0
 .0190705,0.0603185,-0.1483037,-1.0313862,-0.0249412,-0.0581107,0.08257
 19,-0.7095311,0.0386911,0.036192,0.0844279,-0.55139,0.1039751,0.087281
 9,-0.0217175,0.0678688,0.0324109,0.0718892,-0.0258784,0.0631648,0.0156
 517,0.1186427,0.0010707,0.0067848,0.0136722,0.1088939,0.0054592,0.0274
 686,-0.0186881,0.033876,0.0939946,0.0896143,-0.0018071,0.0671132,0.050
 1252,0.0303126,0.0080979,0.0248877,-0.0372657,-0.0183966,-0.027235,0.0
 215443,-0.0364327,-0.0139433,-0.0314117,0.0218372,-0.054818,0.1390834,
 0.0573058,-0.0431892,0.0029186,-0.0506856,-0.0499863,-0.0314444,0.0157
 591,-0.0473284,0.1446741,0.0334893,0.0011847,0.018619,-0.02804,0.10484
 97,-0.0030032,0.0033598,0.0059612,0.1230444\Polar=55.1824267,-16.37786
 59,86.8293929,-1.9623366,2.132108,48.3186749\Quadrupole=-3.0873682,6.0
 133061,-2.9259378,-1.3189899,0.2728243,-1.7889285\PG=C01 [X(C4H6O2S1)]
 \NImag=0\\0.35951748,-0.34477025,0.62224584,-0.07225841,-0.00264463,0.
 65338963,-0.21638399,0.24220071,0.05915695,0.35495006,0.23852367,-0.37
 970154,-0.06774525,-0.31838549,0.54717260,0.06676832,-0.08075873,-0.13
 001227,-0.13929914,0.11185644,0.55001499,-0.00573185,0.01194203,-0.008
 72234,-0.07029027,0.01534622,-0.02225448,0.83150658,0.01160445,-0.0196
 9091,0.01501035,0.01220683,-0.09436778,0.03588764,-0.11574073,0.509330
 48,-0.00705443,0.00998925,0.01122620,-0.01249888,0.03385897,-0.1279539
 0,-0.17777602,0.13296248,0.71417503,-0.00035494,0.00079521,0.00009763,
 0.00723109,0.00179879,-0.00645931,-0.13394410,0.05776104,0.12758850,0.
 11249250,0.00115094,-0.00081426,0.00018248,0.00123669,0.01031255,0.011
 47257,0.06224744,-0.15132136,-0.15785915,-0.06736616,0.13211271,0.0006
 0565,-0.00140388,-0.00151706,0.01265640,-0.01521284,-0.01993854,0.1382
 5397,-0.15255848,-0.43116883,-0.14507607,0.17389697,0.45442486,0.00018
 062,0.00023265,-0.00083428,0.01083982,0.00868335,-0.00049767,-0.100212
 62,-0.04108850,-0.00855301,0.00855296,0.01031690,0.01129635,0.67477399
 ,-0.00003591,-0.00164452,0.00170135,-0.00635551,-0.00774637,-0.0033627
 8,-0.03581030,-0.12757319,-0.00933089,-0.00683573,-0.00297839,-0.00360
 555,-0.17666346,0.60744758,0.00048034,0.00104688,-0.00329977,0.0037447
 4,0.01466194,0.00973488,-0.00151171,-0.00368858,-0.06470961,-0.0068855
 3,-0.02622993,-0.00405911,-0.13661538,0.14399321,0.16980047,0.00037667
 ,-0.00048704,0.00087144,-0.00225049,-0.00216910,-0.00042710,0.01627894
 ,-0.00206950,-0.00087169,-0.00096168,-0.00525067,-0.00456314,-0.235046
 06,0.18665402,0.07423558,0.69230220,-0.00034312,0.00044221,0.00069752,
 -0.00110416,-0.00257096,0.00020330,0.00323473,-0.03037760,-0.00595111,
 0.00003005,-0.00193969,-0.00407582,0.20158651,-0.41016222,-0.11543883,
 -0.06978744,0.77531529,-0.00015811,0.00017420,0.00015591,0.00045727,0.
 00076272,0.00005542,-0.00102827,-0.00584982,-0.00008635,-0.00012311,-0
 .00128659,-0.00043487,0.07585822,-0.11151866,-0.08088999,-0.11073238,0
 .15622667,0.16752492,-0.00126513,0.00194374,-0.00692839,-0.01298450,0.
 00317744,0.01033823,-0.52901562,0.07005704,0.07592378,0.00248654,-0.00
 190516,-0.00754053,-0.01862434,0.00885146,0.00628574,-0.00195637,0.001
 33057,0.00030555,0.56203946,0.00061723,0.00085674,0.00286310,0.0190127
 7,0.00635773,-0.00218371,0.07164557,-0.09401096,-0.01200578,0.01384989
 ,0.01485369,-0.00275806,-0.02269120,0.00757722,-0.00023158,-0.00031574
 ,-0.00093840,-0.00073449,-0.07573662,0.06971266,-0.00035970,-0.0003647
 6,-0.00292839,-0.01848482,0.00522197,0.00814626,0.06329525,-0.01177491
 ,-0.09338261,0.03201513,-0.00605141,0.00832919,-0.00247051,-0.00276541
 ,0.00865657,0.00021497,-0.00032585,0.00021237,-0.07431966,0.01473141,0
 .06724087,-0.07006475,0.05928705,-0.06163357,-0.00129757,0.01375010,-0
 .01323072,0.00828455,0.00842458,0.00328686,0.00022252,-0.00158747,-0.0
 0001433,-0.00192817,0.00124458,-0.00200355,0.00052653,0.00036464,-0.00
 002294,0.00018225,-0.00217067,0.00083749,0.06244803,0.06030275,-0.1541
 7110,0.12795231,0.00899705,-0.01147362,0.02013804,0.00667337,0.0037798
 5,-0.00345465,-0.00103538,0.00034983,0.00083226,-0.00109565,0.00040697
 ,-0.00054494,0.00005290,0.00007156,-0.00002777,0.00221905,-0.00221926,
 0.00149758,-0.07068024,0.15758315,-0.06364501,0.13040018,-0.21699987,0
 .00370123,-0.00596071,0.00889975,0.00277436,-0.00110933,-0.00188155,-0
 .00109175,0.00147089,0.00062096,-0.00019110,-0.00002984,0.00020735,0.0
 0000420,-0.00000479,-0.00002116,0.00048782,-0.00060748,0.00081730,0.06
 758690,-0.14036220,0.22039150,-0.06542186,0.02471291,0.07309541,-0.000
 08511,0.00543842,0.01714507,-0.00567997,-0.00310570,0.00316002,0.00049
 049,-0.00133048,-0.00122434,0.00100333,-0.00060717,0.00044523,-0.00031
 771,-0.00028262,-0.00005851,-0.00072689,0.00134193,-0.00100221,0.00600
 573,-0.00165525,-0.00869019,0.05854425,0.02419322,-0.06501910,-0.05395
 763,0.00880682,-0.00170393,-0.02488449,-0.00137981,-0.00480951,-0.0050
 7267,-0.00177810,0.00182881,0.00115992,0.00079086,-0.00032687,0.000819
 45,-0.00015804,-0.00011137,0.00001452,-0.00115840,0.00114207,0.0003760
 6,-0.00467145,0.00731447,0.01655367,-0.03198313,0.06143767,0.07641639,
 -0.05801295,-0.31246078,0.00285998,-0.00302720,-0.00091024,-0.00143036
 ,0.00090120,0.00053721,-0.00035567,0.00090910,-0.00142895,0.00011852,-
 0.00012163,-0.00034119,-0.00011755,-0.00012033,-0.00001050,-0.00007172
 ,0.00004602,-0.00021030,0.00559052,-0.00532842,-0.01279291,-0.08361923
 ,0.06395779,0.32688537,-0.00103332,0.00432574,0.01712940,-0.07015085,0
 .03390955,0.08823280,0.00367275,-0.00205883,-0.00870393,0.00087036,0.0
 0123666,-0.00371622,-0.00055201,0.00001061,0.00017704,0.00017961,0.000
 14622,-0.00002748,-0.00054381,-0.00006433,0.00131954,-0.00442150,-0.00
 378841,-0.00092915,0.00618325,0.00739765,0.00058403,0.06587983,0.00835
 078,-0.00225879,-0.02476549,0.03294292,-0.06572413,-0.06789247,-0.0055
 0539,0.00577744,0.01403586,0.00098373,-0.00078551,0.00535750,0.0003254
 5,-0.00028896,-0.00085046,-0.00030971,-0.00037588,-0.00031147,0.000598
 92,-0.00084664,-0.00144555,-0.00402339,-0.00144651,-0.00030036,0.00758
 928,0.00026056,0.00091865,-0.04112054,0.06592544,-0.00059724,0.0016525
 2,0.00220455,0.08873342,-0.07300229,-0.29684341,0.00871817,-0.00747538
 ,-0.01402492,-0.00060232,0.00187980,-0.00388958,-0.00056103,0.00040992
 ,0.00049491,0.00024574,0.00053450,0.00023730,-0.00183086,0.00056138,0.
 00276300,-0.00066138,-0.00085162,0.00077824,0.00083210,0.00115476,0.00
 067648,-0.09414336,0.07499307,0.30769351,0.00022109,-0.00025050,0.0002
 3299,0.00031200,-0.00031110,-0.00022516,-0.00962995,0.00371111,0.00373
 207,0.00215486,-0.00003651,-0.00121820,-0.33789538,0.01055679,0.055425
 07,-0.00765790,-0.00221752,0.00180947,-0.00095105,-0.00183197,0.000030
 01,0.00007966,-0.00003949,-0.00002354,-0.00002485,-0.00003591,-0.00002
 847,-0.00004267,-0.00000455,0.00001331,0.35223990,0.00043977,-0.000256
 36,0.00058776,0.00113340,-0.00022521,-0.00044176,-0.02248579,0.0034747
 5,0.00496697,0.00292990,-0.00034962,-0.00083631,0.00553864,-0.05009531
 ,-0.00538801,0.02872806,0.00347489,-0.00523410,-0.00615778,-0.00417482
 ,-0.00044913,-0.00004657,-0.00025967,-0.00006414,-0.00001906,-0.000029
 29,-0.00008137,-0.00004895,-0.00009056,0.00001711,-0.01090566,0.051388
 44,-0.00011582,-0.00004541,0.00007607,-0.00005444,-0.00010022,-0.00043
 325,-0.00412398,-0.00050951,0.00158304,0.00076215,0.00046057,-0.000432
 43,0.05684486,-0.00572231,-0.04472584,0.00825447,0.00017933,0.00309229
 ,-0.00160550,-0.00113776,0.00132021,0.00001583,0.00001382,-0.00002162,
 0.00000437,-0.00000894,0.00003715,0.00011046,0.00010032,-0.00005945,-0
 .06054091,0.00861385,0.03586977,-0.00002638,0.00000588,-0.00006427,0.0
 0030588,0.00010569,-0.00024079,-0.00392396,0.00093209,0.00277994,0.000
 59827,0.00154268,0.00076967,0.01116339,0.01728375,0.00291096,-0.122656
 04,-0.12223385,-0.01270358,0.00150907,-0.00166908,-0.00069200,-0.00003
 408,0.00000557,-0.00000336,0.00004152,-0.00000770,0.00004296,-0.000051
 21,0.00009844,-0.00008783,0.00068937,-0.00010027,-0.00134640,0.1190368
 7,0.00000759,-0.00000212,0.00012323,-0.00009568,0.00007661,0.00030862,
 0.00325262,0.00144573,-0.00263859,-0.00017110,-0.00180322,-0.00131522,
 -0.01311899,-0.01962882,-0.00328386,-0.11921654,-0.27545988,-0.0314105
 3,-0.00069044,0.00028145,0.00047059,0.00000700,-0.00005151,0.00000022,
 -0.00004795,0.00003897,-0.00005539,0.00003839,-0.00016422,0.00011359,0
 .00051533,0.00082709,0.00164422,0.12825459,0.29142733,0.00000863,-0.00
 018187,0.00060543,-0.00123300,-0.00252086,-0.00169708,0.00310870,-0.00
 446607,0.01266290,0.00025511,0.00322639,-0.00001533,-0.00267758,-0.009
 18818,0.00458730,-0.01199705,-0.03019592,-0.04310880,-0.00010995,0.001
 22697,-0.00059740,0.00048161,0.00017056,-0.00001445,-0.00017773,-0.000
 19376,0.00004880,-0.00003140,0.00014342,0.00001366,-0.00135144,0.00186
 739,-0.00660641,0.01195922,0.03639692,0.02995429,-0.00001364,0.0000618
 7,-0.00014255,-0.00019607,0.00013246,0.00014995,-0.00131450,-0.0006338
 7,-0.00101322,0.00016113,-0.00025485,-0.00022921,-0.01225551,0.0017068
 6,0.00331146,-0.33881770,-0.01072402,0.04642386,-0.00014961,-0.0019877
 7,-0.00038349,-0.00000321,0.00004373,0.00001958,-0.00001217,-0.0000160
 1,0.00001059,0.00000956,0.00007405,-0.00005873,0.00050490,0.00099431,0
 .00179492,-0.00665271,0.00126518,0.00176488,0.35873952,-0.00004111,0.0
 0001391,-0.00000508,-0.00059634,-0.00040594,-0.00034267,0.00658003,-0.
 00165695,0.00049930,-0.00096213,0.00053446,0.00051953,0.02718345,0.005
 01287,-0.00486527,-0.01567119,-0.05736795,-0.00080468,-0.00252982,0.00
 140852,0.00087942,0.00010184,0.00011584,0.00001389,-0.00005118,-0.0000
 2247,0.00001455,0.00001622,0.00001777,0.00001264,0.00084998,-0.0036843
 5,-0.00348798,-0.02421779,0.00301258,0.00371500,0.00933805,0.05302170,
 -0.00009062,0.00014920,-0.00043966,0.00026029,0.00120733,0.00093738,0.
 00069672,0.00267040,-0.00697664,-0.00012477,-0.00207169,-0.00049030,0.
 00828260,-0.00045921,0.00454402,0.04488251,-0.00172868,-0.04672654,-0.
 00093453,0.00022997,-0.00036707,-0.00023272,-0.00003496,0.00001646,0.0
 0009002,0.00008132,-0.00003014,-0.00000173,0.00001699,-0.00004428,0.00
 214477,-0.00355826,0.01030047,-0.00332450,-0.00035379,0.00416709,-0.05
 164803,0.00385137,0.03510922\\-0.00000754,0.00000853,0.,-0.00000171,0.
 00000635,0.00001422,-0.00001060,-0.00005683,0.00000042,0.00002353,0.00
 000878,-0.00000571,0.00003893,0.00004400,-0.00000187,-0.00001557,0.000
 00398,-0.00002930,-0.00001659,0.00000525,0.00001958,0.00000960,-0.0000
 0481,-0.00000674,-0.00000577,-0.00000452,-0.00000814,-0.00001511,0.000
 00751,-0.00000617,0.00000096,-0.00001351,0.00000247,0.00000157,-0.0000
 0006,0.00000691,-0.00000170,-0.00000467,0.00001431\\\@


 IT IS THE GODS' CUSTOM TO BRING LOW ALL THINGS OF SURPASSING GREATNESS.
     -- HERODOTUS
 IT IS THE LOFTY PINE THAT BY THE STORM IS OFTENER TOSSED;
 TOWERS FALL WITH HEAVIER CRASH WHICH HIGHER SOAR.
     -- HORACE
 THE BIGGER THEY COME, THE HARDER THEY FALL.
     -- BOB FITZSIMONS HEAVYWEIGHT CHAMPION, 1897-1899
 Job cpu time:       0 days  0 hours  4 minutes 20.6 seconds.
 Elapsed time:       0 days  0 hours  0 minutes 11.4 seconds.
 File lengths (MBytes):  RWF=     30 Int=      0 D2E=      0 Chk=      2 Scr=      1
 Normal termination of Gaussian 16 at Mon Oct 14 01:39:03 2019.
real 59.12
user 1260.56
sys 16.39
Machine:
brown-a004
brown-a004
brown-a004
brown-a004
brown-a004
brown-a004
brown-a004
brown-a004
brown-a004
brown-a004
brown-a004
brown-a004
brown-a004
brown-a004
brown-a004
brown-a004
brown-a004
brown-a004
brown-a004
brown-a004
brown-a004
brown-a004
brown-a004
brown-a004
