 Entering Gaussian System, Link 0=/apps/cent7/gaussian/g16-A.03/g16-haswell/g16/g16
 Initial command:
 /apps/cent7/gaussian/g16-A.03/g16-haswell/g16/l1.exe "/scratch/brown/finej/gaussian/Gau-278582.inp" -scrdir="/scratch/brown/finej/gaussian/"
 Entering Link 1 = /apps/cent7/gaussian/g16-A.03/g16-haswell/g16/l1.exe PID=    278584.
  
 Copyright (c) 1988,1990,1992,1993,1995,1998,2003,2009,2016,
            Gaussian, Inc.  All Rights Reserved.
  
 This is part of the Gaussian(R) 16 program.  It is based on
 the Gaussian(R) 09 system (copyright 2009, Gaussian, Inc.),
 the Gaussian(R) 03 system (copyright 2003, Gaussian, Inc.),
 the Gaussian(R) 98 system (copyright 1998, Gaussian, Inc.),
 the Gaussian(R) 94 system (copyright 1995, Gaussian, Inc.),
 the Gaussian 92(TM) system (copyright 1992, Gaussian, Inc.),
 the Gaussian 90(TM) system (copyright 1990, Gaussian, Inc.),
 the Gaussian 88(TM) system (copyright 1988, Gaussian, Inc.),
 the Gaussian 86(TM) system (copyright 1986, Carnegie Mellon
 University), and the Gaussian 82(TM) system (copyright 1983,
 Carnegie Mellon University). Gaussian is a federally registered
 trademark of Gaussian, Inc.
  
 This software contains proprietary and confidential information,
 including trade secrets, belonging to Gaussian, Inc.
  
 This software is provided under written license and may be
 used, copied, transmitted, or stored only in accord with that
 written license.
  
 The following legend is applicable only to US Government
 contracts under FAR:
  
                    RESTRICTED RIGHTS LEGEND
  
 Use, reproduction and disclosure by the US Government is
 subject to restrictions as set forth in subparagraphs (a)
 and (c) of the Commercial Computer Software - Restricted
 Rights clause in FAR 52.227-19.
  
 Gaussian, Inc.
 340 Quinnipiac St., Bldg. 40, Wallingford CT 06492
  
  
 ---------------------------------------------------------------
 Warning -- This program may not be used in any manner that
 competes with the business of Gaussian, Inc. or will provide
 assistance to any competitor of Gaussian, Inc.  The licensee
 of this program is prohibited from giving any competitor of
 Gaussian, Inc. access to this program.  By using this program,
 the user acknowledges that Gaussian, Inc. is engaged in the
 business of creating and licensing software in the field of
 computational chemistry and represents and warrants to the
 licensee that it is not a competitor of Gaussian, Inc. and that
 it will not use this program in any manner prohibited above.
 ---------------------------------------------------------------
  

 Cite this work as:
 Gaussian 16, Revision A.03,
 M. J. Frisch, G. W. Trucks, H. B. Schlegel, G. E. Scuseria, 
 M. A. Robb, J. R. Cheeseman, G. Scalmani, V. Barone, 
 G. A. Petersson, H. Nakatsuji, X. Li, M. Caricato, A. V. Marenich, 
 J. Bloino, B. G. Janesko, R. Gomperts, B. Mennucci, H. P. Hratchian, 
 J. V. Ortiz, A. F. Izmaylov, J. L. Sonnenberg, D. Williams-Young, 
 F. Ding, F. Lipparini, F. Egidi, J. Goings, B. Peng, A. Petrone, 
 T. Henderson, D. Ranasinghe, V. G. Zakrzewski, J. Gao, N. Rega, 
 G. Zheng, W. Liang, M. Hada, M. Ehara, K. Toyota, R. Fukuda, 
 J. Hasegawa, M. Ishida, T. Nakajima, Y. Honda, O. Kitao, H. Nakai, 
 T. Vreven, K. Throssell, J. A. Montgomery, Jr., J. E. Peralta, 
 F. Ogliaro, M. J. Bearpark, J. J. Heyd, E. N. Brothers, K. N. Kudin, 
 V. N. Staroverov, T. A. Keith, R. Kobayashi, J. Normand, 
 K. Raghavachari, A. P. Rendell, J. C. Burant, S. S. Iyengar, 
 J. Tomasi, M. Cossi, J. M. Millam, M. Klene, C. Adamo, R. Cammi, 
 J. W. Ochterski, R. L. Martin, K. Morokuma, O. Farkas, 
 J. B. Foresman, and D. J. Fox, Gaussian, Inc., Wallingford CT, 2016.
 
 ******************************************
 Gaussian 16:  ES64L-G16RevA.03 25-Dec-2016
                14-Oct-2019 
 ******************************************
 %chk=28_p.chk
 %nprocshared=24
 Will use up to   24 processors via shared memory.
 %mem=80GB
 --------------------------------------------------------------
 #P opt freq b3lyp/6-31g(d) geom=connectivity temperature=0.001
 --------------------------------------------------------------
 1/18=20,19=15,26=3,38=1,57=2,112=-1000/1,3;
 2/9=110,12=2,17=6,18=5,40=1/2;
 3/5=1,6=6,7=1,11=2,25=1,30=1,71=1,74=-5/1,2,3;
 4//1;
 5/5=2,38=5/2;
 6/7=2,8=2,9=2,10=2,28=1/1;
 7//1,2,3,16;
 1/18=20,19=15,26=3/3(2);
 2/9=110/2;
 99//99;
 2/9=110/2;
 3/5=1,6=6,7=1,11=2,25=1,30=1,71=1,74=-5/1,2,3;
 4/5=5,16=3,69=1/1;
 5/5=2,38=5/2;
 7//1,2,3,16;
 1/18=20,19=15,26=3/3(-5);
 2/9=110/2;
 6/7=2,8=2,9=2,10=2,19=2,28=1/1;
 99/9=1/99;
 Leave Link    1 at Mon Oct 14 01:38:10 2019, MaxMem= 10737418240 cpu:               0.9 elap:               0.0
 (Enter /apps/cent7/gaussian/g16-A.03/g16-haswell/g16/l101.exe)
 -------------------
 Title Card Required
 -------------------
 Symbolic Z-matrix:
 Charge =  1 Multiplicity = 1
 C                     4.1742    0.5731    1.4406 
 C                     3.0409    1.2787    1.3893 
 S                     2.5625    2.1726   -0.0341 
 O                     2.9124    1.3333   -1.3604 
 C                     3.3809    3.7157   -0.0811 
 C                     3.2391    4.6176    0.8945 
 O                     0.9724    2.4106   -0.0107 
 H                     4.1376   -0.5161    1.4616 
 H                     5.1354    1.0866    1.4616 
 H                     2.5748    1.1447    2.3654 
 H                     4.0595    4.1689   -0.8037 
 H                     4.1154    4.9854    1.4282 
 H                     2.2471    4.9854    1.1566 
 H                     0.62139   3.29984   0.07673 
 
 ITRead=  0  0  0  0  0  0  0  0  0  0  0  0  0  0
 MicOpt= -1 -1 -1 -1 -1 -1 -1 -1 -1 -1 -1 -1 -1 -1
 NAtoms=     14 NQM=       14 NQMF=       0 NMMI=      0 NMMIF=      0
                NMic=       0 NMicF=      0.
                    Isotopes and Nuclear Properties:
 (Nuclear quadrupole moments (NQMom) in fm**2, nuclear magnetic moments (NMagM)
  in nuclear magnetons)

  Atom         1           2           3           4           5           6           7           8           9          10
 IAtWgt=          12          12          32          16          12          12          16           1           1           1
 AtmWgt=  12.0000000  12.0000000  31.9720718  15.9949146  12.0000000  12.0000000  15.9949146   1.0078250   1.0078250   1.0078250
 NucSpn=           0           0           0           0           0           0           0           1           1           1
 AtZEff=  -0.0000000  -0.0000000  -0.0000000  -0.0000000  -0.0000000  -0.0000000  -0.0000000  -0.0000000  -0.0000000  -0.0000000
 NQMom=    0.0000000   0.0000000   0.0000000   0.0000000   0.0000000   0.0000000   0.0000000   0.0000000   0.0000000   0.0000000
 NMagM=    0.0000000   0.0000000   0.0000000   0.0000000   0.0000000   0.0000000   0.0000000   2.7928460   2.7928460   2.7928460
 AtZNuc=   6.0000000   6.0000000  16.0000000   8.0000000   6.0000000   6.0000000   8.0000000   1.0000000   1.0000000   1.0000000

  Atom        11          12          13          14
 IAtWgt=           1           1           1           1
 AtmWgt=   1.0078250   1.0078250   1.0078250   1.0078250
 NucSpn=           1           1           1           1
 AtZEff=  -0.0000000  -0.0000000  -0.0000000  -0.0000000
 NQMom=    0.0000000   0.0000000   0.0000000   0.0000000
 NMagM=    2.7928460   2.7928460   2.7928460   2.7928460
 AtZNuc=   1.0000000   1.0000000   1.0000000   1.0000000
 Leave Link  101 at Mon Oct 14 01:38:11 2019, MaxMem= 10737418240 cpu:               8.6 elap:               0.4
 (Enter /apps/cent7/gaussian/g16-A.03/g16-haswell/g16/l103.exe)

 GradGradGradGradGradGradGradGradGradGradGradGradGradGradGradGradGradGrad
 Berny optimization.
 Initialization pass.
                           ----------------------------
                           !    Initial Parameters    !
                           ! (Angstroms and Degrees)  !
 --------------------------                            --------------------------
 ! Name  Definition              Value          Derivative Info.                !
 --------------------------------------------------------------------------------
 ! R1    R(1,2)                  1.336          estimate D2E/DX2                !
 ! R2    R(1,8)                  1.09           estimate D2E/DX2                !
 ! R3    R(1,9)                  1.09           estimate D2E/DX2                !
 ! R4    R(2,3)                  1.7476         estimate D2E/DX2                !
 ! R5    R(2,10)                 1.0899         estimate D2E/DX2                !
 ! R6    R(3,4)                  1.6081         estimate D2E/DX2                !
 ! R7    R(3,5)                  1.7473         estimate D2E/DX2                !
 ! R8    R(3,7)                  1.608          estimate D2E/DX2                !
 ! R9    R(5,6)                  1.3362         estimate D2E/DX2                !
 ! R10   R(5,11)                 1.09           estimate D2E/DX2                !
 ! R11   R(6,12)                 1.09           estimate D2E/DX2                !
 ! R12   R(6,13)                 1.09           estimate D2E/DX2                !
 ! R13   R(7,14)                 0.96           estimate D2E/DX2                !
 ! A1    A(2,1,8)              120.0005         estimate D2E/DX2                !
 ! A2    A(2,1,9)              119.9994         estimate D2E/DX2                !
 ! A3    A(8,1,9)              120.0001         estimate D2E/DX2                !
 ! A4    A(1,2,3)              122.2523         estimate D2E/DX2                !
 ! A5    A(1,2,10)             105.2742         estimate D2E/DX2                !
 ! A6    A(3,2,10)             132.4735         estimate D2E/DX2                !
 ! A7    A(2,3,4)              110.1966         estimate D2E/DX2                !
 ! A8    A(2,3,5)              110.2073         estimate D2E/DX2                !
 ! A9    A(2,3,7)              109.546          estimate D2E/DX2                !
 ! A10   A(4,3,5)              109.6837         estimate D2E/DX2                !
 ! A11   A(4,3,7)              107.7234         estimate D2E/DX2                !
 ! A12   A(5,3,7)              109.4414         estimate D2E/DX2                !
 ! A13   A(3,5,6)              121.7865         estimate D2E/DX2                !
 ! A14   A(3,5,11)             132.5807         estimate D2E/DX2                !
 ! A15   A(6,5,11)             105.6328         estimate D2E/DX2                !
 ! A16   A(5,6,12)             119.998          estimate D2E/DX2                !
 ! A17   A(5,6,13)             119.9955         estimate D2E/DX2                !
 ! A18   A(12,6,13)            120.0065         estimate D2E/DX2                !
 ! A19   A(3,7,14)             120.0            estimate D2E/DX2                !
 ! D1    D(8,1,2,3)           -110.0253         estimate D2E/DX2                !
 ! D2    D(8,1,2,10)            69.9672         estimate D2E/DX2                !
 ! D3    D(9,1,2,3)             69.9836         estimate D2E/DX2                !
 ! D4    D(9,1,2,10)          -110.024          estimate D2E/DX2                !
 ! D5    D(1,2,3,4)             39.4596         estimate D2E/DX2                !
 ! D6    D(1,2,3,5)            -81.7274         estimate D2E/DX2                !
 ! D7    D(1,2,3,7)            157.806          estimate D2E/DX2                !
 ! D8    D(10,2,3,4)          -140.5305         estimate D2E/DX2                !
 ! D9    D(10,2,3,5)            98.2825         estimate D2E/DX2                !
 ! D10   D(10,2,3,7)           -22.1841         estimate D2E/DX2                !
 ! D11   D(2,3,5,6)            -59.7098         estimate D2E/DX2                !
 ! D12   D(2,3,5,11)           120.2881         estimate D2E/DX2                !
 ! D13   D(4,3,5,6)            178.7976         estimate D2E/DX2                !
 ! D14   D(4,3,5,11)            -1.2045         estimate D2E/DX2                !
 ! D15   D(7,3,5,6)             60.8197         estimate D2E/DX2                !
 ! D16   D(7,3,5,11)          -119.1824         estimate D2E/DX2                !
 ! D17   D(2,3,7,14)           114.0381         estimate D2E/DX2                !
 ! D18   D(4,3,7,14)          -126.0894         estimate D2E/DX2                !
 ! D19   D(5,3,7,14)            -6.8935         estimate D2E/DX2                !
 ! D20   D(3,5,6,12)           122.7307         estimate D2E/DX2                !
 ! D21   D(3,5,6,13)           -57.2654         estimate D2E/DX2                !
 ! D22   D(11,5,6,12)          -57.2676         estimate D2E/DX2                !
 ! D23   D(11,5,6,13)          122.7363         estimate D2E/DX2                !
 --------------------------------------------------------------------------------
 Trust Radius=3.00D-01 FncErr=1.00D-07 GrdErr=1.00D-06 EigMax=2.50D+02 EigMin=1.00D-04
 Number of steps in this run=     65 maximum allowed number of steps=    100.
 GradGradGradGradGradGradGradGradGradGradGradGradGradGradGradGradGradGrad

 Leave Link  103 at Mon Oct 14 01:38:11 2019, MaxMem= 10737418240 cpu:               0.2 elap:               0.0
 (Enter /apps/cent7/gaussian/g16-A.03/g16-haswell/g16/l202.exe)
                          Input orientation:                          
 ---------------------------------------------------------------------
 Center     Atomic      Atomic             Coordinates (Angstroms)
 Number     Number       Type             X           Y           Z
 ---------------------------------------------------------------------
      1          6           0        4.174200    0.573100    1.440600
      2          6           0        3.040900    1.278700    1.389300
      3         16           0        2.562500    2.172600   -0.034100
      4          8           0        2.912400    1.333300   -1.360400
      5          6           0        3.380900    3.715700   -0.081100
      6          6           0        3.239100    4.617600    0.894500
      7          8           0        0.972400    2.410600   -0.010700
      8          1           0        4.137600   -0.516100    1.461600
      9          1           0        5.135400    1.086600    1.461600
     10          1           0        2.574800    1.144700    2.365400
     11          1           0        4.059500    4.168900   -0.803700
     12          1           0        4.115400    4.985400    1.428200
     13          1           0        2.247100    4.985400    1.156600
     14          1           0        0.621386    3.299839    0.076729
 ---------------------------------------------------------------------
                    Distance matrix (angstroms):
                    1          2          3          4          5
     1  C    0.000000
     2  C    1.335991   0.000000
     3  S    2.707530   1.747567   0.000000
     4  O    3.164750   2.753242   1.608082   0.000000
     5  C    3.580619   2.866469   1.747325   2.744436   0.000000
     6  C    4.186958   3.381178   2.701502   3.997241   1.336161
     7  O    3.966636   2.742242   1.607983   2.597280   2.740276
     8  H    1.090017   2.104587   3.456467   3.589579   4.567346
     9  H    1.089967   2.104533   3.168017   3.600871   3.517152
    10  H    1.933924   1.089943   2.610427   3.745815   3.639396
    11  H    4.240261   3.768296   2.611227   3.109080   1.089972
    12  H    4.412709   3.859493   3.530108   4.749877   2.104665
    13  H    4.823149   3.797880   3.070682   4.485058   2.104648
    14  H    4.681638   3.414951   2.247415   3.343854   2.795133
                    6          7          8          9         10
     6  C    0.000000
     7  O    3.290618   0.000000
     8  H    5.242498   4.555407   0.000000
     9  H    4.047903   4.609904   1.887923   0.000000
    10  H    3.829605   3.133056   2.453050   2.716045   0.000000
    11  H    1.938626   3.640145   5.204508   3.973628   4.625291
    12  H    1.089961   4.310276   5.501646   4.030156   4.242967
    13  H    1.089971   3.101136   5.825248   4.861681   4.039748
    14  H    3.042642   0.960000   5.370569   5.214654   3.701143
                   11         12         13         14
    11  H    0.000000
    12  H    2.377220   0.000000
    13  H    2.791817   1.887938   0.000000
    14  H    3.653909   4.108007   2.578795   0.000000
 Stoichiometry    C4H7O2S(1+)
 Framework group  C1[X(C4H7O2S)]
 Deg. of freedom    36
 Full point group                 C1      NOp   1
 Largest Abelian subgroup         C1      NOp   1
 Largest concise Abelian subgroup C1      NOp   1
                         Standard orientation:                         
 ---------------------------------------------------------------------
 Center     Atomic      Atomic             Coordinates (Angstroms)
 Number     Number       Type             X           Y           Z
 ---------------------------------------------------------------------
      1          6           0       -2.183715    1.177444   -0.063717
      2          6           0       -1.208056    0.565465   -0.740801
      3         16           0       -0.003913   -0.424575    0.049042
      4          8           0       -0.681377   -1.294903    1.219297
      5          6           0        1.258965    0.580313    0.718731
      6          6           0        1.997980    1.386778   -0.048601
      7          8           0        0.633851   -1.447494   -1.015151
      8          1           0       -3.214366    0.837842   -0.166504
      9          1           0       -1.949111    2.016413    0.591357
     10          1           0       -1.370586    0.834253   -1.784503
     11          1           0        1.629221    0.720624    1.734241
     12          1           0        2.033785    2.455878    0.160584
     13          1           0        2.564922    0.975466   -0.883728
     14          1           0        1.557911   -1.368099   -1.262958
 ---------------------------------------------------------------------
 Rotational constants (GHZ):           2.6530028           2.0236247           1.5997282
 Leave Link  202 at Mon Oct 14 01:38:11 2019, MaxMem= 10737418240 cpu:               0.3 elap:               0.0
 (Enter /apps/cent7/gaussian/g16-A.03/g16-haswell/g16/l301.exe)
 Standard basis: 6-31G(d) (6D, 7F)
 Ernie: Thresh=  0.10000D-02 Tol=  0.10000D-05 Strict=F.
 There are   123 symmetry adapted cartesian basis functions of A   symmetry.
 There are   123 symmetry adapted basis functions of A   symmetry.
   123 basis functions,   248 primitive gaussians,   123 cartesian basis functions
    31 alpha electrons       31 beta electrons
       nuclear repulsion energy       391.9113586833 Hartrees.
 IExCor=  402 DFT=T Ex+Corr=B3LYP ExCW=0 ScaHFX=  0.200000
 ScaDFX=  0.800000  0.720000  1.000000  0.810000 ScalE2=  1.000000  1.000000
 IRadAn=      5 IRanWt=     -1 IRanGd=            0 ICorTp=0 IEmpDi=  4
 NAtoms=   14 NActive=   14 NUniq=   14 SFac= 1.00D+00 NAtFMM=   60 NAOKFM=F Big=F
 Integral buffers will be    131072 words long.
 Raffenetti 2 integral format.
 Two-electron integral symmetry is turned on.
 Leave Link  301 at Mon Oct 14 01:38:11 2019, MaxMem= 10737418240 cpu:               1.3 elap:               0.1
 (Enter /apps/cent7/gaussian/g16-A.03/g16-haswell/g16/l302.exe)
 NPDir=0 NMtPBC=     1 NCelOv=     1 NCel=       1 NClECP=     1 NCelD=      1
         NCelK=      1 NCelE2=     1 NClLst=     1 CellRange=     0.0.
 One-electron integrals computed using PRISM.
 One-electron integral symmetry used in STVInt
 NBasis=   123 RedAO= T EigKep=  3.88D-03  NBF=   123
 NBsUse=   123 1.00D-06 EigRej= -1.00D+00 NBFU=   123
 Precomputing XC quadrature grid using
 IXCGrd= 4 IRadAn=           5 IRanWt=          -1 IRanGd=           0 AccXCQ= 0.00D+00.
 Generated NRdTot=       0 NPtTot=           0 NUsed=           0 NTot=          32
 NSgBfM=   123   123   123   123   123 MxSgAt=    14 MxSgA2=    14.
 Leave Link  302 at Mon Oct 14 01:38:11 2019, MaxMem= 10737418240 cpu:               3.1 elap:               0.2
 (Enter /apps/cent7/gaussian/g16-A.03/g16-haswell/g16/l303.exe)
 DipDrv:  MaxL=1.
 Leave Link  303 at Mon Oct 14 01:38:11 2019, MaxMem= 10737418240 cpu:               0.6 elap:               0.0
 (Enter /apps/cent7/gaussian/g16-A.03/g16-haswell/g16/l401.exe)
 ExpMin= 1.17D-01 ExpMax= 2.19D+04 ExpMxC= 3.30D+03 IAcc=3 IRadAn=         5 AccDes= 0.00D+00
 Harris functional with IExCor=  402 and IRadAn=       5 diagonalized for initial guess.
 HarFok:  IExCor=  402 AccDes= 0.00D+00 IRadAn=         5 IDoV= 1 UseB2=F ITyADJ=14
 ICtDFT=  3500011 ScaDFX=  1.000000  1.000000  1.000000  1.000000
 FoFCou: FMM=F IPFlag=           0 FMFlag=      100000 FMFlg1=           0
         NFxFlg=           0 DoJE=T BraDBF=F KetDBF=T FulRan=T
         wScrn=  0.000000 ICntrl=       500 IOpCl=  0 I1Cent=   200000004 NGrid=           0
         NMat0=    1 NMatS0=      1 NMatT0=    0 NMatD0=    1 NMtDS0=    0 NMtDT0=    0
 Petite list used in FoFCou.
 Harris En= -704.807364801243    
 JPrj=0 DoOrth=F DoCkMO=F.
 Leave Link  401 at Mon Oct 14 01:38:11 2019, MaxMem= 10737418240 cpu:               5.8 elap:               0.3
 (Enter /apps/cent7/gaussian/g16-A.03/g16-haswell/g16/l502.exe)
 Integral symmetry usage will be decided dynamically.
 Closed shell SCF:
 Using DIIS extrapolation, IDIIS=  1040.
 NGot= 10737418240 LenX= 10737383520 LenY= 10737367950
 Requested convergence on RMS density matrix=1.00D-08 within 128 cycles.
 Requested convergence on MAX density matrix=1.00D-06.
 Requested convergence on             energy=1.00D-06.
 No special actions if energy rises.
 Fock matrices will be formed incrementally for  20 cycles.
 Integral accuracy reduced to 1.0D-05 until final iterations.

 Cycle   1  Pass 0  IDiag  1:
 FoFJK:  IHMeth= 1 ICntrl=       0 DoSepK=F KAlg= 0 I1Cent=           0 FoldK=F
 IRaf= 970000000 NMat=       1 IRICut=       1 DoRegI=T DoRafI=F ISym2E= 0 IDoP0=0 IntGTp=1.
 FoFCou: FMM=F IPFlag=           0 FMFlag=      100000 FMFlg1=           0
         NFxFlg=           0 DoJE=F BraDBF=F KetDBF=F FulRan=T
         wScrn=  0.000000 ICntrl=         0 IOpCl=  0 I1Cent=           0 NGrid=           0
         NMat0=    1 NMatS0=      1 NMatT0=    0 NMatD0=    1 NMtDS0=    0 NMtDT0=    0
 Symmetry not used in FoFCou.
 E= -704.263759171760    
 DIIS: error= 4.23D-02 at cycle   1 NSaved=   1.
 NSaved= 1 IEnMin= 1 EnMin= -704.263759171760     IErMin= 1 ErrMin= 4.23D-02
 ErrMax= 4.23D-02  0.00D+00 EMaxC= 1.00D-01 BMatC= 4.36D-01 BMatP= 4.36D-01
 IDIUse=3 WtCom= 5.77D-01 WtEn= 4.23D-01
 Coeff-Com:  0.100D+01
 Coeff-En:   0.100D+01
 Coeff:      0.100D+01
 Gap=     0.124 Goal=   None    Shift=    0.000
 GapD=    0.124 DampG=1.000 DampE=0.500 DampFc=0.5000 IDamp=-1.
 Damping current iteration by 5.00D-01
 RMSDP=1.97D-02 MaxDP=7.67D-01              OVMax= 4.53D-01

 Cycle   2  Pass 0  IDiag  1:
 RMSU=  9.85D-03    CP:  1.01D+00
 E= -704.033942724420     Delta-E=        0.229816447341 Rises=F Damp=T
 DIIS: error= 3.93D-02 at cycle   2 NSaved=   2.
 NSaved= 2 IEnMin= 1 EnMin= -704.263759171760     IErMin= 2 ErrMin= 3.93D-02
 ErrMax= 3.93D-02  0.00D+00 EMaxC= 1.00D-01 BMatC= 2.89D-01 BMatP= 4.36D-01
 IDIUse=3 WtCom= 6.07D-01 WtEn= 3.93D-01
 Coeff-Com:  0.438D+00 0.562D+00
 Coeff-En:   0.637D+00 0.363D+00
 Coeff:      0.516D+00 0.484D+00
 Gap=     0.166 Goal=   None    Shift=    0.000
 RMSDP=7.27D-03 MaxDP=1.19D-01 DE= 2.30D-01 OVMax= 4.07D-01

 Cycle   3  Pass 0  IDiag  1:
 RMSU=  4.95D-03    CP:  1.00D+00  4.61D-01
 E= -704.526385496947     Delta-E=       -0.492442772527 Rises=F Damp=F
 DIIS: error= 2.10D-02 at cycle   3 NSaved=   3.
 NSaved= 3 IEnMin= 3 EnMin= -704.526385496947     IErMin= 3 ErrMin= 2.10D-02
 ErrMax= 2.10D-02  0.00D+00 EMaxC= 1.00D-01 BMatC= 1.43D-01 BMatP= 2.89D-01
 IDIUse=3 WtCom= 7.90D-01 WtEn= 2.10D-01
 Coeff-Com:  0.268D+00 0.345D+00 0.387D+00
 Coeff-En:   0.169D+00 0.000D+00 0.831D+00
 Coeff:      0.247D+00 0.272D+00 0.480D+00
 Gap=     0.124 Goal=   None    Shift=    0.000
 RMSDP=4.69D-03 MaxDP=7.69D-02 DE=-4.92D-01 OVMax= 1.89D-01

 Cycle   4  Pass 0  IDiag  1:
 RMSU=  2.56D-03    CP:  1.01D+00  5.20D-01  2.17D-01
 E= -704.628336487673     Delta-E=       -0.101950990726 Rises=F Damp=F
 DIIS: error= 1.30D-02 at cycle   4 NSaved=   4.
 NSaved= 4 IEnMin= 4 EnMin= -704.628336487673     IErMin= 4 ErrMin= 1.30D-02
 ErrMax= 1.30D-02  0.00D+00 EMaxC= 1.00D-01 BMatC= 3.92D-02 BMatP= 1.43D-01
 IDIUse=3 WtCom= 8.70D-01 WtEn= 1.30D-01
 Coeff-Com:  0.104D+00 0.662D-01 0.324D+00 0.506D+00
 Coeff-En:   0.000D+00 0.000D+00 0.240D+00 0.760D+00
 Coeff:      0.903D-01 0.576D-01 0.313D+00 0.539D+00
 Gap=     0.124 Goal=   None    Shift=    0.000
 RMSDP=2.07D-03 MaxDP=4.02D-02 DE=-1.02D-01 OVMax= 7.47D-02

 Cycle   5  Pass 0  IDiag  1:
 RMSU=  9.45D-04    CP:  1.01D+00  4.52D-01  4.74D-01  5.50D-01
 E= -704.658136939426     Delta-E=       -0.029800451753 Rises=F Damp=F
 DIIS: error= 3.91D-03 at cycle   5 NSaved=   5.
 NSaved= 5 IEnMin= 5 EnMin= -704.658136939426     IErMin= 5 ErrMin= 3.91D-03
 ErrMax= 3.91D-03  0.00D+00 EMaxC= 1.00D-01 BMatC= 4.93D-03 BMatP= 3.92D-02
 IDIUse=3 WtCom= 9.61D-01 WtEn= 3.91D-02
 Coeff-Com:  0.126D-01-0.186D-01 0.136D+00 0.377D+00 0.493D+00
 Coeff-En:   0.000D+00 0.000D+00 0.000D+00 0.143D+00 0.857D+00
 Coeff:      0.121D-01-0.178D-01 0.130D+00 0.368D+00 0.508D+00
 Gap=     0.113 Goal=   None    Shift=    0.000
 RMSDP=6.95D-04 MaxDP=1.31D-02 DE=-2.98D-02 OVMax= 4.12D-02

 Cycle   6  Pass 0  IDiag  1:
 RMSU=  2.81D-04    CP:  1.01D+00  4.68D-01  4.39D-01  6.77D-01  4.80D-01
 E= -704.662777135666     Delta-E=       -0.004640196240 Rises=F Damp=F
 DIIS: error= 1.12D-03 at cycle   6 NSaved=   6.
 NSaved= 6 IEnMin= 6 EnMin= -704.662777135666     IErMin= 6 ErrMin= 1.12D-03
 ErrMax= 1.12D-03  0.00D+00 EMaxC= 1.00D-01 BMatC= 3.11D-04 BMatP= 4.93D-03
 IDIUse=3 WtCom= 9.89D-01 WtEn= 1.12D-02
 Coeff-Com:  0.861D-03-0.108D-01 0.361D-01 0.114D+00 0.267D+00 0.593D+00
 Coeff-En:   0.000D+00 0.000D+00 0.000D+00 0.000D+00 0.450D-01 0.955D+00
 Coeff:      0.852D-03-0.107D-01 0.357D-01 0.113D+00 0.264D+00 0.597D+00
 Gap=     0.114 Goal=   None    Shift=    0.000
 RMSDP=1.73D-04 MaxDP=5.32D-03 DE=-4.64D-03 OVMax= 1.22D-02

 Cycle   7  Pass 0  IDiag  1:
 RMSU=  9.96D-05    CP:  1.01D+00  4.64D-01  4.44D-01  6.67D-01  5.66D-01
                    CP:  6.43D-01
 E= -704.663077265168     Delta-E=       -0.000300129502 Rises=F Damp=F
 DIIS: error= 3.50D-04 at cycle   7 NSaved=   7.
 NSaved= 7 IEnMin= 7 EnMin= -704.663077265168     IErMin= 7 ErrMin= 3.50D-04
 ErrMax= 3.50D-04  0.00D+00 EMaxC= 1.00D-01 BMatC= 3.47D-05 BMatP= 3.11D-04
 IDIUse=3 WtCom= 9.96D-01 WtEn= 3.50D-03
 Coeff-Com:  0.207D-03-0.361D-02 0.452D-02 0.122D-01 0.809D-01 0.326D+00
 Coeff-Com:  0.580D+00
 Coeff-En:   0.000D+00 0.000D+00 0.000D+00 0.000D+00 0.000D+00 0.000D+00
 Coeff-En:   0.100D+01
 Coeff:      0.206D-03-0.359D-02 0.450D-02 0.121D-01 0.806D-01 0.324D+00
 Coeff:      0.582D+00
 Gap=     0.114 Goal=   None    Shift=    0.000
 RMSDP=6.27D-05 MaxDP=1.27D-03 DE=-3.00D-04 OVMax= 3.15D-03

 Cycle   8  Pass 0  IDiag  1:
 RMSU=  4.37D-05    CP:  1.01D+00  4.62D-01  4.44D-01  6.65D-01  5.69D-01
                    CP:  7.28D-01  6.61D-01
 E= -704.663104704965     Delta-E=       -0.000027439797 Rises=F Damp=F
 DIIS: error= 1.32D-04 at cycle   8 NSaved=   8.
 NSaved= 8 IEnMin= 8 EnMin= -704.663104704965     IErMin= 8 ErrMin= 1.32D-04
 ErrMax= 1.32D-04  0.00D+00 EMaxC= 1.00D-01 BMatC= 6.89D-06 BMatP= 3.47D-05
 IDIUse=3 WtCom= 9.99D-01 WtEn= 1.32D-03
 Coeff-Com:  0.224D-03-0.107D-02-0.141D-02-0.627D-02 0.210D-01 0.146D+00
 Coeff-Com:  0.382D+00 0.460D+00
 Coeff-En:   0.000D+00 0.000D+00 0.000D+00 0.000D+00 0.000D+00 0.000D+00
 Coeff-En:   0.130D+00 0.870D+00
 Coeff:      0.223D-03-0.107D-02-0.141D-02-0.626D-02 0.210D-01 0.146D+00
 Coeff:      0.381D+00 0.460D+00
 Gap=     0.114 Goal=   None    Shift=    0.000
 RMSDP=2.54D-05 MaxDP=4.45D-04 DE=-2.74D-05 OVMax= 1.47D-03

 Cycle   9  Pass 0  IDiag  1:
 RMSU=  1.14D-05    CP:  1.01D+00  4.62D-01  4.45D-01  6.63D-01  5.73D-01
                    CP:  7.35D-01  7.40D-01  5.63D-01
 E= -704.663111124900     Delta-E=       -0.000006419935 Rises=F Damp=F
 DIIS: error= 3.58D-05 at cycle   9 NSaved=   9.
 NSaved= 9 IEnMin= 9 EnMin= -704.663111124900     IErMin= 9 ErrMin= 3.58D-05
 ErrMax= 3.58D-05  0.00D+00 EMaxC= 1.00D-01 BMatC= 3.11D-07 BMatP= 6.89D-06
 IDIUse=1 WtCom= 1.00D+00 WtEn= 0.00D+00
 Coeff-Com:  0.817D-04-0.407D-03-0.114D-02-0.402D-02 0.661D-02 0.638D-01
 Coeff-Com:  0.177D+00 0.256D+00 0.502D+00
 Coeff:      0.817D-04-0.407D-03-0.114D-02-0.402D-02 0.661D-02 0.638D-01
 Coeff:      0.177D+00 0.256D+00 0.502D+00
 Gap=     0.114 Goal=   None    Shift=    0.000
 RMSDP=6.15D-06 MaxDP=1.27D-04 DE=-6.42D-06 OVMax= 4.69D-04

 Initial convergence to 1.0D-05 achieved.  Increase integral accuracy.
 Cycle  10  Pass 1  IDiag  1:
 E= -704.663132913949     Delta-E=       -0.000021789049 Rises=F Damp=F
 DIIS: error= 1.54D-05 at cycle   1 NSaved=   1.
 NSaved= 1 IEnMin= 1 EnMin= -704.663132913949     IErMin= 1 ErrMin= 1.54D-05
 ErrMax= 1.54D-05  0.00D+00 EMaxC= 1.00D-01 BMatC= 8.41D-08 BMatP= 8.41D-08
 IDIUse=1 WtCom= 1.00D+00 WtEn= 0.00D+00
 Coeff-Com:  0.100D+01
 Coeff:      0.100D+01
 Gap=     0.114 Goal=   None    Shift=    0.000
 RMSDP=6.15D-06 MaxDP=1.27D-04 DE=-2.18D-05 OVMax= 4.12D-04

 Cycle  11  Pass 1  IDiag  1:
 RMSU=  8.80D-06    CP:  1.00D+00
 E= -704.663132600624     Delta-E=        0.000000313325 Rises=F Damp=F
 DIIS: error= 3.90D-05 at cycle   2 NSaved=   2.
 NSaved= 2 IEnMin= 1 EnMin= -704.663132913949     IErMin= 1 ErrMin= 1.54D-05
 ErrMax= 3.90D-05  0.00D+00 EMaxC= 1.00D-01 BMatC= 3.97D-07 BMatP= 8.41D-08
 IDIUse=1 WtCom= 1.00D+00 WtEn= 0.00D+00
 Coeff-Com:  0.690D+00 0.310D+00
 Coeff:      0.690D+00 0.310D+00
 Gap=     0.114 Goal=   None    Shift=    0.000
 RMSDP=5.69D-06 MaxDP=1.13D-04 DE= 3.13D-07 OVMax= 2.90D-04

 Cycle  12  Pass 1  IDiag  1:
 RMSU=  2.64D-06    CP:  1.00D+00  4.30D-01
 E= -704.663132999416     Delta-E=       -0.000000398792 Rises=F Damp=F
 DIIS: error= 5.75D-06 at cycle   3 NSaved=   3.
 NSaved= 3 IEnMin= 3 EnMin= -704.663132999416     IErMin= 3 ErrMin= 5.75D-06
 ErrMax= 5.75D-06  0.00D+00 EMaxC= 1.00D-01 BMatC= 8.47D-09 BMatP= 8.41D-08
 IDIUse=1 WtCom= 1.00D+00 WtEn= 0.00D+00
 Coeff-Com:  0.377D+00 0.191D+00 0.432D+00
 Coeff:      0.377D+00 0.191D+00 0.432D+00
 Gap=     0.114 Goal=   None    Shift=    0.000
 RMSDP=1.00D-06 MaxDP=2.47D-05 DE=-3.99D-07 OVMax= 3.86D-05

 Cycle  13  Pass 1  IDiag  1:
 RMSU=  8.86D-07    CP:  1.00D+00  4.52D-01  8.50D-01
 E= -704.663133004852     Delta-E=       -0.000000005436 Rises=F Damp=F
 DIIS: error= 2.60D-06 at cycle   4 NSaved=   4.
 NSaved= 4 IEnMin= 4 EnMin= -704.663133004852     IErMin= 4 ErrMin= 2.60D-06
 ErrMax= 2.60D-06  0.00D+00 EMaxC= 1.00D-01 BMatC= 1.96D-09 BMatP= 8.47D-09
 IDIUse=1 WtCom= 1.00D+00 WtEn= 0.00D+00
 Coeff-Com:  0.435D-01 0.405D-01 0.325D+00 0.591D+00
 Coeff:      0.435D-01 0.405D-01 0.325D+00 0.591D+00
 Gap=     0.114 Goal=   None    Shift=    0.000
 RMSDP=4.75D-07 MaxDP=8.87D-06 DE=-5.44D-09 OVMax= 1.91D-05

 Cycle  14  Pass 1  IDiag  1:
 RMSU=  2.92D-07    CP:  1.00D+00  4.52D-01  9.25D-01  6.47D-01
 E= -704.663133006348     Delta-E=       -0.000000001496 Rises=F Damp=F
 DIIS: error= 9.26D-07 at cycle   5 NSaved=   5.
 NSaved= 5 IEnMin= 5 EnMin= -704.663133006348     IErMin= 5 ErrMin= 9.26D-07
 ErrMax= 9.26D-07  0.00D+00 EMaxC= 1.00D-01 BMatC= 3.45D-10 BMatP= 1.96D-09
 IDIUse=1 WtCom= 1.00D+00 WtEn= 0.00D+00
 Coeff-Com: -0.127D-01 0.752D-02 0.164D+00 0.399D+00 0.442D+00
 Coeff:     -0.127D-01 0.752D-02 0.164D+00 0.399D+00 0.442D+00
 Gap=     0.114 Goal=   None    Shift=    0.000
 RMSDP=1.73D-07 MaxDP=3.76D-06 DE=-1.50D-09 OVMax= 7.89D-06

 Cycle  15  Pass 1  IDiag  1:
 RMSU=  1.00D-07    CP:  1.00D+00  4.57D-01  9.36D-01  7.00D-01  5.93D-01
 E= -704.663133006649     Delta-E=       -0.000000000302 Rises=F Damp=F
 DIIS: error= 2.22D-07 at cycle   6 NSaved=   6.
 NSaved= 6 IEnMin= 6 EnMin= -704.663133006649     IErMin= 6 ErrMin= 2.22D-07
 ErrMax= 2.22D-07  0.00D+00 EMaxC= 1.00D-01 BMatC= 1.94D-11 BMatP= 3.45D-10
 IDIUse=1 WtCom= 1.00D+00 WtEn= 0.00D+00
 Coeff-Com: -0.117D-01 0.128D-02 0.588D-01 0.174D+00 0.245D+00 0.533D+00
 Coeff:     -0.117D-01 0.128D-02 0.588D-01 0.174D+00 0.245D+00 0.533D+00
 Gap=     0.114 Goal=   None    Shift=    0.000
 RMSDP=4.43D-08 MaxDP=1.12D-06 DE=-3.02D-10 OVMax= 1.83D-06

 Cycle  16  Pass 1  IDiag  1:
 RMSU=  3.89D-08    CP:  1.00D+00  4.58D-01  9.36D-01  6.99D-01  6.52D-01
                    CP:  9.30D-01
 E= -704.663133006672     Delta-E=       -0.000000000022 Rises=F Damp=F
 DIIS: error= 9.06D-08 at cycle   7 NSaved=   7.
 NSaved= 7 IEnMin= 7 EnMin= -704.663133006672     IErMin= 7 ErrMin= 9.06D-08
 ErrMax= 9.06D-08  0.00D+00 EMaxC= 1.00D-01 BMatC= 2.10D-12 BMatP= 1.94D-11
 IDIUse=1 WtCom= 1.00D+00 WtEn= 0.00D+00
 Coeff-Com: -0.276D-02-0.106D-03-0.609D-02 0.630D-02 0.222D-01 0.238D+00
 Coeff-Com:  0.743D+00
 Coeff:     -0.276D-02-0.106D-03-0.609D-02 0.630D-02 0.222D-01 0.238D+00
 Coeff:      0.743D+00
 Gap=     0.114 Goal=   None    Shift=    0.000
 RMSDP=1.88D-08 MaxDP=4.73D-07 DE=-2.21D-11 OVMax= 7.83D-07

 Cycle  17  Pass 1  IDiag  1:
 RMSU=  1.05D-08    CP:  1.00D+00  4.59D-01  9.37D-01  7.06D-01  6.72D-01
                    CP:  1.04D+00  9.04D-01
 E= -704.663133006668     Delta-E=        0.000000000003 Rises=F Damp=F
 DIIS: error= 3.41D-08 at cycle   8 NSaved=   8.
 NSaved= 8 IEnMin= 7 EnMin= -704.663133006672     IErMin= 8 ErrMin= 3.41D-08
 ErrMax= 3.41D-08  0.00D+00 EMaxC= 1.00D-01 BMatC= 2.99D-13 BMatP= 2.10D-12
 IDIUse=1 WtCom= 1.00D+00 WtEn= 0.00D+00
 Coeff-Com: -0.856D-04-0.647D-04-0.988D-02-0.154D-01-0.152D-01 0.695D-01
 Coeff-Com:  0.402D+00 0.569D+00
 Coeff:     -0.856D-04-0.647D-04-0.988D-02-0.154D-01-0.152D-01 0.695D-01
 Coeff:      0.402D+00 0.569D+00
 Gap=     0.114 Goal=   None    Shift=    0.000
 RMSDP=7.44D-09 MaxDP=1.40D-07 DE= 3.18D-12 OVMax= 5.46D-07

 SCF Done:  E(RB3LYP) =  -704.663133007     A.U. after   17 cycles
            NFock= 17  Conv=0.74D-08     -V/T= 2.0062
 KE= 7.003282090701D+02 PE=-2.431031316419D+03 EE= 6.341286156593D+02
 Leave Link  502 at Mon Oct 14 01:38:14 2019, MaxMem= 10737418240 cpu:              56.5 elap:               2.4
 (Enter /apps/cent7/gaussian/g16-A.03/g16-haswell/g16/l601.exe)
 Copying SCF densities to generalized density rwf, IOpCl= 0 IROHF=0.

 **********************************************************************

            Population analysis using the SCF density.

 **********************************************************************

 Orbital symmetries:
       Occupied  (A) (A) (A) (A) (A) (A) (A) (A) (A) (A) (A) (A)
                 (A) (A) (A) (A) (A) (A) (A) (A) (A) (A) (A) (A)
                 (A) (A) (A) (A) (A) (A) (A)
       Virtual   (A) (A) (A) (A) (A) (A) (A) (A) (A) (A) (A) (A)
                 (A) (A) (A) (A) (A) (A) (A) (A) (A) (A) (A) (A)
                 (A) (A) (A) (A) (A) (A) (A) (A) (A) (A) (A) (A)
                 (A) (A) (A) (A) (A) (A) (A) (A) (A) (A) (A) (A)
                 (A) (A) (A) (A) (A) (A) (A) (A) (A) (A) (A) (A)
                 (A) (A) (A) (A) (A) (A) (A) (A) (A) (A) (A) (A)
                 (A) (A) (A) (A) (A) (A) (A) (A) (A) (A) (A) (A)
                 (A) (A) (A) (A) (A) (A) (A) (A)
 The electronic state is 1-A.
 Alpha  occ. eigenvalues --  -89.32658 -19.41700 -19.35303 -10.43310 -10.42885
 Alpha  occ. eigenvalues --  -10.42065 -10.41828  -8.35492  -6.32118  -6.31745
 Alpha  occ. eigenvalues --   -6.31686  -1.31019  -1.18225  -1.04425  -1.00322
 Alpha  occ. eigenvalues --   -0.93567  -0.82518  -0.80896  -0.74680  -0.72101
 Alpha  occ. eigenvalues --   -0.67482  -0.65648  -0.64519  -0.62419  -0.61877
 Alpha  occ. eigenvalues --   -0.61119  -0.56426  -0.49113  -0.48482  -0.44956
 Alpha  occ. eigenvalues --   -0.42296
 Alpha virt. eigenvalues --   -0.30853  -0.28751  -0.19906  -0.16671  -0.13739
 Alpha virt. eigenvalues --   -0.10837  -0.08230  -0.04675  -0.02526  -0.02310
 Alpha virt. eigenvalues --   -0.01116   0.02297   0.03732   0.07475   0.14137
 Alpha virt. eigenvalues --    0.15350   0.16476   0.19986   0.20782   0.25605
 Alpha virt. eigenvalues --    0.32611   0.36952   0.39502   0.41501   0.42836
 Alpha virt. eigenvalues --    0.44405   0.46458   0.48868   0.52126   0.55864
 Alpha virt. eigenvalues --    0.58865   0.59698   0.62874   0.63999   0.65182
 Alpha virt. eigenvalues --    0.66418   0.67245   0.68644   0.71686   0.72563
 Alpha virt. eigenvalues --    0.73123   0.74922   0.75686   0.76286   0.78554
 Alpha virt. eigenvalues --    0.82186   0.85240   0.87337   0.91262   0.94374
 Alpha virt. eigenvalues --    0.96550   0.96907   1.08018   1.23357   1.35821
 Alpha virt. eigenvalues --    1.39145   1.45804   1.46443   1.51238   1.52398
 Alpha virt. eigenvalues --    1.53495   1.60197   1.62803   1.64898   1.65634
 Alpha virt. eigenvalues --    1.67090   1.68053   1.70329   1.79239   1.85627
 Alpha virt. eigenvalues --    1.86513   1.89227   1.91352   1.94485   2.02384
 Alpha virt. eigenvalues --    2.05594   2.16981   2.21316   2.22519   2.27759
 Alpha virt. eigenvalues --    2.31510   2.34224   2.42277   2.50898   2.52853
 Alpha virt. eigenvalues --    3.56318   3.66098   3.71540   3.94339   3.97654
 Alpha virt. eigenvalues --    4.03377   4.08094
          Condensed to atoms (all electrons):
               1          2          3          4          5          6
     1  C    5.066059   0.496969  -0.045793  -0.004628   0.001635   0.000328
     2  C    0.496969   5.550104   0.207654  -0.048336  -0.051986  -0.010246
     3  S   -0.045793   0.207654  14.011371   0.397913   0.171318  -0.023901
     4  O   -0.004628  -0.048336   0.397913   8.156674  -0.039217   0.001963
     5  C    0.001635  -0.051986   0.171318  -0.039217   5.588383   0.459383
     6  C    0.000328  -0.010246  -0.023901   0.001963   0.459383   5.151079
     7  O    0.001509  -0.033135   0.149775  -0.035197  -0.049757   0.004835
     8  H    0.368742  -0.037116   0.002442  -0.000095  -0.000139  -0.000008
     9  H    0.368734  -0.056493  -0.008582  -0.000374   0.002979   0.000655
    10  H   -0.038798   0.343552  -0.011900   0.000345   0.001678   0.000850
    11  H   -0.000267   0.001015  -0.014948  -0.002156   0.363981  -0.046560
    12  H    0.000079  -0.000635   0.000099  -0.000023  -0.031092   0.369899
    13  H   -0.000005  -0.000276  -0.002866   0.000013  -0.062790   0.374663
    14  H   -0.000030   0.000308   0.005710   0.000606   0.001981   0.000353
               7          8          9         10         11         12
     1  C    0.001509   0.368742   0.368734  -0.038798  -0.000267   0.000079
     2  C   -0.033135  -0.037116  -0.056493   0.343552   0.001015  -0.000635
     3  S    0.149775   0.002442  -0.008582  -0.011900  -0.014948   0.000099
     4  O   -0.035197  -0.000095  -0.000374   0.000345  -0.002156  -0.000023
     5  C   -0.049757  -0.000139   0.002979   0.001678   0.363981  -0.031092
     6  C    0.004835  -0.000008   0.000655   0.000850  -0.046560   0.369899
     7  O    8.293867  -0.000011  -0.000016  -0.001124   0.000758  -0.000021
     8  H   -0.000011   0.417488  -0.024298  -0.004556   0.000004  -0.000001
     9  H   -0.000016  -0.024298   0.468700   0.005886  -0.000045   0.000026
    10  H   -0.001124  -0.004556   0.005886   0.416399  -0.000019   0.000017
    11  H    0.000758   0.000004  -0.000045  -0.000019   0.404909  -0.004985
    12  H   -0.000021  -0.000001   0.000026   0.000017  -0.004985   0.436107
    13  H    0.002397   0.000000   0.000004   0.000019   0.005519  -0.024156
    14  H    0.235603  -0.000001   0.000003   0.000124   0.000094  -0.000003
              13         14
     1  C   -0.000005  -0.000030
     2  C   -0.000276   0.000308
     3  S   -0.002866   0.005710
     4  O    0.000013   0.000606
     5  C   -0.062790   0.001981
     6  C    0.374663   0.000353
     7  O    0.002397   0.235603
     8  H    0.000000  -0.000001
     9  H    0.000004   0.000003
    10  H    0.000019   0.000124
    11  H    0.005519   0.000094
    12  H   -0.024156  -0.000003
    13  H    0.492845   0.001883
    14  H    0.001883   0.270577
 Mulliken charges:
               1
     1  C   -0.214533
     2  C   -0.361379
     3  S    1.161708
     4  O   -0.427487
     5  C   -0.356357
     6  C   -0.283292
     7  O   -0.569483
     8  H    0.277549
     9  H    0.242819
    10  H    0.287527
    11  H    0.292699
    12  H    0.254688
    13  H    0.212750
    14  H    0.482792
 Sum of Mulliken charges =   1.00000
 Mulliken charges with hydrogens summed into heavy atoms:
               1
     1  C    0.305834
     2  C   -0.073852
     3  S    1.161708
     4  O   -0.427487
     5  C   -0.063658
     6  C    0.184146
     7  O   -0.086691
 Electronic spatial extent (au):  <R**2>=            853.8562
 Charge=              1.0000 electrons
 Dipole moment (field-independent basis, Debye):
    X=              1.9589    Y=              4.8543    Z=             -2.5869  Tot=              5.8390
 Quadrupole moment (field-independent basis, Debye-Ang):
   XX=            -24.2582   YY=            -40.2738   ZZ=            -42.4220
   XY=             -4.8972   XZ=              0.1758   YZ=              2.9658
 Traceless Quadrupole moment (field-independent basis, Debye-Ang):
   XX=             11.3931   YY=             -4.6225   ZZ=             -6.7707
   XY=             -4.8972   XZ=              0.1758   YZ=              2.9658
 Octapole moment (field-independent basis, Debye-Ang**2):
  XXX=             -7.6004  YYY=              8.4830  ZZZ=             -5.4151  XYY=              7.5491
  XXY=             13.0803  XXZ=             -8.4408  XZZ=              7.9953  YZZ=              1.0806
  YYZ=             -2.3739  XYZ=              5.5966
 Hexadecapole moment (field-independent basis, Debye-Ang**3):
 XXXX=           -403.5138 YYYY=           -313.8965 ZZZZ=           -170.6575 XXXY=            -25.9494
 XXXZ=            -17.4537 YYYX=             -1.4059 YYYZ=             11.2505 ZZZX=              2.6852
 ZZZY=              3.8296 XXYY=           -108.6726 XXZZ=            -99.3712 YYZZ=            -85.3630
 XXYZ=             10.5876 YYXZ=             -7.3717 ZZXY=             -9.1743
 N-N= 3.919113586833D+02 E-N=-2.431031323320D+03  KE= 7.003282090701D+02
 No NMR shielding tensors so no spin-rotation constants.
 Leave Link  601 at Mon Oct 14 01:38:14 2019, MaxMem= 10737418240 cpu:               2.0 elap:               0.1
 (Enter /apps/cent7/gaussian/g16-A.03/g16-haswell/g16/l701.exe)
 ... and contract with generalized density number  0.
 Compute integral first derivatives.
 Leave Link  701 at Mon Oct 14 01:38:14 2019, MaxMem= 10737418240 cpu:               2.3 elap:               0.1
 (Enter /apps/cent7/gaussian/g16-A.03/g16-haswell/g16/l702.exe)
 L702 exits ... SP integral derivatives will be done elsewhere.
 Leave Link  702 at Mon Oct 14 01:38:14 2019, MaxMem= 10737418240 cpu:               0.5 elap:               0.0
 (Enter /apps/cent7/gaussian/g16-A.03/g16-haswell/g16/l703.exe)
 Integral derivatives from FoFJK, PRISM(SPDF).
 Compute integral first derivatives, UseDBF=F ICtDFT=           0.
 Calling FoFJK, ICntrl=      2127 FMM=F ISym2X=0 I1Cent= 0 IOpClX= 0 NMat=1 NMatS=1 NMatT=0.
 FoFJK:  IHMeth= 1 ICntrl=    2127 DoSepK=F KAlg= 0 I1Cent=           0 FoldK=F
 IRaf=         0 NMat=       1 IRICut=       1 DoRegI=T DoRafI=F ISym2E= 0 IDoP0=0 IntGTp=1.
 FoFCou: FMM=F IPFlag=           0 FMFlag=      100000 FMFlg1=         800
         NFxFlg=           0 DoJE=F BraDBF=F KetDBF=F FulRan=T
         wScrn=  0.000000 ICntrl=      2127 IOpCl=  0 I1Cent=           0 NGrid=           0
         NMat0=    1 NMatS0=      1 NMatT0=    0 NMatD0=    1 NMtDS0=    0 NMtDT0=    0
 Symmetry not used in FoFCou.
 Leave Link  703 at Mon Oct 14 01:38:14 2019, MaxMem= 10737418240 cpu:              11.9 elap:               0.5
 (Enter /apps/cent7/gaussian/g16-A.03/g16-haswell/g16/l716.exe)
 Dipole        = 7.70697471D-01 1.90984318D+00-1.01774752D+00
 ***** Axes restored to original set *****
 -------------------------------------------------------------------
 Center     Atomic                   Forces (Hartrees/Bohr)
 Number     Number              X              Y              Z
 -------------------------------------------------------------------
      1        6           0.051109795   -0.003716758   -0.013690392
      2        6          -0.037710807   -0.000597192    0.003828269
      3       16           0.026033223   -0.021404534   -0.115137684
      4        8          -0.020661508    0.053845277    0.101467299
      5        6           0.014435030    0.014055744   -0.003732845
      6        6          -0.022464977    0.014632365    0.024733388
      7        8           0.000091487   -0.034248260    0.013086715
      8        1           0.001622284   -0.001141154    0.036887793
      9        1           0.009739877   -0.009144358   -0.034503204
     10        1          -0.044072894   -0.006604178   -0.015567053
     11        1           0.021919001   -0.039008415   -0.009615132
     12        1           0.000010235    0.026113224   -0.018790353
     13        1          -0.001022722   -0.013606186    0.029134006
     14        1           0.000971978    0.020824426    0.001899193
 -------------------------------------------------------------------
 Cartesian Forces:  Max     0.115137684 RMS     0.032705116
 Leave Link  716 at Mon Oct 14 01:38:15 2019, MaxMem= 10737418240 cpu:               0.5 elap:               0.0
 (Enter /apps/cent7/gaussian/g16-A.03/g16-haswell/g16/l103.exe)

 GradGradGradGradGradGradGradGradGradGradGradGradGradGradGradGradGradGrad
 Berny optimization.
 FormGI is forming the generalized inverse of G from B-inverse, IUseBI=4.
 Internal  Forces:  Max     0.116286219 RMS     0.025105320
 Search for a local minimum.
 Step number   1 out of a maximum of   65
 All quantities printed in internal units (Hartrees-Bohrs-Radians)
 RMS Force = .25105D-01 SwitMx=.10000D-02 MixMth= 1
 Mixed Optimization -- RFO/linear search
 Second derivative matrix not updated -- first step.
 ITU=  0
     Eigenvalues ---    0.01064   0.01067   0.01589   0.01590   0.02513
     Eigenvalues ---    0.02933   0.02933   0.02935   0.02935   0.07769
     Eigenvalues ---    0.09201   0.11959   0.16000   0.16000   0.16000
     Eigenvalues ---    0.16000   0.16000   0.16000   0.16000   0.19910
     Eigenvalues ---    0.21672   0.22000   0.22000   0.30724   0.30748
     Eigenvalues ---    0.34811   0.34816   0.34816   0.34816   0.34817
     Eigenvalues ---    0.34819   0.49686   0.49704   0.55473   0.58074
     Eigenvalues ---    0.58113
 RFO step:  Lambda=-1.10672156D-01 EMin= 1.06388612D-02
 Linear search not attempted -- first point.
 Maximum step size (   0.300) exceeded in Quadratic search.
    -- Step size scaled by   0.773
 Iteration  1 RMS(Cart)=  0.09901529 RMS(Int)=  0.00570664
 Iteration  2 RMS(Cart)=  0.00601822 RMS(Int)=  0.00029471
 Iteration  3 RMS(Cart)=  0.00002361 RMS(Int)=  0.00029394
 Iteration  4 RMS(Cart)=  0.00000000 RMS(Int)=  0.00029394
 ITry= 1 IFail=0 DXMaxC= 3.19D-01 DCOld= 1.00D+10 DXMaxT= 3.00D-01 DXLimC= 3.00D+00 Rises=F
 Variable       Old X    -DE/DX   Delta X   Delta X   Delta X     New X
                                 (Linear)    (Quad)   (Total)
    R1        2.52466   0.05995   0.00000   0.06700   0.06700   2.59166
    R2        2.05983   0.00180   0.00000   0.00303   0.00303   2.06286
    R3        2.05974   0.00362   0.00000   0.00609   0.00609   2.06583
    R4        3.30242  -0.01321   0.00000  -0.02444  -0.02444   3.27799
    R5        2.05969   0.00572   0.00000   0.00963   0.00963   2.06933
    R6        3.03883  -0.11629   0.00000  -0.14797  -0.14797   2.89086
    R7        3.30197   0.00738   0.00000   0.01364   0.01364   3.31561
    R8        3.03865  -0.00282   0.00000  -0.00359  -0.00359   3.03506
    R9        2.52498   0.04642   0.00000   0.05190   0.05190   2.57688
   R10        2.05975   0.00380   0.00000   0.00641   0.00641   2.06615
   R11        2.05973  -0.00038   0.00000  -0.00064  -0.00064   2.05909
   R12        2.05975   0.00335   0.00000   0.00564   0.00564   2.06538
   R13        1.81414   0.01911   0.00000   0.02220   0.02220   1.83634
    A1        2.09440  -0.00394   0.00000  -0.01124  -0.01125   2.08315
    A2        2.09438   0.01381   0.00000   0.03945   0.03943   2.13382
    A3        2.09440  -0.00987   0.00000  -0.02820  -0.02821   2.06618
    A4        2.13371  -0.00501   0.00000  -0.01172  -0.01172   2.12198
    A5        1.83738   0.03773   0.00000   0.10645   0.10645   1.94383
    A6        2.31210  -0.03271   0.00000  -0.09473  -0.09473   2.21737
    A7        1.92329  -0.00776   0.00000  -0.02525  -0.02551   1.89779
    A8        1.92348   0.01366   0.00000   0.02998   0.03036   1.95384
    A9        1.91194  -0.02273   0.00000  -0.06386  -0.06408   1.84786
   A10        1.91434  -0.00028   0.00000   0.00992   0.00970   1.92404
   A11        1.88013   0.00963   0.00000   0.02632   0.02495   1.90508
   A12        1.91011   0.00737   0.00000   0.02279   0.02303   1.93314
   A13        2.12558   0.00690   0.00000   0.01613   0.01613   2.14170
   A14        2.31397  -0.04051   0.00000  -0.11391  -0.11391   2.20006
   A15        1.84364   0.03361   0.00000   0.09778   0.09778   1.94142
   A16        2.09436  -0.00185   0.00000  -0.00528  -0.00530   2.08906
   A17        2.09432   0.01344   0.00000   0.03838   0.03837   2.13268
   A18        2.09451  -0.01159   0.00000  -0.03310  -0.03312   2.06139
   A19        2.09440  -0.01551   0.00000  -0.04430  -0.04430   2.05009
    D1       -1.92030  -0.03279   0.00000  -0.18101  -0.18100  -2.10130
    D2        1.22116  -0.03283   0.00000  -0.18127  -0.18128   1.03988
    D3        1.22144  -0.03118   0.00000  -0.17212  -0.17211   1.04933
    D4       -1.92028  -0.03122   0.00000  -0.17238  -0.17239  -2.09267
    D5        0.68870   0.00326   0.00000   0.01148   0.01082   0.69952
    D6       -1.42641  -0.00024   0.00000  -0.00400  -0.00405  -1.43047
    D7        2.75423  -0.00348   0.00000  -0.01043  -0.00971   2.74453
    D8       -2.45272   0.00331   0.00000   0.01180   0.01113  -2.44159
    D9        1.71535  -0.00019   0.00000  -0.00369  -0.00375   1.71161
   D10       -0.38719  -0.00343   0.00000  -0.01011  -0.00940  -0.39659
   D11       -1.04213   0.00443   0.00000   0.01218   0.01221  -1.02992
   D12        2.09942   0.00441   0.00000   0.01206   0.01210   2.11152
   D13        3.12061   0.00546   0.00000   0.01784   0.01777   3.13837
   D14       -0.02102   0.00545   0.00000   0.01772   0.01765  -0.00337
   D15        1.06150  -0.01043   0.00000  -0.03349  -0.03346   1.02805
   D16       -2.08013  -0.01045   0.00000  -0.03361  -0.03357  -2.11370
   D17        1.99034   0.00804   0.00000   0.02134   0.02144   2.01178
   D18       -2.20067  -0.00862   0.00000  -0.03005  -0.03064  -2.23131
   D19       -0.12031   0.00081   0.00000   0.01004   0.01052  -0.10979
   D20        2.14206   0.02837   0.00000   0.15666   0.15666   2.29872
   D21       -0.99947   0.02639   0.00000   0.14573   0.14572  -0.85375
   D22       -0.99951   0.02839   0.00000   0.15676   0.15676  -0.84274
   D23        2.14215   0.02641   0.00000   0.14582   0.14583   2.28798
         Item               Value     Threshold  Converged?
 Maximum Force            0.116286     0.000450     NO 
 RMS     Force            0.025105     0.000300     NO 
 Maximum Displacement     0.318536     0.001800     NO 
 RMS     Displacement     0.099078     0.001200     NO 
 Predicted change in Energy=-6.961025D-02
 Lowest energy point so far.  Saving SCF results.
 GradGradGradGradGradGradGradGradGradGradGradGradGradGradGradGradGradGrad

 Leave Link  103 at Mon Oct 14 01:38:15 2019, MaxMem= 10737418240 cpu:               0.8 elap:               0.1
 (Enter /apps/cent7/gaussian/g16-A.03/g16-haswell/g16/l202.exe)
                          Input orientation:                          
 ---------------------------------------------------------------------
 Center     Atomic      Atomic             Coordinates (Angstroms)
 Number     Number       Type             X           Y           Z
 ---------------------------------------------------------------------
      1          6           0        4.178202    0.538533    1.424230
      2          6           0        3.015021    1.262234    1.359977
      3         16           0        2.594850    2.183362   -0.048548
      4          8           0        2.972449    1.377874   -1.293066
      5          6           0        3.392169    3.746102   -0.071990
      6          6           0        3.230069    4.670981    0.916850
      7          8           0        0.999183    2.359054    0.001321
      8          1           0        4.129152   -0.540282    1.583557
      9          1           0        5.162016    1.005636    1.329394
     10          1           0        2.434613    1.167655    2.283718
     11          1           0        4.067566    4.112317   -0.849914
     12          1           0        4.104138    5.153962    1.352747
     13          1           0        2.243518    4.959006    1.288745
     14          1           0        0.650640    3.259906    0.107509
 ---------------------------------------------------------------------
                    Distance matrix (angstroms):
                    1          2          3          4          5
     1  C    0.000000
     2  C    1.371445   0.000000
     3  S    2.716900   1.734637   0.000000
     4  O    3.089018   2.655903   1.529777   0.000000
     5  C    3.625606   2.891776   1.754543   2.697350   0.000000
     6  C    4.270072   3.444149   2.742944   3.974248   1.363628
     7  O    3.930029   2.666939   1.606084   2.555764   2.766886
     8  H    1.091619   2.130807   3.526484   3.645853   4.653715
     9  H    1.093191   2.162490   3.142628   3.436577   3.550548
    10  H    2.043188   1.095041   2.548882   3.623098   3.621417
    11  H    4.237440   3.756919   2.555767   2.978732   1.093362
    12  H    4.616577   4.041259   3.614698   4.747619   2.125758
    13  H    4.827208   3.777091   3.100965   4.474550   2.154561
    14  H    4.645785   3.339112   2.227835   3.300674   2.790087
                    6          7          8          9         10
     6  C    0.000000
     7  O    3.340666   0.000000
     8  H    5.330113   4.550420   0.000000
     9  H    4.163816   4.574352   1.876504   0.000000
    10  H    3.843744   2.947749   2.505740   2.894082   0.000000
    11  H    2.033460   3.635039   5.250928   3.949515   4.599697
    12  H    1.089621   4.390742   5.698975   4.281152   4.420935
    13  H    1.092954   3.156831   5.821056   4.914104   3.924390
    14  H    3.049528   0.971747   5.359122   5.189147   3.506560
                   11         12         13         14
    11  H    0.000000
    12  H    2.436817   0.000000
    13  H    2.935625   1.871900   0.000000
    14  H    3.649472   4.130946   2.611421   0.000000
 Stoichiometry    C4H7O2S(1+)
 Framework group  C1[X(C4H7O2S)]
 Deg. of freedom    36
 Full point group                 C1      NOp   1
 RotChk:  IX=0 Diff= 7.87D-02
 Largest Abelian subgroup         C1      NOp   1
 Largest concise Abelian subgroup C1      NOp   1
                         Standard orientation:                         
 ---------------------------------------------------------------------
 Center     Atomic      Atomic             Coordinates (Angstroms)
 Number     Number       Type             X           Y           Z
 ---------------------------------------------------------------------
      1          6           0       -2.161476    1.239472   -0.087908
      2          6           0       -1.191643    0.537302   -0.756670
      3         16           0       -0.017649   -0.420203    0.088248
      4          8           0       -0.711839   -1.139869    1.246004
      5          6           0        1.312773    0.553179    0.689020
      6          6           0        2.107969    1.299713   -0.129411
      7          8           0        0.505897   -1.508467   -0.970566
      8          1           0       -3.212629    1.024120   -0.288740
      9          1           0       -1.920508    2.019402    0.639217
     10          1           0       -1.276509    0.672427   -1.840024
     11          1           0        1.618490    0.650101    1.734287
     12          1           0        2.317329    2.338916    0.122580
     13          1           0        2.558623    0.888940   -1.036453
     14          1           0        1.439384   -1.461975   -1.236522
 ---------------------------------------------------------------------
 Rotational constants (GHZ):           2.7258804           1.9872115           1.6057479
 Leave Link  202 at Mon Oct 14 01:38:15 2019, MaxMem= 10737418240 cpu:               0.8 elap:               0.1
 (Enter /apps/cent7/gaussian/g16-A.03/g16-haswell/g16/l301.exe)
 Standard basis: 6-31G(d) (6D, 7F)
 Ernie: Thresh=  0.10000D-02 Tol=  0.10000D-05 Strict=F.
 There are   123 symmetry adapted cartesian basis functions of A   symmetry.
 There are   123 symmetry adapted basis functions of A   symmetry.
   123 basis functions,   248 primitive gaussians,   123 cartesian basis functions
    31 alpha electrons       31 beta electrons
       nuclear repulsion energy       393.7439779296 Hartrees.
 IExCor=  402 DFT=T Ex+Corr=B3LYP ExCW=0 ScaHFX=  0.200000
 ScaDFX=  0.800000  0.720000  1.000000  0.810000 ScalE2=  1.000000  1.000000
 IRadAn=      5 IRanWt=     -1 IRanGd=            0 ICorTp=0 IEmpDi=  4
 NAtoms=   14 NActive=   14 NUniq=   14 SFac= 1.00D+00 NAtFMM=   60 NAOKFM=F Big=F
 Integral buffers will be    131072 words long.
 Raffenetti 2 integral format.
 Two-electron integral symmetry is turned on.
 Leave Link  301 at Mon Oct 14 01:38:15 2019, MaxMem= 10737418240 cpu:               1.3 elap:               0.1
 (Enter /apps/cent7/gaussian/g16-A.03/g16-haswell/g16/l302.exe)
 NPDir=0 NMtPBC=     1 NCelOv=     1 NCel=       1 NClECP=     1 NCelD=      1
         NCelK=      1 NCelE2=     1 NClLst=     1 CellRange=     0.0.
 One-electron integrals computed using PRISM.
 One-electron integral symmetry used in STVInt
 NBasis=   123 RedAO= T EigKep=  3.83D-03  NBF=   123
 NBsUse=   123 1.00D-06 EigRej= -1.00D+00 NBFU=   123
 Precomputing XC quadrature grid using
 IXCGrd= 4 IRadAn=           5 IRanWt=          -1 IRanGd=           0 AccXCQ= 0.00D+00.
 Generated NRdTot=       0 NPtTot=           0 NUsed=           0 NTot=          32
 NSgBfM=   123   123   123   123   123 MxSgAt=    14 MxSgA2=    14.
 Leave Link  302 at Mon Oct 14 01:38:15 2019, MaxMem= 10737418240 cpu:               2.8 elap:               0.1
 (Enter /apps/cent7/gaussian/g16-A.03/g16-haswell/g16/l303.exe)
 DipDrv:  MaxL=1.
 Leave Link  303 at Mon Oct 14 01:38:15 2019, MaxMem= 10737418240 cpu:               1.1 elap:               0.1
 (Enter /apps/cent7/gaussian/g16-A.03/g16-haswell/g16/l401.exe)
 Initial guess from the checkpoint file:  "28_p.chk"
 B after Tr=    -0.000000   -0.000000   -0.000000
         Rot=    0.999472    0.022310   -0.005513    0.022969 Ang=   3.72 deg.
 Guess basis will be translated and rotated to current coordinates.
 JPrj=2 DoOrth=T DoCkMO=T.
 Generating alternative initial guess.
 ExpMin= 1.17D-01 ExpMax= 2.19D+04 ExpMxC= 3.30D+03 IAcc=2 IRadAn=         4 AccDes= 0.00D+00
 Harris functional with IExCor=  402 and IRadAn=       4 diagonalized for initial guess.
 HarFok:  IExCor=  402 AccDes= 0.00D+00 IRadAn=         4 IDoV= 1 UseB2=F ITyADJ=14
 ICtDFT=  3500011 ScaDFX=  1.000000  1.000000  1.000000  1.000000
 FoFCou: FMM=F IPFlag=           0 FMFlag=      100000 FMFlg1=           0
         NFxFlg=           0 DoJE=T BraDBF=F KetDBF=T FulRan=T
         wScrn=  0.000000 ICntrl=       500 IOpCl=  0 I1Cent=   200000004 NGrid=           0
         NMat0=    1 NMatS0=      1 NMatT0=    0 NMatD0=    1 NMtDS0=    0 NMtDT0=    0
 Petite list used in FoFCou.
 Harris En= -704.859530693579    
 Leave Link  401 at Mon Oct 14 01:38:15 2019, MaxMem= 10737418240 cpu:               5.3 elap:               0.2
 (Enter /apps/cent7/gaussian/g16-A.03/g16-haswell/g16/l502.exe)
 Integral symmetry usage will be decided dynamically.
 Closed shell SCF:
 Using DIIS extrapolation, IDIIS=  1040.
 NGot= 10737418240 LenX= 10737383520 LenY= 10737367950
 Requested convergence on RMS density matrix=1.00D-08 within 128 cycles.
 Requested convergence on MAX density matrix=1.00D-06.
 Requested convergence on             energy=1.00D-06.
 No special actions if energy rises.
 Fock matrices will be formed incrementally for  20 cycles.
 Integral accuracy reduced to 1.0D-05 until final iterations.

 Cycle   1  Pass 0  IDiag  1:
 FoFJK:  IHMeth= 1 ICntrl=       0 DoSepK=F KAlg= 0 I1Cent=           0 FoldK=F
 IRaf= 970000000 NMat=       1 IRICut=       1 DoRegI=T DoRafI=F ISym2E= 0 IDoP0=0 IntGTp=1.
 FoFCou: FMM=F IPFlag=           0 FMFlag=      100000 FMFlg1=           0
         NFxFlg=           0 DoJE=F BraDBF=F KetDBF=F FulRan=T
         wScrn=  0.000000 ICntrl=         0 IOpCl=  0 I1Cent=           0 NGrid=           0
         NMat0=    1 NMatS0=      1 NMatT0=    0 NMatD0=    1 NMtDS0=    0 NMtDT0=    0
 Symmetry not used in FoFCou.
 E= -704.721737497187    
 DIIS: error= 4.42D-03 at cycle   1 NSaved=   1.
 NSaved= 1 IEnMin= 1 EnMin= -704.721737497187     IErMin= 1 ErrMin= 4.42D-03
 ErrMax= 4.42D-03  0.00D+00 EMaxC= 1.00D-01 BMatC= 6.79D-03 BMatP= 6.79D-03
 IDIUse=3 WtCom= 9.56D-01 WtEn= 4.42D-02
 Coeff-Com:  0.100D+01
 Coeff-En:   0.100D+01
 Coeff:      0.100D+01
 Gap=     1.623 Goal=   None    Shift=    0.000
 GapD=    1.623 DampG=2.000 DampE=1.000 DampFc=2.0000 IDamp=-1.
 RMSDP=1.48D-03 MaxDP=2.37D-02              OVMax= 4.22D-02

 Cycle   2  Pass 0  IDiag  1:
 RMSU=  1.48D-03    CP:  9.96D-01
 E= -704.733367454809     Delta-E=       -0.011629957623 Rises=F Damp=F
 DIIS: error= 3.56D-03 at cycle   2 NSaved=   2.
 NSaved= 2 IEnMin= 2 EnMin= -704.733367454809     IErMin= 2 ErrMin= 3.56D-03
 ErrMax= 3.56D-03  0.00D+00 EMaxC= 1.00D-01 BMatC= 2.82D-03 BMatP= 6.79D-03
 IDIUse=3 WtCom= 9.64D-01 WtEn= 3.56D-02
 Coeff-Com:  0.327D+00 0.673D+00
 Coeff-En:   0.000D+00 0.100D+01
 Coeff:      0.316D+00 0.684D+00
 Gap=     0.141 Goal=   None    Shift=    0.000
 RMSDP=1.03D-03 MaxDP=2.44D-02 DE=-1.16D-02 OVMax= 4.03D-02

 Cycle   3  Pass 0  IDiag  1:
 RMSU=  9.57D-04    CP:  9.99D-01  7.55D-01
 E= -704.731396926138     Delta-E=        0.001970528671 Rises=F Damp=F
 DIIS: error= 5.36D-03 at cycle   3 NSaved=   3.
 NSaved= 3 IEnMin= 2 EnMin= -704.733367454809     IErMin= 2 ErrMin= 3.56D-03
 ErrMax= 5.36D-03  0.00D+00 EMaxC= 1.00D-01 BMatC= 5.42D-03 BMatP= 2.82D-03
 IDIUse=3 WtCom= 1.20D-01 WtEn= 8.80D-01
 Coeff-Com: -0.140D-01 0.589D+00 0.425D+00
 Coeff-En:   0.000D+00 0.607D+00 0.393D+00
 Coeff:     -0.168D-02 0.605D+00 0.397D+00
 Gap=     0.141 Goal=   None    Shift=    0.000
 RMSDP=5.85D-04 MaxDP=1.39D-02 DE= 1.97D-03 OVMax= 2.40D-02

 Cycle   4  Pass 0  IDiag  1:
 RMSU=  1.79D-04    CP:  9.96D-01  9.48D-01  5.07D-01
 E= -704.735842381331     Delta-E=       -0.004445455193 Rises=F Damp=F
 DIIS: error= 5.11D-04 at cycle   4 NSaved=   4.
 NSaved= 4 IEnMin= 4 EnMin= -704.735842381331     IErMin= 4 ErrMin= 5.11D-04
 ErrMax= 5.11D-04  0.00D+00 EMaxC= 1.00D-01 BMatC= 7.70D-05 BMatP= 2.82D-03
 IDIUse=3 WtCom= 9.95D-01 WtEn= 5.11D-03
 Coeff-Com: -0.264D-01 0.281D+00 0.185D+00 0.560D+00
 Coeff-En:   0.000D+00 0.000D+00 0.000D+00 0.100D+01
 Coeff:     -0.262D-01 0.279D+00 0.184D+00 0.563D+00
 Gap=     0.141 Goal=   None    Shift=    0.000
 RMSDP=1.05D-04 MaxDP=4.05D-03 DE=-4.45D-03 OVMax= 4.63D-03

 Cycle   5  Pass 0  IDiag  1:
 RMSU=  6.95D-05    CP:  9.97D-01  9.68D-01  4.79D-01  6.28D-01
 E= -704.735901250179     Delta-E=       -0.000058868848 Rises=F Damp=F
 DIIS: error= 2.93D-04 at cycle   5 NSaved=   5.
 NSaved= 5 IEnMin= 5 EnMin= -704.735901250179     IErMin= 5 ErrMin= 2.93D-04
 ErrMax= 2.93D-04  0.00D+00 EMaxC= 1.00D-01 BMatC= 1.88D-05 BMatP= 7.70D-05
 IDIUse=3 WtCom= 9.97D-01 WtEn= 2.93D-03
 Coeff-Com: -0.127D-01 0.918D-01 0.566D-01 0.349D+00 0.516D+00
 Coeff-En:   0.000D+00 0.000D+00 0.000D+00 0.204D+00 0.796D+00
 Coeff:     -0.127D-01 0.915D-01 0.565D-01 0.348D+00 0.517D+00
 Gap=     0.141 Goal=   None    Shift=    0.000
 RMSDP=4.95D-05 MaxDP=1.25D-03 DE=-5.89D-05 OVMax= 3.69D-03

 Cycle   6  Pass 0  IDiag  1:
 RMSU=  3.17D-05    CP:  9.96D-01  9.70D-01  4.92D-01  7.70D-01  6.44D-01
 E= -704.735918482878     Delta-E=       -0.000017232699 Rises=F Damp=F
 DIIS: error= 1.54D-04 at cycle   6 NSaved=   6.
 NSaved= 6 IEnMin= 6 EnMin= -704.735918482878     IErMin= 6 ErrMin= 1.54D-04
 ErrMax= 1.54D-04  0.00D+00 EMaxC= 1.00D-01 BMatC= 4.48D-06 BMatP= 1.88D-05
 IDIUse=3 WtCom= 9.98D-01 WtEn= 1.54D-03
 Coeff-Com: -0.408D-02 0.128D-01 0.546D-02 0.136D+00 0.368D+00 0.482D+00
 Coeff-En:   0.000D+00 0.000D+00 0.000D+00 0.000D+00 0.194D+00 0.806D+00
 Coeff:     -0.407D-02 0.128D-01 0.545D-02 0.136D+00 0.367D+00 0.482D+00
 Gap=     0.141 Goal=   None    Shift=    0.000
 RMSDP=1.65D-05 MaxDP=4.50D-04 DE=-1.72D-05 OVMax= 1.14D-03

 Cycle   7  Pass 0  IDiag  1:
 RMSU=  8.98D-06    CP:  9.96D-01  9.70D-01  4.95D-01  7.72D-01  7.17D-01
                    CP:  6.02D-01
 E= -704.735923111547     Delta-E=       -0.000004628669 Rises=F Damp=F
 DIIS: error= 1.86D-05 at cycle   7 NSaved=   7.
 NSaved= 7 IEnMin= 7 EnMin= -704.735923111547     IErMin= 7 ErrMin= 1.86D-05
 ErrMax= 1.86D-05  0.00D+00 EMaxC= 1.00D-01 BMatC= 1.03D-07 BMatP= 4.48D-06
 IDIUse=1 WtCom= 1.00D+00 WtEn= 0.00D+00
 Coeff-Com:  0.440D-03-0.840D-02-0.757D-02-0.701D-02 0.669D-01 0.137D+00
 Coeff-Com:  0.819D+00
 Coeff:      0.440D-03-0.840D-02-0.757D-02-0.701D-02 0.669D-01 0.137D+00
 Coeff:      0.819D+00
 Gap=     0.141 Goal=   None    Shift=    0.000
 RMSDP=3.88D-06 MaxDP=6.82D-05 DE=-4.63D-06 OVMax= 1.60D-04

 Initial convergence to 1.0D-05 achieved.  Increase integral accuracy.
 Cycle   8  Pass 1  IDiag  1:
 E= -704.735924957621     Delta-E=       -0.000001846075 Rises=F Damp=F
 DIIS: error= 7.02D-06 at cycle   1 NSaved=   1.
 NSaved= 1 IEnMin= 1 EnMin= -704.735924957621     IErMin= 1 ErrMin= 7.02D-06
 ErrMax= 7.02D-06  0.00D+00 EMaxC= 1.00D-01 BMatC= 1.79D-08 BMatP= 1.79D-08
 IDIUse=1 WtCom= 1.00D+00 WtEn= 0.00D+00
 Coeff-Com:  0.100D+01
 Coeff:      0.100D+01
 Gap=     0.141 Goal=   None    Shift=    0.000
 RMSDP=3.88D-06 MaxDP=6.82D-05 DE=-1.85D-06 OVMax= 1.75D-04

 Cycle   9  Pass 1  IDiag  1:
 RMSU=  3.29D-06    CP:  1.00D+00
 E= -704.735924920234     Delta-E=        0.000000037387 Rises=F Damp=F
 DIIS: error= 1.48D-05 at cycle   2 NSaved=   2.
 NSaved= 2 IEnMin= 1 EnMin= -704.735924957621     IErMin= 1 ErrMin= 7.02D-06
 ErrMax= 1.48D-05  0.00D+00 EMaxC= 1.00D-01 BMatC= 5.28D-08 BMatP= 1.79D-08
 IDIUse=1 WtCom= 1.00D+00 WtEn= 0.00D+00
 Coeff-Com:  0.643D+00 0.357D+00
 Coeff:      0.643D+00 0.357D+00
 Gap=     0.141 Goal=   None    Shift=    0.000
 RMSDP=2.04D-06 MaxDP=6.00D-05 DE= 3.74D-08 OVMax= 1.59D-04

 Cycle  10  Pass 1  IDiag  1:
 RMSU=  1.49D-06    CP:  1.00D+00  5.76D-01
 E= -704.735924973120     Delta-E=       -0.000000052886 Rises=F Damp=F
 DIIS: error= 3.37D-06 at cycle   3 NSaved=   3.
 NSaved= 3 IEnMin= 3 EnMin= -704.735924973120     IErMin= 3 ErrMin= 3.37D-06
 ErrMax= 3.37D-06  0.00D+00 EMaxC= 1.00D-01 BMatC= 1.95D-09 BMatP= 1.79D-08
 IDIUse=1 WtCom= 1.00D+00 WtEn= 0.00D+00
 Coeff-Com:  0.186D+00 0.186D+00 0.628D+00
 Coeff:      0.186D+00 0.186D+00 0.628D+00
 Gap=     0.141 Goal=   None    Shift=    0.000
 RMSDP=4.73D-07 MaxDP=1.28D-05 DE=-5.29D-08 OVMax= 3.35D-05

 Cycle  11  Pass 1  IDiag  1:
 RMSU=  3.87D-07    CP:  1.00D+00  6.30D-01  8.61D-01
 E= -704.735924974688     Delta-E=       -0.000000001568 Rises=F Damp=F
 DIIS: error= 1.30D-06 at cycle   4 NSaved=   4.
 NSaved= 4 IEnMin= 4 EnMin= -704.735924974688     IErMin= 4 ErrMin= 1.30D-06
 ErrMax= 1.30D-06  0.00D+00 EMaxC= 1.00D-01 BMatC= 5.91D-10 BMatP= 1.95D-09
 IDIUse=1 WtCom= 1.00D+00 WtEn= 0.00D+00
 Coeff-Com:  0.187D-01 0.707D-01 0.416D+00 0.494D+00
 Coeff:      0.187D-01 0.707D-01 0.416D+00 0.494D+00
 Gap=     0.141 Goal=   None    Shift=    0.000
 RMSDP=2.50D-07 MaxDP=4.91D-06 DE=-1.57D-09 OVMax= 9.12D-06

 Cycle  12  Pass 1  IDiag  1:
 RMSU=  1.24D-07    CP:  1.00D+00  6.37D-01  9.02D-01  4.75D-01
 E= -704.735924975111     Delta-E=       -0.000000000423 Rises=F Damp=F
 DIIS: error= 6.18D-07 at cycle   5 NSaved=   5.
 NSaved= 5 IEnMin= 5 EnMin= -704.735924975111     IErMin= 5 ErrMin= 6.18D-07
 ErrMax= 6.18D-07  0.00D+00 EMaxC= 1.00D-01 BMatC= 9.09D-11 BMatP= 5.91D-10
 IDIUse=1 WtCom= 1.00D+00 WtEn= 0.00D+00
 Coeff-Com: -0.618D-02 0.297D-01 0.212D+00 0.344D+00 0.420D+00
 Coeff:     -0.618D-02 0.297D-01 0.212D+00 0.344D+00 0.420D+00
 Gap=     0.141 Goal=   None    Shift=    0.000
 RMSDP=8.62D-08 MaxDP=2.03D-06 DE=-4.23D-10 OVMax= 3.21D-06

 Cycle  13  Pass 1  IDiag  1:
 RMSU=  4.27D-08    CP:  1.00D+00  6.38D-01  9.07D-01  5.58D-01  4.77D-01
 E= -704.735924975190     Delta-E=       -0.000000000079 Rises=F Damp=F
 DIIS: error= 1.47D-07 at cycle   6 NSaved=   6.
 NSaved= 6 IEnMin= 6 EnMin= -704.735924975190     IErMin= 6 ErrMin= 1.47D-07
 ErrMax= 1.47D-07  0.00D+00 EMaxC= 1.00D-01 BMatC= 6.48D-12 BMatP= 9.09D-11
 IDIUse=1 WtCom= 1.00D+00 WtEn= 0.00D+00
 Coeff-Com: -0.532D-02 0.147D-01 0.103D+00 0.189D+00 0.273D+00 0.426D+00
 Coeff:     -0.532D-02 0.147D-01 0.103D+00 0.189D+00 0.273D+00 0.426D+00
 Gap=     0.141 Goal=   None    Shift=    0.000
 RMSDP=2.17D-08 MaxDP=3.99D-07 DE=-7.89D-11 OVMax= 7.45D-07

 Cycle  14  Pass 1  IDiag  1:
 RMSU=  1.59D-08    CP:  1.00D+00  6.39D-01  9.07D-01  5.58D-01  5.19D-01
                    CP:  6.86D-01
 E= -704.735924975196     Delta-E=       -0.000000000007 Rises=F Damp=F
 DIIS: error= 3.83D-08 at cycle   7 NSaved=   7.
 NSaved= 7 IEnMin= 7 EnMin= -704.735924975196     IErMin= 7 ErrMin= 3.83D-08
 ErrMax= 3.83D-08  0.00D+00 EMaxC= 1.00D-01 BMatC= 4.06D-13 BMatP= 6.48D-12
 IDIUse=1 WtCom= 1.00D+00 WtEn= 0.00D+00
 Coeff-Com: -0.965D-03 0.147D-02 0.927D-03 0.172D-01 0.372D-01 0.178D+00
 Coeff-Com:  0.766D+00
 Coeff:     -0.965D-03 0.147D-02 0.927D-03 0.172D-01 0.372D-01 0.178D+00
 Coeff:      0.766D+00
 Gap=     0.141 Goal=   None    Shift=    0.000
 RMSDP=7.48D-09 MaxDP=1.18D-07 DE=-6.59D-12 OVMax= 2.72D-07

 SCF Done:  E(RB3LYP) =  -704.735924975     A.U. after   14 cycles
            NFock= 14  Conv=0.75D-08     -V/T= 2.0064
 KE= 7.002268252555D+02 PE=-2.434666807523D+03 EE= 6.359600793630D+02
 Leave Link  502 at Mon Oct 14 01:38:17 2019, MaxMem= 10737418240 cpu:              47.2 elap:               2.0
 (Enter /apps/cent7/gaussian/g16-A.03/g16-haswell/g16/l701.exe)
 ... and contract with generalized density number  0.
 Compute integral first derivatives.
 Leave Link  701 at Mon Oct 14 01:38:17 2019, MaxMem= 10737418240 cpu:               2.6 elap:               0.1
 (Enter /apps/cent7/gaussian/g16-A.03/g16-haswell/g16/l702.exe)
 L702 exits ... SP integral derivatives will be done elsewhere.
 Leave Link  702 at Mon Oct 14 01:38:17 2019, MaxMem= 10737418240 cpu:               0.5 elap:               0.0
 (Enter /apps/cent7/gaussian/g16-A.03/g16-haswell/g16/l703.exe)
 Integral derivatives from FoFJK, PRISM(SPDF).
 Compute integral first derivatives, UseDBF=F ICtDFT=           0.
 Calling FoFJK, ICntrl=      2127 FMM=F ISym2X=0 I1Cent= 0 IOpClX= 0 NMat=1 NMatS=1 NMatT=0.
 FoFJK:  IHMeth= 1 ICntrl=    2127 DoSepK=F KAlg= 0 I1Cent=           0 FoldK=F
 IRaf=         0 NMat=       1 IRICut=       1 DoRegI=T DoRafI=F ISym2E= 0 IDoP0=0 IntGTp=1.
 FoFCou: FMM=F IPFlag=           0 FMFlag=      100000 FMFlg1=         800
         NFxFlg=           0 DoJE=F BraDBF=F KetDBF=F FulRan=T
         wScrn=  0.000000 ICntrl=      2127 IOpCl=  0 I1Cent=           0 NGrid=           0
         NMat0=    1 NMatS0=      1 NMatT0=    0 NMatD0=    1 NMtDS0=    0 NMtDT0=    0
 Symmetry not used in FoFCou.
 Leave Link  703 at Mon Oct 14 01:38:18 2019, MaxMem= 10737418240 cpu:              11.7 elap:               0.5
 (Enter /apps/cent7/gaussian/g16-A.03/g16-haswell/g16/l716.exe)
 Dipole        = 9.15324794D-01 1.73056566D+00-1.03715341D+00
 ***** Axes restored to original set *****
 -------------------------------------------------------------------
 Center     Atomic                   Forces (Hartrees/Bohr)
 Number     Number              X              Y              Z
 -------------------------------------------------------------------
      1        6           0.007251306    0.012281708   -0.009477016
      2        6           0.005809085   -0.019894232    0.020210017
      3       16           0.020610302   -0.014484120   -0.084241512
      4        8          -0.014972171    0.038445296    0.064398769
      5        6           0.004865194    0.035208295    0.015741459
      6        6          -0.012514782   -0.008113693   -0.001595906
      7        8          -0.002280461   -0.013769125    0.011866159
      8        1           0.001794961    0.005106900    0.030461207
      9        1           0.000366716   -0.009176124   -0.029423190
     10        1          -0.028503105   -0.007530803   -0.020700779
     11        1           0.014874761   -0.031948857   -0.000412313
     12        1          -0.003261501    0.019923634   -0.017438919
     13        1           0.004344010   -0.014747638    0.021213174
     14        1           0.001615683    0.008698758   -0.000601149
 -------------------------------------------------------------------
 Cartesian Forces:  Max     0.084241512 RMS     0.023251870
 Leave Link  716 at Mon Oct 14 01:38:18 2019, MaxMem= 10737418240 cpu:               0.5 elap:               0.0
 (Enter /apps/cent7/gaussian/g16-A.03/g16-haswell/g16/l103.exe)

 GradGradGradGradGradGradGradGradGradGradGradGradGradGradGradGradGradGrad
 Berny optimization.
 Using GEDIIS/GDIIS optimizer.
 FormGI is forming the generalized inverse of G from B-inverse, IUseBI=4.
 Internal  Forces:  Max     0.076328740 RMS     0.016178429
 Search for a local minimum.
 Step number   2 out of a maximum of   65
 All quantities printed in internal units (Hartrees-Bohrs-Radians)
 RMS Force = .16178D-01 SwitMx=.10000D-02 MixMth= 1
 Mixed Optimization -- RFO/linear search
 Update second derivatives using D2CorX and points    1    2
 DE= -7.28D-02 DEPred=-6.96D-02 R= 1.05D+00
 TightC=F SS=  1.41D+00  RLast= 5.56D-01 DXNew= 5.0454D-01 1.6690D+00
 Trust test= 1.05D+00 RLast= 5.56D-01 DXMaxT set to 5.05D-01
 ITU=  1  0
 Use linear search instead of GDIIS.
 Linear search step of   0.523 exceeds DXMaxT=   0.505 but not scaled.
 Quartic linear search produced a step of  1.74197.
 Iteration  1 RMS(Cart)=  0.14470029 RMS(Int)=  0.03684052
 Iteration  2 RMS(Cart)=  0.04316547 RMS(Int)=  0.00232016
 Iteration  3 RMS(Cart)=  0.00189951 RMS(Int)=  0.00141231
 Iteration  4 RMS(Cart)=  0.00000312 RMS(Int)=  0.00141231
 Iteration  5 RMS(Cart)=  0.00000000 RMS(Int)=  0.00141231
 ITry= 1 IFail=0 DXMaxC= 5.32D-01 DCOld= 1.00D+10 DXMaxT= 5.05D-01 DXLimC= 3.00D+00 Rises=F
 Variable       Old X    -DE/DX   Delta X   Delta X   Delta X     New X
                                 (Linear)    (Quad)   (Total)
    R1        2.59166   0.00326   0.11671   0.00000   0.11671   2.70837
    R2        2.06286  -0.00068   0.00527   0.00000   0.00527   2.06813
    R3        2.06583  -0.00104   0.01061   0.00000   0.01061   2.07645
    R4        3.27799  -0.00027  -0.04257   0.00000  -0.04257   3.23542
    R5        2.06933  -0.00170   0.01678   0.00000   0.01678   2.08611
    R6        2.89086  -0.07633  -0.25777   0.00000  -0.25777   2.63309
    R7        3.31561   0.00383   0.02376   0.00000   0.02376   3.33937
    R8        3.03506   0.00046  -0.00625   0.00000  -0.00625   3.02881
    R9        2.57688   0.00095   0.09042   0.00000   0.09042   2.66730
   R10        2.06615  -0.00122   0.01116   0.00000   0.01116   2.07731
   R11        2.05909  -0.00076  -0.00112   0.00000  -0.00112   2.05797
   R12        2.06538  -0.00059   0.00982   0.00000   0.00982   2.07520
   R13        1.83634   0.00742   0.03867   0.00000   0.03867   1.87501
    A1        2.08315  -0.00260  -0.01960   0.00000  -0.01965   2.06350
    A2        2.13382   0.00658   0.06869   0.00000   0.06865   2.20246
    A3        2.06618  -0.00399  -0.04915   0.00000  -0.04920   2.01699
    A4        2.12198  -0.00377  -0.02042   0.00000  -0.02042   2.10157
    A5        1.94383   0.02610   0.18544   0.00000   0.18544   2.12927
    A6        2.21737  -0.02233  -0.16502   0.00000  -0.16502   2.05235
    A7        1.89779  -0.00192  -0.04444   0.00000  -0.04529   1.85249
    A8        1.95384   0.00846   0.05289   0.00000   0.05440   2.00824
    A9        1.84786  -0.01460  -0.11163   0.00000  -0.11232   1.73554
   A10        1.92404  -0.00134   0.01689   0.00000   0.01572   1.93976
   A11        1.90508   0.00713   0.04346   0.00000   0.03670   1.94178
   A12        1.93314   0.00189   0.04011   0.00000   0.04104   1.97418
   A13        2.14170   0.00405   0.02809   0.00000   0.02809   2.16980
   A14        2.20006  -0.02882  -0.19843   0.00000  -0.19843   2.00163
   A15        1.94142   0.02477   0.17034   0.00000   0.17034   2.11176
   A16        2.08906  -0.00164  -0.00923   0.00000  -0.00930   2.07976
   A17        2.13268   0.00713   0.06684   0.00000   0.06677   2.19945
   A18        2.06139  -0.00551  -0.05769   0.00000  -0.05776   2.00363
   A19        2.05009  -0.00847  -0.07718   0.00000  -0.07718   1.97291
    D1       -2.10130  -0.02786  -0.31530   0.00000  -0.31525  -2.41655
    D2        1.03988  -0.02771  -0.31578   0.00000  -0.31583   0.72405
    D3        1.04933  -0.02662  -0.29981   0.00000  -0.29977   0.74957
    D4       -2.09267  -0.02648  -0.30030   0.00000  -0.30034  -2.39301
    D5        0.69952   0.00069   0.01886   0.00000   0.01562   0.71515
    D6       -1.43047  -0.00182  -0.00706   0.00000  -0.00733  -1.43779
    D7        2.74453   0.00036  -0.01691   0.00000  -0.01331   2.73121
    D8       -2.44159   0.00051   0.01939   0.00000   0.01609  -2.42550
    D9        1.71161  -0.00200  -0.00653   0.00000  -0.00686   1.70475
   D10       -0.39659   0.00018  -0.01638   0.00000  -0.01285  -0.40943
   D11       -1.02992   0.00501   0.02127   0.00000   0.02145  -1.00847
   D12        2.11152   0.00477   0.02107   0.00000   0.02128   2.13280
   D13        3.13837   0.00267   0.03095   0.00000   0.03053  -3.11428
   D14       -0.00337   0.00243   0.03075   0.00000   0.03035   0.02698
   D15        1.02805  -0.00664  -0.05828   0.00000  -0.05808   0.96996
   D16       -2.11370  -0.00688  -0.05848   0.00000  -0.05826  -2.17196
   D17        2.01178   0.00375   0.03734   0.00000   0.03764   2.04942
   D18       -2.23131  -0.00275  -0.05337   0.00000  -0.05583  -2.28714
   D19       -0.10979   0.00148   0.01833   0.00000   0.02051  -0.08929
   D20        2.29872   0.02366   0.27290   0.00000   0.27288   2.57160
   D21       -0.85375   0.02217   0.25385   0.00000   0.25383  -0.59992
   D22       -0.84274   0.02387   0.27308   0.00000   0.27310  -0.56965
   D23        2.28798   0.02239   0.25403   0.00000   0.25404   2.54202
         Item               Value     Threshold  Converged?
 Maximum Force            0.076329     0.000450     NO 
 RMS     Force            0.016178     0.000300     NO 
 Maximum Displacement     0.531683     0.001800     NO 
 RMS     Displacement     0.171628     0.001200     NO 
 Predicted change in Energy=-6.306882D-02
 Lowest energy point so far.  Saving SCF results.
 GradGradGradGradGradGradGradGradGradGradGradGradGradGradGradGradGradGrad

 Leave Link  103 at Mon Oct 14 01:38:18 2019, MaxMem= 10737418240 cpu:               0.7 elap:               0.1
 (Enter /apps/cent7/gaussian/g16-A.03/g16-haswell/g16/l202.exe)
                          Input orientation:                          
 ---------------------------------------------------------------------
 Center     Atomic      Atomic             Coordinates (Angstroms)
 Number     Number       Type             X           Y           Z
 ---------------------------------------------------------------------
      1          6           0        4.184798    0.476200    1.393454
      2          6           0        2.970647    1.232758    1.306663
[...]
 ! D1    D(8,1,2,3)            179.9909         -DE/DX =    0.0                 !
 ! D2    D(8,1,2,10)             0.4426         -DE/DX =    0.0                 !
 ! D3    D(9,1,2,3)             -0.4066         -DE/DX =    0.0                 !
 ! D4    D(9,1,2,10)          -179.9549         -DE/DX =    0.0                 !
 ! D5    D(1,2,3,4)              4.8459         -DE/DX =    0.0                 !
 ! D6    D(1,2,3,5)           -121.6163         -DE/DX =    0.0                 !
 ! D7    D(1,2,3,7)            128.5322         -DE/DX =    0.0                 !
 ! D8    D(10,2,3,4)          -175.5492         -DE/DX =    0.0                 !
 ! D9    D(10,2,3,5)            57.9886         -DE/DX =    0.0                 !
 ! D10   D(10,2,3,7)           -51.8629         -DE/DX =    0.0                 !
 ! D11   D(2,3,5,6)            -91.6869         -DE/DX =    0.0                 !
 ! D12   D(2,3,5,11)            88.7115         -DE/DX =    0.0                 !
 ! D13   D(4,3,5,6)            140.5275         -DE/DX =    0.0                 !
 ! D14   D(4,3,5,11)           -39.0741         -DE/DX =    0.0                 !
 ! D15   D(7,3,5,6)             14.3128         -DE/DX =    0.0                 !
 ! D16   D(7,3,5,11)          -165.2888         -DE/DX =    0.0                 !
 ! D17   D(2,3,7,14)          -163.565          -DE/DX =    0.0                 !
 ! D18   D(4,3,7,14)           -41.1177         -DE/DX =    0.0                 !
 ! D19   D(5,3,7,14)            82.5069         -DE/DX =    0.0                 !
 ! D20   D(3,5,6,12)          -179.3867         -DE/DX =    0.0                 !
 ! D21   D(3,5,6,13)             0.4436         -DE/DX =    0.0                 !
 ! D22   D(11,5,6,12)            0.153          -DE/DX =    0.0                 !
 ! D23   D(11,5,6,13)          179.9833         -DE/DX =    0.0                 !
 --------------------------------------------------------------------------------
 GradGradGradGradGradGradGradGradGradGradGradGradGradGradGradGradGradGrad

 Leave Link  103 at Mon Oct 14 01:39:23 2019, MaxMem= 10737418240 cpu:               0.8 elap:               0.1
 (Enter /apps/cent7/gaussian/g16-A.03/g16-haswell/g16/l9999.exe)

 ----------------------------------------------------------------------

 Electric dipole moment (input orientation):
 (Debye = 10**-18 statcoulomb cm , SI units = C m)
                  (au)            (Debye)         (10**-30 SI)
   Tot        0.111066D+01      0.282301D+01      0.941656D+01
   x          0.320088D-01      0.813582D-01      0.271382D+00
   y          0.717976D+00      0.182491D+01      0.608725D+01
   z          0.846788D+00      0.215232D+01      0.717937D+01

 Dipole polarizability, Alpha (input orientation).
 (esu units = cm**3 , SI units = C**2 m**2 J**-1)
 Alpha(0;0):
               (au)            (10**-24 esu)      (10**-40 SI)
   iso        0.631220D+02      0.935371D+01      0.104074D+02
   aniso      0.435848D+02      0.645861D+01      0.718617D+01
   xx         0.514022D+02      0.761702D+01      0.847508D+01
   yx        -0.142522D+02     -0.211196D+01     -0.234987D+01
   yy         0.866385D+02      0.128385D+02      0.142848D+02
   zx        -0.255158D+01     -0.378105D+00     -0.420698D+00
   zy         0.296769D+01      0.439766D+00      0.489306D+00
   zz         0.513253D+02      0.760562D+01      0.846239D+01

 ----------------------------------------------------------------------

 Dipole orientation:
     6          7.43950894         -1.32668652          2.14671889
     6          6.15417338          0.00219639          3.85641959
    16          5.32857411          3.14058966          3.08653799
     8          5.98261477          3.87192418          0.52032100
     6          6.61323122          5.26150118          5.34232567
     6          5.34328753          5.98920262          7.39137297
     8          2.34772770          3.03026646          3.71382293
     1          7.97816677         -3.26448824          2.55959711
     1          7.97345326         -0.55196324          0.32096782
     1          5.54586687         -0.61590706          5.71637209
     1          8.50559158          5.85883445          4.81061959
     1          6.21552652          7.30802294          8.70216204
     1          3.44993647          5.33346639          7.83550313
     1          1.45477544          4.46395968          2.93845583

 Electric dipole moment (dipole orientation):
 (Debye = 10**-18 statcoulomb cm , SI units = C m)
                  (au)            (Debye)         (10**-30 SI)
   Tot        0.111066D+01      0.282301D+01      0.941656D+01
   x          0.000000D+00      0.000000D+00      0.000000D+00
   y          0.000000D+00      0.000000D+00      0.000000D+00
   z          0.111066D+01      0.282301D+01      0.941656D+01

 Dipole polarizability, Alpha (dipole orientation).
 (esu units = cm**3 , SI units = C**2 m**2 J**-1)
 Alpha(0;0):
               (au)            (10**-24 esu)      (10**-40 SI)
   iso        0.631220D+02      0.935371D+01      0.104074D+02
   aniso      0.435848D+02      0.645861D+01      0.718617D+01
   xx         0.518561D+02      0.768428D+01      0.854991D+01
   yx        -0.955201D+01     -0.141546D+01     -0.157491D+01
   yy         0.691455D+02      0.102463D+02      0.114006D+02
   zx        -0.114652D+02     -0.169896D+01     -0.189035D+01
   zy         0.177533D+02      0.263077D+01      0.292712D+01
   zz         0.683643D+02      0.101306D+02      0.112718D+02

 ----------------------------------------------------------------------
 1\1\GINC-BROWN-A274\Freq\RB3LYP\6-31G(d)\C4H7O2S1(1+)\FINEJ\14-Oct-201
 9\0\\#P Geom=AllCheck Guess=TCheck SCRF=Check GenChk RB3LYP/6-31G(d) F
 req\\Title Card Required\\1,1\C,3.9751234813,0.1571491434,1.2064822771
 \C,3.3139142971,1.2856725475,1.4612850541\S,2.8479350255,2.2939113681,
 0.0896759903\O,3.150647814,1.7076394172,-1.2058279131\C,3.5499642096,3
 .9146105491,0.2546675196\C,2.9054343874,4.9164325832,0.8517999186\O,1.
 2814660602,2.480630548,0.4259567364\H,4.2771709907,-0.4869248957,2.027
 7319928\H,4.22536387,-0.1576348118,0.1967120871\H,3.0239871624,1.67580
 02642,2.4324112488\H,4.5394360039,3.9632840624,-0.1930486243\H,3.37939
 90357,5.8923641405,0.9161975539\H,1.9144296845,4.8142289472,1.28417681
 73\H,0.7893140577,2.7991747667,-0.3636913187\\Version=ES64L-G16RevA.03
 \State=1-A\HF=-704.8745617\RMSD=3.209e-09\RMSF=1.227e-05\ZeroPoint=0.1
 061762\Thermal=0.1061762\Dipole=0.0320088,0.7179757,0.8467882\DipoleDe
 riv=0.0339493,-0.1218964,0.029765,-0.1159347,0.1645481,-0.0498877,-0.0
 740742,0.2070447,-0.0178922,-0.2983754,-0.0861853,-0.0220794,0.0359648
 ,-0.5556671,-0.0200337,-0.0576286,-0.0422948,-0.1189262,1.8442684,0.01
 87588,0.1826353,-0.1852209,2.1126525,0.0874531,0.1696351,-0.3396666,1.
 6283915,-0.4620715,0.0205345,-0.0055216,0.0341971,-0.6707839,-0.106913
 7,-0.0071926,-0.0096423,-0.761901,-0.190563,0.2148092,-0.1230825,0.136
 5316,-0.3970909,-0.0413819,-0.100685,-0.0225431,-0.3500706,0.0486169,-
 0.2059839,-0.070197,-0.005464,0.0640342,0.050014,-0.0508417,0.1546018,
 -0.0019677,-1.2142174,0.0581748,-0.0825694,0.1249122,-0.6137866,-0.017
 1066,-0.0657195,0.1175556,-0.4093819,0.1441077,0.0591686,-0.0052271,0.
 0122082,0.1440987,0.0106975,0.0133276,-0.0244517,0.1050695,0.1506955,-
 0.0388217,-0.0063906,-0.0085451,0.1508873,0.0268973,0.0010971,0.015336
 2,0.076305,0.1518384,0.072363,-0.0196567,0.0786596,0.0380009,0.0612716
 ,-0.0153887,0.0280026,0.0948793,0.1394029,0.0036369,0.0180306,-0.02921
 56,0.0016327,-0.0436978,0.0104297,-0.066443,0.1662779,0.1126026,0.0078
 73,0.0264541,-0.0243514,0.1193419,-0.0072667,0.0285606,-0.0449966,0.15
 62966,0.07257,-0.0324983,0.0173424,-0.0468928,0.1217866,0.0174346,0.00
 07047,0.0287012,0.1271915,0.4671755,0.0300667,0.0604969,-0.0068488,0.3
 203456,0.0325202,0.1477754,-0.0012039,0.3057283\Polar=51.4022221,-14.2
 521963,86.6384525,-2.5515782,2.96769,51.3252526\Quadrupole=-1.4342015,
 7.5426367,-6.1084352,-3.9369198,2.941981,-2.6084095\PG=C01 [X(C4H7O2S1
 )]\NImag=0\\0.30574809,-0.31028872,0.67041292,-0.04969091,0.01650096,0
 .66694345,-0.16896098,0.21373156,0.05203731,0.28127330,0.21191113,-0.4
 0484178,-0.07849116,-0.28911669,0.58663462,0.05862368,-0.09272030,-0.1
 2874441,-0.12204329,0.15998015,0.54553798,-0.00741269,0.01596029,-0.01
 065984,-0.05668130,0.01484336,-0.01454330,0.50946507,0.01455778,-0.031
 00085,0.02299692,0.00511672,-0.08516545,0.02758993,-0.06071479,0.51084
 551,-0.01095646,0.02167701,0.00783772,0.00323928,0.02062079,-0.1354991
 1,-0.09656237,0.15137484,0.79364920,-0.00009003,-0.00007826,-0.0001572
 2,0.00672523,0.00025287,-0.00593614,-0.09659774,0.04347417,0.09247177,
 0.07231285,0.00022060,0.00027335,-0.00061400,0.00039369,0.01031301,0.0
 1374511,0.04578867,-0.16717872,-0.19701129,-0.04854639,0.15105109,0.00
 112305,-0.00309249,-0.00017009,0.00937188,-0.01763888,-0.01594888,0.09
 682855,-0.19041627,-0.50275103,-0.10804495,0.21130806,0.52017740,0.001
 45782,-0.00006207,-0.00129276,0.00879614,0.00624595,-0.00005672,-0.088
 50667,-0.03416820,0.00111212,0.00987887,0.00991166,0.00932418,0.594818
 58,-0.00108036,-0.00094722,0.00167627,-0.00373352,-0.00559387,-0.00417
 677,-0.02722406,-0.12330717,-0.00945498,-0.00578533,-0.00174942,0.0022
 0922,-0.12883238,0.52366167,0.00104874,0.00104481,-0.00372534,0.000762
 45,0.01134490,0.01035630,0.01045690,0.00519496,-0.06757229,-0.00596173
 ,-0.02753161,-0.00046730,-0.26870098,0.18276554,0.28468606,-0.00003364
 ,-0.00029087,0.00104359,-0.00192044,-0.00192658,-0.00065478,0.01414782
 ,-0.00160357,-0.00577672,-0.00140873,-0.00681209,-0.00384102,-0.214700
 94,0.15749301,0.12620463,0.62197215,-0.00034524,0.00031074,0.00050113,
 -0.00080207,-0.00075842,0.00073055,0.00103996,-0.03894715,-0.01085479,
 -0.00078079,-0.00245935,-0.00399205,0.16967463,-0.33847543,-0.16532259
 ,-0.01938737,0.72796472,0.00011127,0.00007121,-0.00032617,0.00136002,0
 .00253586,0.00043387,-0.00723117,-0.00958857,-0.00101349,0.00038229,0.
 00001965,0.00006966,0.12929240,-0.15935656,-0.14986867,-0.23843268,0.1
 8622374,0.28925661,-0.00120823,-0.00145215,-0.00495096,-0.01361187,0.0
 0325406,0.00455036,-0.23448399,0.01655338,0.04698823,0.00045524,-0.001
 39343,-0.00264441,-0.01641418,0.00851154,0.00750589,-0.00217507,0.0010
 7665,0.00167835,0.39547415,0.00055373,0.00171637,0.00263737,0.01660174
 ,0.00102546,-0.00057366,0.02418270,-0.06189981,0.00000681,0.01216675,0
 .00980406,-0.00336615,-0.01833243,0.00603850,0.00367484,0.00028206,-0.
 00148255,-0.00119565,-0.09519310,0.09750947,-0.00113867,-0.00102094,-0
 .00543009,-0.02556424,0.00856608,0.00882629,0.00538205,0.00337928,-0.0
 9650435,0.02896202,-0.00308578,0.00608449,-0.00105384,-0.00041368,0.00
 809461,0.00122038,-0.00068906,-0.00070033,0.13644343,-0.12397367,0.393
 38156,-0.06787791,0.05291098,-0.06024876,0.00039969,0.01002425,-0.0106
 4711,0.00776737,0.00947419,0.00068089,-0.00010776,-0.00164001,0.000241
 63,-0.00178697,0.00132856,-0.00152549,0.00048064,0.00024569,-0.0002718
 3,0.00187594,-0.00189663,0.00203245,0.05643192,0.05280300,-0.15392346,
 0.13140595,0.00847306,-0.01234762,0.01901021,0.00653949,0.00132522,-0.
 00234319,-0.00076052,0.00042895,0.00035496,-0.00103485,0.00056363,-0.0
 0029423,0.00013151,0.00006675,-0.00010238,0.00167965,-0.00139193,0.002
 04438,-0.06320300,0.15658452,-0.06231857,0.13496706,-0.22997532,0.0029
 1282,-0.00588419,0.00841217,0.00198675,-0.00243670,-0.00153367,-0.0006
 1419,0.00107121,0.00064290,0.00011172,-0.00011905,0.00056547,-0.000098
 73,-0.00007129,0.00001491,0.00078674,-0.00052776,0.00104821,0.06496937
 ,-0.14235455,0.23301983,-0.06151572,0.02481445,0.06114138,0.00322550,0
 .00685086,0.01452826,-0.00544947,-0.00292838,0.00217673,0.00008294,-0.
 00052129,-0.00070311,0.00103695,-0.00073788,0.00031503,-0.00034811,-0.
 00024795,0.00010701,-0.00110300,0.00093519,-0.00122063,0.00712211,-0.0
 0174045,-0.00750701,0.05009662,0.02437538,-0.07741434,-0.07330835,0.00
 905718,-0.00443054,-0.02409200,-0.00113281,-0.00458075,-0.00454507,-0.
 00102894,0.00155114,0.00081466,0.00048993,-0.00015307,0.00046385,0.000
 00234,-0.00003836,0.00002260,-0.00139649,0.00093856,-0.00028113,-0.003
 58594,0.00974458,0.01584686,-0.03287464,0.07487701,0.06398318,-0.07782
 585,-0.31256416,0.00098617,-0.00096326,0.00137542,-0.00100146,0.000807
 72,0.00159665,-0.00028541,0.00063632,-0.00110105,-0.00007145,0.0000169
 2,-0.00036051,-0.00003994,-0.00014596,-0.00003365,0.00006738,-0.000043
 92,-0.00056233,0.00526460,-0.00721180,-0.01276378,-0.06901543,0.083653
 11,0.32368576,0.00038889,0.00517886,0.01411310,-0.05539022,0.03697264,
 0.07383860,0.00199903,-0.00365171,-0.00944196,0.00101798,0.00189059,-0
 .00304593,-0.00047747,0.00000942,0.00023045,0.00024612,0.00005826,-0.0
 0014233,-0.00133223,0.00072911,0.00119999,-0.00487260,-0.00346208,-0.0
 0045220,0.00709450,0.00620314,0.00009725,0.05100931,0.00676073,-0.0044
 6087,-0.02475022,0.03685080,-0.08363261,-0.09716996,-0.00543275,0.0051
 7257,0.01790418,0.00170388,-0.00113068,0.00566580,0.00091969,-0.000099
 62,-0.00111460,-0.00054587,-0.00058031,-0.00011122,0.00061402,-0.00052
 790,-0.00088635,-0.00342057,-0.00062375,-0.00028943,0.00623819,-0.0005
 8326,0.00105577,-0.04375425,0.08650141,-0.00052390,0.00067921,0.004973
 39,0.07484313,-0.09912458,-0.29340138,0.00409584,-0.00426118,-0.017636
 14,-0.00011827,0.00117108,-0.00217647,-0.00053645,0.00007605,0.0005728
 2,0.00008884,0.00044731,0.00011344,-0.00054994,0.00029528,0.00142469,-
 0.00035078,-0.00030975,0.00076318,0.00001914,0.00120721,0.00056710,-0.
 07669288,0.09960773,0.30449964,-0.00005990,-0.00009338,-0.00000943,-0.
 00025522,0.00001954,-0.00020264,-0.00797978,-0.00250627,0.00369128,0.0
 0146370,0.00044604,-0.00112255,-0.29698386,-0.01303922,0.11939845,-0.0
 0464588,-0.00108791,0.00410042,-0.00006873,-0.00117326,0.00065370,0.00
 004990,0.00003907,-0.00001073,0.00002886,-0.00001864,-0.00000634,0.000
 03218,0.00005036,0.00006388,0.30638591,0.00036883,-0.00042782,0.000911
 21,0.00043788,-0.00121140,-0.00162435,-0.02460813,-0.00493459,0.011492
 38,0.00261326,0.00058400,-0.00105290,-0.01595766,-0.04789244,0.0027698
 5,0.02447485,0.00574386,-0.01109559,-0.00517833,-0.00286812,-0.0007751
 4,0.00009873,-0.00017852,-0.00012249,-0.00007988,-0.00000598,-0.000036
 39,-0.00003609,0.00003738,-0.00004650,0.01680593,0.05395553,-0.0002106
 8,0.00020302,0.00001023,-0.00002607,0.00032375,-0.00017384,-0.00344261
 ,-0.00029922,0.00134460,0.00056556,0.00018784,-0.00039043,0.12096924,0
 .00189569,-0.08595911,0.01147659,0.00092063,-0.00076087,-0.00315869,-0
 .00260768,0.00117499,-0.00004388,0.00003080,-0.00003500,0.00000497,0.0
 0003570,0.00004636,0.00012554,0.00002729,0.00002130,-0.12770391,0.0011
 9788,0.08167099,-0.00003136,-0.00004320,0.00007434,0.00002641,-0.00066
 803,-0.00057590,-0.00116625,0.00040463,0.00677920,0.00040720,0.0027887
 9,0.00088246,0.00995348,0.01514536,0.00217442,-0.11304638,-0.12144759,
 -0.00229909,0.00150043,-0.00098386,-0.00103109,0.00009595,0.00004375,-
 0.00000787,-0.00000760,-0.00006595,0.00005110,-0.00007586,0.00016810,-
 0.00005909,-0.00048244,0.00087843,-0.00278481,0.10845547,0.00003496,0.
 00003838,-0.00016307,0.00020261,0.00081907,0.00052292,0.00055112,0.000
 85995,-0.00411315,-0.00011145,-0.00138282,-0.00049548,-0.00946392,-0.0
 1689296,-0.00184118,-0.11841017,-0.29107668,-0.01790655,-0.00034580,0.
 00022985,0.00042233,-0.00012280,-0.00005102,0.00001530,0.00003846,0.00
 003721,-0.00004548,-0.00000171,-0.00013731,0.00004706,0.00076335,0.000
 69034,0.00186868,0.12633962,0.30408015,-0.00014331,-0.00017759,0.00074
 527,-0.00112085,-0.00236054,-0.00134246,0.00585376,-0.00628764,0.01056
 261,-0.00043561,0.00255995,-0.00056215,-0.00381752,-0.01360980,0.00335
 046,-0.00145973,-0.01601258,-0.04597356,0.00053586,0.00130749,-0.00056
 919,0.00047368,0.00015725,-0.00008068,-0.00022963,-0.00012482,0.000053
 31,-0.00000887,0.00000612,0.00008367,-0.00293644,0.00186535,-0.0050996
 6,-0.00175657,0.02270180,0.03287304,-0.00002133,0.00010895,-0.00022481
 ,0.00012133,0.00034668,0.00041578,-0.00149530,0.00154305,-0.00263844,0
 .00014474,-0.00081561,-0.00019544,-0.00746955,-0.00226118,0.00636782,-
 0.29934140,-0.02779703,0.11177191,-0.00082805,-0.00194929,-0.00058466,
 -0.00008145,0.00000172,0.00001899,0.00003568,0.00001666,0.00000429,0.0
 0003262,0.00013328,-0.00008427,0.00238995,0.00001314,0.00392959,-0.005
 52927,0.00051449,0.00523765,0.31169495,-0.00001033,-0.00008921,0.00011
 869,-0.00032607,-0.00039968,-0.00040359,0.00482046,-0.00055301,0.00065
 586,-0.00060574,0.00085024,0.00057495,0.02263703,0.00477472,-0.0115952
 2,-0.03259951,-0.06008322,0.01013157,-0.00089966,0.00025943,0.00035070
 ,0.00010201,0.00004789,0.00001292,-0.00003453,-0.00001735,0.00000948,0
 .00007738,-0.00006166,0.00007984,-0.00032123,-0.00266794,-0.00376082,-
 0.02286459,0.00290079,0.00996862,0.03047810,0.05519161,0.00003999,0.00
 012883,-0.00054170,0.00038616,0.00119886,0.00079858,0.00000724,0.00316
 569,-0.00642225,-0.00008354,-0.00151925,-0.00002240,0.01281447,-0.0005
 5714,0.00147812,0.11050499,0.00824475,-0.09150249,-0.00184910,0.000965
 32,0.00044027,-0.00026328,-0.00006153,0.00006141,0.00014541,0.00005752
 ,-0.00003386,-0.00005435,0.00011674,0.00001538,0.00397578,-0.00402286,
 0.00796706,-0.00159251,-0.00096610,0.00595875,-0.12382469,-0.00575972,
 0.08212119,-0.00038301,-0.00039642,-0.00117503,-0.00374758,0.00098995,
 0.00270318,-0.03360610,0.01444902,-0.03176356,0.00571551,-0.00171121,0
 .00182566,0.00039780,0.00020604,0.00172342,0.00077387,-0.00019925,-0.0
 0042657,-0.12808041,0.06407729,-0.14530090,0.00050316,0.00048965,0.000
 22292,-0.00029925,-0.00004123,-0.00003395,0.00032775,-0.00028562,-0.00
 019524,0.00012532,0.00016903,0.00029916,-0.00009979,0.00001124,-0.0001
 9240,0.00034708,-0.00045331,-0.00020658,0.15802565,0.00013851,0.000353
 78,0.00057828,0.00311312,-0.00041079,-0.00081825,0.00538647,-0.0006357
 4,0.00459060,-0.00251351,-0.00095487,-0.00087342,-0.00202736,0.0000726
 9,0.00044070,-0.00080775,-0.00018461,0.00035189,0.07416964,-0.04935138
 ,0.11636298,-0.00031545,-0.00024525,-0.00010788,0.00028785,0.00007515,
 0.00009333,-0.00021357,0.00012662,0.00013123,0.00011562,-0.00082428,-0
 .00002355,0.00030455,-0.00011495,0.00000639,-0.00033296,-0.00015260,-0
 .00099111,-0.07730517,0.05224624,0.00005260,-0.00043496,0.00096724,0.0
 0285523,-0.00010778,-0.00063051,0.00882965,-0.00121976,0.01394154,-0.0
 0074459,-0.00093730,-0.00338463,0.00190558,-0.00095170,-0.00115064,-0.
 00023543,0.00002021,0.00029074,-0.18540315,0.12340137,-0.31670880,-0.0
 0031149,-0.00032611,-0.00013963,0.00023790,0.00024988,0.00009475,0.000
 23361,-0.00006184,0.00017937,0.00010852,0.00053955,0.00018338,0.000145
 41,-0.00004707,0.00000059,-0.00019372,-0.00038330,-0.00031806,0.172519
 89,-0.11974119,0.30667467\\-0.00000379,0.00000472,0.00000076,0.0000049
 9,0.00001627,-0.00003470,0.00000036,-0.00000162,0.00003993,-0.00000605
 ,0.00000780,0.00000471,-0.00000862,-0.00000351,0.00000041,-0.00000877,
 -0.00002730,-0.00002272,0.00001958,0.00001882,-0.00001065,-0.00000008,
 -0.00000019,0.00000055,0.00000434,-0.00000460,0.00000364,-0.00000719,-
 0.00001278,0.00000346,-0.00000238,-0.00000102,-0.00000188,0.00000380,0
 .00000319,0.00000934,0.00000567,0.00001138,0.00000975,-0.00000186,-0.0
 0001116,-0.00000261\\\@


 FOR THE NATURE OF THE CHEMICAL BOND
 IS THE PROBLEM AT THE HEART OF ALL CHEMISTRY.

                     -- BRYCE CRAWFORD, JR., 1953
 Job cpu time:       0 days  0 hours  4 minutes 44.3 seconds.
 Elapsed time:       0 days  0 hours  0 minutes 12.4 seconds.
 File lengths (MBytes):  RWF=     33 Int=      0 D2E=      0 Chk=      3 Scr=      1
 Normal termination of Gaussian 16 at Mon Oct 14 01:39:23 2019.
real 73.17
user 1567.76
sys 20.48
Machine:
brown-a274
brown-a274
brown-a274
brown-a274
brown-a274
brown-a274
brown-a274
brown-a274
brown-a274
brown-a274
brown-a274
brown-a274
brown-a274
brown-a274
brown-a274
brown-a274
brown-a274
brown-a274
brown-a274
brown-a274
brown-a274
brown-a274
brown-a274
brown-a274
