Title Card Required                                                     
Freq      RB3LYP                                                      6-31G(d)            
Number of atoms                            I               18
Info1-9                                    I   N=           9
          46          46        1002           0           0         100
           6          18        -502
Full Title                                 C   N=           2
Title Card Required     
Route                                      C   N=           6
#P opt freq b3lyp/6-31g(d) geom=connectivity temperature=0.0
01          
Charge                                     I                0
Multiplicity                               I                1
Number of electrons                        I               90
Number of alpha electrons                  I               45
Number of beta electrons                   I               45
Number of basis functions                  I              183
Number of independent functions            I              183
Number of point charges in /Mol/           I                0
Number of translation vectors              I                0
Atomic numbers                             I   N=          18
           8          16           6           6           6           6
           6           6           7           8           8           1
           1           1           1           1           1           1
Nuclear charges                            R   N=          18
  8.00000000E+00  1.60000000E+01  6.00000000E+00  6.00000000E+00  6.00000000E+00
  6.00000000E+00  6.00000000E+00  6.00000000E+00  7.00000000E+00  8.00000000E+00
  8.00000000E+00  1.00000000E+00  1.00000000E+00  1.00000000E+00  1.00000000E+00
  1.00000000E+00  1.00000000E+00  1.00000000E+00
Current cartesian coordinates              R   N=          54
  3.24965854E+00 -8.78487107E-01  2.79727873E+00  2.41053234E+00  7.18115828E-01
  7.00600842E-01 -9.26039586E-01  3.11801543E-01  3.24553749E-01 -2.31294043E+00
  2.18656120E+00 -9.10957565E-01 -4.91115879E+00  1.85793390E+00 -1.19876434E+00
 -6.08299815E+00 -3.16365445E-01 -2.62819522E-01 -4.66959124E+00 -2.16978446E+00
  9.75717829E-01 -2.06838898E+00 -1.86427010E+00  1.28358616E+00  3.48089274E+00
 -4.19822850E-01 -2.21212921E+00  3.36530988E+00 -3.11134199E+00 -2.24015914E+00
  3.06829034E+00  3.40555143E+00  5.72374962E-01 -1.36673207E+00  3.86827840E+00
 -1.60326336E+00 -6.02178816E+00  3.30189688E+00 -2.14438596E+00 -8.10892399E+00
 -5.60640090E-01 -4.90328002E-01 -5.59153476E+00 -3.84815602E+00  1.71468315E+00
 -9.35062652E-01 -3.25956906E+00  2.26795771E+00  5.36788689E+00  1.78867545E-02
 -2.25829388E+00  2.08202109E+00 -3.43182871E+00 -3.51493297E+00
Number of symbols in /Mol/                 I                0
Force Field                                I                0
Atom Types                                 C   N=          18
                                                            
                                                            
                                                            
                                    
Int Atom Types                             I   N=          18
           0           0           0           0           0           0
           0           0           0           0           0           0
           0           0           0           0           0           0
MM charges                                 R   N=          18
  0.00000000E+00  0.00000000E+00  0.00000000E+00  0.00000000E+00  0.00000000E+00
  0.00000000E+00  0.00000000E+00  0.00000000E+00  0.00000000E+00  0.00000000E+00
  0.00000000E+00  0.00000000E+00  0.00000000E+00  0.00000000E+00  0.00000000E+00
  0.00000000E+00  0.00000000E+00  0.00000000E+00
Integer atomic weights                     I   N=          18
          16          32          12          12          12          12
          12          12          14          16          16           1
           1           1           1           1           1           1
Real atomic weights                        R   N=          18
  1.59949146E+01  3.19720718E+01  1.20000000E+01  1.20000000E+01  1.20000000E+01
  1.20000000E+01  1.20000000E+01  1.20000000E+01  1.40030740E+01  1.59949146E+01
  1.59949146E+01  1.00782504E+00  1.00782504E+00  1.00782504E+00  1.00782504E+00
  1.00782504E+00  1.00782504E+00  1.00782504E+00
Atom fragment info                         I   N=          18
           0           0           0           0           0           0
           0           0           0           0           0           0
           0           0           0           0           0           0
Atom residue num                           I   N=          18
           0           0           0           0           0           0
           0           0           0           0           0           0
           0           0           0           0           0           0
Nuclear spins                              I   N=          18
           0           0           0           0           0           0
           0           0           2           0           0           1
           1           1           1           1           1           1
Nuclear ZEff                               R   N=          18
 -5.60000000E+00 -1.36000000E+01 -3.60000000E+00 -3.60000000E+00 -3.60000000E+00
 -3.60000000E+00 -3.60000000E+00 -3.60000000E+00 -4.55000000E+00 -5.60000000E+00
 -5.60000000E+00 -1.00000000E+00 -1.00000000E+00 -1.00000000E+00 -1.00000000E+00
 -1.00000000E+00 -1.00000000E+00 -1.00000000E+00
Nuclear ZNuc                               R   N=          18
  8.00000000E+00  1.60000000E+01  6.00000000E+00  6.00000000E+00  6.00000000E+00
  6.00000000E+00  6.00000000E+00  6.00000000E+00  7.00000000E+00  8.00000000E+00
  8.00000000E+00  1.00000000E+00  1.00000000E+00  1.00000000E+00  1.00000000E+00
  1.00000000E+00  1.00000000E+00  1.00000000E+00
Nuclear QMom                               R   N=          18
  0.00000000E+00  0.00000000E+00  0.00000000E+00  0.00000000E+00  0.00000000E+00
  0.00000000E+00  0.00000000E+00  0.00000000E+00  2.04400000E+00  0.00000000E+00
  0.00000000E+00  0.00000000E+00  0.00000000E+00  0.00000000E+00  0.00000000E+00
  0.00000000E+00  0.00000000E+00  0.00000000E+00
Nuclear GFac                               R   N=          18
  0.00000000E+00  0.00000000E+00  0.00000000E+00  0.00000000E+00  0.00000000E+00
  0.00000000E+00  0.00000000E+00  0.00000000E+00  4.03761000E-01  0.00000000E+00
  0.00000000E+00  2.79284600E+00  2.79284600E+00  2.79284600E+00  2.79284600E+00
  2.79284600E+00  2.79284600E+00  2.79284600E+00
MicOpt                                     I   N=          18
          -1          -1          -1          -1          -1          -1
          -1          -1          -1          -1          -1          -1
          -1          -1          -1          -1          -1          -1
Number of residues                         I                0
Number of secondary structures             I                0
Redundant internal dimensions              I   N=           4
          84          18          28          38
Redundant internal coordinate indices      I   N=         336
           1           2           0           0           2           3
           0           0           2           9           0           0
           2          11           0           0           3           4
           0           0           3           8           0           0
           4           5           0           0           4          12
           0           0           5           6           0           0
           5          13           0           0           6           7
           0           0           6          14           0           0
           7           8           0           0           7          15
           0           0           8          16           0           0
           9          10           0           0           9          17
           0           0          10          18           0           0
           1           2           3           0           1           2
           9           0           1           2          11           0
           3           2           9           0           3           2
          11           0           9           2          11           0
           2           3           4           0           2           3
           8           0           4           3           8           0
           3           4           5           0           3           4
          12           0           5           4          12           0
           4           5           6           0           4           5
          13           0           6           5          13           0
           5           6           7           0           5           6
          14           0           7           6          14           0
           6           7           8           0           6           7
          15           0           8           7          15           0
           3           8           7           0           3           8
          16           0           7           8          16           0
           2           9          10           0           2           9
          17           0          10           9          17           0
           9          10          18           0           1           2
           3           4           1           2           3           8
           9           2           3           4           9           2
           3           8          11           2           3           4
          11           2           3           8           1           2
           9          10           1           2           9          17
           3           2           9          10           3           2
           9          17          11           2           9          10
          11           2           9          17           2           3
           4           5           2           3           4          12
           8           3           4           5           8           3
           4          12           2           3           8           7
           2           3           8          16           4           3
           8           7           4           3           8          16
           3           4           5           6           3           4
           5          13          12           4           5           6
          12           4           5          13           4           5
           6           7           4           5           6          14
          13           5           6           7          13           5
           6          14           5           6           7           8
           5           6           7          15          14           6
           7           8          14           6           7          15
           6           7           8           3           6           7
           8          16          15           7           8           3
          15           7           8          16           2           9
          10          18          17           9          10          18
Redundant internal coordinates             R   N=          84
  2.76574255E+00  3.38219085E+00  3.30523406E+00  2.76972880E+00  2.63907293E+00
  2.63817989E+00  2.63468543E+00  2.05006593E+00  2.64135909E+00  2.05249286E+00
  2.63948024E+00  2.05324273E+00  2.63711492E+00  2.05255468E+00  2.04945726E+00
  2.69414557E+00  1.93764491E+00  1.83700576E+00  1.89045755E+00  1.95095074E+00
  2.12136349E+00  1.75191394E+00  1.92377529E+00  1.78887218E+00  2.07732948E+00
  2.07811924E+00  2.12772711E+00  2.07234664E+00  2.09241846E+00  2.11834077E+00
  2.09610203E+00  2.09001297E+00  2.09705802E+00  2.10217994E+00  2.09026414E+00
  2.09072262E+00  2.09627254E+00  2.09739051E+00  2.08949824E+00  2.07171307E+00
  2.09060670E+00  2.12076164E+00  1.91688775E+00  1.83236447E+00  1.84129258E+00
  1.78388645E+00  2.76508309E+00 -3.71920628E-01 -1.47158365E+00  1.67459794E+00
  4.05861140E-01 -2.73114258E+00  6.75545868E-01 -1.29652175E+00 -1.32562024E+00
  2.98549745E+00  2.97465258E+00  1.00258496E+00  3.14105105E+00 -1.38993131E-02
 -5.26658726E-03  3.12296835E+00 -3.13831751E+00  1.85299480E-02  8.00220610E-03
 -3.11833565E+00 -1.30685017E-03  3.13496628E+00 -3.12933516E+00  6.93796899E-03
  4.99917952E-03  3.14002275E+00 -3.13125231E+00  3.77125552E-03 -2.20589565E-03
  3.13191778E+00 -3.13722774E+00 -3.10406237E-03 -4.17006783E-03  3.12189273E+00
 -3.13832763E+00 -1.22648321E-02  1.98927999E+00 -2.32761797E+00
ZRed-IntVec                                I   N=          84
           0           0           0           0           0           0
           0           0           0           0           0           0
           0           0           0           0           0           0
           0           0           0           0           0           0
           0           0           0           0           0           0
           0           0           0           0           0           0
           0           0           0           0           0           0
           0           0           0           0           0           0
           0           0           0           0           0           0
           0           0           0           0           0           0
           0           0           0           0           0           0
           0           0           0           0           0           0
           0           0           0           0           0           0
           0           0           0           0           0           0
ZRed-FPVec                                 R   N=          84
  0.00000000E+00  0.00000000E+00  0.00000000E+00  0.00000000E+00  0.00000000E+00
  0.00000000E+00  0.00000000E+00  0.00000000E+00  0.00000000E+00  0.00000000E+00
  0.00000000E+00  0.00000000E+00  0.00000000E+00  0.00000000E+00  0.00000000E+00
  0.00000000E+00  0.00000000E+00  0.00000000E+00  0.00000000E+00  0.00000000E+00
  0.00000000E+00  0.00000000E+00  0.00000000E+00  0.00000000E+00  0.00000000E+00
  0.00000000E+00  0.00000000E+00  0.00000000E+00  0.00000000E+00  0.00000000E+00
  0.00000000E+00  0.00000000E+00  0.00000000E+00  0.00000000E+00  0.00000000E+00
  0.00000000E+00  0.00000000E+00  0.00000000E+00  0.00000000E+00  0.00000000E+00
  0.00000000E+00  0.00000000E+00  0.00000000E+00  0.00000000E+00  0.00000000E+00
  0.00000000E+00  0.00000000E+00  0.00000000E+00  0.00000000E+00  0.00000000E+00
  0.00000000E+00  0.00000000E+00  0.00000000E+00  0.00000000E+00  0.00000000E+00
  0.00000000E+00  0.00000000E+00  0.00000000E+00  0.00000000E+00  0.00000000E+00
  0.00000000E+00  0.00000000E+00  0.00000000E+00  0.00000000E+00  0.00000000E+00
  0.00000000E+00  0.00000000E+00  0.00000000E+00  0.00000000E+00  0.00000000E+00
  0.00000000E+00  0.00000000E+00  0.00000000E+00  0.00000000E+00  0.00000000E+00
  0.00000000E+00  0.00000000E+00  0.00000000E+00  0.00000000E+00  0.00000000E+00
  0.00000000E+00  0.00000000E+00  0.00000000E+00  0.00000000E+00
ZRed-Constraint1                           R   N=          84
  2.76574255E+00  3.38219085E+00  3.30523406E+00  2.76972880E+00  2.63907293E+00
  2.63817989E+00  2.63468543E+00  2.05006593E+00  2.64135909E+00  2.05249286E+00
  2.63948024E+00  2.05324273E+00  2.63711492E+00  2.05255468E+00  2.04945726E+00
  2.69414557E+00  1.93764491E+00  1.83700576E+00  1.89045755E+00  1.95095074E+00
  2.12136349E+00  1.75191394E+00  1.92377529E+00  1.78887218E+00  2.07732948E+00
  2.07811924E+00  2.12772711E+00  2.07234664E+00  2.09241846E+00  2.11834077E+00
  2.09610203E+00  2.09001297E+00  2.09705802E+00  2.10217994E+00  2.09026414E+00
  2.09072262E+00  2.09627254E+00  2.09739051E+00  2.08949824E+00  2.07171307E+00
  2.09060670E+00  2.12076164E+00  1.91688775E+00  1.83236447E+00  1.84129258E+00
  1.78388645E+00  2.76508309E+00 -3.71920628E-01 -1.47158365E+00  1.67459794E+00
  4.05861140E-01 -2.73114258E+00  6.75545868E-01 -1.29652175E+00 -1.32562024E+00
  2.98549745E+00  2.97465258E+00  1.00258496E+00  3.14105105E+00 -1.38993131E-02
 -5.26658726E-03  3.12296835E+00 -3.13831751E+00  1.85299480E-02  8.00220610E-03
 -3.11833565E+00 -1.30685017E-03  3.13496628E+00 -3.12933516E+00  6.93796898E-03
  4.99917952E-03  3.14002275E+00 -3.13125231E+00  3.77125552E-03 -2.20589565E-03
  3.13191778E+00 -3.13722774E+00 -3.10406237E-03 -4.17006783E-03  3.12189273E+00
 -3.13832763E+00 -1.22648321E-02  1.98927999E+00 -2.32761797E+00
ZRed-Constraint2                           R   N=          84
  3.03167909E+00  3.34577355E+00  3.32332358E+00  3.03132330E+00  2.66639778E+00
  2.66636727E+00  2.65866216E+00  2.05979635E+00  2.65813915E+00  2.05983063E+00
  2.65789756E+00  2.05987264E+00  2.65824062E+00  2.05984737E+00  2.05988509E+00
  2.55641975E+00  1.90858538E+00  1.81425732E+00  1.93690508E+00  1.89436600E+00
  1.89400257E+00  1.90977235E+00  1.93437002E+00  1.89345111E+00  2.10063850E+00
  2.09681124E+00  2.08571746E+00  2.09798201E+00  2.09498885E+00  2.09021444E+00
  2.09474595E+00  2.09438996E+00  2.09404939E+00  2.09490884E+00  2.09421284E+00
  2.09406363E+00  2.09435449E+00  2.09441159E+00  2.09441922E+00  2.09861747E+00
  2.09498644E+00  2.08958139E+00  1.87697036E+00  2.37915327E+00  2.02706168E+00
  1.91058792E+00  2.62214119E+00 -5.25949836E-01 -1.57097930E+00  1.56411498E+00
  5.16371739E-01 -2.63171928E+00  1.11166981E+00 -2.02980876E+00 -1.00434211E+00
  2.13736462E+00 -3.11669838E+00  2.50083492E-02 -3.13776395E+00  3.87919427E-03
  1.02858819E-02 -3.13125628E+00  3.13828182E+00 -3.18582526E-03 -9.75361532E-03
  3.13196405E+00 -5.04626356E-03  3.13645686E+00  3.13649604E+00 -5.18614303E-03
 -8.05483594E-04  3.14083485E+00  3.14087668E+00 -6.68290638E-04  1.34030318E-03
 -3.14029883E+00 -3.14030003E+00  1.24614361E-03  3.97609264E-03 -3.13774118E+00
 -3.13757008E+00  3.89795360E-03  4.33780087E-01 -2.70790034E+00
SymInf integers                            I   N=          26
           1           1           1           1           1           0
           0           0           0           0           0           0
           0           0           0           0           0           0
           0           0           0           0           0           0
           0           0
RotTr to input orientation                 R   N=          12
 -7.15517885E-01  8.18882887E-02 -6.93778397E-01 -5.64874096E-01 -6.52138767E-01
  5.05600914E-01 -4.11036995E-01  7.53663942E-01  5.12873525E-01 -1.27428675E+00
  1.63156558E+00 -2.57673970E-01
Number of contracted shells                I               59
Number of primitive shells                 I              155
Pure/Cartesian d shells                    I                1
Pure/Cartesian f shells                    I                0
Highest angular momentum                   I                2
Largest degree of contraction              I                6
Shell types                                I   N=          59
           0          -1          -1           2           0          -1
          -1          -1           2           0          -1          -1
           2           0          -1          -1           2           0
          -1          -1           2           0          -1          -1
           2           0          -1          -1           2           0
          -1          -1           2           0          -1          -1
           2           0          -1          -1           2           0
          -1          -1           2           0           0           0
           0           0           0           0           0           0
           0           0           0           0           0
Number of primitives per shell             I   N=          59
           6           3           1           1           6           6
           3           1           1           6           3           1
           1           6           3           1           1           6
           3           1           1           6           3           1
           1           6           3           1           1           6
           3           1           1           6           3           1
           1           6           3           1           1           6
           3           1           1           3           1           3
           1           3           1           3           1           3
           1           3           1           3           1
Shell to atom map                          I   N=          59
           1           1           1           1           2           2
           2           2           2           3           3           3
           3           4           4           4           4           5
           5           5           5           6           6           6
           6           7           7           7           7           8
           8           8           8           9           9           9
           9          10          10          10          10          11
          11          11          11          12          12          13
          13          14          14          15          15          16
          16          17          17          18          18
Primitive exponents                        R   N=         155
  5.48467166E+03  8.25234946E+02  1.88046958E+02  5.29645000E+01  1.68975704E+01
  5.79963534E+00  1.55396162E+01  3.59993359E+00  1.01376175E+00  2.70005823E-01
  8.00000000E-01  2.19171000E+04  3.30149000E+03  7.54146000E+02  2.12711000E+02
  6.79896000E+01  2.30515000E+01  4.23735000E+02  1.00710000E+02  3.21599000E+01
  1.18079000E+01  4.63110000E+00  1.87025000E+00  2.61584000E+00  9.22167000E-01
  3.41287000E-01  1.17167000E-01  6.50000000E-01  3.04752488E+03  4.57369518E+02
  1.03948685E+02  2.92101553E+01  9.28666296E+00  3.16392696E+00  7.86827235E+00
  1.88128854E+00  5.44249258E-01  1.68714478E-01  8.00000000E-01  3.04752488E+03
  4.57369518E+02  1.03948685E+02  2.92101553E+01  9.28666296E+00  3.16392696E+00
  7.86827235E+00  1.88128854E+00  5.44249258E-01  1.68714478E-01  8.00000000E-01
  3.04752488E+03  4.57369518E+02  1.03948685E+02  2.92101553E+01  9.28666296E+00
  3.16392696E+00  7.86827235E+00  1.88128854E+00  5.44249258E-01  1.68714478E-01
  8.00000000E-01  3.04752488E+03  4.57369518E+02  1.03948685E+02  2.92101553E+01
  9.28666296E+00  3.16392696E+00  7.86827235E+00  1.88128854E+00  5.44249258E-01
  1.68714478E-01  8.00000000E-01  3.04752488E+03  4.57369518E+02  1.03948685E+02
  2.92101553E+01  9.28666296E+00  3.16392696E+00  7.86827235E+00  1.88128854E+00
  5.44249258E-01  1.68714478E-01  8.00000000E-01  3.04752488E+03  4.57369518E+02
  1.03948685E+02  2.92101553E+01  9.28666296E+00  3.16392696E+00  7.86827235E+00
  1.88128854E+00  5.44249258E-01  1.68714478E-01  8.00000000E-01  4.17351146E+03
  6.27457911E+02  1.42902093E+02  4.02343293E+01  1.28202129E+01  4.39043701E+00
  1.16263619E+01  2.71627981E+00  7.72218397E-01  2.12031498E-01  8.00000000E-01
  5.48467166E+03  8.25234946E+02  1.88046958E+02  5.29645000E+01  1.68975704E+01
  5.79963534E+00  1.55396162E+01  3.59993359E+00  1.01376175E+00  2.70005823E-01
  8.00000000E-01  5.48467166E+03  8.25234946E+02  1.88046958E+02  5.29645000E+01
  1.68975704E+01  5.79963534E+00  1.55396162E+01  3.59993359E+00  1.01376175E+00
  2.70005823E-01  8.00000000E-01  1.87311370E+01  2.82539436E+00  6.40121692E-01
  1.61277759E-01  1.87311370E+01  2.82539436E+00  6.40121692E-01  1.61277759E-01
  1.87311370E+01  2.82539436E+00  6.40121692E-01  1.61277759E-01  1.87311370E+01
  2.82539436E+00  6.40121692E-01  1.61277759E-01  1.87311370E+01  2.82539436E+00
  6.40121692E-01  1.61277759E-01  1.87311370E+01  2.82539436E+00  6.40121692E-01
  1.61277759E-01  1.87311370E+01  2.82539436E+00  6.40121692E-01  1.61277759E-01
Contraction coefficients                   R   N=         155
  1.83107443E-03  1.39501722E-02  6.84450781E-02  2.32714336E-01  4.70192898E-01
  3.58520853E-01 -1.10777550E-01 -1.48026263E-01  1.13076702E+00  1.00000000E+00
  1.00000000E+00  1.86924085E-03  1.42303065E-02  6.96962317E-02  2.38487108E-01
  4.83307220E-01  3.38074154E-01 -2.37677050E-03 -3.16930067E-02 -1.13317024E-01
  5.60900118E-02  5.92255124E-01  4.55006095E-01 -2.50373114E-01  6.69567631E-02
  1.05450627E+00  1.00000000E+00  1.00000000E+00  1.83473713E-03  1.40373228E-02
  6.88426223E-02  2.32184443E-01  4.67941348E-01  3.62311985E-01 -1.19332420E-01
 -1.60854152E-01  1.14345644E+00  1.00000000E+00  1.00000000E+00  1.83473713E-03
  1.40373228E-02  6.88426223E-02  2.32184443E-01  4.67941348E-01  3.62311985E-01
 -1.19332420E-01 -1.60854152E-01  1.14345644E+00  1.00000000E+00  1.00000000E+00
  1.83473713E-03  1.40373228E-02  6.88426223E-02  2.32184443E-01  4.67941348E-01
  3.62311985E-01 -1.19332420E-01 -1.60854152E-01  1.14345644E+00  1.00000000E+00
  1.00000000E+00  1.83473713E-03  1.40373228E-02  6.88426223E-02  2.32184443E-01
  4.67941348E-01  3.62311985E-01 -1.19332420E-01 -1.60854152E-01  1.14345644E+00
  1.00000000E+00  1.00000000E+00  1.83473713E-03  1.40373228E-02  6.88426223E-02
  2.32184443E-01  4.67941348E-01  3.62311985E-01 -1.19332420E-01 -1.60854152E-01
  1.14345644E+00  1.00000000E+00  1.00000000E+00  1.83473713E-03  1.40373228E-02
  6.88426223E-02  2.32184443E-01  4.67941348E-01  3.62311985E-01 -1.19332420E-01
 -1.60854152E-01  1.14345644E+00  1.00000000E+00  1.00000000E+00  1.83477216E-03
  1.39946270E-02  6.85865518E-02  2.32240873E-01  4.69069948E-01  3.60455199E-01
 -1.14961182E-01 -1.69117479E-01  1.14585195E+00  1.00000000E+00  1.00000000E+00
  1.83107443E-03  1.39501722E-02  6.84450781E-02  2.32714336E-01  4.70192898E-01
  3.58520853E-01 -1.10777550E-01 -1.48026263E-01  1.13076702E+00  1.00000000E+00
  1.00000000E+00  1.83107443E-03  1.39501722E-02  6.84450781E-02  2.32714336E-01
  4.70192898E-01  3.58520853E-01 -1.10777550E-01 -1.48026263E-01  1.13076702E+00
  1.00000000E+00  1.00000000E+00  3.34946043E-02  2.34726953E-01  8.13757326E-01
  1.00000000E+00  3.34946043E-02  2.34726953E-01  8.13757326E-01  1.00000000E+00
  3.34946043E-02  2.34726953E-01  8.13757326E-01  1.00000000E+00  3.34946043E-02
  2.34726953E-01  8.13757326E-01  1.00000000E+00  3.34946043E-02  2.34726953E-01
  8.13757326E-01  1.00000000E+00  3.34946043E-02  2.34726953E-01  8.13757326E-01
  1.00000000E+00  3.34946043E-02  2.34726953E-01  8.13757326E-01  1.00000000E+00
P(S=P) Contraction coefficients            R   N=         155
  0.00000000E+00  0.00000000E+00  0.00000000E+00  0.00000000E+00  0.00000000E+00
  0.00000000E+00  7.08742682E-02  3.39752839E-01  7.27158577E-01  1.00000000E+00
  0.00000000E+00  0.00000000E+00  0.00000000E+00  0.00000000E+00  0.00000000E+00
  0.00000000E+00  0.00000000E+00  4.06100998E-03  3.06812999E-02  1.30451999E-01
  3.27204999E-01  4.52850998E-01  2.56041999E-01 -1.45104895E-02  3.10262776E-01
  7.54482456E-01  1.00000000E+00  0.00000000E+00  0.00000000E+00  0.00000000E+00
  0.00000000E+00  0.00000000E+00  0.00000000E+00  0.00000000E+00  6.89990666E-02
  3.16423961E-01  7.44308291E-01  1.00000000E+00  0.00000000E+00  0.00000000E+00
  0.00000000E+00  0.00000000E+00  0.00000000E+00  0.00000000E+00  0.00000000E+00
  6.89990666E-02  3.16423961E-01  7.44308291E-01  1.00000000E+00  0.00000000E+00
  0.00000000E+00  0.00000000E+00  0.00000000E+00  0.00000000E+00  0.00000000E+00
  0.00000000E+00  6.89990666E-02  3.16423961E-01  7.44308291E-01  1.00000000E+00
  0.00000000E+00  0.00000000E+00  0.00000000E+00  0.00000000E+00  0.00000000E+00
  0.00000000E+00  0.00000000E+00  6.89990666E-02  3.16423961E-01  7.44308291E-01
  1.00000000E+00  0.00000000E+00  0.00000000E+00  0.00000000E+00  0.00000000E+00
  0.00000000E+00  0.00000000E+00  0.00000000E+00  6.89990666E-02  3.16423961E-01
  7.44308291E-01  1.00000000E+00  0.00000000E+00  0.00000000E+00  0.00000000E+00
  0.00000000E+00  0.00000000E+00  0.00000000E+00  0.00000000E+00  6.89990666E-02
  3.16423961E-01  7.44308291E-01  1.00000000E+00  0.00000000E+00  0.00000000E+00
  0.00000000E+00  0.00000000E+00  0.00000000E+00  0.00000000E+00  0.00000000E+00
  6.75797439E-02  3.23907296E-01  7.40895140E-01  1.00000000E+00  0.00000000E+00
  0.00000000E+00  0.00000000E+00  0.00000000E+00  0.00000000E+00  0.00000000E+00
  0.00000000E+00  7.08742682E-02  3.39752839E-01  7.27158577E-01  1.00000000E+00
  0.00000000E+00  0.00000000E+00  0.00000000E+00  0.00000000E+00  0.00000000E+00
  0.00000000E+00  0.00000000E+00  7.08742682E-02  3.39752839E-01  7.27158577E-01
  1.00000000E+00  0.00000000E+00  0.00000000E+00  0.00000000E+00  0.00000000E+00
  0.00000000E+00  0.00000000E+00  0.00000000E+00  0.00000000E+00  0.00000000E+00
  0.00000000E+00  0.00000000E+00  0.00000000E+00  0.00000000E+00  0.00000000E+00
  0.00000000E+00  0.00000000E+00  0.00000000E+00  0.00000000E+00  0.00000000E+00
  0.00000000E+00  0.00000000E+00  0.00000000E+00  0.00000000E+00  0.00000000E+00
  0.00000000E+00  0.00000000E+00  0.00000000E+00  0.00000000E+00  0.00000000E+00
Coordinates of each shell                  R   N=         177
  3.24965854E+00 -8.78487107E-01  2.79727873E+00  3.24965854E+00 -8.78487107E-01
  2.79727873E+00  3.24965854E+00 -8.78487107E-01  2.79727873E+00  3.24965854E+00
 -8.78487107E-01  2.79727873E+00  2.41053234E+00  7.18115828E-01  7.00600842E-01
  2.41053234E+00  7.18115828E-01  7.00600842E-01  2.41053234E+00  7.18115828E-01
  7.00600842E-01  2.41053234E+00  7.18115828E-01  7.00600842E-01  2.41053234E+00
  7.18115828E-01  7.00600842E-01 -9.26039586E-01  3.11801543E-01  3.24553749E-01
 -9.26039586E-01  3.11801543E-01  3.24553749E-01 -9.26039586E-01  3.11801543E-01
  3.24553749E-01 -9.26039586E-01  3.11801543E-01  3.24553749E-01 -2.31294043E+00
  2.18656120E+00 -9.10957565E-01 -2.31294043E+00  2.18656120E+00 -9.10957565E-01