 Entering Gaussian System, Link 0=/apps/cent7/gaussian/g16-A.03/g16-haswell/g16/g16
 Initial command:
 /apps/cent7/gaussian/g16-A.03/g16-haswell/g16/l1.exe "/scratch/brown/finej/gaussian/Gau-338777.inp" -scrdir="/scratch/brown/finej/gaussian/"
 Entering Link 1 = /apps/cent7/gaussian/g16-A.03/g16-haswell/g16/l1.exe PID=    338779.
  
 Copyright (c) 1988,1990,1992,1993,1995,1998,2003,2009,2016,
            Gaussian, Inc.  All Rights Reserved.
  
 This is part of the Gaussian(R) 16 program.  It is based on
 the Gaussian(R) 09 system (copyright 2009, Gaussian, Inc.),
 the Gaussian(R) 03 system (copyright 2003, Gaussian, Inc.),
 the Gaussian(R) 98 system (copyright 1998, Gaussian, Inc.),
 the Gaussian(R) 94 system (copyright 1995, Gaussian, Inc.),
 the Gaussian 92(TM) system (copyright 1992, Gaussian, Inc.),
 the Gaussian 90(TM) system (copyright 1990, Gaussian, Inc.),
 the Gaussian 88(TM) system (copyright 1988, Gaussian, Inc.),
 the Gaussian 86(TM) system (copyright 1986, Carnegie Mellon
 University), and the Gaussian 82(TM) system (copyright 1983,
 Carnegie Mellon University). Gaussian is a federally registered
 trademark of Gaussian, Inc.
  
 This software contains proprietary and confidential information,
 including trade secrets, belonging to Gaussian, Inc.
  
 This software is provided under written license and may be
 used, copied, transmitted, or stored only in accord with that
 written license.
  
 The following legend is applicable only to US Government
 contracts under FAR:
  
                    RESTRICTED RIGHTS LEGEND
  
 Use, reproduction and disclosure by the US Government is
 subject to restrictions as set forth in subparagraphs (a)
 and (c) of the Commercial Computer Software - Restricted
 Rights clause in FAR 52.227-19.
  
 Gaussian, Inc.
 340 Quinnipiac St., Bldg. 40, Wallingford CT 06492
  
  
 ---------------------------------------------------------------
 Warning -- This program may not be used in any manner that
 competes with the business of Gaussian, Inc. or will provide
 assistance to any competitor of Gaussian, Inc.  The licensee
 of this program is prohibited from giving any competitor of
 Gaussian, Inc. access to this program.  By using this program,
 the user acknowledges that Gaussian, Inc. is engaged in the
 business of creating and licensing software in the field of
 computational chemistry and represents and warrants to the
 licensee that it is not a competitor of Gaussian, Inc. and that
 it will not use this program in any manner prohibited above.
 ---------------------------------------------------------------
  

 Cite this work as:
 Gaussian 16, Revision A.03,
 M. J. Frisch, G. W. Trucks, H. B. Schlegel, G. E. Scuseria, 
 M. A. Robb, J. R. Cheeseman, G. Scalmani, V. Barone, 
 G. A. Petersson, H. Nakatsuji, X. Li, M. Caricato, A. V. Marenich, 
 J. Bloino, B. G. Janesko, R. Gomperts, B. Mennucci, H. P. Hratchian, 
 J. V. Ortiz, A. F. Izmaylov, J. L. Sonnenberg, D. Williams-Young, 
 F. Ding, F. Lipparini, F. Egidi, J. Goings, B. Peng, A. Petrone, 
 T. Henderson, D. Ranasinghe, V. G. Zakrzewski, J. Gao, N. Rega, 
 G. Zheng, W. Liang, M. Hada, M. Ehara, K. Toyota, R. Fukuda, 
 J. Hasegawa, M. Ishida, T. Nakajima, Y. Honda, O. Kitao, H. Nakai, 
 T. Vreven, K. Throssell, J. A. Montgomery, Jr., J. E. Peralta, 
 F. Ogliaro, M. J. Bearpark, J. J. Heyd, E. N. Brothers, K. N. Kudin, 
 V. N. Staroverov, T. A. Keith, R. Kobayashi, J. Normand, 
 K. Raghavachari, A. P. Rendell, J. C. Burant, S. S. Iyengar, 
 J. Tomasi, M. Cossi, J. M. Millam, M. Klene, C. Adamo, R. Cammi, 
 J. W. Ochterski, R. L. Martin, K. Morokuma, O. Farkas, 
 J. B. Foresman, and D. J. Fox, Gaussian, Inc., Wallingford CT, 2016.
 
 ******************************************
 Gaussian 16:  ES64L-G16RevA.03 25-Dec-2016
                14-Oct-2019 
 ******************************************
 %chk=29.chk
 %nprocshared=24
 Will use up to   24 processors via shared memory.
 %mem=80GB
 --------------------------------------------------------------
 #P opt freq b3lyp/6-31g(d) geom=connectivity temperature=0.001
 --------------------------------------------------------------
 1/18=20,19=15,26=3,38=1,57=2,112=-1000/1,3;
 2/9=110,12=2,17=6,18=5,40=1/2;
 3/5=1,6=6,7=1,11=2,25=1,30=1,71=1,74=-5/1,2,3;
 4//1;
 5/5=2,38=5/2;
 6/7=2,8=2,9=2,10=2,28=1/1;
 7//1,2,3,16;
 1/18=20,19=15,26=3/3(2);
 2/9=110/2;
 99//99;
 2/9=110/2;
 3/5=1,6=6,7=1,11=2,25=1,30=1,71=1,74=-5/1,2,3;
 4/5=5,16=3,69=1/1;
 5/5=2,38=5/2;
 7//1,2,3,16;
 1/18=20,19=15,26=3/3(-5);
 2/9=110/2;
 6/7=2,8=2,9=2,10=2,19=2,28=1/1;
 99/9=1/99;
 Leave Link    1 at Mon Oct 14 01:38:39 2019, MaxMem= 10737418240 cpu:               0.9 elap:               0.0
 (Enter /apps/cent7/gaussian/g16-A.03/g16-haswell/g16/l101.exe)
 -------------------
 Title Card Required
 -------------------
 Symbolic Z-matrix:
 Charge =  0 Multiplicity = 1
 O                    -2.3639    2.5186   -0.8329 
 S                    -1.914     0.9836   -0.7099 
 C                    -0.4772    0.8242    0.3123 
 C                    -0.263    -0.3511    1.0631 
 C                     0.8775   -0.4725    1.8779 
 C                     1.8119    0.577     1.9415 
 C                     1.6073    1.7481    1.1899 
 C                     0.467     1.8708    0.3754 
 N                    -1.5562    0.375    -2.3206 
 O                    -0.5022    1.0767   -2.7968 
 O                    -3.1387    0.1404   -0.108 
 H                    -0.9819   -1.1689    1.0133 
 H                     1.0372   -1.38      2.4602 
 H                     2.695     0.4827    2.5735 
 H                     2.3323    2.5606    1.2386 
 H                     0.3147    2.7789   -0.208 
 H                    -1.9328   -0.3335   -2.934 
 H                     0.0123    1.4193   -2.0622 
 
 ITRead=  0  0  0  0  0  0  0  0  0  0  0  0  0  0  0  0  0  0
 MicOpt= -1 -1 -1 -1 -1 -1 -1 -1 -1 -1 -1 -1 -1 -1 -1 -1 -1 -1
 NAtoms=     18 NQM=       18 NQMF=       0 NMMI=      0 NMMIF=      0
                NMic=       0 NMicF=      0.
                    Isotopes and Nuclear Properties:
 (Nuclear quadrupole moments (NQMom) in fm**2, nuclear magnetic moments (NMagM)
  in nuclear magnetons)

  Atom         1           2           3           4           5           6           7           8           9          10
 IAtWgt=          16          32          12          12          12          12          12          12          14          16
 AtmWgt=  15.9949146  31.9720718  12.0000000  12.0000000  12.0000000  12.0000000  12.0000000  12.0000000  14.0030740  15.9949146
 NucSpn=           0           0           0           0           0           0           0           0           2           0
 AtZEff=  -0.0000000  -0.0000000  -0.0000000  -0.0000000  -0.0000000  -0.0000000  -0.0000000  -0.0000000  -0.0000000  -0.0000000
 NQMom=    0.0000000   0.0000000   0.0000000   0.0000000   0.0000000   0.0000000   0.0000000   0.0000000   2.0440000   0.0000000
 NMagM=    0.0000000   0.0000000   0.0000000   0.0000000   0.0000000   0.0000000   0.0000000   0.0000000   0.4037610   0.0000000
 AtZNuc=   8.0000000  16.0000000   6.0000000   6.0000000   6.0000000   6.0000000   6.0000000   6.0000000   7.0000000   8.0000000

  Atom        11          12          13          14          15          16          17          18
 IAtWgt=          16           1           1           1           1           1           1           1
 AtmWgt=  15.9949146   1.0078250   1.0078250   1.0078250   1.0078250   1.0078250   1.0078250   1.0078250
 NucSpn=           0           1           1           1           1           1           1           1
 AtZEff=  -0.0000000  -0.0000000  -0.0000000  -0.0000000  -0.0000000  -0.0000000  -0.0000000  -0.0000000
 NQMom=    0.0000000   0.0000000   0.0000000   0.0000000   0.0000000   0.0000000   0.0000000   0.0000000
 NMagM=    0.0000000   2.7928460   2.7928460   2.7928460   2.7928460   2.7928460   2.7928460   2.7928460
 AtZNuc=   8.0000000   1.0000000   1.0000000   1.0000000   1.0000000   1.0000000   1.0000000   1.0000000
 Leave Link  101 at Mon Oct 14 01:38:40 2019, MaxMem= 10737418240 cpu:              11.9 elap:               0.5
 (Enter /apps/cent7/gaussian/g16-A.03/g16-haswell/g16/l103.exe)

 GradGradGradGradGradGradGradGradGradGradGradGradGradGradGradGradGradGrad
 Berny optimization.
 Initialization pass.
                           ----------------------------
                           !    Initial Parameters    !
                           ! (Angstroms and Degrees)  !
 --------------------------                            --------------------------
 ! Name  Definition              Value          Derivative Info.                !
 --------------------------------------------------------------------------------
 ! R1    R(1,2)                  1.6043         estimate D2E/DX2                !
 ! R2    R(2,3)                  1.7705         estimate D2E/DX2                !
 ! R3    R(2,9)                  1.7586         estimate D2E/DX2                !
 ! R4    R(2,11)                 1.6041         estimate D2E/DX2                !
 ! R5    R(3,4)                  1.411          estimate D2E/DX2                !
 ! R6    R(3,8)                  1.411          estimate D2E/DX2                !
 ! R7    R(4,5)                  1.4069         estimate D2E/DX2                !
 ! R8    R(4,12)                 1.09           estimate D2E/DX2                !
 ! R9    R(5,6)                  1.4066         estimate D2E/DX2                !
 ! R10   R(5,13)                 1.09           estimate D2E/DX2                !
 ! R11   R(6,7)                  1.4065         estimate D2E/DX2                !
 ! R12   R(6,14)                 1.09           estimate D2E/DX2                !
 ! R13   R(7,8)                  1.4067         estimate D2E/DX2                !
 ! R14   R(7,15)                 1.09           estimate D2E/DX2                !
 ! R15   R(8,16)                 1.09           estimate D2E/DX2                !
 ! R16   R(9,10)                 1.3528         estimate D2E/DX2                !
 ! R17   R(9,17)                 1.01           estimate D2E/DX2                !
 ! R18   R(10,18)                0.9601         estimate D2E/DX2                !
 ! A1    A(1,2,3)              110.9765         estimate D2E/DX2                !
 ! A2    A(1,2,9)              108.5392         estimate D2E/DX2                !
 ! A3    A(1,2,11)             108.5184         estimate D2E/DX2                !
 ! A4    A(3,2,9)              109.4219         estimate D2E/DX2                !
 ! A5    A(3,2,11)             110.8312         estimate D2E/DX2                !
 ! A6    A(9,2,11)             108.4868         estimate D2E/DX2                !
 ! A7    A(2,3,4)              120.3577         estimate D2E/DX2                !
 ! A8    A(2,3,8)              120.1384         estimate D2E/DX2                !
 ! A9    A(4,3,8)              119.5028         estimate D2E/DX2                !
 ! A10   A(3,4,5)              120.2055         estimate D2E/DX2                !
 ! A11   A(3,4,12)             120.034          estimate D2E/DX2                !
 ! A12   A(5,4,12)             119.7605         estimate D2E/DX2                !
 ! A13   A(4,5,6)              120.0201         estimate D2E/DX2                !
 ! A14   A(4,5,13)             119.9997         estimate D2E/DX2                !
 ! A15   A(6,5,13)             119.9802         estimate D2E/DX2                !
 ! A16   A(5,6,7)              120.0294         estimate D2E/DX2                !
 ! A17   A(5,6,14)             119.9896         estimate D2E/DX2                !
 ! A18   A(7,6,14)             119.981          estimate D2E/DX2                !
 ! A19   A(6,7,8)              119.9977         estimate D2E/DX2                !
 ! A20   A(6,7,15)             120.0009         estimate D2E/DX2                !
 ! A21   A(8,7,15)             120.0014         estimate D2E/DX2                !
 ! A22   A(3,8,7)              120.2419         estimate D2E/DX2                !
 ! A23   A(3,8,16)             120.0339         estimate D2E/DX2                !
 ! A24   A(7,8,16)             119.7242         estimate D2E/DX2                !
 ! A25   A(2,9,10)             107.5425         estimate D2E/DX2                !
 ! A26   A(2,9,17)             136.3154         estimate D2E/DX2                !
 ! A27   A(10,9,17)            116.1421         estimate D2E/DX2                !
 ! A28   A(9,10,18)            109.4686         estimate D2E/DX2                !
 ! D1    D(1,2,3,4)            150.2376         estimate D2E/DX2                !
 ! D2    D(1,2,3,8)            -30.1347         estimate D2E/DX2                !
 ! D3    D(9,2,3,4)            -90.0105         estimate D2E/DX2                !
 ! D4    D(9,2,3,8)             89.6172         estimate D2E/DX2                !
 ! D5    D(11,2,3,4)            29.5859         estimate D2E/DX2                !
 ! D6    D(11,2,3,8)          -150.7864         estimate D2E/DX2                !
 ! D7    D(1,2,9,10)            63.694          estimate D2E/DX2                !
 ! D8    D(1,2,9,17)          -116.2995         estimate D2E/DX2                !
 ! D9    D(3,2,9,10)           -57.5446         estimate D2E/DX2                !
 ! D10   D(3,2,9,17)           122.462          estimate D2E/DX2                !
 ! D11   D(11,2,9,10)         -178.5737         estimate D2E/DX2                !
 ! D12   D(11,2,9,17)            1.4329         estimate D2E/DX2                !
 ! D13   D(2,3,4,5)           -179.7806         estimate D2E/DX2                !
 ! D14   D(2,3,4,12)             0.2223         estimate D2E/DX2                !
 ! D15   D(8,3,4,5)              0.5893         estimate D2E/DX2                !
 ! D16   D(8,3,4,12)          -179.4078         estimate D2E/DX2                !
 ! D17   D(2,3,8,7)            179.8103         estimate D2E/DX2                !
 ! D18   D(2,3,8,16)            -0.1825         estimate D2E/DX2                !
 ! D19   D(4,3,8,7)             -0.5588         estimate D2E/DX2                !
 ! D20   D(4,3,8,16)           179.4483         estimate D2E/DX2                !
 ! D21   D(3,4,5,6)             -0.2891         estimate D2E/DX2                !
 ! D22   D(3,4,5,13)           179.7057         estimate D2E/DX2                !
 ! D23   D(12,4,5,6)           179.708          estimate D2E/DX2                !
 ! D24   D(12,4,5,13)           -0.2971         estimate D2E/DX2                !
 ! D25   D(4,5,6,7)             -0.0462         estimate D2E/DX2                !
 ! D26   D(4,5,6,14)           179.9566         estimate D2E/DX2                !
 ! D27   D(13,5,6,7)           179.959          estimate D2E/DX2                !
 ! D28   D(13,5,6,14)           -0.0383         estimate D2E/DX2                !
 ! D29   D(5,6,7,8)              0.0768         estimate D2E/DX2                !
 ! D30   D(5,6,7,15)          -179.9259         estimate D2E/DX2                !
 ! D31   D(14,6,7,8)          -179.9259         estimate D2E/DX2                !
 ! D32   D(14,6,7,15)            0.0714         estimate D2E/DX2                !
 ! D33   D(6,7,8,3)              0.2278         estimate D2E/DX2                !
 ! D34   D(6,7,8,16)          -179.7793         estimate D2E/DX2                !
 ! D35   D(15,7,8,3)          -179.7695         estimate D2E/DX2                !
 ! D36   D(15,7,8,16)            0.2233         estimate D2E/DX2                !
 ! D37   D(2,9,10,18)           24.8538         estimate D2E/DX2                !
 ! D38   D(17,9,10,18)        -155.1513         estimate D2E/DX2                !
 --------------------------------------------------------------------------------
 Trust Radius=3.00D-01 FncErr=1.00D-07 GrdErr=1.00D-06 EigMax=2.50D+02 EigMin=1.00D-04
 Number of steps in this run=     94 maximum allowed number of steps=    108.
 GradGradGradGradGradGradGradGradGradGradGradGradGradGradGradGradGradGrad

 Leave Link  103 at Mon Oct 14 01:38:40 2019, MaxMem= 10737418240 cpu:               0.2 elap:               0.0
 (Enter /apps/cent7/gaussian/g16-A.03/g16-haswell/g16/l202.exe)
                          Input orientation:                          
 ---------------------------------------------------------------------
 Center     Atomic      Atomic             Coordinates (Angstroms)
 Number     Number       Type             X           Y           Z
 ---------------------------------------------------------------------
      1          8           0       -2.363900    2.518600   -0.832900
      2         16           0       -1.914000    0.983600   -0.709900
      3          6           0       -0.477200    0.824200    0.312300
      4          6           0       -0.263000   -0.351100    1.063100
      5          6           0        0.877500   -0.472500    1.877900
      6          6           0        1.811900    0.577000    1.941500
      7          6           0        1.607300    1.748100    1.189900
      8          6           0        0.467000    1.870800    0.375400
      9          7           0       -1.556200    0.375000   -2.320600
     10          8           0       -0.502200    1.076700   -2.796800
     11          8           0       -3.138700    0.140400   -0.108000
     12          1           0       -0.981900   -1.168900    1.013300
     13          1           0        1.037200   -1.380000    2.460200
     14          1           0        2.695000    0.482700    2.573500
     15          1           0        2.332300    2.560600    1.238600
     16          1           0        0.314700    2.778900   -0.208000
     17          1           0       -1.932800   -0.333500   -2.934000
     18          1           0        0.012300    1.419300   -2.062200
 ---------------------------------------------------------------------
                    Distance matrix (angstroms):
                    1          2          3          4          5
     1  O    0.000000
     2  S    1.604295   0.000000
     3  C    2.782465   1.770507   0.000000
     4  C    4.030357   2.766000   1.410997   0.000000
     5  C    5.177045   4.075464   2.442897   1.406903   0.000000
     6  C    5.376282   4.591032   2.820528   2.436835   1.406627
     7  C    4.522811   4.073482   2.443136   2.814381   2.436599
     8  C    3.145414   2.762999   1.410981   2.437759   2.813729
     9  N    2.731419   1.758627   2.880657   3.694457   4.926312
    10  O    3.066253   2.521309   3.119436   4.122458   5.114334
    11  O    2.604156   1.604107   2.779895   3.143676   4.522091
    12  H    4.349257   2.910582   2.172227   1.089997   2.165612
    13  H    6.132787   4.934138   3.430070   2.168189   1.090015
    14  H    6.429690   5.681065   3.910563   3.424368   2.167850
    15  H    5.132950   4.930988   3.430220   3.904405   3.424156
    16  H    2.762816   2.905531   2.172250   3.427292   3.903758
    17  H    3.568605   2.584904   3.741324   4.331899   5.574181
    18  H    2.892398   2.393571   2.496398   3.602444   4.455543
                    6          7          8          9         10
     6  C    0.000000
     7  C    1.406499   0.000000
     8  C    2.436256   1.406680   0.000000
     9  N    5.436028   4.921051   3.687706   0.000000
    10  O    5.296815   4.560104   3.410689   1.352799   0.000000
    11  O    5.375826   5.176269   4.028527   2.730374   3.880391
    12  H    3.422724   3.904361   3.427244   3.718647   4.448561
    13  H    2.167731   3.423987   3.903744   5.715050   6.003430
    14  H    1.090038   2.167643   3.423806   6.483557   6.278140
    15  H    2.167845   1.090024   2.168013   5.706591   5.149835
    16  H    3.422035   2.165061   1.090044   3.707031   3.204169
    17  H    6.214683   5.819959   4.644363   1.009980   2.013481
    18  H    4.469636   3.637071   2.520416   1.901979   0.960064
                   11         12         13         14         15
    11  O    0.000000
    12  H    2.761044   0.000000
    13  H    5.132778   2.492960   0.000000
    14  H    6.429593   4.322222   2.496155   0.000000
    15  H    6.132091   4.994382   4.324109   2.496233   0.000000
    16  H    4.347143   4.331036   4.993771   4.321470   2.492191
    17  H    3.108867   4.145272   6.246075   7.239839   6.631552
    18  H    3.922153   4.140762   5.416512   5.437262   4.192880
                   16         17         18
    16  H    0.000000
    17  H    4.708436   0.000000
    18  H    2.319055   2.759666   0.000000
 Stoichiometry    C6H7NO3S
 Framework group  C1[X(C6H7NO3S)]
 Deg. of freedom    48
 Full point group                 C1      NOp   1
 Largest Abelian subgroup         C1      NOp   1
 Largest concise Abelian subgroup C1      NOp   1
                         Standard orientation:                         
 ---------------------------------------------------------------------
 Center     Atomic      Atomic             Coordinates (Angstroms)
 Number     Number       Type             X           Y           Z
 ---------------------------------------------------------------------
      1          8           0        1.821857   -0.390930    1.587018
      2         16           0        1.272550    0.346441    0.272365
      3          6           0       -0.482082    0.159607    0.127262
      4          6           0       -1.255146    1.154887   -0.507326
      5          6           0       -2.649787    1.005305   -0.616779
      6          6           0       -3.277374   -0.141814   -0.098270
      7          6           0       -2.511121   -1.140560    0.529105
      8          6           0       -1.116712   -0.991722    0.639659
      9          7           0        2.054442   -0.362513   -1.134333
     10          8           0        1.676131   -1.659644   -1.200640
     11          8           0        1.676535    1.896829    0.351434
     12          1           0       -0.772642    2.043264   -0.914844
     13          1           0       -3.244319    1.778508   -1.103422
     14          1           0       -4.358029   -0.256864   -0.182716
     15          1           0       -2.997788   -2.029861    0.929671
     16          1           0       -0.526754   -1.770191    1.123531
     17          1           0        2.681865   -0.044363   -1.859027
     18          1           0        0.832922   -1.770208   -0.755111
 ---------------------------------------------------------------------
 Rotational constants (GHZ):           1.7195361           0.6863999           0.6232735
 Leave Link  202 at Mon Oct 14 01:38:40 2019, MaxMem= 10737418240 cpu:               1.2 elap:               0.1
 (Enter /apps/cent7/gaussian/g16-A.03/g16-haswell/g16/l301.exe)
 Standard basis: 6-31G(d) (6D, 7F)
 Ernie: Thresh=  0.10000D-02 Tol=  0.10000D-05 Strict=F.
 There are   183 symmetry adapted cartesian basis functions of A   symmetry.
 There are   183 symmetry adapted basis functions of A   symmetry.
   183 basis functions,   360 primitive gaussians,   183 cartesian basis functions
    45 alpha electrons       45 beta electrons
       nuclear repulsion energy       726.1768626244 Hartrees.
 IExCor=  402 DFT=T Ex+Corr=B3LYP ExCW=0 ScaHFX=  0.200000
 ScaDFX=  0.800000  0.720000  1.000000  0.810000 ScalE2=  1.000000  1.000000
 IRadAn=      5 IRanWt=     -1 IRanGd=            0 ICorTp=0 IEmpDi=  4
 NAtoms=   18 NActive=   18 NUniq=   18 SFac= 1.00D+00 NAtFMM=   60 NAOKFM=F Big=F
 Integral buffers will be    131072 words long.
 Raffenetti 2 integral format.
 Two-electron integral symmetry is turned on.
 Leave Link  301 at Mon Oct 14 01:38:40 2019, MaxMem= 10737418240 cpu:               1.3 elap:               0.1
 (Enter /apps/cent7/gaussian/g16-A.03/g16-haswell/g16/l302.exe)
 NPDir=0 NMtPBC=     1 NCelOv=     1 NCel=       1 NClECP=     1 NCelD=      1
         NCelK=      1 NCelE2=     1 NClLst=     1 CellRange=     0.0.
 One-electron integrals computed using PRISM.
 One-electron integral symmetry used in STVInt
 NBasis=   183 RedAO= T EigKep=  5.45D-04  NBF=   183
 NBsUse=   183 1.00D-06 EigRej= -1.00D+00 NBFU=   183
 Precomputing XC quadrature grid using
 IXCGrd= 4 IRadAn=           5 IRanWt=          -1 IRanGd=           0 AccXCQ= 0.00D+00.
 Generated NRdTot=       0 NPtTot=           0 NUsed=           0 NTot=          32
 NSgBfM=   183   183   183   183   183 MxSgAt=    18 MxSgA2=    18.
 Leave Link  302 at Mon Oct 14 01:38:40 2019, MaxMem= 10737418240 cpu:               3.5 elap:               0.2
 (Enter /apps/cent7/gaussian/g16-A.03/g16-haswell/g16/l303.exe)
 DipDrv:  MaxL=1.
 Leave Link  303 at Mon Oct 14 01:38:41 2019, MaxMem= 10737418240 cpu:               0.7 elap:               0.1
 (Enter /apps/cent7/gaussian/g16-A.03/g16-haswell/g16/l401.exe)
 ExpMin= 1.17D-01 ExpMax= 2.19D+04 ExpMxC= 3.30D+03 IAcc=3 IRadAn=         5 AccDes= 0.00D+00
 Harris functional with IExCor=  402 and IRadAn=       5 diagonalized for initial guess.
 HarFok:  IExCor=  402 AccDes= 0.00D+00 IRadAn=         5 IDoV= 1 UseB2=F ITyADJ=14
 ICtDFT=  3500011 ScaDFX=  1.000000  1.000000  1.000000  1.000000
 FoFCou: FMM=F IPFlag=           0 FMFlag=      100000 FMFlg1=           0
         NFxFlg=           0 DoJE=T BraDBF=F KetDBF=T FulRan=T
         wScrn=  0.000000 ICntrl=       500 IOpCl=  0 I1Cent=   200000004 NGrid=           0
         NMat0=    1 NMatS0=      1 NMatT0=    0 NMatD0=    1 NMtDS0=    0 NMtDT0=    0
 Petite list used in FoFCou.
 Harris En= -911.320915487690    
 JPrj=0 DoOrth=F DoCkMO=F.
 Leave Link  401 at Mon Oct 14 01:38:41 2019, MaxMem= 10737418240 cpu:               7.3 elap:               0.3
 (Enter /apps/cent7/gaussian/g16-A.03/g16-haswell/g16/l502.exe)
 Integral symmetry usage will be decided dynamically.
 Closed shell SCF:
 Using DIIS extrapolation, IDIIS=  1040.
 NGot= 10737418240 LenX= 10737344800 LenY= 10737310870
 Requested convergence on RMS density matrix=1.00D-08 within 128 cycles.
 Requested convergence on MAX density matrix=1.00D-06.
 Requested convergence on             energy=1.00D-06.
 No special actions if energy rises.
 Fock matrices will be formed incrementally for  20 cycles.
 Integral accuracy reduced to 1.0D-05 until final iterations.

 Cycle   1  Pass 0  IDiag  1:
 FoFJK:  IHMeth= 1 ICntrl=       0 DoSepK=F KAlg= 0 I1Cent=           0 FoldK=F
 IRaf= 910000000 NMat=       1 IRICut=       1 DoRegI=T DoRafI=F ISym2E= 0 IDoP0=0 IntGTp=1.
 FoFCou: FMM=F IPFlag=           0 FMFlag=      100000 FMFlg1=           0
         NFxFlg=           0 DoJE=F BraDBF=F KetDBF=F FulRan=T
         wScrn=  0.000000 ICntrl=         0 IOpCl=  0 I1Cent=           0 NGrid=           0
         NMat0=    1 NMatS0=      1 NMatT0=    0 NMatD0=    1 NMtDS0=    0 NMtDT0=    0
 Symmetry not used in FoFCou.
 E= -910.740997878749    
 DIIS: error= 3.66D-02 at cycle   1 NSaved=   1.
 NSaved= 1 IEnMin= 1 EnMin= -910.740997878749     IErMin= 1 ErrMin= 3.66D-02
 ErrMax= 3.66D-02  0.00D+00 EMaxC= 1.00D-01 BMatC= 5.72D-01 BMatP= 5.72D-01
 IDIUse=3 WtCom= 6.34D-01 WtEn= 3.66D-01
 Coeff-Com:  0.100D+01
 Coeff-En:   0.100D+01
 Coeff:      0.100D+01
 Gap=     0.217 Goal=   None    Shift=    0.000
 GapD=    0.217 DampG=1.000 DampE=0.500 DampFc=0.5000 IDamp=-1.
 Damping current iteration by 5.00D-01
 RMSDP=1.68D-02 MaxDP=7.74D-01              OVMax= 4.35D-01

 Cycle   2  Pass 0  IDiag  1:
 RMSU=  8.42D-03    CP:  1.01D+00
 E= -910.470536816427     Delta-E=        0.270461062322 Rises=F Damp=T
 DIIS: error= 3.88D-02 at cycle   2 NSaved=   2.
 NSaved= 2 IEnMin= 1 EnMin= -910.740997878749     IErMin= 1 ErrMin= 3.66D-02
 ErrMax= 3.88D-02  0.00D+00 EMaxC= 1.00D-01 BMatC= 3.58D-01 BMatP= 5.72D-01
 IDIUse=3 WtCom= 6.12D-01 WtEn= 3.88D-01
 Coeff-Com:  0.431D+00 0.569D+00
 Coeff-En:   0.631D+00 0.369D+00
 Coeff:      0.509D+00 0.491D+00
 Gap=     0.158 Goal=   None    Shift=    0.000
 RMSDP=6.00D-03 MaxDP=1.87D-01 DE= 2.70D-01 OVMax= 4.43D-01

 Cycle   3  Pass 0  IDiag  1:
 RMSU=  3.50D-03    CP:  9.95D-01  4.22D-01
 E= -911.145827500568     Delta-E=       -0.675290684141 Rises=F Damp=F
 DIIS: error= 1.38D-02 at cycle   3 NSaved=   3.
 NSaved= 3 IEnMin= 3 EnMin= -911.145827500568     IErMin= 3 ErrMin= 1.38D-02
 ErrMax= 1.38D-02  0.00D+00 EMaxC= 1.00D-01 BMatC= 9.27D-02 BMatP= 3.58D-01
 IDIUse=3 WtCom= 8.62D-01 WtEn= 1.38D-01
 Coeff-Com:  0.244D+00 0.294D+00 0.462D+00
 Coeff-En:   0.201D-01 0.000D+00 0.980D+00
 Coeff:      0.213D+00 0.253D+00 0.534D+00
 Gap=     0.172 Goal=   None    Shift=    0.000
 RMSDP=2.68D-03 MaxDP=7.22D-02 DE=-6.75D-01 OVMax= 9.52D-02

 Cycle   4  Pass 0  IDiag  1:
 RMSU=  1.82D-03    CP:  1.00D+00  4.38D-01  4.41D-01
 E= -911.219218198185     Delta-E=       -0.073390697617 Rises=F Damp=F
 DIIS: error= 7.66D-03 at cycle   4 NSaved=   4.
 NSaved= 4 IEnMin= 4 EnMin= -911.219218198185     IErMin= 4 ErrMin= 7.66D-03
 ErrMax= 7.66D-03  0.00D+00 EMaxC= 1.00D-01 BMatC= 2.15D-02 BMatP= 9.27D-02
 IDIUse=3 WtCom= 9.23D-01 WtEn= 7.66D-02
 Coeff-Com:  0.708D-01 0.831D-01 0.323D+00 0.523D+00
 Coeff-En:   0.000D+00 0.000D+00 0.171D+00 0.829D+00
 Coeff:      0.654D-01 0.768D-01 0.312D+00 0.546D+00
 Gap=     0.154 Goal=   None    Shift=    0.000
 RMSDP=1.17D-03 MaxDP=3.12D-02 DE=-7.34D-02 OVMax= 4.81D-02

 Cycle   5  Pass 0  IDiag  1:
 RMSU=  7.50D-04    CP:  1.00D+00  4.37D-01  5.92D-01  5.96D-01
 E= -911.232188184077     Delta-E=       -0.012969985892 Rises=F Damp=F
 DIIS: error= 5.40D-03 at cycle   5 NSaved=   5.
 NSaved= 5 IEnMin= 5 EnMin= -911.232188184077     IErMin= 5 ErrMin= 5.40D-03
 ErrMax= 5.40D-03  0.00D+00 EMaxC= 1.00D-01 BMatC= 6.90D-03 BMatP= 2.15D-02
 IDIUse=3 WtCom= 9.46D-01 WtEn= 5.40D-02
 Coeff-Com:  0.139D-01 0.173D-01 0.166D+00 0.413D+00 0.390D+00
 Coeff-En:   0.000D+00 0.000D+00 0.000D+00 0.249D+00 0.751D+00
 Coeff:      0.131D-01 0.164D-01 0.157D+00 0.404D+00 0.409D+00
 Gap=     0.147 Goal=   None    Shift=    0.000
 RMSDP=5.75D-04 MaxDP=1.46D-02 DE=-1.30D-02 OVMax= 2.57D-02

 Cycle   6  Pass 0  IDiag  1:
 RMSU=  2.36D-04    CP:  1.00D+00  4.37D-01  5.87D-01  7.02D-01  3.49D-01
 E= -911.237537443566     Delta-E=       -0.005349259489 Rises=F Damp=F
 DIIS: error= 1.53D-03 at cycle   6 NSaved=   6.
 NSaved= 6 IEnMin= 6 EnMin= -911.237537443566     IErMin= 6 ErrMin= 1.53D-03
 ErrMax= 1.53D-03  0.00D+00 EMaxC= 1.00D-01 BMatC= 5.09D-04 BMatP= 6.90D-03
 IDIUse=3 WtCom= 9.85D-01 WtEn= 1.53D-02
 Coeff-Com: -0.698D-03-0.622D-03 0.476D-01 0.157D+00 0.258D+00 0.539D+00
 Coeff-En:   0.000D+00 0.000D+00 0.000D+00 0.000D+00 0.684D-01 0.932D+00
 Coeff:     -0.688D-03-0.612D-03 0.469D-01 0.154D+00 0.255D+00 0.546D+00
 Gap=     0.151 Goal=   None    Shift=    0.000
 RMSDP=1.61D-04 MaxDP=4.35D-03 DE=-5.35D-03 OVMax= 5.88D-03

 Cycle   7  Pass 0  IDiag  1:
 RMSU=  8.32D-05    CP:  1.00D+00  4.36D-01  5.87D-01  7.04D-01  4.64D-01
                    CP:  5.47D-01
 E= -911.237941038083     Delta-E=       -0.000403594517 Rises=F Damp=F
 DIIS: error= 2.77D-04 at cycle   7 NSaved=   7.
 NSaved= 7 IEnMin= 7 EnMin= -911.237941038083     IErMin= 7 ErrMin= 2.77D-04
 ErrMax= 2.77D-04  0.00D+00 EMaxC= 1.00D-01 BMatC= 3.62D-05 BMatP= 5.09D-04
 IDIUse=3 WtCom= 9.97D-01 WtEn= 2.77D-03
 Coeff-Com: -0.987D-03-0.168D-02 0.137D-01 0.507D-01 0.109D+00 0.311D+00
 Coeff-Com:  0.518D+00
 Coeff-En:   0.000D+00 0.000D+00 0.000D+00 0.000D+00 0.000D+00 0.367D-02
 Coeff-En:   0.996D+00
 Coeff:     -0.984D-03-0.168D-02 0.137D-01 0.505D-01 0.109D+00 0.310D+00
 Coeff:      0.519D+00
 Gap=     0.149 Goal=   None    Shift=    0.000
 RMSDP=4.43D-05 MaxDP=1.15D-03 DE=-4.04D-04 OVMax= 1.69D-03

 Cycle   8  Pass 0  IDiag  1:
 RMSU=  2.50D-05    CP:  1.00D+00  4.35D-01  5.87D-01  7.03D-01  4.64D-01
                    CP:  6.22D-01  6.20D-01
 E= -911.237973701060     Delta-E=       -0.000032662977 Rises=F Damp=F
 DIIS: error= 7.04D-05 at cycle   8 NSaved=   8.
 NSaved= 8 IEnMin= 8 EnMin= -911.237973701060     IErMin= 8 ErrMin= 7.04D-05
 ErrMax= 7.04D-05  0.00D+00 EMaxC= 1.00D-01 BMatC= 2.71D-06 BMatP= 3.62D-05
 IDIUse=1 WtCom= 1.00D+00 WtEn= 0.00D+00
 Coeff-Com: -0.356D-03-0.992D-03 0.199D-02 0.841D-02 0.285D-01 0.104D+00
 Coeff-Com:  0.265D+00 0.593D+00
 Coeff:     -0.356D-03-0.992D-03 0.199D-02 0.841D-02 0.285D-01 0.104D+00
 Coeff:      0.265D+00 0.593D+00
 Gap=     0.149 Goal=   None    Shift=    0.000
 RMSDP=1.21D-05 MaxDP=3.63D-04 DE=-3.27D-05 OVMax= 5.03D-04

 Cycle   9  Pass 0  IDiag  1:
 RMSU=  8.51D-06    CP:  1.00D+00  4.35D-01  5.87D-01  7.02D-01  4.65D-01
                    CP:  6.29D-01  6.74D-01  7.56D-01
 E= -911.237975924819     Delta-E=       -0.000002223759 Rises=F Damp=F
 DIIS: error= 4.17D-05 at cycle   9 NSaved=   9.
 NSaved= 9 IEnMin= 9 EnMin= -911.237975924819     IErMin= 9 ErrMin= 4.17D-05
 ErrMax= 4.17D-05  0.00D+00 EMaxC= 1.00D-01 BMatC= 4.51D-07 BMatP= 2.71D-06
 IDIUse=1 WtCom= 1.00D+00 WtEn= 0.00D+00
 Coeff-Com: -0.442D-04-0.326D-03-0.737D-03-0.232D-02 0.119D-02 0.169D-01
 Coeff-Com:  0.810D-01 0.339D+00 0.565D+00
 Coeff:     -0.442D-04-0.326D-03-0.737D-03-0.232D-02 0.119D-02 0.169D-01
 Coeff:      0.810D-01 0.339D+00 0.565D+00
 Gap=     0.149 Goal=   None    Shift=    0.000
 RMSDP=4.74D-06 MaxDP=9.72D-05 DE=-2.22D-06 OVMax= 3.03D-04

 Initial convergence to 1.0D-05 achieved.  Increase integral accuracy.
 Cycle  10  Pass 1  IDiag  1:
 E= -911.237980506415     Delta-E=       -0.000004581596 Rises=F Damp=F
 DIIS: error= 1.95D-05 at cycle   1 NSaved=   1.
 NSaved= 1 IEnMin= 1 EnMin= -911.237980506415     IErMin= 1 ErrMin= 1.95D-05
 ErrMax= 1.95D-05  0.00D+00 EMaxC= 1.00D-01 BMatC= 8.45D-08 BMatP= 8.45D-08
 IDIUse=1 WtCom= 1.00D+00 WtEn= 0.00D+00
 Coeff-Com:  0.100D+01
 Coeff:      0.100D+01
 Gap=     0.149 Goal=   None    Shift=    0.000
 RMSDP=4.74D-06 MaxDP=9.72D-05 DE=-4.58D-06 OVMax= 2.73D-04

 Cycle  11  Pass 1  IDiag  1:
 RMSU=  1.45D-05    CP:  1.00D+00
 E= -911.237980399514     Delta-E=        0.000000106901 Rises=F Damp=F
 DIIS: error= 3.64D-05 at cycle   2 NSaved=   2.
 NSaved= 2 IEnMin= 1 EnMin= -911.237980506415     IErMin= 1 ErrMin= 1.95D-05
 ErrMax= 3.64D-05  0.00D+00 EMaxC= 1.00D-01 BMatC= 1.73D-07 BMatP= 8.45D-08
 IDIUse=1 WtCom= 1.00D+00 WtEn= 0.00D+00
 Coeff-Com:  0.600D+00 0.400D+00
 Coeff:      0.600D+00 0.400D+00
 Gap=     0.149 Goal=   None    Shift=    0.000
 RMSDP=2.87D-06 MaxDP=7.17D-05 DE= 1.07D-07 OVMax= 2.08D-04

 Cycle  12  Pass 1  IDiag  1:
 RMSU=  2.78D-06    CP:  1.00D+00  9.50D-01
 E= -911.237980585789     Delta-E=       -0.000000186275 Rises=F Damp=F
 DIIS: error= 7.14D-06 at cycle   3 NSaved=   3.
 NSaved= 3 IEnMin= 3 EnMin= -911.237980585789     IErMin= 3 ErrMin= 7.14D-06
 ErrMax= 7.14D-06  0.00D+00 EMaxC= 1.00D-01 BMatC= 8.35D-09 BMatP= 8.45D-08
 IDIUse=1 WtCom= 1.00D+00 WtEn= 0.00D+00
 Coeff-Com:  0.122D+00 0.193D+00 0.685D+00
 Coeff:      0.122D+00 0.193D+00 0.685D+00
 Gap=     0.149 Goal=   None    Shift=    0.000
 RMSDP=7.16D-07 MaxDP=2.11D-05 DE=-1.86D-07 OVMax= 3.59D-05

 Cycle  13  Pass 1  IDiag  1:
 RMSU=  5.53D-07    CP:  1.00D+00  9.67D-01  8.62D-01
 E= -911.237980592926     Delta-E=       -0.000000007137 Rises=F Damp=F
 DIIS: error= 2.41D-06 at cycle   4 NSaved=   4.
 NSaved= 4 IEnMin= 4 EnMin= -911.237980592926     IErMin= 4 ErrMin= 2.41D-06
 ErrMax= 2.41D-06  0.00D+00 EMaxC= 1.00D-01 BMatC= 2.18D-09 BMatP= 8.35D-09
 IDIUse=1 WtCom= 1.00D+00 WtEn= 0.00D+00
 Coeff-Com:  0.366D-02 0.735D-01 0.420D+00 0.503D+00
 Coeff:      0.366D-02 0.735D-01 0.420D+00 0.503D+00
 Gap=     0.149 Goal=   None    Shift=    0.000
 RMSDP=3.31D-07 MaxDP=1.14D-05 DE=-7.14D-09 OVMax= 1.02D-05

 Cycle  14  Pass 1  IDiag  1:
 RMSU=  1.56D-07    CP:  1.00D+00  9.67D-01  8.74D-01  4.79D-01
 E= -911.237980594633     Delta-E=       -0.000000001707 Rises=F Damp=F
 DIIS: error= 7.95D-07 at cycle   5 NSaved=   5.
 NSaved= 5 IEnMin= 5 EnMin= -911.237980594633     IErMin= 5 ErrMin= 7.95D-07
 ErrMax= 7.95D-07  0.00D+00 EMaxC= 1.00D-01 BMatC= 2.52D-10 BMatP= 2.18D-09
 IDIUse=1 WtCom= 1.00D+00 WtEn= 0.00D+00
 Coeff-Com: -0.349D-02 0.396D-01 0.247D+00 0.343D+00 0.374D+00
 Coeff:     -0.349D-02 0.396D-01 0.247D+00 0.343D+00 0.374D+00
 Gap=     0.149 Goal=   None    Shift=    0.000
 RMSDP=1.03D-07 MaxDP=4.46D-06 DE=-1.71D-09 OVMax= 3.78D-06

 Cycle  15  Pass 1  IDiag  1:
 RMSU=  6.11D-08    CP:  1.00D+00  9.68D-01  8.73D-01  5.19D-01  4.97D-01
 E= -911.237980594836     Delta-E=       -0.000000000203 Rises=F Damp=F
 DIIS: error= 2.22D-07 at cycle   6 NSaved=   6.
 NSaved= 6 IEnMin= 6 EnMin= -911.237980594836     IErMin= 6 ErrMin= 2.22D-07
 ErrMax= 2.22D-07  0.00D+00 EMaxC= 1.00D-01 BMatC= 1.28D-11 BMatP= 2.52D-10
 IDIUse=1 WtCom= 1.00D+00 WtEn= 0.00D+00
 Coeff-Com: -0.250D-02 0.187D-01 0.119D+00 0.173D+00 0.236D+00 0.457D+00
 Coeff:     -0.250D-02 0.187D-01 0.119D+00 0.173D+00 0.236D+00 0.457D+00
 Gap=     0.149 Goal=   None    Shift=    0.000
 RMSDP=2.59D-08 MaxDP=6.53D-07 DE=-2.03D-10 OVMax= 9.54D-07

 Cycle  16  Pass 1  IDiag  1:
 RMSU=  2.11D-08    CP:  1.00D+00  9.68D-01  8.72D-01  5.18D-01  5.41D-01
                    CP:  7.88D-01
 E= -911.237980594857     Delta-E=       -0.000000000020 Rises=F Damp=F
 DIIS: error= 4.99D-08 at cycle   7 NSaved=   7.
 NSaved= 7 IEnMin= 7 EnMin= -911.237980594857     IErMin= 7 ErrMin= 4.99D-08
 ErrMax= 4.99D-08  0.00D+00 EMaxC= 1.00D-01 BMatC= 9.30D-13 BMatP= 1.28D-11
 IDIUse=1 WtCom= 1.00D+00 WtEn= 0.00D+00
 Coeff-Com: -0.693D-03 0.250D-02 0.159D-01 0.273D-01 0.566D-01 0.229D+00
 Coeff-Com:  0.669D+00
 Coeff:     -0.693D-03 0.250D-02 0.159D-01 0.273D-01 0.566D-01 0.229D+00
 Coeff:      0.669D+00
 Gap=     0.149 Goal=   None    Shift=    0.000
 RMSDP=9.90D-09 MaxDP=3.71D-07 DE=-2.05D-11 OVMax= 3.83D-07

 SCF Done:  E(RB3LYP) =  -911.237980595     A.U. after   16 cycles
            NFock= 16  Conv=0.99D-08     -V/T= 2.0075
 KE= 9.044336016345D+02 PE=-3.594401446236D+03 EE= 1.052553001382D+03
 Leave Link  502 at Mon Oct 14 01:38:45 2019, MaxMem= 10737418240 cpu:              88.1 elap:               3.7
 (Enter /apps/cent7/gaussian/g16-A.03/g16-haswell/g16/l601.exe)
 Copying SCF densities to generalized density rwf, IOpCl= 0 IROHF=0.

 **********************************************************************

            Population analysis using the SCF density.

 **********************************************************************

 Orbital symmetries:
       Occupied  (A) (A) (A) (A) (A) (A) (A) (A) (A) (A) (A) (A)
                 (A) (A) (A) (A) (A) (A) (A) (A) (A) (A) (A) (A)
                 (A) (A) (A) (A) (A) (A) (A) (A) (A) (A) (A) (A)
                 (A) (A) (A) (A) (A) (A) (A) (A) (A)
       Virtual   (A) (A) (A) (A) (A) (A) (A) (A) (A) (A) (A) (A)
                 (A) (A) (A) (A) (A) (A) (A) (A) (A) (A) (A) (A)
                 (A) (A) (A) (A) (A) (A) (A) (A) (A) (A) (A) (A)
                 (A) (A) (A) (A) (A) (A) (A) (A) (A) (A) (A) (A)
                 (A) (A) (A) (A) (A) (A) (A) (A) (A) (A) (A) (A)
                 (A) (A) (A) (A) (A) (A) (A) (A) (A) (A) (A) (A)
                 (A) (A) (A) (A) (A) (A) (A) (A) (A) (A) (A) (A)
                 (A) (A) (A) (A) (A) (A) (A) (A) (A) (A) (A) (A)
                 (A) (A) (A) (A) (A) (A) (A) (A) (A) (A) (A) (A)
                 (A) (A) (A) (A) (A) (A) (A) (A) (A) (A) (A) (A)
                 (A) (A) (A) (A) (A) (A) (A) (A) (A) (A) (A) (A)
                 (A) (A) (A) (A) (A) (A)
 The electronic state is 1-A.
 Alpha  occ. eigenvalues --  -89.12168 -19.20190 -19.14334 -19.13943 -14.41905
 Alpha  occ. eigenvalues --  -10.26783 -10.24597 -10.24371 -10.23859 -10.23652
 Alpha  occ. eigenvalues --  -10.23597  -8.14619  -6.11163  -6.10959  -6.10918
 Alpha  occ. eigenvalues --   -1.12694  -1.03138  -0.93156  -0.89657  -0.83633
 Alpha  occ. eigenvalues --   -0.80558  -0.78621  -0.71526  -0.64800  -0.63561
 Alpha  occ. eigenvalues --   -0.57746  -0.56463  -0.53521  -0.49621  -0.49223
 Alpha  occ. eigenvalues --   -0.47576  -0.46117  -0.43253  -0.42623  -0.41017
 Alpha  occ. eigenvalues --   -0.39963  -0.38850  -0.38211  -0.31467  -0.30777
 Alpha  occ. eigenvalues --   -0.29315  -0.28805  -0.28053  -0.26575  -0.22619
 Alpha virt. eigenvalues --   -0.07718  -0.04861  -0.02004   0.01545   0.05240
 Alpha virt. eigenvalues --    0.06812   0.08270   0.10258   0.11126   0.11784
 Alpha virt. eigenvalues --    0.13098   0.14696   0.15637   0.16108   0.18249
 Alpha virt. eigenvalues --    0.24878   0.26207   0.27096   0.27883   0.34617
 Alpha virt. eigenvalues --    0.36057   0.37182   0.42091   0.45485   0.49434
 Alpha virt. eigenvalues --    0.49892   0.50959   0.53522   0.53854   0.55265
 Alpha virt. eigenvalues --    0.55480   0.57000   0.57414   0.58390   0.60113
 Alpha virt. eigenvalues --    0.64575   0.67379   0.69877   0.74306   0.74805
 Alpha virt. eigenvalues --    0.75520   0.78037   0.78237   0.79754   0.80614
 Alpha virt. eigenvalues --    0.80764   0.81750   0.82438   0.83304   0.86793
 Alpha virt. eigenvalues --    0.87763   0.88368   0.90441   0.92645   0.94168
 Alpha virt. eigenvalues --    0.97738   0.97912   0.99860   1.02142   1.04375
 Alpha virt. eigenvalues --    1.05010   1.06214   1.09683   1.11104   1.11892
 Alpha virt. eigenvalues --    1.13738   1.16416   1.17732   1.20458   1.22694
 Alpha virt. eigenvalues --    1.25582   1.28712   1.37183   1.37559   1.39801
 Alpha virt. eigenvalues --    1.41745   1.42944   1.44846   1.46932   1.48855
 Alpha virt. eigenvalues --    1.51805   1.56650   1.60538   1.70565   1.73872
 Alpha virt. eigenvalues --    1.74592   1.77689   1.79820   1.83058   1.84588
 Alpha virt. eigenvalues --    1.85126   1.85519   1.88100   1.89154   1.91111
 Alpha virt. eigenvalues --    1.93265   1.95040   1.98512   2.04302   2.05680
 Alpha virt. eigenvalues --    2.06436   2.07541   2.08596   2.09604   2.10364
 Alpha virt. eigenvalues --    2.11772   2.15095   2.22531   2.23881   2.25221
 Alpha virt. eigenvalues --    2.26853   2.37936   2.45110   2.49036   2.50266
 Alpha virt. eigenvalues --    2.52801   2.53495   2.58062   2.62065   2.64286
 Alpha virt. eigenvalues --    2.65533   2.69417   2.71171   2.73032   2.82046
 Alpha virt. eigenvalues --    2.97379   3.30527   3.66376   3.74281   3.89645
 Alpha virt. eigenvalues --    3.94418   4.01222   4.04510   4.07257   4.13812
 Alpha virt. eigenvalues --    4.28998   4.31172   4.61356
          Condensed to atoms (all electrons):
               1          2          3          4          5          6
     1  O    8.305475   0.352022  -0.046515   0.001150  -0.000026  -0.000002
     2  S    0.352022  14.140188   0.020484  -0.022667   0.003986  -0.000561
     3  C   -0.046515   0.020484   5.493925   0.481434  -0.029547  -0.034609
     4  C    0.001150  -0.022667   0.481434   4.948897   0.497681  -0.026870
     5  C   -0.000026   0.003986  -0.029547   0.497681   4.886362   0.532794
     6  C   -0.000002  -0.000561  -0.034609  -0.026870   0.532794   4.846276
     7  C    0.000311   0.004130  -0.031971  -0.033238  -0.033261   0.540158
     8  C    0.000981  -0.016731   0.442404  -0.044215  -0.033694  -0.028656
     9  N   -0.044083   0.025457  -0.031873  -0.001875  -0.000096   0.000003
    10  O    0.000124  -0.002173  -0.004166   0.000352   0.000004   0.000003
    11  O   -0.048910   0.349298  -0.041199   0.000345   0.000352  -0.000003
    12  H    0.000060   0.001760  -0.044557   0.358360  -0.033539   0.003994
    13  H    0.000000  -0.000052   0.004470  -0.039297   0.364994  -0.040480
    14  H   -0.000000   0.000007   0.000446   0.004487  -0.040112   0.361414
    15  H    0.000001  -0.000055   0.004422   0.000524   0.004129  -0.039436
    16  H    0.007627   0.003348  -0.052589   0.003995   0.000362   0.003892
    17  H    0.000701  -0.000764   0.000754  -0.000006   0.000002  -0.000000
    18  H   -0.001746  -0.011850   0.019274   0.000138  -0.000090  -0.000042
               7          8          9         10         11         12
     1  O    0.000311   0.000981  -0.044083   0.000124  -0.048910   0.000060
     2  S    0.004130  -0.016731   0.025457  -0.002173   0.349298   0.001760
     3  C   -0.031971   0.442404  -0.031873  -0.004166  -0.041199  -0.044557
     4  C   -0.033238  -0.044215  -0.001875   0.000352   0.000345   0.358360
     5  C   -0.033261  -0.033694  -0.000096   0.000004   0.000352  -0.033539
     6  C    0.540158  -0.028656   0.000003   0.000003  -0.000003   0.003994
     7  C    4.875896   0.499327  -0.000070  -0.000017  -0.000024   0.000325
     8  C    0.499327   5.001529  -0.002197  -0.001996   0.001446   0.004287
     9  N   -0.000070  -0.002197   7.180993   0.070413  -0.036267  -0.000060
    10  O   -0.000017  -0.001996   0.070413   8.237383   0.000729   0.000008
    11  O   -0.000024   0.001446  -0.036267   0.000729   8.325653   0.007661
    12  H    0.000325   0.004287  -0.000060   0.000008   0.007661   0.513487
    13  H    0.004123   0.000553   0.000001  -0.000000   0.000001  -0.004869
    14  H   -0.040011   0.004659  -0.000000   0.000000  -0.000000  -0.000132
    15  H    0.364521  -0.039626   0.000001  -0.000001   0.000000   0.000011
    16  H   -0.030378   0.357298  -0.000134  -0.000161   0.000059  -0.000140
    17  H    0.000001  -0.000011   0.308971  -0.025285   0.000995  -0.000020
    18  H   -0.000002   0.014376  -0.030556   0.226422   0.000013  -0.000009
              13         14         15         16         17         18
     1  O    0.000000  -0.000000   0.000001   0.007627   0.000701  -0.001746
     2  S   -0.000052   0.000007  -0.000055   0.003348  -0.000764  -0.011850
     3  C    0.004470   0.000446   0.004422  -0.052589   0.000754   0.019274
     4  C   -0.039297   0.004487   0.000524   0.003995  -0.000006   0.000138
     5  C    0.364994  -0.040112   0.004129   0.000362   0.000002  -0.000090
     6  C   -0.040480   0.361414  -0.039436   0.003892  -0.000000  -0.000042
     7  C    0.004123  -0.040011   0.364521  -0.030378   0.000001  -0.000002
     8  C    0.000553   0.004659  -0.039626   0.357298  -0.000011   0.014376
     9  N    0.000001  -0.000000   0.000001  -0.000134   0.308971  -0.030556
    10  O   -0.000000   0.000000  -0.000001  -0.000161  -0.025285   0.226422
    11  O    0.000001  -0.000000   0.000000   0.000059   0.000995   0.000013
    12  H   -0.004869  -0.000132   0.000011  -0.000140  -0.000020  -0.000009
    13  H    0.553549  -0.004767  -0.000156   0.000012  -0.000000  -0.000000
    14  H   -0.004767   0.559901  -0.004803  -0.000134   0.000000  -0.000000
    15  H   -0.000156  -0.004803   0.553530  -0.004788  -0.000000  -0.000008
    16  H    0.000012  -0.000134  -0.004788   0.517830  -0.000007   0.001181
    17  H   -0.000000   0.000000  -0.000000  -0.000007   0.325289   0.003288
    18  H   -0.000000  -0.000000  -0.000008   0.001181   0.003288   0.363570
 Mulliken charges:
               1
     1  O   -0.527168
     2  S    1.154173
     3  C   -0.150588
     4  C   -0.129195
     5  C   -0.120301
     6  C   -0.117877
     7  C   -0.119821
     8  C   -0.159735
     9  N   -0.438629
    10  O   -0.501639
    11  O   -0.560150
    12  H    0.193373
    13  H    0.161917
    14  H    0.159045
    15  H    0.161733
    16  H    0.192728
    17  H    0.386091
    18  H    0.416043
 Sum of Mulliken charges =  -0.00000
 Mulliken charges with hydrogens summed into heavy atoms:
               1
     1  O   -0.527168
     2  S    1.154173
     3  C   -0.150588
     4  C    0.064179
     5  C    0.041615
     6  C    0.041168
     7  C    0.041913
     8  C    0.032992
     9  N   -0.052537
    10  O   -0.085596
    11  O   -0.560150
 Electronic spatial extent (au):  <R**2>=           1929.3238
 Charge=             -0.0000 electrons
 Dipole moment (field-independent basis, Debye):
    X=             -5.9628    Y=             -1.4540    Z=             -3.5433  Tot=              7.0869
 Quadrupole moment (field-independent basis, Debye-Ang):
   XX=            -63.9612   YY=            -71.8872   ZZ=            -72.3677
   XY=             -0.0731   XZ=             -7.9657   YZ=             -5.6414
 Traceless Quadrupole moment (field-independent basis, Debye-Ang):
   XX=              5.4442   YY=             -2.4819   ZZ=             -2.9623
   XY=             -0.0731   XZ=             -7.9657   YZ=             -5.6414
 Octapole moment (field-independent basis, Debye-Ang**2):
  XXX=            -19.2624  YYY=            -12.7997  ZZZ=            -12.4895  XYY=            -17.7083
  XXY=              0.3005  XXZ=            -26.7197  XZZ=             11.5889  YZZ=              4.3099
  YYZ=              0.4201  XYZ=              3.2306
 Hexadecapole moment (field-independent basis, Debye-Ang**3):
 XXXX=          -1431.8595 YYYY=           -506.9829 ZZZZ=           -320.2877 XXXY=             11.0114
 XXXZ=            -49.9024 YYYX=             -9.8455 YYYZ=            -18.9727 ZZZX=            -34.8076
 ZZZY=              1.4196 XXYY=           -366.4373 XXZZ=           -310.3668 YYZZ=           -139.1398
 XXYZ=            -26.8202 YYXZ=              4.5359 ZZXY=              5.9116
 N-N= 7.261768626244D+02 E-N=-3.594401454309D+03  KE= 9.044336016345D+02
 No NMR shielding tensors so no spin-rotation constants.
 Leave Link  601 at Mon Oct 14 01:38:45 2019, MaxMem= 10737418240 cpu:               2.9 elap:               0.2
 (Enter /apps/cent7/gaussian/g16-A.03/g16-haswell/g16/l701.exe)
 ... and contract with generalized density number  0.
 Compute integral first derivatives.
 Leave Link  701 at Mon Oct 14 01:38:45 2019, MaxMem= 10737418240 cpu:               2.6 elap:               0.1
 (Enter /apps/cent7/gaussian/g16-A.03/g16-haswell/g16/l702.exe)
 L702 exits ... SP integral derivatives will be done elsewhere.
 Leave Link  702 at Mon Oct 14 01:38:45 2019, MaxMem= 10737418240 cpu:               0.4 elap:               0.0
 (Enter /apps/cent7/gaussian/g16-A.03/g16-haswell/g16/l703.exe)
 Integral derivatives from FoFJK, PRISM(SPDF).
 Compute integral first derivatives, UseDBF=F ICtDFT=           0.
 Calling FoFJK, ICntrl=      2127 FMM=F ISym2X=0 I1Cent= 0 IOpClX= 0 NMat=1 NMatS=1 NMatT=0.
 FoFJK:  IHMeth= 1 ICntrl=    2127 DoSepK=F KAlg= 0 I1Cent=           0 FoldK=F
 IRaf=         0 NMat=       1 IRICut=       1 DoRegI=T DoRafI=F ISym2E= 0 IDoP0=0 IntGTp=1.
 FoFCou: FMM=F IPFlag=           0 FMFlag=      100000 FMFlg1=         800
         NFxFlg=           0 DoJE=F BraDBF=F KetDBF=F FulRan=T
         wScrn=  0.000000 ICntrl=      2127 IOpCl=  0 I1Cent=           0 NGrid=           0
         NMat0=    1 NMatS0=      1 NMatT0=    0 NMatD0=    1 NMtDS0=    0 NMtDT0=    0
 Symmetry not used in FoFCou.
 Leave Link  703 at Mon Oct 14 01:38:46 2019, MaxMem= 10737418240 cpu:              22.5 elap:               1.0
 (Enter /apps/cent7/gaussian/g16-A.03/g16-haswell/g16/l716.exe)
 Dipole        =-2.34595892D+00-5.72040378D-01-1.39404922D+00
 ***** Axes restored to original set *****
 -------------------------------------------------------------------
 Center     Atomic                   Forces (Hartrees/Bohr)
 Number     Number              X              Y              Z
 -------------------------------------------------------------------
      1        8           0.053892264   -0.086010267    0.004990529
      2       16          -0.172485750    0.030192211    0.000935673
      3        6           0.026468978   -0.002944567    0.007292709
      4        6           0.000016383   -0.003852193    0.000112820
      5        6          -0.003485333    0.008670237   -0.006425029
      6        6          -0.005728189    0.002074731   -0.004444142
      7        6          -0.005354965   -0.007759487   -0.000065583
      8        6           0.001892380    0.000978135   -0.001446954
      9        7          -0.012594861    0.009974821    0.074728444
     10        8           0.032179687    0.022602378   -0.054662733
     11        8           0.087464286    0.031375559   -0.036151827
     12        1           0.000315672    0.004115525   -0.000191691
     13        1          -0.001774343    0.002307136   -0.002132555
     14        1          -0.002239629    0.000316332   -0.001628694
     15        1          -0.002892079   -0.001769703   -0.000907625
     16        1          -0.002366256   -0.000947917    0.003293771
     17        1          -0.003744203   -0.004670463    0.008694399
     18        1           0.010435957   -0.004652466    0.008008486
 -------------------------------------------------------------------
 Cartesian Forces:  Max     0.172485750 RMS     0.034086230
 Leave Link  716 at Mon Oct 14 01:38:46 2019, MaxMem= 10737418240 cpu:               0.6 elap:               0.0
 (Enter /apps/cent7/gaussian/g16-A.03/g16-haswell/g16/l103.exe)

 GradGradGradGradGradGradGradGradGradGradGradGradGradGradGradGradGradGrad
 Berny optimization.
 FormGI is forming the generalized inverse of G from B-inverse, IUseBI=4.
 Internal  Forces:  Max     0.097790861 RMS     0.019721117
 Search for a local minimum.
 Step number   1 out of a maximum of   94
 All quantities printed in internal units (Hartrees-Bohrs-Radians)
 RMS Force = .19721D-01 SwitMx=.10000D-02 MixMth= 1
 Mixed Optimization -- RFO/linear search
 Second derivative matrix not updated -- first step.
 ITU=  0
     Eigenvalues ---    0.00521   0.00751   0.00760   0.01470   0.01919
     Eigenvalues ---    0.01950   0.01968   0.01974   0.01988   0.01999
     Eigenvalues ---    0.02001   0.02001   0.02002   0.08073   0.09416
     Eigenvalues ---    0.14619   0.16000   0.16000   0.16000   0.16000
     Eigenvalues ---    0.16000   0.16000   0.16000   0.20149   0.22000
     Eigenvalues ---    0.22000   0.22000   0.23479   0.24999   0.25000
     Eigenvalues ---    0.28585   0.29667   0.34808   0.34808   0.34810
     Eigenvalues ---    0.34811   0.34813   0.40462   0.40494   0.43975
     Eigenvalues ---    0.44225   0.44511   0.44545   0.45976   0.50396
     Eigenvalues ---    0.50432   0.54430   0.55460
 RFO step:  Lambda=-7.74975203D-02 EMin= 5.20610167D-03
 Linear search not attempted -- first point.
 Maximum step size (   0.300) exceeded in Quadratic search.
    -- Step size scaled by   0.727
 Iteration  1 RMS(Cart)=  0.06808936 RMS(Int)=  0.00280544
 Iteration  2 RMS(Cart)=  0.00456781 RMS(Int)=  0.00046435
 Iteration  3 RMS(Cart)=  0.00001960 RMS(Int)=  0.00046421
 Iteration  4 RMS(Cart)=  0.00000000 RMS(Int)=  0.00046421
 ITry= 1 IFail=0 DXMaxC= 2.91D-01 DCOld= 1.00D+10 DXMaxT= 3.00D-01 DXLimC= 3.00D+00 Rises=F
 Variable       Old X    -DE/DX   Delta X   Delta X   Delta X     New X
                                 (Linear)    (Quad)   (Total)
    R1        3.03168  -0.09779   0.00000  -0.12224  -0.12224   2.90944
    R2        3.34577   0.00005   0.00000   0.00011   0.00011   3.34588
    R3        3.32332  -0.03638   0.00000  -0.07066  -0.07066   3.25266
    R4        3.03132  -0.09683   0.00000  -0.12097  -0.12097   2.91035
    R5        2.66640  -0.01220   0.00000  -0.01720  -0.01719   2.64921
    R6        2.66637  -0.00993   0.00000  -0.01392  -0.01391   2.65246
    R7        2.65866  -0.01438   0.00000  -0.02008  -0.02008   2.63858
    R8        2.05980  -0.00329   0.00000  -0.00561  -0.00561   2.05418
    R9        2.65814  -0.00674   0.00000  -0.00943  -0.00945   2.64869
   R10        2.05983  -0.00332   0.00000  -0.00567  -0.00567   2.05416
   R11        2.65790  -0.00893   0.00000  -0.01239  -0.01241   2.64549
   R12        2.05987  -0.00279   0.00000  -0.00476  -0.00476   2.05511
   R13        2.65824  -0.01239   0.00000  -0.01715  -0.01715   2.64109
   R14        2.05985  -0.00328   0.00000  -0.00561  -0.00561   2.05424
   R15        2.05989  -0.00222   0.00000  -0.00379  -0.00379   2.05609
   R16        2.55642   0.05894   0.00000   0.06889   0.06889   2.62531
   R17        1.90859  -0.00061   0.00000  -0.00082  -0.00082   1.90776
   R18        1.81426   0.01006   0.00000   0.01157   0.01157   1.82582
    A1        1.93691  -0.01213   0.00000  -0.04013  -0.04062   1.89628
    A2        1.89437   0.00846   0.00000   0.01818   0.01570   1.91007
    A3        1.89400   0.02416   0.00000   0.10431   0.10406   1.99807
    A4        1.90977  -0.01714   0.00000  -0.06295  -0.06468   1.84509
    A5        1.93437  -0.00215   0.00000  -0.01303  -0.01391   1.92046
    A6        1.89345  -0.00046   0.00000  -0.00392  -0.00571   1.88774
    A7        2.10064  -0.00723   0.00000  -0.01625  -0.01627   2.08436
    A8        2.09681  -0.00293   0.00000  -0.00670  -0.00673   2.09009
    A9        2.08572   0.01016   0.00000   0.02298   0.02302   2.10873
   A10        2.09798  -0.00642   0.00000  -0.01546  -0.01544   2.08254
   A11        2.09499   0.00102   0.00000   0.00104   0.00103   2.09602
   A12        2.09021   0.00539   0.00000   0.01442   0.01440   2.10462
   A13        2.09475   0.00092   0.00000   0.00239   0.00237   2.09711
   A14        2.09439  -0.00190   0.00000  -0.00561  -0.00560   2.08879
   A15        2.09405   0.00098   0.00000   0.00322   0.00323   2.09728
   A16        2.09491   0.00173   0.00000   0.00453   0.00450   2.09941
   A17        2.09421  -0.00078   0.00000  -0.00202  -0.00201   2.09221
   A18        2.09406  -0.00095   0.00000  -0.00251  -0.00250   2.09157
   A19        2.09435  -0.00046   0.00000  -0.00057  -0.00059   2.09377
   A20        2.09441   0.00151   0.00000   0.00420   0.00420   2.09861
   A21        2.09442  -0.00105   0.00000  -0.00362  -0.00362   2.09080
   A22        2.09862  -0.00592   0.00000  -0.01384  -0.01383   2.08479
   A23        2.09499   0.00174   0.00000   0.00318   0.00315   2.09814
   A24        2.08958   0.00418   0.00000   0.01066   0.01063   2.10021
   A25        1.87697   0.05627   0.00000   0.13748   0.13745   2.01442
   A26        2.37915  -0.03735   0.00000  -0.09694  -0.09696   2.28219
   A27        2.02706  -0.01892   0.00000  -0.04054  -0.04056   1.98650
   A28        1.91059  -0.00087   0.00000  -0.00268  -0.00268   1.90791
    D1        2.62214   0.01026   0.00000   0.05151   0.05042   2.67256
    D2       -0.52595   0.01086   0.00000   0.05614   0.05499  -0.47096
    D3       -1.57098   0.00214   0.00000   0.00849   0.00897  -1.56201
    D4        1.56411   0.00275   0.00000   0.01311   0.01354   1.57766
    D5        0.51637  -0.01069   0.00000  -0.04461  -0.04392   0.47245
    D6       -2.63172  -0.01009   0.00000  -0.03999  -0.03935  -2.67106
    D7        1.11167  -0.01929   0.00000  -0.08282  -0.08308   1.02859
    D8       -2.02981  -0.01764   0.00000  -0.06870  -0.06916  -2.09897
    D9       -1.00434   0.00070   0.00000  -0.00685  -0.00640  -1.01074
   D10        2.13736   0.00235   0.00000   0.00727   0.00753   2.14490
   D11       -3.11670   0.01393   0.00000   0.04935   0.04945  -3.06725
   D12        0.02501   0.01558   0.00000   0.06347   0.06338   0.08839
   D13       -3.13776   0.00024   0.00000   0.00197   0.00196  -3.13580
   D14        0.00388  -0.00040   0.00000  -0.00287  -0.00285   0.00103
   D15        0.01029  -0.00031   0.00000  -0.00252  -0.00255   0.00774
   D16       -3.13126  -0.00095   0.00000  -0.00735  -0.00736  -3.13861
   D17        3.13828  -0.00006   0.00000  -0.00063  -0.00065   3.13763
   D18       -0.00319   0.00131   0.00000   0.00959   0.00955   0.00636
   D19       -0.00975   0.00048   0.00000   0.00381   0.00384  -0.00592
   D20        3.13196   0.00184   0.00000   0.01403   0.01404  -3.13718
   D21       -0.00505  -0.00005   0.00000  -0.00044  -0.00045  -0.00549
   D22        3.13646  -0.00021   0.00000  -0.00166  -0.00166   3.13479
   D23        3.13650   0.00060   0.00000   0.00438   0.00439   3.14088
   D24       -0.00519   0.00043   0.00000   0.00316   0.00317  -0.00201
   D25       -0.00081   0.00031   0.00000   0.00231   0.00232   0.00151
   D26        3.14083  -0.00010   0.00000  -0.00070  -0.00070   3.14014
   D27        3.14088   0.00048   0.00000   0.00353   0.00354  -3.13877
   D28       -0.00067   0.00007   0.00000   0.00052   0.00053  -0.00014
   D29        0.00134  -0.00014   0.00000  -0.00101  -0.00100   0.00034
   D30       -3.14030  -0.00068   0.00000  -0.00504  -0.00504   3.13785
   D31       -3.14030   0.00027   0.00000   0.00200   0.00201  -3.13829
   D32        0.00125  -0.00027   0.00000  -0.00203  -0.00203  -0.00078
   D33        0.00398  -0.00030   0.00000  -0.00216  -0.00215   0.00183
   D34       -3.13774  -0.00166   0.00000  -0.01235  -0.01236   3.13309
   D35       -3.13757   0.00024   0.00000   0.00187   0.00188  -3.13569
   D36        0.00390  -0.00112   0.00000  -0.00832  -0.00833  -0.00444
   D37        0.43378   0.00890   0.00000   0.06752   0.06786   0.50164
   D38       -2.70790   0.00762   0.00000   0.05666   0.05632  -2.65158
         Item               Value     Threshold  Converged?
 Maximum Force            0.097791     0.000450     NO 
 RMS     Force            0.019721     0.000300     NO 
 Maximum Displacement     0.290635     0.001800     NO 
 RMS     Displacement     0.069000     0.001200     NO 
 Predicted change in Energy=-4.070542D-02
 Lowest energy point so far.  Saving SCF results.
 GradGradGradGradGradGradGradGradGradGradGradGradGradGradGradGradGradGrad

 Leave Link  103 at Mon Oct 14 01:38:46 2019, MaxMem= 10737418240 cpu:               1.2 elap:               0.1
 (Enter /apps/cent7/gaussian/g16-A.03/g16-haswell/g16/l202.exe)
                          Input orientation:                          
 ---------------------------------------------------------------------
 Center     Atomic      Atomic             Coordinates (Angstroms)
 Number     Number       Type             X           Y           Z
 ---------------------------------------------------------------------
      1          8           0       -2.300473    2.500886   -0.785660
      2         16           0       -1.949559    1.006067   -0.672638
      3          6           0       -0.496308    0.839514    0.324968
      4          6           0       -0.285357   -0.346503    1.042038
      5          6           0        0.857935   -0.472802    1.833569
      6          6           0        1.785967    0.575327    1.902422
      7          6           0        1.572797    1.755656    1.180483
      8          6           0        0.430214    1.892050    0.387264
      9          7           0       -1.521248    0.399227   -2.225360
     10          8           0       -0.444734    1.030266   -2.836042
     11          8           0       -3.080484    0.125912   -0.108525
     12          1           0       -1.009328   -1.155212    0.983010
     13          1           0        1.024125   -1.387404    2.397027
     14          1           0        2.674206    0.472594    2.521435
     15          1           0        2.291292    2.569441    1.237162
     16          1           0        0.254578    2.809830   -0.170101
     17          1           0       -1.929512   -0.338779   -2.780203
     18          1           0        0.151189    1.373830   -2.157550
 ---------------------------------------------------------------------
                    Distance matrix (angstroms):
                    1          2          3          4          5
     1  O    0.000000
     2  S    1.539610   0.000000
     3  C    2.692333   1.770563   0.000000
     4  C    3.938121   2.745747   1.401901   0.000000
     5  C    5.067417   4.043531   2.414959   1.396277   0.000000
     6  C    5.256667   4.557480   2.786923   2.424957   1.401627
     7  C    4.407187   4.050053   2.419177   2.809088   2.429727
     8  C    3.033658   2.751668   1.403622   2.439650   2.804865
     9  N    2.664001   1.721236   2.783618   3.572035   4.784961
    10  O    3.132181   2.635413   3.167180   4.118301   5.075572
    11  O    2.589871   1.540093   2.715715   3.059364   4.431854
    12  H    4.261725   2.880335   2.162207   1.087027   2.162360
    13  H    6.025052   4.898402   3.400634   2.152722   1.087015
    14  H    6.308587   5.644988   3.874436   3.408599   2.160040
    15  H    5.018048   4.906760   3.405211   3.896142   3.415473
    16  H    2.646251   2.892115   2.165887   3.423923   3.892866
    17  H    3.489916   2.500168   3.617254   4.160869   5.392097
    18  H    3.027042   2.598722   2.620619   3.658891   4.454051
                    6          7          8          9         10
     6  C    0.000000
     7  C    1.399934   0.000000
     8  C    2.422298   1.397604   0.000000
     9  N    5.292190   4.797164   3.586437   0.000000
    10  O    5.256999   4.552922   3.449335   1.389254   0.000000
    11  O    5.284717   5.096139   3.961067   2.643276   3.899280
    12  H    3.413760   3.896090   3.422426   3.601664   4.436242
    13  H    2.162719   3.414652   3.891876   5.571126   5.948756
    14  H    1.087520   2.158125   3.406617   6.335557   6.224255
    15  H    2.162039   1.087057   2.155179   5.588771   5.142557
    16  H    3.410792   2.161726   1.088036   3.631620   3.280721
    17  H    6.047094   5.686814   4.536270   1.009545   2.020388
    18  H    4.448987   3.648181   2.611989   1.936878   0.966185
                   11         12         13         14         15
    11  O    0.000000
    12  H    2.668785   0.000000
    13  H    5.041402   2.487627   0.000000
    14  H    6.336666   4.311023   2.489545   0.000000
    15  H    6.052907   4.983144   4.313656   2.488523   0.000000
    16  H    4.281337   4.318411   4.979872   4.308321   2.487243
    17  H    2.945936   3.959175   6.052049   7.068232   6.512461
    18  H    4.024862   4.195947   5.397278   5.391729   4.187314
                   16         17         18
    16  H    0.000000
    17  H    4.636445   0.000000
    18  H    2.454127   2.765871   0.000000
 Stoichiometry    C6H7NO3S
 Framework group  C1[X(C6H7NO3S)]
 Deg. of freedom    48
 Full point group                 C1      NOp   1
 RotChk:  IX=0 Diff= 2.82D-02
 Largest Abelian subgroup         C1      NOp   1
 Largest concise Abelian subgroup C1      NOp   1
                         Standard orientation:                         
 ---------------------------------------------------------------------
 Center     Atomic      Atomic             Coordinates (Angstroms)
 Number     Number       Type             X           Y           Z
 ---------------------------------------------------------------------
      1          8           0        1.747720   -0.367854    1.575513
      2         16           0        1.282673    0.373777    0.308977
      3          6           0       -0.468417    0.170069    0.144418
      4          6           0       -1.214474    1.144442   -0.533317
      5          6           0       -2.596213    0.985080   -0.655750
      6          6           0       -3.225976   -0.142357   -0.110918
      7          6           0       -2.475500   -1.114746    0.560692
      8          6           0       -1.092235   -0.962711    0.690143
      9          7           0        1.971685   -0.375429   -1.079046
     10          8           0        1.658399   -1.718154   -1.249247
     11          8           0        1.645124    1.870257    0.276373
     12          1           0       -0.718782    2.015736   -0.953749
     13          1           0       -3.181221    1.740198   -1.174560
     14          1           0       -4.302636   -0.261195   -0.207766
     15          1           0       -2.965158   -1.987130    0.985988
     16          1           0       -0.504204   -1.710802    1.217781
     17          1           0        2.580518   -0.005030   -1.794104
     18          1           0        0.793864   -1.896864   -0.856620
 ---------------------------------------------------------------------
 Rotational constants (GHZ):           1.7076693           0.7073078           0.6424452
 Leave Link  202 at Mon Oct 14 01:38:46 2019, MaxMem= 10737418240 cpu:               0.2 elap:               0.0
 (Enter /apps/cent7/gaussian/g16-A.03/g16-haswell/g16/l301.exe)
 Standard basis: 6-31G(d) (6D, 7F)
 Ernie: Thresh=  0.10000D-02 Tol=  0.10000D-05 Strict=F.
 There are   183 symmetry adapted cartesian basis functions of A   symmetry.
 There are   183 symmetry adapted basis functions of A   symmetry.
   183 basis functions,   360 primitive gaussians,   183 cartesian basis functions
    45 alpha electrons       45 beta electrons
       nuclear repulsion energy       733.5684193100 Hartrees.
 IExCor=  402 DFT=T Ex+Corr=B3LYP ExCW=0 ScaHFX=  0.200000
 ScaDFX=  0.800000  0.720000  1.000000  0.810000 ScalE2=  1.000000  1.000000
 IRadAn=      5 IRanWt=     -1 IRanGd=            0 ICorTp=0 IEmpDi=  4
 NAtoms=   18 NActive=   18 NUniq=   18 SFac= 1.00D+00 NAtFMM=   60 NAOKFM=F Big=F
 Integral buffers will be    131072 words long.
 Raffenetti 2 integral format.
 Two-electron integral symmetry is turned on.
 Leave Link  301 at Mon Oct 14 01:38:46 2019, MaxMem= 10737418240 cpu:               1.3 elap:               0.1
 (Enter /apps/cent7/gaussian/g16-A.03/g16-haswell/g16/l302.exe)
 NPDir=0 NMtPBC=     1 NCelOv=     1 NCel=       1 NClECP=     1 NCelD=      1
         NCelK=      1 NCelE2=     1 NClLst=     1 CellRange=     0.0.
 One-electron integrals computed using PRISM.
 One-electron integral symmetry used in STVInt
 NBasis=   183 RedAO= T EigKep=  5.17D-04  NBF=   183
 NBsUse=   183 1.00D-06 EigRej= -1.00D+00 NBFU=   183
 Precomputing XC quadrature grid using
 IXCGrd= 4 IRadAn=           5 IRanWt=          -1 IRanGd=           0 AccXCQ= 0.00D+00.
 Generated NRdTot=       0 NPtTot=           0 NUsed=           0 NTot=          32
 NSgBfM=   183   183   183   183   183 MxSgAt=    18 MxSgA2=    18.
 Leave Link  302 at Mon Oct 14 01:38:46 2019, MaxMem= 10737418240 cpu:               3.2 elap:               0.2
 (Enter /apps/cent7/gaussian/g16-A.03/g16-haswell/g16/l303.exe)
 DipDrv:  MaxL=1.
 Leave Link  303 at Mon Oct 14 01:38:46 2019, MaxMem= 10737418240 cpu:               0.7 elap:               0.0
 (Enter /apps/cent7/gaussian/g16-A.03/g16-haswell/g16/l401.exe)
 Initial guess from the checkpoint file:  "29.chk"
 B after Tr=    -0.000000   -0.000000   -0.000000
         Rot=    0.999952    0.009696    0.000389    0.001448 Ang=   1.12 deg.
 Guess basis will be translated and rotated to current coordinates.
 JPrj=2 DoOrth=T DoCkMO=T.
 Generating alternative initial guess.
 ExpMin= 1.17D-01 ExpMax= 2.19D+04 ExpMxC= 3.30D+03 IAcc=2 IRadAn=         4 AccDes= 0.00D+00
 Harris functional with IExCor=  402 and IRadAn=       4 diagonalized for initial guess.
 HarFok:  IExCor=  402 AccDes= 0.00D+00 IRadAn=         4 IDoV= 1 UseB2=F ITyADJ=14
 ICtDFT=  3500011 ScaDFX=  1.000000  1.000000  1.000000  1.000000
 FoFCou: FMM=F IPFlag=           0 FMFlag=      100000 FMFlg1=           0
         NFxFlg=           0 DoJE=T BraDBF=F KetDBF=T FulRan=T
         wScrn=  0.000000 ICntrl=       500 IOpCl=  0 I1Cent=   200000004 NGrid=           0
         NMat0=    1 NMatS0=      1 NMatT0=    0 NMatD0=    1 NMtDS0=    0 NMtDT0=    0
 Petite list used in FoFCou.
 Harris En= -911.350349596077    
 Leave Link  401 at Mon Oct 14 01:38:47 2019, MaxMem= 10737418240 cpu:               6.6 elap:               0.3
 (Enter /apps/cent7/gaussian/g16-A.03/g16-haswell/g16/l502.exe)
 Integral symmetry usage will be decided dynamically.
 Closed shell SCF:
 Using DIIS extrapolation, IDIIS=  1040.
 NGot= 10737418240 LenX= 10737344800 LenY= 10737310870
 Requested convergence on RMS density matrix=1.00D-08 within 128 cycles.
 Requested convergence on MAX density matrix=1.00D-06.
 Requested convergence on             energy=1.00D-06.
 No special actions if energy rises.
 Fock matrices will be formed incrementally for  20 cycles.
 Integral accuracy reduced to 1.0D-05 until final iterations.

 Cycle   1  Pass 0  IDiag  1:
 FoFJK:  IHMeth= 1 ICntrl=       0 DoSepK=F KAlg= 0 I1Cent=           0 FoldK=F
 IRaf= 920000000 NMat=       1 IRICut=       1 DoRegI=T DoRafI=F ISym2E= 0 IDoP0=0 IntGTp=1.
 FoFCou: FMM=F IPFlag=           0 FMFlag=      100000 FMFlg1=           0
         NFxFlg=           0 DoJE=F BraDBF=F KetDBF=F FulRan=T
         wScrn=  0.000000 ICntrl=         0 IOpCl=  0 I1Cent=           0 NGrid=           0
         NMat0=    1 NMatS0=      1 NMatT0=    0 NMatD0=    1 NMtDS0=    0 NMtDT0=    0
 Symmetry not used in FoFCou.
 E= -911.264188213778    
 DIIS: error= 4.30D-03 at cycle   1 NSaved=   1.
 NSaved= 1 IEnMin= 1 EnMin= -911.264188213778     IErMin= 1 ErrMin= 4.30D-03
 ErrMax= 4.30D-03  0.00D+00 EMaxC= 1.00D-01 BMatC= 1.01D-02 BMatP= 1.01D-02
 IDIUse=3 WtCom= 9.57D-01 WtEn= 4.30D-02
 Coeff-Com:  0.100D+01
 Coeff-En:   0.100D+01
 Coeff:      0.100D+01
 Gap=     1.826 Goal=   None    Shift=    0.000
 GapD=    1.826 DampG=2.000 DampE=1.000 DampFc=2.0000 IDamp=-1.
 RMSDP=1.40D-03 MaxDP=2.73D-02              OVMax= 4.38D-02

 Cycle   2  Pass 0  IDiag  1:
 RMSU=  1.38D-03    CP:  9.94D-01
 E= -911.279766217328     Delta-E=       -0.015578003550 Rises=F Damp=F
 DIIS: error= 3.79D-03 at cycle   2 NSaved=   2.
 NSaved= 2 IEnMin= 2 EnMin= -911.279766217328     IErMin= 2 ErrMin= 3.79D-03
 ErrMax= 3.79D-03  0.00D+00 EMaxC= 1.00D-01 BMatC= 3.69D-03 BMatP= 1.01D-02
 IDIUse=3 WtCom= 9.62D-01 WtEn= 3.79D-02
 Coeff-Com:  0.297D+00 0.703D+00
 Coeff-En:   0.000D+00 0.100D+01
 Coeff:      0.286D+00 0.714D+00
 Gap=     0.176 Goal=   None    Shift=    0.000
 RMSDP=7.81D-04 MaxDP=2.43D-02 DE=-1.56D-02 OVMax= 2.77D-02

 Cycle   3  Pass 0  IDiag  1:
 RMSU=  6.92D-04    CP:  9.98D-01  7.53D-01
 E= -911.277842985573     Delta-E=        0.001923231755 Rises=F Damp=F
 DIIS: error= 4.21D-03 at cycle   3 NSaved=   3.
 NSaved= 3 IEnMin= 2 EnMin= -911.279766217328     IErMin= 2 ErrMin= 3.79D-03
 ErrMax= 4.21D-03  0.00D+00 EMaxC= 1.00D-01 BMatC= 6.03D-03 BMatP= 3.69D-03
 IDIUse=3 WtCom= 1.34D-01 WtEn= 8.66D-01
 Coeff-Com: -0.210D-01 0.571D+00 0.450D+00
 Coeff-En:   0.000D+00 0.593D+00 0.407D+00
 Coeff:     -0.280D-02 0.590D+00 0.413D+00
 Gap=     0.173 Goal=   None    Shift=    0.000
 RMSDP=4.42D-04 MaxDP=1.32D-02 DE= 1.92D-03 OVMax= 1.56D-02

 Cycle   4  Pass 0  IDiag  1:
 RMSU=  1.08D-04    CP:  9.95D-01  9.28D-01  5.03D-01
 E= -911.282715505136     Delta-E=       -0.004872519563 Rises=F Damp=F
 DIIS: error= 4.53D-04 at cycle   4 NSaved=   4.
 NSaved= 4 IEnMin= 4 EnMin= -911.282715505136     IErMin= 4 ErrMin= 4.53D-04
 ErrMax= 4.53D-04  0.00D+00 EMaxC= 1.00D-01 BMatC= 8.04D-05 BMatP= 3.69D-03
 IDIUse=3 WtCom= 9.95D-01 WtEn= 4.53D-03
 Coeff-Com: -0.242D-01 0.257D+00 0.178D+00 0.590D+00
 Coeff-En:   0.000D+00 0.000D+00 0.000D+00 0.100D+01
 Coeff:     -0.241D-01 0.255D+00 0.177D+00 0.592D+00
 Gap=     0.172 Goal=   None    Shift=    0.000
 RMSDP=6.19D-05 MaxDP=2.11D-03 DE=-4.87D-03 OVMax= 2.13D-03

 Cycle   5  Pass 0  IDiag  1:
 RMSU=  4.19D-05    CP:  9.95D-01  9.46D-01  4.81D-01  6.73D-01
 E= -911.282771194743     Delta-E=       -0.000055689607 Rises=F Damp=F
 DIIS: error= 2.11D-04 at cycle   5 NSaved=   5.
 NSaved= 5 IEnMin= 5 EnMin= -911.282771194743     IErMin= 5 ErrMin= 2.11D-04
 ErrMax= 2.11D-04  0.00D+00 EMaxC= 1.00D-01 BMatC= 1.45D-05 BMatP= 8.04D-05
 IDIUse=3 WtCom= 9.98D-01 WtEn= 2.11D-03
 Coeff-Com: -0.105D-01 0.828D-01 0.523D-01 0.345D+00 0.530D+00
 Coeff-En:   0.000D+00 0.000D+00 0.000D+00 0.955D-01 0.905D+00
 Coeff:     -0.105D-01 0.826D-01 0.521D-01 0.345D+00 0.531D+00
 Gap=     0.172 Goal=   None    Shift=    0.000
 RMSDP=2.12D-05 MaxDP=7.79D-04 DE=-5.57D-05 OVMax= 7.51D-04

 Cycle   6  Pass 0  IDiag  1:
 RMSU=  1.47D-05    CP:  9.95D-01  9.48D-01  4.85D-01  7.36D-01  6.91D-01
 E= -911.282781996765     Delta-E=       -0.000010802022 Rises=F Damp=F
 DIIS: error= 5.47D-05 at cycle   6 NSaved=   6.
 NSaved= 6 IEnMin= 6 EnMin= -911.282781996765     IErMin= 6 ErrMin= 5.47D-05
 ErrMax= 5.47D-05  0.00D+00 EMaxC= 1.00D-01 BMatC= 9.44D-07 BMatP= 1.45D-05
 IDIUse=1 WtCom= 1.00D+00 WtEn= 0.00D+00
 Coeff-Com: -0.296D-02 0.182D-01 0.964D-02 0.124D+00 0.265D+00 0.586D+00
 Coeff:     -0.296D-02 0.182D-01 0.964D-02 0.124D+00 0.265D+00 0.586D+00
 Gap=     0.172 Goal=   None    Shift=    0.000
 RMSDP=8.31D-06 MaxDP=2.53D-04 DE=-1.08D-05 OVMax= 3.37D-04

 Initial convergence to 1.0D-05 achieved.  Increase integral accuracy.
 Cycle   7  Pass 1  IDiag  1:
 E= -911.282771453015     Delta-E=        0.000010543750 Rises=F Damp=F
 DIIS: error= 3.79D-05 at cycle   1 NSaved=   1.
 NSaved= 1 IEnMin= 1 EnMin= -911.282771453015     IErMin= 1 ErrMin= 3.79D-05
 ErrMax= 3.79D-05  0.00D+00 EMaxC= 1.00D-01 BMatC= 4.50D-07 BMatP= 4.50D-07
 IDIUse=1 WtCom= 1.00D+00 WtEn= 0.00D+00
 Coeff-Com:  0.100D+01
 Coeff:      0.100D+01
 Gap=     0.172 Goal=   None    Shift=    0.000
 RMSDP=8.31D-06 MaxDP=2.53D-04 DE= 1.05D-05 OVMax= 5.27D-04

 Cycle   8  Pass 1  IDiag  1:
 RMSU=  1.40D-05    CP:  1.00D+00
 E= -911.282769750839     Delta-E=        0.000001702176 Rises=F Damp=F
 DIIS: error= 9.73D-05 at cycle   2 NSaved=   2.
 NSaved= 2 IEnMin= 1 EnMin= -911.282771453015     IErMin= 1 ErrMin= 3.79D-05
 ErrMax= 9.73D-05  0.00D+00 EMaxC= 1.00D-01 BMatC= 2.53D-06 BMatP= 4.50D-07
 IDIUse=1 WtCom= 1.00D+00 WtEn= 0.00D+00
 Coeff-Com:  0.708D+00 0.292D+00
 Coeff:      0.708D+00 0.292D+00
 Gap=     0.172 Goal=   None    Shift=    0.000
 RMSDP=8.97D-06 MaxDP=2.51D-04 DE= 1.70D-06 OVMax= 4.00D-04

 Cycle   9  Pass 1  IDiag  1:
 RMSU=  4.44D-06    CP:  1.00D+00  4.43D-01
 E= -911.282771817649     Delta-E=       -0.000002066810 Rises=F Damp=F
 DIIS: error= 4.69D-06 at cycle   3 NSaved=   3.
 NSaved= 3 IEnMin= 3 EnMin= -911.282771817649     IErMin= 3 ErrMin= 4.69D-06
 ErrMax= 4.69D-06  0.00D+00 EMaxC= 1.00D-01 BMatC= 1.01D-08 BMatP= 4.50D-07
 IDIUse=1 WtCom= 1.00D+00 WtEn= 0.00D+00
 Coeff-Com:  0.234D+00 0.113D+00 0.653D+00
 Coeff:      0.234D+00 0.113D+00 0.653D+00
 Gap=     0.172 Goal=   None    Shift=    0.000
 RMSDP=7.90D-07 MaxDP=3.01D-05 DE=-2.07D-06 OVMax= 2.43D-05

 Cycle  10  Pass 1  IDiag  1:
 RMSU=  7.20D-07    CP:  1.00D+00  4.60D-01  9.52D-01
 E= -911.282771822123     Delta-E=       -0.000000004474 Rises=F Damp=F
 DIIS: error= 2.98D-06 at cycle   4 NSaved=   4.
 NSaved= 4 IEnMin= 4 EnMin= -911.282771822123     IErMin= 4 ErrMin= 2.98D-06
 ErrMax= 2.98D-06  0.00D+00 EMaxC= 1.00D-01 BMatC= 4.31D-09 BMatP= 1.01D-08
 IDIUse=1 WtCom= 1.00D+00 WtEn= 0.00D+00
 Coeff-Com:  0.125D-01 0.160D-01 0.414D+00 0.558D+00
 Coeff:      0.125D-01 0.160D-01 0.414D+00 0.558D+00
 Gap=     0.172 Goal=   None    Shift=    0.000
 RMSDP=3.53D-07 MaxDP=1.31D-05 DE=-4.47D-09 OVMax= 1.66D-05

 Cycle  11  Pass 1  IDiag  1:
 RMSU=  1.91D-07    CP:  1.00D+00  4.61D-01  9.72D-01  6.11D-01
 E= -911.282771825485     Delta-E=       -0.000000003362 Rises=F Damp=F
 DIIS: error= 5.75D-07 at cycle   5 NSaved=   5.
 NSaved= 5 IEnMin= 5 EnMin= -911.282771825485     IErMin= 5 ErrMin= 5.75D-07
 ErrMax= 5.75D-07  0.00D+00 EMaxC= 1.00D-01 BMatC= 1.88D-10 BMatP= 4.31D-09
 IDIUse=1 WtCom= 1.00D+00 WtEn= 0.00D+00
 Coeff-Com: -0.146D-02 0.476D-02 0.205D+00 0.314D+00 0.478D+00
 Coeff:     -0.146D-02 0.476D-02 0.205D+00 0.314D+00 0.478D+00
 Gap=     0.172 Goal=   None    Shift=    0.000
 RMSDP=1.01D-07 MaxDP=2.55D-06 DE=-3.36D-09 OVMax= 4.62D-06

 Cycle  12  Pass 1  IDiag  1:
 RMSU=  6.76D-08    CP:  1.00D+00  4.61D-01  9.73D-01  6.30D-01  6.16D-01
 E= -911.282771825658     Delta-E=       -0.000000000173 Rises=F Damp=F
 DIIS: error= 2.68D-07 at cycle   6 NSaved=   6.
 NSaved= 6 IEnMin= 6 EnMin= -911.282771825658     IErMin= 6 ErrMin= 2.68D-07
 ErrMax= 2.68D-07  0.00D+00 EMaxC= 1.00D-01 BMatC= 2.35D-11 BMatP= 1.88D-10
 IDIUse=1 WtCom= 1.00D+00 WtEn= 0.00D+00
 Coeff-Com: -0.303D-02 0.613D-03 0.707D-01 0.120D+00 0.287D+00 0.525D+00
 Coeff:     -0.303D-02 0.613D-03 0.707D-01 0.120D+00 0.287D+00 0.525D+00
 Gap=     0.172 Goal=   None    Shift=    0.000
 RMSDP=3.41D-08 MaxDP=9.14D-07 DE=-1.73D-10 OVMax= 1.27D-06

 Cycle  13  Pass 1  IDiag  1:
 RMSU=  2.35D-08    CP:  1.00D+00  4.62D-01  9.73D-01  6.32D-01  6.92D-01
                    CP:  7.12D-01
 E= -911.282771825677     Delta-E=       -0.000000000019 Rises=F Damp=F
 DIIS: error= 5.26D-08 at cycle   7 NSaved=   7.
 NSaved= 7 IEnMin= 7 EnMin= -911.282771825677     IErMin= 7 ErrMin= 5.26D-08
 ErrMax= 5.26D-08  0.00D+00 EMaxC= 1.00D-01 BMatC= 1.22D-12 BMatP= 2.35D-11
 IDIUse=1 WtCom= 1.00D+00 WtEn= 0.00D+00
 Coeff-Com: -0.126D-02-0.638D-04 0.183D-01 0.335D-01 0.936D-01 0.241D+00
 Coeff-Com:  0.614D+00
 Coeff:     -0.126D-02-0.638D-04 0.183D-01 0.335D-01 0.936D-01 0.241D+00
 Coeff:      0.614D+00
 Gap=     0.172 Goal=   None    Shift=    0.000
 RMSDP=1.14D-08 MaxDP=3.68D-07 DE=-1.93D-11 OVMax= 3.81D-07

 Cycle  14  Pass 1  IDiag  1:
 RMSU=  8.87D-09    CP:  1.00D+00  4.62D-01  9.73D-01  6.35D-01  7.01D-01
[...]
 .2405908,-0.234283,-0.2055013,0.1273402,0.1274472,-0.005403,-0.6144457
 ,-1.0051754,-0.1509832,0.0258091,-0.2968865,-0.6397426,0.0685416,0.034
 6357,0.0328216,-0.7469962,0.0678378,-0.0549829,-0.0012287,-0.0416032,0
 .0535119,-0.0070753,-0.0104274,-0.0050451,0.1137824,0.0577036,0.015115
 2,-0.0480717,0.0201754,-0.0382482,0.0833807,-0.0432208,0.0797196,0.050
 1205,-0.0331931,0.0044359,-0.0966383,0.0053575,0.0743914,0.0193427,-0.
 0944153,0.0196091,0.0396068,0.000369,-0.0811552,-0.0455483,-0.084093,-
 0.018104,0.0025379,-0.0366638,0.0045664,0.0878628,0.1073836,0.0196862,
 -0.0042297,0.0091016,0.0469767,0.0376539,-0.0064768,0.0401142,0.090427
 7,0.1004098,-0.0278832,0.0183965,0.0248812,0.2528764,0.0807704,-0.0333
 313,0.026739,0.0849077,0.2076811,0.0365875,-0.0596101,0.0497854,0.2035
 376,0.0733586,0.0007573,0.0371677,0.34018\Polar=100.3973897,7.8183937,
 88.2789508,26.3170149,-12.9095262,82.0563349\Quadrupole=-1.2574154,-1.
 952538,3.2099534,1.7356974,3.2387199,1.2878448\PG=C01 [X(C6H7N1O3S1)]\
 NImag=0\\0.08500699,-0.10958939,0.57508141,0.01500152,-0.06377899,0.05
 886605,-0.10696953,0.09499527,-0.01457820,0.64635418,0.09978289,-0.554
 02592,0.05901008,0.12598425,1.00159502,-0.01627329,0.05552868,-0.08585
 097,-0.04364582,-0.12926263,0.46245154,0.00448817,-0.00409674,-0.00439
 610,-0.11814556,-0.00078158,-0.03960956,0.42198119,0.02415707,-0.00862
 715,0.01597827,-0.00022184,-0.07533412,0.00933504,0.11348955,0.6305402
 2,-0.00453872,-0.00139595,0.00713964,-0.03935294,0.00895138,-0.0915982
 7,0.14680240,-0.14076912,0.29016660,-0.00548623,0.00455005,-0.00325416
 ,-0.00666399,0.02007599,-0.01189126,-0.10224512,-0.00919106,-0.0269900
 3,0.57120327,-0.00366985,0.00171748,-0.00204657,0.01685008,0.00555259,
 0.00649986,0.03192424,-0.27241109,0.11542901,0.14034424,0.64286174,-0.
 00139961,0.00185354,0.00100009,-0.00934873,0.01090120,-0.01242553,-0.0
 4436682,0.09046487,-0.12508020,0.22050808,-0.13680037,0.33585959,-0.00
 008179,-0.00037046,-0.00016029,0.00557759,0.00079555,-0.00018419,0.005
 24841,0.06710138,-0.03035018,-0.25631050,-0.02460721,-0.11551507,0.534
 68661,0.00177674,-0.00073742,0.00010924,-0.00103104,-0.00458522,0.0050
 0427,0.02564634,0.01972819,0.01227155,0.02940104,-0.12229859,0.0454696
 9,0.08227251,0.65944895,-0.00125044,0.00041619,-0.00157996,0.00053775,
 0.00548074,0.00432301,-0.01290842,0.03778755,-0.01736658,-0.13919117,0
 .01108148,-0.15567267,0.22366568,-0.18108663,0.35562511,-0.00006587,-0
 .00013158,-0.00005525,0.00025954,-0.00085023,0.00132213,-0.00814125,-0
 .01482203,0.00637582,-0.03685378,-0.01089575,-0.02296757,-0.19661191,-
 0.13968643,-0.02559271,0.58297890,0.00053413,0.00014973,0.00073802,-0.
 00109966,-0.00360935,0.00022953,-0.01452736,-0.05946480,0.01279466,-0.
 04937907,0.04058411,-0.04572790,-0.08709253,-0.24540234,0.02534041,0.0
 8802747,0.61035541,-0.00029499,-0.00029374,-0.00023007,0.00106526,0.00
 083594,0.00013819,0.00580645,0.01309815,-0.00924024,-0.00638484,-0.022
 11585,0.01187650,-0.04897971,-0.00922306,-0.08931010,0.24942714,-0.149
 85897,0.36279424,0.00073962,0.00075317,0.00065935,0.00257056,-0.006123
 27,-0.00033483,-0.03808665,-0.04979122,-0.00784068,-0.02483218,0.02373
 285,-0.02156026,0.04266505,-0.00126506,0.02368319,-0.11967045,-0.00695
 672,-0.03479343,0.56181431,0.00096950,0.00189895,-0.00009449,-0.004380
 83,-0.00385917,0.00134496,-0.00940426,0.03544570,-0.01889628,0.0213200
 4,-0.02138496,0.01988910,-0.03844243,-0.04797263,-0.00085882,0.0455884
 4,-0.27692097,0.12280508,0.13097893,0.65384608,-0.00013526,0.00039405,
 -0.00018451,-0.00038073,-0.00029587,0.00640463,-0.02568860,-0.04475731
 ,0.01029870,-0.02103649,0.02177629,-0.02902216,0.03973093,0.02317863,0
 .02305119,-0.05764411,0.08811024,-0.13698613,0.22140097,-0.13976301,0.
 33330547,-0.00108563,-0.00169835,-0.00127407,-0.02232454,-0.00996679,-
 0.00727156,-0.17563585,-0.09200010,-0.03784789,0.04060556,-0.03887267,
 0.03678639,-0.05019361,-0.02035845,-0.01929409,0.00913934,0.06820087,-
 0.02775862,-0.25402395,-0.02230673,-0.11456187,0.53091658,-0.00009885,
 -0.00336156,0.00097485,-0.00755202,0.01140697,-0.00988684,-0.13337446,
 -0.24783629,-0.00325722,-0.00112045,-0.04807360,0.02280115,-0.02231475
 ,-0.01153952,-0.01220144,0.03016520,0.02287495,0.01241829,0.03135961,-
 0.12298985,0.04716829,0.06916529,0.66593175,-0.00017543,0.00109297,-0.
 00047610,-0.01013023,-0.01272906,-0.00098151,-0.02155095,0.02169210,-0
 .07752150,0.02101504,-0.00058262,0.02027218,-0.01790391,-0.01066410,-0
 .01365986,-0.01125524,0.03673198,-0.01663462,-0.13702536,0.01214578,-0
 .15425169,0.22616213,-0.18027477,0.35170707,0.00687494,-0.00295611,0.0
 1262343,-0.06435678,0.00347112,-0.01874770,0.00663978,-0.00658723,-0.0
 2115834,-0.00161549,-0.00203052,-0.00105273,-0.00048335,0.00059230,0.0
 0125619,-0.00040087,-0.00069714,-0.00023005,-0.00190514,0.00119860,0.0
 0056046,0.00106894,0.00192407,-0.00039653,0.49483259,0.00801659,-0.013
 54069,-0.02520590,0.00286765,-0.07491861,-0.01021270,0.00370659,0.0047
 2422,-0.00178192,-0.00218193,-0.00074505,-0.00119998,0.00008480,0.0005
 5194,0.00001455,-0.00026900,-0.00016294,-0.00014640,-0.00040842,0.0005
 0747,0.00009257,-0.00023671,0.00017374,0.00010511,0.10231726,0.2087389
 5,0.00431129,0.00761908,0.00257774,0.01835891,-0.06559297,-0.11816021,
 0.00300204,-0.00516882,-0.00771722,-0.00106639,-0.00138062,-0.00158657
 ,-0.00009304,0.00029470,0.00050043,-0.00023616,-0.00034473,-0.00009901
 ,-0.00079201,0.00048066,0.00024046,0.00056153,0.00101958,-0.00202174,0
 .11505653,-0.00338893,0.39902665,0.00339781,0.00351237,-0.00211149,-0.
 02377832,-0.01612686,0.01706195,0.00025651,0.00199473,-0.00010447,0.00
 071623,-0.00032716,0.00015518,-0.00020517,-0.00011609,-0.00022772,0.00
 015457,0.00036745,0.00001944,0.00077162,0.00010449,0.00009417,0.000796
 26,-0.00085885,0.00013241,-0.13391885,-0.06720421,0.03620481,0.5503980
 2,0.00111662,0.00780572,0.00045407,0.00151863,-0.00179506,0.00042550,-
 0.00074188,0.00098537,0.00029520,0.00071372,-0.00028514,0.00030867,-0.
 00018699,-0.00008613,-0.00013020,0.00007785,0.00023532,0.00002069,0.00
 062426,0.00020394,0.00001999,0.00066724,-0.00099421,0.00011893,-0.0592
 2158,-0.12220674,0.05093960,-0.12240484,0.27108699,-0.00158132,0.00009
 665,0.00281146,0.01680210,0.03067585,-0.01293747,-0.00159050,-0.002632
 69,0.00096643,0.00046561,-0.00021736,0.00042005,-0.00014699,-0.0001545
 5,-0.00011906,-0.00003466,0.00015742,-0.00001427,0.00032037,-0.0002888
 9,-0.00006686,-0.00060585,0.00041580,-0.00112210,0.04560861,0.05515205
 ,-0.08842883,-0.05604201,-0.09776914,0.10956571,0.01589331,0.01218154,
 -0.00050252,-0.32206775,-0.22119872,0.10349972,-0.00774256,-0.02057218
 ,0.01135774,-0.00062372,-0.00147524,0.00007134,0.00030580,-0.00017946,
 -0.00046545,-0.00017194,-0.00024604,0.00010949,-0.00076094,-0.00220192
 ,-0.00047708,-0.00463521,0.00565285,-0.00380764,-0.00683442,-0.0142442
 4,0.00165132,-0.00183917,-0.00025580,0.00591390,0.33041809,-0.02721624
 ,-0.00706681,0.01146703,-0.21697222,-0.28667670,0.09806096,0.00024339,
 0.00231596,0.00497942,-0.00116321,-0.00318412,0.00034015,0.00041912,0.
 00160574,-0.00115675,0.00008159,0.00002338,0.00017706,0.00020508,0.000
 00763,-0.00037236,-0.00160547,0.00110682,-0.00076713,0.00489696,0.0062
 5213,-0.00375311,-0.00003556,0.00235958,-0.00310024,0.24200684,0.28151
 345,0.00616656,-0.00013072,0.01458842,0.09863593,0.09267536,-0.1274141
 3,-0.01045014,-0.00564047,0.00997696,-0.00075832,0.00114694,0.00003670
 ,0.00031221,-0.00114665,0.00041331,-0.00043395,-0.00053220,0.00000673,
 -0.00030495,-0.00062853,-0.00116264,-0.00046716,0.00266800,0.00000949,
 0.02224716,0.01880823,0.00329401,0.00816126,-0.00125233,-0.00642432,-0
 .12051938,-0.10726548,0.10516675,-0.00019902,-0.00025419,0.00009507,0.
 00081681,0.00224293,-0.00005864,0.00715637,0.00428274,0.00161238,-0.17
 567004,-0.14649388,-0.02300685,-0.01093579,-0.01954608,-0.00065602,-0.
 00100579,0.00057377,-0.00553039,-0.00031652,0.00071563,-0.00022561,0.0
 0152393,0.00096628,-0.00320206,0.00006132,0.00023633,0.00004817,-0.000
 26685,-0.00010376,0.00012812,-0.00145106,-0.00072299,-0.00006363,0.180
 69059,0.00051119,0.00066884,0.00014169,-0.00305696,-0.00363760,-0.0003
 4698,-0.01688449,-0.01655923,-0.00270808,-0.14466936,-0.22021215,-0.01
 010697,0.00371105,0.00745413,0.00082692,-0.00005207,0.00165666,0.00261
 238,0.00066056,0.00017130,0.00013811,0.00161991,-0.00217438,0.00472851
 ,0.00008355,-0.00004574,0.00000601,0.00022034,0.00019219,-0.00009674,0
 .00022414,0.00217150,-0.00141571,0.15762810,0.23070319,-0.00003693,-0.
 00070022,0.00045331,0.00212255,0.00189615,-0.00215179,0.01114902,0.011
 20080,0.00447154,-0.02349998,-0.01034831,-0.04804103,-0.01115662,-0.01
 446910,0.00299679,-0.00555214,0.00274008,0.00261300,-0.00021949,0.0002
 6738,-0.00081818,-0.00340651,0.00414006,0.00207937,-0.00066452,-0.0002
 2081,-0.00022057,-0.00000631,-0.00019273,0.00016668,0.00009051,-0.0008
 7900,-0.00012680,0.02839652,0.00812585,0.04103838,-0.00056142,0.000395
 25,-0.00022574,0.00113020,0.00107532,-0.00019420,-0.00197951,-0.001449
 38,-0.00530371,-0.00108482,0.02350631,-0.01307586,-0.06308857,0.038567
 01,-0.03420117,0.00775294,-0.01813053,0.01135800,-0.00082189,-0.004050
 58,-0.00324718,-0.00109542,-0.00045057,-0.00021715,-0.00023637,-0.0001
 8259,-0.00016649,0.00003757,0.00004961,0.00000508,-0.00025762,-0.00026
 416,0.00004658,-0.00017268,0.00068319,0.00224961,0.06050735,0.00006208
 ,0.00000697,-0.00002814,-0.00072393,0.00012099,-0.00026407,-0.00077299
 ,0.00218465,0.00173411,-0.00078181,0.00187123,-0.00020036,0.03860248,-
 0.26104768,0.12509878,0.00656424,-0.01604729,0.01258874,-0.00494350,-0
 .00105442,0.00037004,-0.00045207,0.00017939,-0.00059565,0.00011625,0.0
 0005219,0.00008210,-0.00001569,-0.00000413,0.00003416,0.00015901,0.000
 03565,0.00004455,0.00099312,0.00011646,-0.00120360,-0.04015656,0.27418
 929,-0.00040959,0.00027081,-0.00046305,0.00047966,0.00084624,0.0006830
 9,-0.00542319,0.00107605,0.00303409,-0.00213168,0.01570333,-0.00572504
 ,-0.03428211,0.12533486,-0.11429651,0.00033538,-0.00357892,0.00444494,
 -0.00288043,0.00092267,0.00467719,-0.00004961,-0.00061933,-0.00024195,
 -0.00012846,-0.00015430,-0.00003187,0.00006683,0.00005674,-0.00007617,
 -0.00019259,-0.00024679,-0.00003419,0.00197678,-0.00150621,-0.00211469
 ,0.04029036,-0.13666546,0.11268826,-0.00013104,0.00013001,-0.00014920,
 -0.00006129,0.00009289,0.00075869,0.00046227,-0.00043110,0.00054779,0.
 00061097,-0.00477978,-0.00210548,-0.01206752,0.00392103,-0.01179027,-0
 .24281578,0.01592352,-0.13909242,-0.00063589,-0.00112113,-0.00219931,0
 .00299494,-0.00014756,-0.00269649,0.00007837,0.00001083,0.00003210,0.0
 0000157,0.00000409,-0.00007895,-0.00018738,-0.00000166,-0.00014678,-0.
 00060881,0.00031353,-0.00053934,-0.00029349,0.00071978,0.00197193,0.25
 322344,0.00011754,0.00018108,0.00006009,0.00004751,-0.00048822,-0.0002
 9140,-0.00036796,-0.00124351,0.00026081,-0.00422051,-0.00286430,0.0016
 6849,-0.02071881,0.00677428,-0.01485296,0.01589106,-0.06037520,0.01987
 785,0.02356927,0.00246666,0.01574500,-0.00072510,-0.00383201,0.0042807
 3,-0.00010771,-0.00002309,-0.00004639,0.00004221,0.00005123,0.00003666
 ,0.00009488,0.00022809,-0.00006510,-0.00095585,0.00025572,-0.00075466,
 0.00121098,0.00039054,-0.00108882,-0.01554237,0.05794282,-0.00006997,-
 0.00010951,0.00003794,0.00052707,-0.00018097,-0.00064634,0.00060918,0.
 00027307,0.00012893,-0.00239647,0.00137490,0.00497473,-0.00083121,0.00
 118358,0.00237177,-0.13921601,0.01990849,-0.13719162,-0.01289673,-0.00
 039200,-0.00472620,-0.00244694,0.00463235,0.00367319,-0.00021973,-0.00
 010629,-0.00014911,0.00004322,0.00001927,-0.00003632,0.00000379,0.0000
 3379,0.00003813,0.00004759,0.00008236,-0.00002013,0.00175353,-0.001419
 08,-0.00207668,0.15363341,-0.02394463,0.13603619,-0.00015039,0.0003591
 7,-0.00015013,0.00073570,-0.00126617,0.00068748,-0.00138717,0.00041388
 ,-0.00565909,-0.00034514,0.00083759,-0.00020809,0.00232640,0.00039162,
 -0.00326112,0.00754031,0.00619659,0.00049366,-0.16751156,-0.14140568,-
 0.02433021,-0.01269538,-0.02082145,-0.00102319,-0.00028941,-0.00006411
 ,-0.00018349,0.00014109,0.00011668,-0.00015947,-0.00063334,-0.00012340
 ,-0.00014608,-0.00027176,0.00013780,0.00051167,0.00034748,0.00035581,-
 0.00011187,-0.00043134,0.00052459,0.00202791,0.17283496,-0.00008445,0.
 00000498,-0.00008112,0.00038959,0.00033719,0.00042309,-0.00014707,0.00
 195415,0.00207427,0.00089301,-0.00012067,0.00035978,0.00125879,-0.0022
 5807,0.00483006,-0.01857628,-0.01605243,-0.00403945,-0.14149071,-0.223
 74713,-0.01144471,0.00362924,0.00622138,0.00082176,-0.00003008,-0.0000
 4194,0.00002647,0.00001861,0.00000974,-0.00001645,0.00004837,0.0000023
 1,-0.00007267,0.00011400,-0.00011165,-0.00037164,-0.00102588,-0.000842
 55,-0.00016116,0.00101155,0.00045919,-0.00121090,0.15345706,0.23398840
 ,0.00000704,0.00022259,-0.00011428,-0.00020146,-0.00057090,0.00086094,
 -0.00508930,0.00260650,0.00256797,-0.00015364,0.00033280,-0.00074655,-
 0.00365732,0.00423723,0.00284863,0.01115257,0.01225254,0.00463296,-0.0
 2437886,-0.01172202,-0.04697626,-0.01161145,-0.01508215,0.00146808,-0.
 00007728,-0.00004805,-0.00001057,0.00011258,0.00007068,-0.00005032,-0.
 00057042,-0.00020729,-0.00031381,0.00051356,-0.00039705,-0.00066367,0.
 00048291,0.00069545,0.00025414,0.00180589,-0.00153852,-0.00206195,0.02
 953348,0.01027617,0.04046374,-0.00040893,0.00241563,-0.00052880,0.0001
 6381,-0.00442952,0.00196679,0.00777989,-0.01634582,0.01047712,-0.00173
 334,-0.00400926,-0.00309693,-0.00090420,-0.00031612,-0.00015319,-0.002
 07352,-0.00170858,-0.00523916,0.00002033,0.02255652,-0.01173191,-0.065
 34115,0.04748408,-0.03793415,0.00014749,0.00059157,0.00012471,-0.00040
 889,-0.00030575,0.00000209,-0.00011646,0.00078595,-0.00026778,0.000641
 07,-0.00109675,0.00039409,-0.00019022,0.00027627,0.00049556,-0.0001160
 3,0.00113396,-0.00056804,-0.00018411,0.00055284,0.00217016,0.06265166,
 0.00158569,0.00149507,0.00034205,0.00126806,-0.00351984,0.00066892,0.0
 0506131,-0.01692326,0.01100486,-0.00458540,-0.00100611,-0.00001690,-0.
 00024016,0.00032097,-0.00054746,-0.00129534,0.00197580,0.00126752,-0.0
 0071821,0.00359623,-0.00056841,0.04542224,-0.26715641,0.12380111,-0.00
 075766,-0.00023156,-0.00006765,0.00045026,0.00059130,0.00051495,0.0001
 3145,0.00066177,-0.00027857,0.00031420,-0.00064793,0.00077321,0.000257
 57,-0.00012553,-0.00023829,-0.00013555,0.00010261,-0.00014579,0.000911
 26,0.00020518,-0.00107731,-0.04772930,0.28099629,-0.00032672,-0.000382
 94,-0.00072791,0.00046228,-0.00166617,-0.00178390,0.00148002,-0.002490
 17,0.00410612,-0.00281221,0.00050350,0.00413795,-0.00019311,-0.0006077
 2,-0.00043735,-0.00552874,0.00125361,0.00332650,-0.00211087,0.01461545
 ,-0.00391076,-0.03682483,0.12457930,-0.11190597,-0.00105645,-0.0004328
 5,-0.00014216,0.00042939,0.00048009,0.00013899,0.00041738,0.00042154,0
 .00032128,-0.00019490,-0.00010148,0.00060801,0.00050583,-0.00026924,-0
 .00071158,-0.00002273,0.00070076,-0.00031401,0.00205167,-0.00143710,-0
 .00213731,0.04365811,-0.13492584,0.10984742,-0.00161273,0.00111867,0.0
 0009938,0.00892016,0.00652601,0.00926371,-0.00090252,-0.00013994,0.002
 13722,0.00037309,0.00012513,0.00018941,0.00016717,-0.00008992,-0.00012
 739,0.00005594,-0.00003893,0.00008434,0.00009412,-0.00010442,-0.000145
 58,0.00012190,-0.00017688,-0.00000998,-0.27495520,-0.03797175,-0.17516
 804,-0.02335201,-0.00052022,-0.00265112,-0.00013159,-0.00056329,-0.001
 34749,-0.00003464,0.00002512,0.00011283,0.00003646,-0.00001505,0.00001
 908,-0.00001085,0.00001139,0.00003261,0.00001990,0.00001668,0.00001990
 ,-0.00006485,0.00006055,0.00010813,0.29368801,0.00183632,-0.00190891,0
 .00286089,-0.00827204,-0.00363794,-0.02708328,0.00088011,0.00016769,-0
 .00104876,0.00003403,0.00002368,0.00006499,-0.00037584,0.00014472,-0.0
 0004180,0.00019519,0.00018423,-0.00000652,-0.00001521,-0.00019928,0.00
 020006,-0.00037049,-0.00007538,-0.00000539,0.00080167,-0.01593456,0.01
 482734,-0.03086450,-0.00888640,-0.00772395,0.00010966,-0.00148765,0.00
 192215,0.00008286,0.00002290,-0.00008586,-0.00002860,-0.00000992,0.000
 01293,0.00002109,-0.00001083,-0.00001432,-0.00000933,0.00000922,-0.000
 01116,-0.00003416,-0.00006767,-0.00009113,0.03735160,0.03418186,0.0019
 2171,0.00031449,0.00288888,-0.02996793,-0.00141443,-0.02111577,0.00220
 770,-0.00230710,-0.00487406,-0.00015512,-0.00078239,-0.00002361,-0.000
 33331,0.00015867,0.00031766,-0.00005126,-0.00011265,-0.00007116,-0.000
 50829,0.00026297,0.00019566,0.00038737,0.00071365,-0.00040136,-0.17777
 727,-0.02614827,-0.18219708,0.03001722,0.00908806,0.00978236,0.0031310
 1,0.00155918,0.00419439,0.00003743,0.00006756,-0.00025859,-0.00005717,
 0.00002425,-0.00002904,0.00003559,-0.00002699,-0.00006700,-0.00009121,
 0.00000846,-0.00000524,0.00006388,-0.00021147,-0.00026199,0.16768177,0
 .01542423,0.19222553,0.00035176,-0.00131432,-0.00109285,-0.00216079,0.
 00069622,0.00365059,0.00025360,0.00011257,-0.00016441,-0.00004479,-0.0
 0015911,-0.00000642,-0.00009462,0.00002007,-0.00002363,-0.00007040,0.0
 0005277,-0.00006015,-0.00011044,-0.00001417,0.00001741,-0.00013671,0.0
 0019846,0.00001872,-0.02470756,0.00493134,-0.00164576,-0.37290198,0.17
 885212,-0.00635503,0.00083595,0.00002928,-0.00066404,0.00004285,-0.000
 05885,0.00005502,-0.00002998,0.00001257,-0.00002605,-0.00001213,-0.000
 00507,-0.00003322,-0.00004623,-0.00003525,-0.00005838,0.00013745,-0.00
 000097,-0.00004224,-0.00241234,-0.00134235,0.00345786,0.40110636,0.000
 19244,0.00025825,-0.00090107,-0.00061048,-0.00292501,-0.00017294,0.000
 14727,0.00035332,0.00006205,-0.00003931,-0.00002503,-0.00006915,0.0001
 0350,-0.00010133,-0.00000061,-0.00001233,-0.00000425,-0.00001770,-0.00
 017139,-0.00001555,0.00000841,-0.00011187,0.00013820,0.00009977,-0.043
 01376,0.00685028,0.00444771,0.23124332,-0.14926360,0.02491647,-0.00023
 512,0.00013127,0.00116320,-0.00007321,-0.00002419,0.00008240,-0.000006
 38,-0.00001583,0.00003566,0.00001081,-0.00001505,0.00001567,-0.0000119
 3,-0.00001730,-0.00003950,0.00017844,-0.00026690,-0.00014959,-0.005614
 71,-0.00251575,0.00338180,-0.18197529,0.14745847,-0.00091586,-0.001016
 97,-0.00073667,0.00861453,0.00044006,0.00020450,0.00001675,0.00025331,
 0.00054110,-0.00026695,0.00042599,-0.00025443,0.00007824,0.00010940,-0
 .00000580,-0.00004526,-0.00010161,-0.00005585,-0.00041769,-0.00009000,
 -0.00006790,-0.00047697,-0.00020958,0.00000902,0.02415668,-0.00512612,
 -0.00487433,-0.03400644,0.03704693,-0.01457597,0.00028888,0.00070903,-
 0.00257028,0.00008248,-0.00005017,-0.00001163,-0.00000324,-0.00002656,
 0.00001907,0.00003556,-0.00002091,0.00002849,0.00001809,0.00001514,-0.
 00001649,0.00016744,-0.00029495,-0.00015331,-0.00029879,0.00079959,-0.
 00029959,0.00297258,-0.03286258,0.02282009\\-0.00000785,0.00001829,-0.
 00000177,0.00003096,-0.00001022,0.00000270,0.00001413,0.00000734,0.000
 00515,0.00000103,-0.00000146,-0.00000300,-0.00000327,0.00000188,-0.000
 00095,-0.00000118,0.00000211,-0.00000197,0.00000226,-0.00000129,0.0000
 0122,-0.00000550,-0.00000357,-0.00000231,-0.00001684,-0.00000482,0.000
 01999,0.00000593,0.00000517,-0.00000833,-0.00001900,-0.00000488,-0.000
 00815,-0.00000026,0.00000132,0.00000235,-0.00000184,0.00000123,0.00000
 182,-0.00000067,0.00000067,0.00000040,0.00000089,-0.00000090,-0.000001
 33,0.00000048,-0.00000032,-0.00000133,0.00000427,-0.00000553,-0.000007
 51,-0.00000353,-0.00000503,0.00000302\\\@



 IN THIS SHORT LIFE

 THAT ONLY LASTS AN HOUR

 HOW MUCH, HOW LITTLE, IS WITHIN OUR POWER....


 EMILY DICKINSON BOLTS OF MELODY NO. 521
 Job cpu time:       0 days  0 hours 11 minutes 21.3 seconds.
 Elapsed time:       0 days  0 hours  0 minutes 28.9 seconds.
 File lengths (MBytes):  RWF=     84 Int=      0 D2E=      0 Chk=      4 Scr=      1
 Normal termination of Gaussian 16 at Mon Oct 14 01:40:26 2019.
real 106.38
user 2376.42
sys 20.51
Machine:
brown-a483
brown-a483
brown-a483
brown-a483
brown-a483
brown-a483
brown-a483
brown-a483
brown-a483
brown-a483
brown-a483
brown-a483
brown-a483
brown-a483
brown-a483
brown-a483
brown-a483
brown-a483
brown-a483
brown-a483
brown-a483
brown-a483
brown-a483
brown-a483
