Title Card Required                                                     
Freq      RB3LYP                                                      6-31G(d)            
Number of atoms                            I               19
Info1-9                                    I   N=           9
          48          48        1002           0           0         100
           6          18        -502
Full Title                                 C   N=           2
Title Card Required     
Route                                      C   N=           6
#P opt freq b3lyp/6-31g(d) geom=connectivity temperature=0.0
01          
Charge                                     I                1
Multiplicity                               I                1
Number of electrons                        I               90
Number of alpha electrons                  I               45
Number of beta electrons                   I               45
Number of basis functions                  I              185
Number of independent functions            I              185
Number of point charges in /Mol/           I                0
Number of translation vectors              I                0
Atomic numbers                             I   N=          19
           8          16           6           6           6           6
           6           6           7           8           8           1
           1           1           1           1           1           1
           1
Nuclear charges                            R   N=          19
  8.00000000E+00  1.60000000E+01  6.00000000E+00  6.00000000E+00  6.00000000E+00
  6.00000000E+00  6.00000000E+00  6.00000000E+00  7.00000000E+00  8.00000000E+00
  8.00000000E+00  1.00000000E+00  1.00000000E+00  1.00000000E+00  1.00000000E+00
  1.00000000E+00  1.00000000E+00  1.00000000E+00  1.00000000E+00
Current cartesian coordinates              R   N=          57
 -2.84504093E+00 -3.71200331E-01 -2.83005119E+00 -1.95872619E+00  8.36690794E-01
 -2.16445752E-01  1.26776358E+00  1.66148332E-01 -4.73473222E-02  2.88677378E+00
  2.23724477E+00  3.00157229E-01  5.47145311E+00  1.75934036E+00  4.19275297E-01
  6.37519506E+00 -7.12728976E-01  1.94696085E-01  4.71691468E+00 -2.74731464E+00
 -1.51389470E-01  2.12620314E+00 -2.33489739E+00 -2.76045104E-01 -3.42758492E+00
 -1.26333444E+00  1.82601859E+00 -5.93704699E+00 -1.63708621E+00  9.32329118E-01
 -2.58778523E+00  3.48053710E+00  1.41936653E-01  2.14556513E+00  4.14122287E+00
  4.62921131E-01  6.77471508E+00  3.31958852E+00  6.84491122E-01  8.39435735E+00
 -1.06352822E+00  2.90886437E-01  5.44592134E+00 -4.65587880E+00 -3.23981934E-01
  8.21387728E-01 -3.89179122E+00 -5.40536802E-01 -3.59153208E+00 -3.65134350E-01
  3.54066096E+00 -6.05957176E+00 -3.47373917E+00  7.93394843E-01 -4.70496418E+00
 -5.39210504E-01 -2.81663077E+00
Number of symbols in /Mol/                 I                0
Force Field                                I                0
Atom Types                                 C   N=          19
                                                            
                                                            
                                                            
                                                
Int Atom Types                             I   N=          19
           0           0           0           0           0           0
           0           0           0           0           0           0
           0           0           0           0           0           0
           0
MM charges                                 R   N=          19
  0.00000000E+00  0.00000000E+00  0.00000000E+00  0.00000000E+00  0.00000000E+00
  0.00000000E+00  0.00000000E+00  0.00000000E+00  0.00000000E+00  0.00000000E+00
  0.00000000E+00  0.00000000E+00  0.00000000E+00  0.00000000E+00  0.00000000E+00
  0.00000000E+00  0.00000000E+00  0.00000000E+00  0.00000000E+00
Integer atomic weights                     I   N=          19
          16          32          12          12          12          12
          12          12          14          16          16           1
           1           1           1           1           1           1
           1
Real atomic weights                        R   N=          19
  1.59949146E+01  3.19720718E+01  1.20000000E+01  1.20000000E+01  1.20000000E+01
  1.20000000E+01  1.20000000E+01  1.20000000E+01  1.40030740E+01  1.59949146E+01
  1.59949146E+01  1.00782504E+00  1.00782504E+00  1.00782504E+00  1.00782504E+00
  1.00782504E+00  1.00782504E+00  1.00782504E+00  1.00782504E+00
Atom fragment info                         I   N=          19
           0           0           0           0           0           0
           0           0           0           0           0           0
           0           0           0           0           0           0
           0
Atom residue num                           I   N=          19
           0           0           0           0           0           0
           0           0           0           0           0           0
           0           0           0           0           0           0
           0
Nuclear spins                              I   N=          19
           0           0           0           0           0           0
           0           0           2           0           0           1
           1           1           1           1           1           1
           1
Nuclear ZEff                               R   N=          19
 -5.60000000E+00 -1.36000000E+01 -3.60000000E+00 -3.60000000E+00 -3.60000000E+00
 -3.60000000E+00 -3.60000000E+00 -3.60000000E+00 -4.55000000E+00 -5.60000000E+00
 -5.60000000E+00 -1.00000000E+00 -1.00000000E+00 -1.00000000E+00 -1.00000000E+00
 -1.00000000E+00 -1.00000000E+00 -1.00000000E+00 -1.00000000E+00
Nuclear ZNuc                               R   N=          19
  8.00000000E+00  1.60000000E+01  6.00000000E+00  6.00000000E+00  6.00000000E+00
  6.00000000E+00  6.00000000E+00  6.00000000E+00  7.00000000E+00  8.00000000E+00
  8.00000000E+00  1.00000000E+00  1.00000000E+00  1.00000000E+00  1.00000000E+00
  1.00000000E+00  1.00000000E+00  1.00000000E+00  1.00000000E+00
Nuclear QMom                               R   N=          19
  0.00000000E+00  0.00000000E+00  0.00000000E+00  0.00000000E+00  0.00000000E+00
  0.00000000E+00  0.00000000E+00  0.00000000E+00  2.04400000E+00  0.00000000E+00
  0.00000000E+00  0.00000000E+00  0.00000000E+00  0.00000000E+00  0.00000000E+00
  0.00000000E+00  0.00000000E+00  0.00000000E+00  0.00000000E+00
Nuclear GFac                               R   N=          19
  0.00000000E+00  0.00000000E+00  0.00000000E+00  0.00000000E+00  0.00000000E+00
  0.00000000E+00  0.00000000E+00  0.00000000E+00  4.03761000E-01  0.00000000E+00
  0.00000000E+00  2.79284600E+00  2.79284600E+00  2.79284600E+00  2.79284600E+00
  2.79284600E+00  2.79284600E+00  2.79284600E+00  2.79284600E+00
MicOpt                                     I   N=          19
          -1          -1          -1          -1          -1          -1
          -1          -1          -1          -1          -1          -1
          -1          -1          -1          -1          -1          -1
          -1
Number of residues                         I                0
Number of secondary structures             I                0
Redundant internal dimensions              I   N=           4
          89          19          29          41
Redundant internal coordinate indices      I   N=         356
           1           2           0           0           1          19
           0           0           2           3           0           0
           2           9           0           0           2          11
           0           0           3           4           0           0
           3           8           0           0           4           5
           0           0           4          12           0           0
           5           6           0           0           5          13
           0           0           6           7           0           0
           6          14           0           0           7           8
           0           0           7          15           0           0
           8          16           0           0           9          10
           0           0           9          17           0           0
          10          18           0           0           2           1
          19           0           1           2           3           0
           1           2           9           0           1           2
          11           0           3           2           9           0
           3           2          11           0           9           2
          11           0           2           3           4           0
           2           3           8           0           4           3
           8           0           3           4           5           0
           3           4          12           0           5           4
          12           0           4           5           6           0
           4           5          13           0           6           5
          13           0           5           6           7           0
           5           6          14           0           7           6
          14           0           6           7           8           0
           6           7          15           0           8           7
          15           0           3           8           7           0
           3           8          16           0           7           8
          16           0           2           9          10           0
           2           9          17           0          10           9
          17           0           9          10          18           0
          19           1           2           3          19           1
           2           9          19           1           2          11
           1           2           3           4           1           2
           3           8           9           2           3           4
           9           2           3           8          11           2
           3           4          11           2           3           8
           1           2           9          10           1           2
           9          17           3           2           9          10
           3           2           9          17          11           2
           9          10          11           2           9          17
           2           3           4           5           2           3
           4          12           8           3           4           5
           8           3           4          12           2           3
           8           7           2           3           8          16
           4           3           8           7           4           3
           8          16           3           4           5           6
           3           4           5          13          12           4
           5           6          12           4           5          13
           4           5           6           7           4           5
           6          14          13           5           6           7
          13           5           6          14           5           6
           7           8           5           6           7          15
          14           6           7           8          14           6
           7          15           6           7           8           3
           6           7           8          16          15           7
           8           3          15           7           8          16
           2           9          10          18          17           9
          10          18
Redundant internal coordinates             R   N=          89
  3.01255509E+00  1.86754439E+00  3.29976632E+00  3.27708904E+00  2.74118159E+00
  2.65167756E+00  2.65413843E+00  2.63118775E+00  2.04963776E+00  2.64164951E+00
  2.05017207E+00  2.64749086E+00  2.05166494E+00  2.62629269E+00  2.05033071E+00
  2.04851593E+00  2.68993887E+00  1.94258605E+00  1.84597106E+00  1.89952795E+00
  1.82415381E+00  1.72329725E+00  2.01819922E+00  1.85053816E+00  1.99729111E+00
  2.01941520E+00  2.03197205E+00  2.09823778E+00  2.15293982E+00  2.05311948E+00
  2.11198541E+00  2.11807446E+00  2.09692319E+00  2.08527090E+00  2.10099009E+00
  2.11295956E+00  2.08600178E+00  2.08422380E+00  2.09832322E+00  2.09862401E+00
  2.08623808E+00  2.05210409E+00  2.11915155E+00  2.11192966E+00  1.87561430E+00
  1.86675039E+00  1.85329891E+00  1.79791279E+00  2.83761232E+00  9.32253175E-01
 -1.23349807E+00  2.17841575E+00 -9.54402166E-01 -2.29402920E+00  8.56338199E-01
 -4.65657495E-02  3.10380165E+00 -7.89404603E-01 -2.77329500E+00 -2.67329976E+00
  1.62599515E+00  1.37548230E+00 -6.08408098E-01 -3.13189273E+00  6.03870609E-03
  6.22508477E-04  3.13855394E+00  3.13054594E+00 -1.09342334E-02 -1.63908387E-03
  3.14006605E+00  3.80566433E-04  3.14036732E+00 -3.13753735E+00  2.44940866E-03
 -3.28831250E-04 -3.14129774E+00 -3.14030099E+00  1.91540435E-03 -7.28994339E-04
  3.14086235E+00  3.14024054E+00 -1.35341443E-03  1.65069935E-03 -3.14005394E+00
 -3.13994066E+00  1.54000880E-03  2.20786622E+00 -2.08240728E+00
ZRed-IntVec                                I   N=          89
           0           0           0           0           0           0
           0           0           0           0           0           0
           0           0           0           0           0           0
           0           0           0           0           0           0
           0           0           0           0           0           0
           0           0           0           0           0           0
           0           0           0           0           0           0
           0           0           0           0           0           0
           0           0           0           0           0           0
           0           0           0           0           0           0
           0           0           0           0           0           0
           0           0           0           0           0           0
           0           0           0           0           0           0
           0           0           0           0           0           0
           0           0           0           0           0
ZRed-FPVec                                 R   N=          89
  0.00000000E+00  0.00000000E+00  0.00000000E+00  0.00000000E+00  0.00000000E+00
  0.00000000E+00  0.00000000E+00  0.00000000E+00  0.00000000E+00  0.00000000E+00
  0.00000000E+00  0.00000000E+00  0.00000000E+00  0.00000000E+00  0.00000000E+00
  0.00000000E+00  0.00000000E+00  0.00000000E+00  0.00000000E+00  0.00000000E+00
  0.00000000E+00  0.00000000E+00  0.00000000E+00  0.00000000E+00  0.00000000E+00
  0.00000000E+00  0.00000000E+00  0.00000000E+00  0.00000000E+00  0.00000000E+00
  0.00000000E+00  0.00000000E+00  0.00000000E+00  0.00000000E+00  0.00000000E+00
  0.00000000E+00  0.00000000E+00  0.00000000E+00  0.00000000E+00  0.00000000E+00
  0.00000000E+00  0.00000000E+00  0.00000000E+00  0.00000000E+00  0.00000000E+00
  0.00000000E+00  0.00000000E+00  0.00000000E+00  0.00000000E+00  0.00000000E+00
  0.00000000E+00  0.00000000E+00  0.00000000E+00  0.00000000E+00  0.00000000E+00
  0.00000000E+00  0.00000000E+00  0.00000000E+00  0.00000000E+00  0.00000000E+00
  0.00000000E+00  0.00000000E+00  0.00000000E+00  0.00000000E+00  0.00000000E+00
  0.00000000E+00  0.00000000E+00  0.00000000E+00  0.00000000E+00  0.00000000E+00
  0.00000000E+00  0.00000000E+00  0.00000000E+00  0.00000000E+00  0.00000000E+00
  0.00000000E+00  0.00000000E+00  0.00000000E+00  0.00000000E+00  0.00000000E+00
  0.00000000E+00  0.00000000E+00  0.00000000E+00  0.00000000E+00  0.00000000E+00
  0.00000000E+00  0.00000000E+00  0.00000000E+00  0.00000000E+00
ZRed-Constraint1                           R   N=          89
  3.01255509E+00  1.86754439E+00  3.29976632E+00  3.27708904E+00  2.74118159E+00
  2.65167756E+00  2.65413843E+00  2.63118775E+00  2.04963776E+00  2.64164951E+00
  2.05017207E+00  2.64749086E+00  2.05166494E+00  2.62629269E+00  2.05033071E+00
  2.04851593E+00  2.68993887E+00  1.94258605E+00  1.84597106E+00  1.89952795E+00
  1.82415381E+00  1.72329725E+00  2.01819922E+00  1.85053816E+00  1.99729111E+00
  2.01941520E+00  2.03197205E+00  2.09823778E+00  2.15293982E+00  2.05311948E+00
  2.11198541E+00  2.11807446E+00  2.09692319E+00  2.08527090E+00  2.10099009E+00
  2.11295956E+00  2.08600178E+00  2.08422380E+00  2.09832322E+00  2.09862401E+00
  2.08623808E+00  2.05210409E+00  2.11915155E+00  2.11192966E+00  1.87561430E+00
  1.86675039E+00  1.85329891E+00  1.79791279E+00  2.83761232E+00  9.32253175E-01
 -1.23349807E+00  2.17841575E+00 -9.54402166E-01 -2.29402920E+00  8.56338199E-01
 -4.65657495E-02  3.10380165E+00 -7.89404603E-01 -2.77329500E+00 -2.67329976E+00
  1.62599515E+00  1.37548230E+00 -6.08408098E-01 -3.13189273E+00  6.03870609E-03
  6.22508477E-04  3.13855394E+00  3.13054594E+00 -1.09342334E-02 -1.63908387E-03
  3.14006605E+00  3.80566434E-04  3.14036732E+00 -3.13753735E+00  2.44940866E-03
 -3.28831250E-04 -3.14129774E+00 -3.14030099E+00  1.91540435E-03 -7.28994339E-04
  3.14086235E+00  3.14024054E+00 -1.35341443E-03  1.65069935E-03 -3.14005394E+00
 -3.13994066E+00  1.54000880E-03  2.20786622E+00 -2.08240728E+00
ZRed-Constraint2                           R   N=          89
  3.03167909E+00  1.81413708E+00  3.34577355E+00  3.32332358E+00  3.03132330E+00
  2.66639778E+00  2.66636727E+00  2.65866216E+00  2.05979635E+00  2.65813915E+00
  2.05983063E+00  2.65789756E+00  2.05987264E+00  2.65824062E+00  2.05984737E+00
  2.05988509E+00  2.55641975E+00  1.90858538E+00  1.81425732E+00  2.09439511E+00
  1.93690508E+00  1.89436600E+00  1.89400257E+00  1.90977235E+00  1.93437002E+00
  1.89345111E+00  2.10063850E+00  2.09681124E+00  2.08571746E+00  2.09798201E+00
  2.09498885E+00  2.09021444E+00  2.09474595E+00  2.09438996E+00  2.09404939E+00
  2.09490884E+00  2.09421284E+00  2.09406363E+00  2.09435449E+00  2.09441159E+00
  2.09441922E+00  2.09861747E+00  2.09498644E+00  2.08958139E+00  1.87697036E+00
  2.37915327E+00  2.02706168E+00  1.91058792E+00  6.54357641E-01 -1.44487996E+00
  2.78383940E+00  2.62214119E+00 -5.25949836E-01 -1.57097930E+00  1.56411498E+00
  5.16371739E-01 -2.63171928E+00  1.11166981E+00 -2.02980876E+00 -1.00434211E+00
  2.13736462E+00 -3.11669838E+00  2.50083492E-02 -3.13776395E+00  3.87919427E-03
  1.02858819E-02 -3.13125628E+00  3.13828182E+00 -3.18582526E-03 -9.75361532E-03
  3.13196405E+00 -5.04626356E-03  3.13645686E+00  3.13649604E+00 -5.18614303E-03
 -8.05483594E-04  3.14083485E+00  3.14087668E+00 -6.68290638E-04  1.34030318E-03
 -3.14029883E+00 -3.14030003E+00  1.24614361E-03  3.97609264E-03 -3.13774118E+00
 -3.13757008E+00  3.89795360E-03  4.33780087E-01 -2.70790034E+00
SymInf integers                            I   N=          26
           1           1           1           1           1           0
           0           0           0           0           0           0
           0           0           0           0           0           0
           0           0           0           0           0           0
           0           0
RotTr to input orientation                 R   N=          12
  6.15638777E-01 -1.59101751E-01  7.71800188E-01 -6.55610357E-01 -6.46815611E-01
  3.89621130E-01  4.37223006E-01 -7.45866072E-01 -5.02513527E-01 -1.16211508E+00
  1.65651831E+00 -2.95248471E-01
Number of contracted shells                I               61
Number of primitive shells                 I              159
Pure/Cartesian d shells                    I                1
Pure/Cartesian f shells                    I                0
Highest angular momentum                   I                2
Largest degree of contraction              I                6
Shell types                                I   N=          61
           0          -1          -1           2           0          -1
          -1          -1           2           0          -1          -1
           2           0          -1          -1           2           0
          -1          -1           2           0          -1          -1
           2           0          -1          -1           2           0
          -1          -1           2           0          -1          -1
           2           0          -1          -1           2           0
          -1          -1           2           0           0           0
           0           0           0           0           0           0
           0           0           0           0           0           0
           0
Number of primitives per shell             I   N=          61
           6           3           1           1           6           6
           3           1           1           6           3           1
           1           6           3           1           1           6
           3           1           1           6           3           1
           1           6           3           1           1           6
           3           1           1           6           3           1
           1           6           3           1           1           6
           3           1           1           3           1           3
           1           3           1           3           1           3
           1           3           1           3           1           3
           1
Shell to atom map                          I   N=          61
           1           1           1           1           2           2
           2           2           2           3           3           3
           3           4           4           4           4           5
           5           5           5           6           6           6
           6           7           7           7           7           8
           8           8           8           9           9           9
           9          10          10          10          10          11
          11          11          11          12          12          13
          13          14          14          15          15          16
          16          17          17          18          18          19
          19
Primitive exponents                        R   N=         159
  5.48467166E+03  8.25234946E+02  1.88046958E+02  5.29645000E+01  1.68975704E+01
  5.79963534E+00  1.55396162E+01  3.59993359E+00  1.01376175E+00  2.70005823E-01
  8.00000000E-01  2.19171000E+04  3.30149000E+03  7.54146000E+02  2.12711000E+02
  6.79896000E+01  2.30515000E+01  4.23735000E+02  1.00710000E+02  3.21599000E+01
  1.18079000E+01  4.63110000E+00  1.87025000E+00  2.61584000E+00  9.22167000E-01
  3.41287000E-01  1.17167000E-01  6.50000000E-01  3.04752488E+03  4.57369518E+02
  1.03948685E+02  2.92101553E+01  9.28666296E+00  3.16392696E+00  7.86827235E+00
  1.88128854E+00  5.44249258E-01  1.68714478E-01  8.00000000E-01  3.04752488E+03
  4.57369518E+02  1.03948685E+02  2.92101553E+01  9.28666296E+00  3.16392696E+00
  7.86827235E+00  1.88128854E+00  5.44249258E-01  1.68714478E-01  8.00000000E-01
  3.04752488E+03  4.57369518E+02  1.03948685E+02  2.92101553E+01  9.28666296E+00
  3.16392696E+00  7.86827235E+00  1.88128854E+00  5.44249258E-01  1.68714478E-01
  8.00000000E-01  3.04752488E+03  4.57369518E+02  1.03948685E+02  2.92101553E+01
  9.28666296E+00  3.16392696E+00  7.86827235E+00  1.88128854E+00  5.44249258E-01
  1.68714478E-01  8.00000000E-01  3.04752488E+03  4.57369518E+02  1.03948685E+02
  2.92101553E+01  9.28666296E+00  3.16392696E+00  7.86827235E+00  1.88128854E+00
  5.44249258E-01  1.68714478E-01  8.00000000E-01  3.04752488E+03  4.57369518E+02
  1.03948685E+02  2.92101553E+01  9.28666296E+00  3.16392696E+00  7.86827235E+00
  1.88128854E+00  5.44249258E-01  1.68714478E-01  8.00000000E-01  4.17351146E+03
  6.27457911E+02  1.42902093E+02  4.02343293E+01  1.28202129E+01  4.39043701E+00
  1.16263619E+01  2.71627981E+00  7.72218397E-01  2.12031498E-01  8.00000000E-01
  5.48467166E+03  8.25234946E+02  1.88046958E+02  5.29645000E+01  1.68975704E+01
  5.79963534E+00  1.55396162E+01  3.59993359E+00  1.01376175E+00  2.70005823E-01
  8.00000000E-01  5.48467166E+03  8.25234946E+02  1.88046958E+02  5.29645000E+01
  1.68975704E+01  5.79963534E+00  1.55396162E+01  3.59993359E+00  1.01376175E+00
  2.70005823E-01  8.00000000E-01  1.87311370E+01  2.82539436E+00  6.40121692E-01
  1.61277759E-01  1.87311370E+01  2.82539436E+00  6.40121692E-01  1.61277759E-01
  1.87311370E+01  2.82539436E+00  6.40121692E-01  1.61277759E-01  1.87311370E+01
  2.82539436E+00  6.40121692E-01  1.61277759E-01  1.87311370E+01  2.82539436E+00
  6.40121692E-01  1.61277759E-01  1.87311370E+01  2.82539436E+00  6.40121692E-01
  1.61277759E-01  1.87311370E+01  2.82539436E+00  6.40121692E-01  1.61277759E-01
  1.87311370E+01  2.82539436E+00  6.40121692E-01  1.61277759E-01
Contraction coefficients                   R   N=         159
  1.83107443E-03  1.39501722E-02  6.84450781E-02  2.32714336E-01  4.70192898E-01
  3.58520853E-01 -1.10777550E-01 -1.48026263E-01  1.13076702E+00  1.00000000E+00
  1.00000000E+00  1.86924085E-03  1.42303065E-02  6.96962317E-02  2.38487108E-01
  4.83307220E-01  3.38074154E-01 -2.37677050E-03 -3.16930067E-02 -1.13317024E-01
  5.60900118E-02  5.92255124E-01  4.55006095E-01 -2.50373114E-01  6.69567631E-02
  1.05450627E+00  1.00000000E+00  1.00000000E+00  1.83473713E-03  1.40373228E-02
  6.88426223E-02  2.32184443E-01  4.67941348E-01  3.62311985E-01 -1.19332420E-01
 -1.60854152E-01  1.14345644E+00  1.00000000E+00  1.00000000E+00  1.83473713E-03
  1.40373228E-02  6.88426223E-02  2.32184443E-01  4.67941348E-01  3.62311985E-01
 -1.19332420E-01 -1.60854152E-01  1.14345644E+00  1.00000000E+00  1.00000000E+00
  1.83473713E-03  1.40373228E-02  6.88426223E-02  2.32184443E-01  4.67941348E-01
  3.62311985E-01 -1.19332420E-01 -1.60854152E-01  1.14345644E+00  1.00000000E+00
  1.00000000E+00  1.83473713E-03  1.40373228E-02  6.88426223E-02  2.32184443E-01
  4.67941348E-01  3.62311985E-01 -1.19332420E-01 -1.60854152E-01  1.14345644E+00
  1.00000000E+00  1.00000000E+00  1.83473713E-03  1.40373228E-02  6.88426223E-02
  2.32184443E-01  4.67941348E-01  3.62311985E-01 -1.19332420E-01 -1.60854152E-01
  1.14345644E+00  1.00000000E+00  1.00000000E+00  1.83473713E-03  1.40373228E-02
  6.88426223E-02  2.32184443E-01  4.67941348E-01  3.62311985E-01 -1.19332420E-01
 -1.60854152E-01  1.14345644E+00  1.00000000E+00  1.00000000E+00  1.83477216E-03
  1.39946270E-02  6.85865518E-02  2.32240873E-01  4.69069948E-01  3.60455199E-01
 -1.14961182E-01 -1.69117479E-01  1.14585195E+00  1.00000000E+00  1.00000000E+00
  1.83107443E-03  1.39501722E-02  6.84450781E-02  2.32714336E-01  4.70192898E-01
  3.58520853E-01 -1.10777550E-01 -1.48026263E-01  1.13076702E+00  1.00000000E+00
  1.00000000E+00  1.83107443E-03  1.39501722E-02  6.84450781E-02  2.32714336E-01
  4.70192898E-01  3.58520853E-01 -1.10777550E-01 -1.48026263E-01  1.13076702E+00
  1.00000000E+00  1.00000000E+00  3.34946043E-02  2.34726953E-01  8.13757326E-01
  1.00000000E+00  3.34946043E-02  2.34726953E-01  8.13757326E-01  1.00000000E+00
  3.34946043E-02  2.34726953E-01  8.13757326E-01  1.00000000E+00  3.34946043E-02
  2.34726953E-01  8.13757326E-01  1.00000000E+00  3.34946043E-02  2.34726953E-01
  8.13757326E-01  1.00000000E+00  3.34946043E-02  2.34726953E-01  8.13757326E-01
  1.00000000E+00  3.34946043E-02  2.34726953E-01  8.13757326E-01  1.00000000E+00
  3.34946043E-02  2.34726953E-01  8.13757326E-01  1.00000000E+00
P(S=P) Contraction coefficients            R   N=         159
  0.00000000E+00  0.00000000E+00  0.00000000E+00  0.00000000E+00  0.00000000E+00
  0.00000000E+00  7.08742682E-02  3.39752839E-01  7.27158577E-01  1.00000000E+00
  0.00000000E+00  0.00000000E+00  0.00000000E+00  0.00000000E+00  0.00000000E+00
  0.00000000E+00  0.00000000E+00  4.06100998E-03  3.06812999E-02  1.30451999E-01
  3.27204999E-01  4.52850998E-01  2.56041999E-01 -1.45104895E-02  3.10262776E-01
  7.54482456E-01  1.00000000E+00  0.00000000E+00  0.00000000E+00  0.00000000E+00
  0.00000000E+00  0.00000000E+00  0.00000000E+00  0.00000000E+00  6.89990666E-02
  3.16423961E-01  7.44308291E-01  1.00000000E+00  0.00000000E+00  0.00000000E+00
  0.00000000E+00  0.00000000E+00  0.00000000E+00  0.00000000E+00  0.00000000E+00
  6.89990666E-02  3.16423961E-01  7.44308291E-01  1.00000000E+00  0.00000000E+00
  0.00000000E+00  0.00000000E+00  0.00000000E+00  0.00000000E+00  0.00000000E+00
  0.00000000E+00  6.89990666E-02  3.16423961E-01  7.44308291E-01  1.00000000E+00
  0.00000000E+00  0.00000000E+00  0.00000000E+00  0.00000000E+00  0.00000000E+00
  0.00000000E+00  0.00000000E+00  6.89990666E-02  3.16423961E-01  7.44308291E-01
  1.00000000E+00  0.00000000E+00  0.00000000E+00  0.00000000E+00  0.00000000E+00
  0.00000000E+00  0.00000000E+00  0.00000000E+00  6.89990666E-02  3.16423961E-01
  7.44308291E-01  1.00000000E+00  0.00000000E+00  0.00000000E+00  0.00000000E+00
  0.00000000E+00  0.00000000E+00  0.00000000E+00  0.00000000E+00  6.89990666E-02
  3.16423961E-01  7.44308291E-01  1.00000000E+00  0.00000000E+00  0.00000000E+00
  0.00000000E+00  0.00000000E+00  0.00000000E+00  0.00000000E+00  0.00000000E+00
  6.75797439E-02  3.23907296E-01  7.40895140E-01  1.00000000E+00  0.00000000E+00
  0.00000000E+00  0.00000000E+00  0.00000000E+00  0.00000000E+00  0.00000000E+00
  0.00000000E+00  7.08742682E-02  3.39752839E-01  7.27158577E-01  1.00000000E+00
  0.00000000E+00  0.00000000E+00  0.00000000E+00  0.00000000E+00  0.00000000E+00
  0.00000000E+00  0.00000000E+00  7.08742682E-02  3.39752839E-01  7.27158577E-01
  1.00000000E+00  0.00000000E+00  0.00000000E+00  0.00000000E+00  0.00000000E+00
  0.00000000E+00  0.00000000E+00  0.00000000E+00  0.00000000E+00  0.00000000E+00