 Entering Gaussian System, Link 0=/apps/cent7/gaussian/g16-A.03/g16-haswell/g16/g16
 Initial command:
 /apps/cent7/gaussian/g16-A.03/g16-haswell/g16/l1.exe "/scratch/brown/finej/gaussian/Gau-66279.inp" -scrdir="/scratch/brown/finej/gaussian/"
 Entering Link 1 = /apps/cent7/gaussian/g16-A.03/g16-haswell/g16/l1.exe PID=     66281.
  
 Copyright (c) 1988,1990,1992,1993,1995,1998,2003,2009,2016,
            Gaussian, Inc.  All Rights Reserved.
  
 This is part of the Gaussian(R) 16 program.  It is based on
 the Gaussian(R) 09 system (copyright 2009, Gaussian, Inc.),
 the Gaussian(R) 03 system (copyright 2003, Gaussian, Inc.),
 the Gaussian(R) 98 system (copyright 1998, Gaussian, Inc.),
 the Gaussian(R) 94 system (copyright 1995, Gaussian, Inc.),
 the Gaussian 92(TM) system (copyright 1992, Gaussian, Inc.),
 the Gaussian 90(TM) system (copyright 1990, Gaussian, Inc.),
 the Gaussian 88(TM) system (copyright 1988, Gaussian, Inc.),
 the Gaussian 86(TM) system (copyright 1986, Carnegie Mellon
 University), and the Gaussian 82(TM) system (copyright 1983,
 Carnegie Mellon University). Gaussian is a federally registered
 trademark of Gaussian, Inc.
  
 This software contains proprietary and confidential information,
 including trade secrets, belonging to Gaussian, Inc.
  
 This software is provided under written license and may be
 used, copied, transmitted, or stored only in accord with that
 written license.
  
 The following legend is applicable only to US Government
 contracts under FAR:
  
                    RESTRICTED RIGHTS LEGEND
  
 Use, reproduction and disclosure by the US Government is
 subject to restrictions as set forth in subparagraphs (a)
 and (c) of the Commercial Computer Software - Restricted
 Rights clause in FAR 52.227-19.
  
 Gaussian, Inc.
 340 Quinnipiac St., Bldg. 40, Wallingford CT 06492
  
  
 ---------------------------------------------------------------
 Warning -- This program may not be used in any manner that
 competes with the business of Gaussian, Inc. or will provide
 assistance to any competitor of Gaussian, Inc.  The licensee
 of this program is prohibited from giving any competitor of
 Gaussian, Inc. access to this program.  By using this program,
 the user acknowledges that Gaussian, Inc. is engaged in the
 business of creating and licensing software in the field of
 computational chemistry and represents and warrants to the
 licensee that it is not a competitor of Gaussian, Inc. and that
 it will not use this program in any manner prohibited above.
 ---------------------------------------------------------------
  

 Cite this work as:
 Gaussian 16, Revision A.03,
 M. J. Frisch, G. W. Trucks, H. B. Schlegel, G. E. Scuseria, 
 M. A. Robb, J. R. Cheeseman, G. Scalmani, V. Barone, 
 G. A. Petersson, H. Nakatsuji, X. Li, M. Caricato, A. V. Marenich, 
 J. Bloino, B. G. Janesko, R. Gomperts, B. Mennucci, H. P. Hratchian, 
 J. V. Ortiz, A. F. Izmaylov, J. L. Sonnenberg, D. Williams-Young, 
 F. Ding, F. Lipparini, F. Egidi, J. Goings, B. Peng, A. Petrone, 
 T. Henderson, D. Ranasinghe, V. G. Zakrzewski, J. Gao, N. Rega, 
 G. Zheng, W. Liang, M. Hada, M. Ehara, K. Toyota, R. Fukuda, 
 J. Hasegawa, M. Ishida, T. Nakajima, Y. Honda, O. Kitao, H. Nakai, 
 T. Vreven, K. Throssell, J. A. Montgomery, Jr., J. E. Peralta, 
 F. Ogliaro, M. J. Bearpark, J. J. Heyd, E. N. Brothers, K. N. Kudin, 
 V. N. Staroverov, T. A. Keith, R. Kobayashi, J. Normand, 
 K. Raghavachari, A. P. Rendell, J. C. Burant, S. S. Iyengar, 
 J. Tomasi, M. Cossi, J. M. Millam, M. Klene, C. Adamo, R. Cammi, 
 J. W. Ochterski, R. L. Martin, K. Morokuma, O. Farkas, 
 J. B. Foresman, and D. J. Fox, Gaussian, Inc., Wallingford CT, 2016.
 
 ******************************************
 Gaussian 16:  ES64L-G16RevA.03 25-Dec-2016
                14-Oct-2019 
 ******************************************
 %chk=29_p.chk
 %nprocshared=24
 Will use up to   24 processors via shared memory.
 %mem=80GB
 --------------------------------------------------------------
 #P opt freq b3lyp/6-31g(d) geom=connectivity temperature=0.001
 --------------------------------------------------------------
 1/18=20,19=15,26=3,38=1,57=2,112=-1000/1,3;
 2/9=110,12=2,17=6,18=5,40=1/2;
 3/5=1,6=6,7=1,11=2,25=1,30=1,71=1,74=-5/1,2,3;
 4//1;
 5/5=2,38=5/2;
 6/7=2,8=2,9=2,10=2,28=1/1;
 7//1,2,3,16;
 1/18=20,19=15,26=3/3(2);
 2/9=110/2;
 99//99;
 2/9=110/2;
 3/5=1,6=6,7=1,11=2,25=1,30=1,71=1,74=-5/1,2,3;
 4/5=5,16=3,69=1/1;
 5/5=2,38=5/2;
 7//1,2,3,16;
 1/18=20,19=15,26=3/3(-5);
 2/9=110/2;
 6/7=2,8=2,9=2,10=2,19=2,28=1/1;
 99/9=1/99;
 Leave Link    1 at Mon Oct 14 01:40:41 2019, MaxMem= 10737418240 cpu:               0.8 elap:               0.0
 (Enter /apps/cent7/gaussian/g16-A.03/g16-haswell/g16/l101.exe)
 -------------------
 Title Card Required
 -------------------
 Symbolic Z-matrix:
 Charge =  1 Multiplicity = 1
 O                    -2.3639    2.5186   -0.8329 
 S                    -1.914     0.9836   -0.7099 
 C                    -0.4772    0.8242    0.3123 
 C                    -0.263    -0.3511    1.0631 
 C                     0.8775   -0.4725    1.8779 
 C                     1.8119    0.577     1.9415 
 C                     1.6073    1.7481    1.1899 
 C                     0.467     1.8708    0.3754 
 N                    -1.5562    0.375    -2.3206 
 O                    -0.5022    1.0767   -2.7968 
 O                    -3.1387    0.1404   -0.108 
 H                    -0.9819   -1.1689    1.0133 
 H                     1.0372   -1.38      2.4602 
 H                     2.695     0.4827    2.5735 
 H                     2.3323    2.5606    1.2386 
 H                     0.3147    2.7789   -0.208 
 H                    -1.9328   -0.3335   -2.934 
 H                     0.0123    1.4193   -2.0622 
 H                    -1.70049   3.21027  -0.88832 
 
 ITRead=  0  0  0  0  0  0  0  0  0  0  0  0  0  0  0  0  0  0  0
 MicOpt= -1 -1 -1 -1 -1 -1 -1 -1 -1 -1 -1 -1 -1 -1 -1 -1 -1 -1 -1
 NAtoms=     19 NQM=       19 NQMF=       0 NMMI=      0 NMMIF=      0
                NMic=       0 NMicF=      0.
                    Isotopes and Nuclear Properties:
 (Nuclear quadrupole moments (NQMom) in fm**2, nuclear magnetic moments (NMagM)
  in nuclear magnetons)

  Atom         1           2           3           4           5           6           7           8           9          10
 IAtWgt=          16          32          12          12          12          12          12          12          14          16
 AtmWgt=  15.9949146  31.9720718  12.0000000  12.0000000  12.0000000  12.0000000  12.0000000  12.0000000  14.0030740  15.9949146
 NucSpn=           0           0           0           0           0           0           0           0           2           0
 AtZEff=  -0.0000000  -0.0000000  -0.0000000  -0.0000000  -0.0000000  -0.0000000  -0.0000000  -0.0000000  -0.0000000  -0.0000000
 NQMom=    0.0000000   0.0000000   0.0000000   0.0000000   0.0000000   0.0000000   0.0000000   0.0000000   2.0440000   0.0000000
 NMagM=    0.0000000   0.0000000   0.0000000   0.0000000   0.0000000   0.0000000   0.0000000   0.0000000   0.4037610   0.0000000
 AtZNuc=   8.0000000  16.0000000   6.0000000   6.0000000   6.0000000   6.0000000   6.0000000   6.0000000   7.0000000   8.0000000

  Atom        11          12          13          14          15          16          17          18          19
 IAtWgt=          16           1           1           1           1           1           1           1           1
 AtmWgt=  15.9949146   1.0078250   1.0078250   1.0078250   1.0078250   1.0078250   1.0078250   1.0078250   1.0078250
 NucSpn=           0           1           1           1           1           1           1           1           1
 AtZEff=  -0.0000000  -0.0000000  -0.0000000  -0.0000000  -0.0000000  -0.0000000  -0.0000000  -0.0000000  -0.0000000
 NQMom=    0.0000000   0.0000000   0.0000000   0.0000000   0.0000000   0.0000000   0.0000000   0.0000000   0.0000000
 NMagM=    0.0000000   2.7928460   2.7928460   2.7928460   2.7928460   2.7928460   2.7928460   2.7928460   2.7928460
 AtZNuc=   8.0000000   1.0000000   1.0000000   1.0000000   1.0000000   1.0000000   1.0000000   1.0000000   1.0000000
 Leave Link  101 at Mon Oct 14 01:40:42 2019, MaxMem= 10737418240 cpu:              15.1 elap:               0.7
 (Enter /apps/cent7/gaussian/g16-A.03/g16-haswell/g16/l103.exe)

 GradGradGradGradGradGradGradGradGradGradGradGradGradGradGradGradGradGrad
 Berny optimization.
 Initialization pass.
                           ----------------------------
                           !    Initial Parameters    !
                           ! (Angstroms and Degrees)  !
 --------------------------                            --------------------------
 ! Name  Definition              Value          Derivative Info.                !
 --------------------------------------------------------------------------------
 ! R1    R(1,2)                  1.6043         estimate D2E/DX2                !
 ! R2    R(1,19)                 0.96           estimate D2E/DX2                !
 ! R3    R(2,3)                  1.7705         estimate D2E/DX2                !
 ! R4    R(2,9)                  1.7586         estimate D2E/DX2                !
 ! R5    R(2,11)                 1.6041         estimate D2E/DX2                !
 ! R6    R(3,4)                  1.411          estimate D2E/DX2                !
 ! R7    R(3,8)                  1.411          estimate D2E/DX2                !
 ! R8    R(4,5)                  1.4069         estimate D2E/DX2                !
 ! R9    R(4,12)                 1.09           estimate D2E/DX2                !
 ! R10   R(5,6)                  1.4066         estimate D2E/DX2                !
 ! R11   R(5,13)                 1.09           estimate D2E/DX2                !
 ! R12   R(6,7)                  1.4065         estimate D2E/DX2                !
 ! R13   R(6,14)                 1.09           estimate D2E/DX2                !
 ! R14   R(7,8)                  1.4067         estimate D2E/DX2                !
 ! R15   R(7,15)                 1.09           estimate D2E/DX2                !
 ! R16   R(8,16)                 1.09           estimate D2E/DX2                !
 ! R17   R(9,10)                 1.3528         estimate D2E/DX2                !
 ! R18   R(9,17)                 1.01           estimate D2E/DX2                !
 ! R19   R(10,18)                0.9601         estimate D2E/DX2                !
 ! A1    A(2,1,19)             120.0            estimate D2E/DX2                !
 ! A2    A(1,2,3)              110.9765         estimate D2E/DX2                !
 ! A3    A(1,2,9)              108.5392         estimate D2E/DX2                !
 ! A4    A(1,2,11)             108.5184         estimate D2E/DX2                !
 ! A5    A(3,2,9)              109.4219         estimate D2E/DX2                !
 ! A6    A(3,2,11)             110.8312         estimate D2E/DX2                !
 ! A7    A(9,2,11)             108.4868         estimate D2E/DX2                !
 ! A8    A(2,3,4)              120.3577         estimate D2E/DX2                !
 ! A9    A(2,3,8)              120.1384         estimate D2E/DX2                !
 ! A10   A(4,3,8)              119.5028         estimate D2E/DX2                !
 ! A11   A(3,4,5)              120.2055         estimate D2E/DX2                !
 ! A12   A(3,4,12)             120.034          estimate D2E/DX2                !
 ! A13   A(5,4,12)             119.7605         estimate D2E/DX2                !
 ! A14   A(4,5,6)              120.0201         estimate D2E/DX2                !
 ! A15   A(4,5,13)             119.9997         estimate D2E/DX2                !
 ! A16   A(6,5,13)             119.9802         estimate D2E/DX2                !
 ! A17   A(5,6,7)              120.0294         estimate D2E/DX2                !
 ! A18   A(5,6,14)             119.9896         estimate D2E/DX2                !
 ! A19   A(7,6,14)             119.981          estimate D2E/DX2                !
 ! A20   A(6,7,8)              119.9977         estimate D2E/DX2                !
 ! A21   A(6,7,15)             120.0009         estimate D2E/DX2                !
 ! A22   A(8,7,15)             120.0014         estimate D2E/DX2                !
 ! A23   A(3,8,7)              120.2419         estimate D2E/DX2                !
 ! A24   A(3,8,16)             120.0339         estimate D2E/DX2                !
 ! A25   A(7,8,16)             119.7242         estimate D2E/DX2                !
 ! A26   A(2,9,10)             107.5425         estimate D2E/DX2                !
 ! A27   A(2,9,17)             136.3154         estimate D2E/DX2                !
 ! A28   A(10,9,17)            116.1421         estimate D2E/DX2                !
 ! A29   A(9,10,18)            109.4686         estimate D2E/DX2                !
 ! D1    D(19,1,2,3)            37.4919         estimate D2E/DX2                !
 ! D2    D(19,1,2,9)           -82.7855         estimate D2E/DX2                !
 ! D3    D(19,1,2,11)          159.5022         estimate D2E/DX2                !
 ! D4    D(1,2,3,4)            150.2376         estimate D2E/DX2                !
 ! D5    D(1,2,3,8)            -30.1347         estimate D2E/DX2                !
 ! D6    D(9,2,3,4)            -90.0105         estimate D2E/DX2                !
 ! D7    D(9,2,3,8)             89.6172         estimate D2E/DX2                !
 ! D8    D(11,2,3,4)            29.5859         estimate D2E/DX2                !
 ! D9    D(11,2,3,8)          -150.7864         estimate D2E/DX2                !
 ! D10   D(1,2,9,10)            63.694          estimate D2E/DX2                !
 ! D11   D(1,2,9,17)          -116.2995         estimate D2E/DX2                !
 ! D12   D(3,2,9,10)           -57.5446         estimate D2E/DX2                !
 ! D13   D(3,2,9,17)           122.462          estimate D2E/DX2                !
 ! D14   D(11,2,9,10)         -178.5737         estimate D2E/DX2                !
 ! D15   D(11,2,9,17)            1.4329         estimate D2E/DX2                !
 ! D16   D(2,3,4,5)           -179.7806         estimate D2E/DX2                !
 ! D17   D(2,3,4,12)             0.2223         estimate D2E/DX2                !
 ! D18   D(8,3,4,5)              0.5893         estimate D2E/DX2                !
 ! D19   D(8,3,4,12)          -179.4078         estimate D2E/DX2                !
 ! D20   D(2,3,8,7)            179.8103         estimate D2E/DX2                !
 ! D21   D(2,3,8,16)            -0.1825         estimate D2E/DX2                !
 ! D22   D(4,3,8,7)             -0.5588         estimate D2E/DX2                !
 ! D23   D(4,3,8,16)           179.4483         estimate D2E/DX2                !
 ! D24   D(3,4,5,6)             -0.2891         estimate D2E/DX2                !
 ! D25   D(3,4,5,13)           179.7057         estimate D2E/DX2                !
 ! D26   D(12,4,5,6)           179.708          estimate D2E/DX2                !
 ! D27   D(12,4,5,13)           -0.2971         estimate D2E/DX2                !
 ! D28   D(4,5,6,7)             -0.0462         estimate D2E/DX2                !
 ! D29   D(4,5,6,14)           179.9566         estimate D2E/DX2                !
 ! D30   D(13,5,6,7)           179.959          estimate D2E/DX2                !
 ! D31   D(13,5,6,14)           -0.0383         estimate D2E/DX2                !
 ! D32   D(5,6,7,8)              0.0768         estimate D2E/DX2                !
 ! D33   D(5,6,7,15)          -179.9259         estimate D2E/DX2                !
 ! D34   D(14,6,7,8)          -179.9259         estimate D2E/DX2                !
 ! D35   D(14,6,7,15)            0.0714         estimate D2E/DX2                !
 ! D36   D(6,7,8,3)              0.2278         estimate D2E/DX2                !
 ! D37   D(6,7,8,16)          -179.7793         estimate D2E/DX2                !
 ! D38   D(15,7,8,3)          -179.7695         estimate D2E/DX2                !
 ! D39   D(15,7,8,16)            0.2233         estimate D2E/DX2                !
 ! D40   D(2,9,10,18)           24.8538         estimate D2E/DX2                !
 ! D41   D(17,9,10,18)        -155.1513         estimate D2E/DX2                !
 --------------------------------------------------------------------------------
 Trust Radius=3.00D-01 FncErr=1.00D-07 GrdErr=1.00D-06 EigMax=2.50D+02 EigMin=1.00D-04
 Number of steps in this run=     99 maximum allowed number of steps=    114.
 GradGradGradGradGradGradGradGradGradGradGradGradGradGradGradGradGradGrad

 Leave Link  103 at Mon Oct 14 01:40:42 2019, MaxMem= 10737418240 cpu:               0.4 elap:               0.0
 (Enter /apps/cent7/gaussian/g16-A.03/g16-haswell/g16/l202.exe)
                          Input orientation:                          
 ---------------------------------------------------------------------
 Center     Atomic      Atomic             Coordinates (Angstroms)
 Number     Number       Type             X           Y           Z
 ---------------------------------------------------------------------
      1          8           0       -2.363900    2.518600   -0.832900
      2         16           0       -1.914000    0.983600   -0.709900
      3          6           0       -0.477200    0.824200    0.312300
      4          6           0       -0.263000   -0.351100    1.063100
      5          6           0        0.877500   -0.472500    1.877900
      6          6           0        1.811900    0.577000    1.941500
      7          6           0        1.607300    1.748100    1.189900
      8          6           0        0.467000    1.870800    0.375400
      9          7           0       -1.556200    0.375000   -2.320600
     10          8           0       -0.502200    1.076700   -2.796800
     11          8           0       -3.138700    0.140400   -0.108000
     12          1           0       -0.981900   -1.168900    1.013300
     13          1           0        1.037200   -1.380000    2.460200
     14          1           0        2.695000    0.482700    2.573500
     15          1           0        2.332300    2.560600    1.238600
     16          1           0        0.314700    2.778900   -0.208000
     17          1           0       -1.932800   -0.333500   -2.934000
     18          1           0        0.012300    1.419300   -2.062200
     19          1           0       -1.700485    3.210271   -0.888324
 ---------------------------------------------------------------------
                    Distance matrix (angstroms):
                    1          2          3          4          5
     1  O    0.000000
     2  S    1.604295   0.000000
     3  C    2.782465   1.770507   0.000000
     4  C    4.030357   2.766000   1.410997   0.000000
     5  C    5.177045   4.075464   2.442897   1.406903   0.000000
     6  C    5.376282   4.591032   2.820528   2.436835   1.406627
     7  C    4.522811   4.073482   2.443136   2.814381   2.436599
     8  C    3.145414   2.762999   1.410981   2.437759   2.813729
     9  N    2.731419   1.758627   2.880657   3.694457   4.926312
    10  O    3.066253   2.521309   3.119436   4.122458   5.114334
    11  O    2.604156   1.604107   2.779895   3.143676   4.522091
    12  H    4.349257   2.910582   2.172227   1.089997   2.165612
    13  H    6.132787   4.934138   3.430070   2.168189   1.090015
    14  H    6.429690   5.681065   3.910563   3.424368   2.167850
    15  H    5.132950   4.930988   3.430220   3.904405   3.424156
    16  H    2.762816   2.905531   2.172250   3.427292   3.903758
    17  H    3.568605   2.584904   3.741324   4.331899   5.574181
    18  H    2.892398   2.393571   2.496398   3.602444   4.455543
    19  H    0.960000   2.243989   2.937900   4.307874   5.278333
                    6          7          8          9         10
     6  C    0.000000
     7  C    1.406499   0.000000
     8  C    2.436256   1.406680   0.000000
     9  N    5.436028   4.921051   3.687706   0.000000
    10  O    5.296815   4.560104   3.410689   1.352799   0.000000
    11  O    5.375826   5.176269   4.028527   2.730374   3.880391
    12  H    3.422724   3.904361   3.427244   3.718647   4.448561
    13  H    2.167731   3.423987   3.903744   5.715050   6.003430
    14  H    1.090038   2.167643   3.423806   6.483557   6.278140
    15  H    2.167845   1.090024   2.168013   5.706591   5.149835
    16  H    3.422035   2.165061   1.090044   3.707031   3.204169
    17  H    6.214683   5.819959   4.644363   1.009980   2.013481
    18  H    4.469636   3.637071   2.520416   1.901979   0.960064
    19  H    5.222918   4.171139   2.844147   3.179779   3.103272
                   11         12         13         14         15
    11  O    0.000000
    12  H    2.761044   0.000000
    13  H    5.132778   2.492960   0.000000
    14  H    6.429593   4.322222   2.496155   0.000000
    15  H    6.132091   4.994382   4.324109   2.496233   0.000000
    16  H    4.347143   4.331036   4.993771   4.321470   2.492191
    17  H    3.108867   4.145272   6.246075   7.239839   6.631552
    18  H    3.922153   4.140762   5.416512   5.437262   4.192880
    19  H    3.478718   4.828010   6.306990   6.224480   4.605348
                   16         17         18         19
    16  H    0.000000
    17  H    4.708436   0.000000
    18  H    2.319055   2.759666   0.000000
    19  H    2.170229   4.098423   2.742115   0.000000
 Stoichiometry    C6H8NO3S(1+)
 Framework group  C1[X(C6H8NO3S)]
 Deg. of freedom    51
 Full point group                 C1      NOp   1
 Largest Abelian subgroup         C1      NOp   1
 Largest concise Abelian subgroup C1      NOp   1
                         Standard orientation:                         
 ---------------------------------------------------------------------
 Center     Atomic      Atomic             Coordinates (Angstroms)
 Number     Number       Type             X           Y           Z
 ---------------------------------------------------------------------
      1          8           0       -1.823852   -0.450699   -1.526011
      2         16           0       -1.256377    0.355200   -0.260205
      3          6           0        0.498130    0.162807   -0.120976
      4          6           0        1.284702    1.186062    0.449256
      5          6           0        2.679179    1.031731    0.554111
      6          6           0        3.293141   -0.147783    0.095421
      7          6           0        2.513422   -1.174147   -0.467477
      8          6           0        1.119162   -1.020623   -0.573391
      9          7           0       -2.029918   -0.267035    1.191424
     10          8           0       -1.660685   -1.561351    1.327361
     11          8           0       -1.649513    1.901848   -0.422943
     12          1           0        0.812807    2.099835    0.810405
     13          1           0        3.284145    1.826358    0.990823
     14          1           0        4.373671   -0.266535    0.176257
     15          1           0        2.989539   -2.088484   -0.821672
     16          1           0        0.518758   -1.820388   -1.007082
     17          1           0       -2.647916    0.096478    1.902758
     18          1           0       -0.822669   -1.703603    0.881026
     19          1           0       -1.450881   -1.304290   -1.758120
 ---------------------------------------------------------------------
 Rotational constants (GHZ):           1.6912991           0.6811592           0.6208016
 Leave Link  202 at Mon Oct 14 01:40:42 2019, MaxMem= 10737418240 cpu:               1.1 elap:               0.1
 (Enter /apps/cent7/gaussian/g16-A.03/g16-haswell/g16/l301.exe)
 Standard basis: 6-31G(d) (6D, 7F)
 Ernie: Thresh=  0.10000D-02 Tol=  0.10000D-05 Strict=F.
 There are   185 symmetry adapted cartesian basis functions of A   symmetry.
 There are   185 symmetry adapted basis functions of A   symmetry.
   185 basis functions,   364 primitive gaussians,   185 cartesian basis functions
    45 alpha electrons       45 beta electrons
       nuclear repulsion energy       743.9699642776 Hartrees.
 IExCor=  402 DFT=T Ex+Corr=B3LYP ExCW=0 ScaHFX=  0.200000
 ScaDFX=  0.800000  0.720000  1.000000  0.810000 ScalE2=  1.000000  1.000000
 IRadAn=      5 IRanWt=     -1 IRanGd=            0 ICorTp=0 IEmpDi=  4
 NAtoms=   19 NActive=   19 NUniq=   19 SFac= 1.00D+00 NAtFMM=   60 NAOKFM=F Big=F
 Integral buffers will be    131072 words long.
 Raffenetti 2 integral format.
 Two-electron integral symmetry is turned on.
 Leave Link  301 at Mon Oct 14 01:40:42 2019, MaxMem= 10737418240 cpu:               1.8 elap:               0.1
 (Enter /apps/cent7/gaussian/g16-A.03/g16-haswell/g16/l302.exe)
 NPDir=0 NMtPBC=     1 NCelOv=     1 NCel=       1 NClECP=     1 NCelD=      1
         NCelK=      1 NCelE2=     1 NClLst=     1 CellRange=     0.0.
 One-electron integrals computed using PRISM.
 One-electron integral symmetry used in STVInt
 NBasis=   185 RedAO= T EigKep=  5.44D-04  NBF=   185
 NBsUse=   185 1.00D-06 EigRej= -1.00D+00 NBFU=   185
 Precomputing XC quadrature grid using
 IXCGrd= 4 IRadAn=           5 IRanWt=          -1 IRanGd=           0 AccXCQ= 0.00D+00.
 Generated NRdTot=       0 NPtTot=           0 NUsed=           0 NTot=          32
 NSgBfM=   185   185   185   185   185 MxSgAt=    19 MxSgA2=    19.
 Leave Link  302 at Mon Oct 14 01:40:42 2019, MaxMem= 10737418240 cpu:               3.6 elap:               0.2
 (Enter /apps/cent7/gaussian/g16-A.03/g16-haswell/g16/l303.exe)
 DipDrv:  MaxL=1.
 Leave Link  303 at Mon Oct 14 01:40:42 2019, MaxMem= 10737418240 cpu:               1.0 elap:               0.1
 (Enter /apps/cent7/gaussian/g16-A.03/g16-haswell/g16/l401.exe)
 ExpMin= 1.17D-01 ExpMax= 2.19D+04 ExpMxC= 3.30D+03 IAcc=3 IRadAn=         5 AccDes= 0.00D+00
 Harris functional with IExCor=  402 and IRadAn=       5 diagonalized for initial guess.
 HarFok:  IExCor=  402 AccDes= 0.00D+00 IRadAn=         5 IDoV= 1 UseB2=F ITyADJ=14
 ICtDFT=  3500011 ScaDFX=  1.000000  1.000000  1.000000  1.000000
 FoFCou: FMM=F IPFlag=           0 FMFlag=      100000 FMFlg1=           0
         NFxFlg=           0 DoJE=T BraDBF=F KetDBF=T FulRan=T
         wScrn=  0.000000 ICntrl=       500 IOpCl=  0 I1Cent=   200000004 NGrid=           0
         NMat0=    1 NMatS0=      1 NMatT0=    0 NMatD0=    1 NMtDS0=    0 NMtDT0=    0
 Petite list used in FoFCou.
 Harris En= -911.694252908430    
 JPrj=0 DoOrth=F DoCkMO=F.
 Leave Link  401 at Mon Oct 14 01:40:43 2019, MaxMem= 10737418240 cpu:               7.8 elap:               0.4
 (Enter /apps/cent7/gaussian/g16-A.03/g16-haswell/g16/l502.exe)
 Integral symmetry usage will be decided dynamically.
 Closed shell SCF:
 Using DIIS extrapolation, IDIIS=  1040.
 NGot= 10737418240 LenX= 10737343233 LenY= 10737308567
 Requested convergence on RMS density matrix=1.00D-08 within 128 cycles.
 Requested convergence on MAX density matrix=1.00D-06.
 Requested convergence on             energy=1.00D-06.
 No special actions if energy rises.
 Fock matrices will be formed incrementally for  20 cycles.
 Integral accuracy reduced to 1.0D-05 until final iterations.

 Cycle   1  Pass 0  IDiag  1:
 FoFJK:  IHMeth= 1 ICntrl=       0 DoSepK=F KAlg= 0 I1Cent=           0 FoldK=F
 IRaf= 910000000 NMat=       1 IRICut=       1 DoRegI=T DoRafI=F ISym2E= 0 IDoP0=0 IntGTp=1.
 FoFCou: FMM=F IPFlag=           0 FMFlag=      100000 FMFlg1=           0
         NFxFlg=           0 DoJE=F BraDBF=F KetDBF=F FulRan=T
         wScrn=  0.000000 ICntrl=         0 IOpCl=  0 I1Cent=           0 NGrid=           0
         NMat0=    1 NMatS0=      1 NMatT0=    0 NMatD0=    1 NMtDS0=    0 NMtDT0=    0
 Symmetry not used in FoFCou.
 E= -911.050189397437    
 DIIS: error= 3.18D-02 at cycle   1 NSaved=   1.
 NSaved= 1 IEnMin= 1 EnMin= -911.050189397437     IErMin= 1 ErrMin= 3.18D-02
 ErrMax= 3.18D-02  0.00D+00 EMaxC= 1.00D-01 BMatC= 5.55D-01 BMatP= 5.55D-01
 IDIUse=3 WtCom= 6.82D-01 WtEn= 3.18D-01
 Coeff-Com:  0.100D+01
 Coeff-En:   0.100D+01
 Coeff:      0.100D+01
 Gap=     0.259 Goal=   None    Shift=    0.000
 GapD=    0.259 DampG=1.000 DampE=0.500 DampFc=0.5000 IDamp=-1.
 Damping current iteration by 5.00D-01
 RMSDP=2.06D-02 MaxDP=1.01D+00              OVMax= 6.86D-01

 Cycle   2  Pass 0  IDiag  1:
 RMSU=  1.03D-02    CP:  1.00D+00
 E= -910.371104489909     Delta-E=        0.679084907528 Rises=F Damp=T
 DIIS: error= 4.74D-02 at cycle   2 NSaved=   2.
 NSaved= 2 IEnMin= 1 EnMin= -911.050189397437     IErMin= 1 ErrMin= 3.18D-02
 ErrMax= 4.74D-02  0.00D+00 EMaxC= 1.00D-01 BMatC= 5.20D-01 BMatP= 5.55D-01
 IDIUse=3 WtCom= 5.26D-01 WtEn= 4.74D-01
 Coeff-Com:  0.490D+00 0.510D+00
 Coeff-En:   0.727D+00 0.273D+00
 Coeff:      0.602D+00 0.398D+00
 Gap=    -0.021 Goal=   None    Shift=    0.000
 RMSDP=8.00D-03 MaxDP=1.97D-01 DE= 6.79D-01 OVMax= 6.93D-01

 Cycle   3  Pass 0  IDiag  1:
 RMSU=  4.42D-03    CP:  9.97D-01  3.53D-01
 E= -911.400586132515     Delta-E=       -1.029481642606 Rises=F Damp=F
 DIIS: error= 2.60D-02 at cycle   3 NSaved=   3.
 NSaved= 3 IEnMin= 3 EnMin= -911.400586132515     IErMin= 3 ErrMin= 2.60D-02
 ErrMax= 2.60D-02  0.00D+00 EMaxC= 1.00D-01 BMatC= 1.84D-01 BMatP= 5.20D-01
 IDIUse=3 WtCom= 7.40D-01 WtEn= 2.60D-01
 Coeff-Com:  0.321D+00 0.263D+00 0.415D+00
 Coeff-En:   0.182D+00 0.000D+00 0.818D+00
 Coeff:      0.285D+00 0.195D+00 0.520D+00
 Gap=     0.176 Goal=   None    Shift=    0.000
 RMSDP=3.50D-03 MaxDP=1.16D-01 DE=-1.03D+00 OVMax= 1.47D-01

 Cycle   4  Pass 0  IDiag  1:
 RMSU=  2.48D-03    CP:  9.98D-01  2.76D-01  4.73D-01
 E= -911.524872441126     Delta-E=       -0.124286308612 Rises=F Damp=F
 DIIS: error= 9.58D-03 at cycle   4 NSaved=   4.
 NSaved= 4 IEnMin= 4 EnMin= -911.524872441126     IErMin= 4 ErrMin= 9.58D-03
 ErrMax= 9.58D-03  0.00D+00 EMaxC= 1.00D-01 BMatC= 4.25D-02 BMatP= 1.84D-01
 IDIUse=3 WtCom= 9.04D-01 WtEn= 9.58D-02
 Coeff-Com:  0.853D-01 0.369D-01 0.326D+00 0.552D+00
 Coeff-En:   0.000D+00 0.000D+00 0.206D+00 0.794D+00
 Coeff:      0.771D-01 0.334D-01 0.315D+00 0.575D+00
 Gap=     0.159 Goal=   None    Shift=    0.000
 RMSDP=1.33D-03 MaxDP=3.36D-02 DE=-1.24D-01 OVMax= 4.95D-02

 Cycle   5  Pass 0  IDiag  1:
 RMSU=  6.90D-04    CP:  9.99D-01  2.81D-01  6.22D-01  6.25D-01
 E= -911.557288139088     Delta-E=       -0.032415697962 Rises=F Damp=F
 DIIS: error= 3.27D-03 at cycle   5 NSaved=   5.
 NSaved= 5 IEnMin= 5 EnMin= -911.557288139088     IErMin= 5 ErrMin= 3.27D-03
 ErrMax= 3.27D-03  0.00D+00 EMaxC= 1.00D-01 BMatC= 4.02D-03 BMatP= 4.25D-02
 IDIUse=3 WtCom= 9.67D-01 WtEn= 3.27D-02
 Coeff-Com:  0.190D-01 0.634D-02 0.149D+00 0.344D+00 0.482D+00
 Coeff-En:   0.000D+00 0.000D+00 0.000D+00 0.434D-01 0.957D+00
 Coeff:      0.183D-01 0.613D-02 0.144D+00 0.334D+00 0.497D+00
 Gap=     0.152 Goal=   None    Shift=    0.000
 RMSDP=4.90D-04 MaxDP=1.30D-02 DE=-3.24D-02 OVMax= 2.97D-02

 Cycle   6  Pass 0  IDiag  1:
 RMSU=  2.51D-04    CP:  9.99D-01  2.83D-01  6.06D-01  7.07D-01  4.79D-01
 E= -911.560544665278     Delta-E=       -0.003256526189 Rises=F Damp=F
 DIIS: error= 1.46D-03 at cycle   6 NSaved=   6.
 NSaved= 6 IEnMin= 6 EnMin= -911.560544665278     IErMin= 6 ErrMin= 1.46D-03
 ErrMax= 1.46D-03  0.00D+00 EMaxC= 1.00D-01 BMatC= 5.87D-04 BMatP= 4.02D-03
 IDIUse=3 WtCom= 9.85D-01 WtEn= 1.46D-02
 Coeff-Com:  0.478D-03-0.199D-02 0.393D-01 0.107D+00 0.310D+00 0.546D+00
 Coeff-En:   0.000D+00 0.000D+00 0.000D+00 0.000D+00 0.157D+00 0.843D+00
 Coeff:      0.471D-03-0.196D-02 0.387D-01 0.105D+00 0.307D+00 0.550D+00
 Gap=     0.153 Goal=   None    Shift=    0.000
 RMSDP=1.57D-04 MaxDP=4.42D-03 DE=-3.26D-03 OVMax= 1.08D-02

 Cycle   7  Pass 0  IDiag  1:
 RMSU=  8.01D-05    CP:  9.99D-01  2.81D-01  6.08D-01  6.98D-01  5.98D-01
                    CP:  5.97D-01
 E= -911.561109772775     Delta-E=       -0.000565107497 Rises=F Damp=F
 DIIS: error= 4.93D-04 at cycle   7 NSaved=   7.
 NSaved= 7 IEnMin= 7 EnMin= -911.561109772775     IErMin= 7 ErrMin= 4.93D-04
 ErrMax= 4.93D-04  0.00D+00 EMaxC= 1.00D-01 BMatC= 3.95D-05 BMatP= 5.87D-04
 IDIUse=3 WtCom= 9.95D-01 WtEn= 4.93D-03
 Coeff-Com: -0.401D-03-0.172D-02 0.895D-02 0.238D-01 0.117D+00 0.297D+00
 Coeff-Com:  0.555D+00
 Coeff-En:   0.000D+00 0.000D+00 0.000D+00 0.000D+00 0.000D+00 0.000D+00
 Coeff-En:   0.100D+01
 Coeff:     -0.399D-03-0.171D-02 0.891D-02 0.237D-01 0.116D+00 0.296D+00
 Coeff:      0.557D+00
 Gap=     0.153 Goal=   None    Shift=    0.000
 RMSDP=4.06D-05 MaxDP=1.21D-03 DE=-5.65D-04 OVMax= 3.19D-03

 Cycle   8  Pass 0  IDiag  1:
 RMSU=  2.61D-05    CP:  9.99D-01  2.81D-01  6.09D-01  6.95D-01  5.98D-01
                    CP:  6.79D-01  7.44D-01
 E= -911.561151308728     Delta-E=       -0.000041535953 Rises=F Damp=F
 DIIS: error= 9.28D-05 at cycle   8 NSaved=   8.
 NSaved= 8 IEnMin= 8 EnMin= -911.561151308728     IErMin= 8 ErrMin= 9.28D-05
 ErrMax= 9.28D-05  0.00D+00 EMaxC= 1.00D-01 BMatC= 3.01D-06 BMatP= 3.95D-05
 IDIUse=1 WtCom= 1.00D+00 WtEn= 0.00D+00
 Coeff-Com:  0.532D-05-0.746D-03 0.123D-02 0.171D-02 0.283D-01 0.986D-01
 Coeff-Com:  0.282D+00 0.589D+00
 Coeff:      0.532D-05-0.746D-03 0.123D-02 0.171D-02 0.283D-01 0.986D-01
 Coeff:      0.282D+00 0.589D+00
 Gap=     0.152 Goal=   None    Shift=    0.000
 RMSDP=1.22D-05 MaxDP=4.69D-04 DE=-4.15D-05 OVMax= 7.12D-04

 Cycle   9  Pass 0  IDiag  1:
 RMSU=  1.09D-05    CP:  9.99D-01  2.81D-01  6.09D-01  6.95D-01  5.98D-01
                    CP:  6.79D-01  7.80D-01  8.30D-01
 E= -911.561154077694     Delta-E=       -0.000002768966 Rises=F Damp=F
 DIIS: error= 4.52D-05 at cycle   9 NSaved=   9.
 NSaved= 9 IEnMin= 9 EnMin= -911.561154077694     IErMin= 9 ErrMin= 4.52D-05
 ErrMax= 4.52D-05  0.00D+00 EMaxC= 1.00D-01 BMatC= 3.72D-07 BMatP= 3.01D-06
 IDIUse=1 WtCom= 1.00D+00 WtEn= 0.00D+00
 Coeff-Com:  0.167D-03-0.237D-03-0.304D-03-0.191D-02-0.236D-02 0.761D-02
 Coeff-Com:  0.596D-01 0.293D+00 0.645D+00
 Coeff:      0.167D-03-0.237D-03-0.304D-03-0.191D-02-0.236D-02 0.761D-02
 Coeff:      0.596D-01 0.293D+00 0.645D+00
 Gap=     0.152 Goal=   None    Shift=    0.000
 RMSDP=4.92D-06 MaxDP=1.34D-04 DE=-2.77D-06 OVMax= 3.16D-04

 Initial convergence to 1.0D-05 achieved.  Increase integral accuracy.
 Cycle  10  Pass 1  IDiag  1:
 E= -911.561135258017     Delta-E=        0.000018819678 Rises=F Damp=F
 DIIS: error= 1.77D-05 at cycle   1 NSaved=   1.
 NSaved= 1 IEnMin= 1 EnMin= -911.561135258017     IErMin= 1 ErrMin= 1.77D-05
 ErrMax= 1.77D-05  0.00D+00 EMaxC= 1.00D-01 BMatC= 9.36D-08 BMatP= 9.36D-08
 IDIUse=1 WtCom= 1.00D+00 WtEn= 0.00D+00
 Coeff-Com:  0.100D+01
 Coeff:      0.100D+01
 Gap=     0.152 Goal=   None    Shift=    0.000
 RMSDP=4.92D-06 MaxDP=1.34D-04 DE= 1.88D-05 OVMax= 2.90D-04

 Cycle  11  Pass 1  IDiag  1:
 RMSU=  1.32D-05    CP:  1.00D+00
 E= -911.561135126922     Delta-E=        0.000000131095 Rises=F Damp=F
 DIIS: error= 3.43D-05 at cycle   2 NSaved=   2.
 NSaved= 2 IEnMin= 1 EnMin= -911.561135258017     IErMin= 1 ErrMin= 1.77D-05
 ErrMax= 3.43D-05  0.00D+00 EMaxC= 1.00D-01 BMatC= 2.22D-07 BMatP= 9.36D-08
 IDIUse=1 WtCom= 1.00D+00 WtEn= 0.00D+00
 Coeff-Com:  0.619D+00 0.381D+00
 Coeff:      0.619D+00 0.381D+00
 Gap=     0.152 Goal=   None    Shift=    0.000
 RMSDP=2.95D-06 MaxDP=7.48D-05 DE= 1.31D-07 OVMax= 2.18D-04

 Cycle  12  Pass 1  IDiag  1:
 RMSU=  2.87D-06    CP:  1.00D+00  9.51D-01
 E= -911.561135349508     Delta-E=       -0.000000222586 Rises=F Damp=F
 DIIS: error= 4.90D-06 at cycle   3 NSaved=   3.
 NSaved= 3 IEnMin= 3 EnMin= -911.561135349508     IErMin= 3 ErrMin= 4.90D-06
 ErrMax= 4.90D-06  0.00D+00 EMaxC= 1.00D-01 BMatC= 7.05D-09 BMatP= 9.36D-08
 IDIUse=1 WtCom= 1.00D+00 WtEn= 0.00D+00
 Coeff-Com:  0.966D-01 0.161D+00 0.743D+00
 Coeff:      0.966D-01 0.161D+00 0.743D+00
 Gap=     0.152 Goal=   None    Shift=    0.000
 RMSDP=8.22D-07 MaxDP=2.22D-05 DE=-2.23D-07 OVMax= 3.65D-05

 Cycle  13  Pass 1  IDiag  1:
 RMSU=  6.67D-07    CP:  1.00D+00  9.71D-01  8.63D-01
 E= -911.561135352360     Delta-E=       -0.000000002851 Rises=F Damp=F
 DIIS: error= 4.58D-06 at cycle   4 NSaved=   4.
 NSaved= 4 IEnMin= 4 EnMin= -911.561135352360     IErMin= 4 ErrMin= 4.58D-06
 ErrMax= 4.58D-06  0.00D+00 EMaxC= 1.00D-01 BMatC= 4.83D-09 BMatP= 7.05D-09
 IDIUse=1 WtCom= 1.00D+00 WtEn= 0.00D+00
 Coeff-Com: -0.125D-02 0.721D-01 0.537D+00 0.392D+00
 Coeff:     -0.125D-02 0.721D-01 0.537D+00 0.392D+00
 Gap=     0.152 Goal=   None    Shift=    0.000
 RMSDP=4.33D-07 MaxDP=1.33D-05 DE=-2.85D-09 OVMax= 1.86D-05

 Cycle  14  Pass 1  IDiag  1:
 RMSU=  2.40D-07    CP:  1.00D+00  9.70D-01  8.83D-01  4.72D-01
 E= -911.561135356246     Delta-E=       -0.000000003886 Rises=F Damp=F
 DIIS: error= 1.15D-06 at cycle   5 NSaved=   5.
 NSaved= 5 IEnMin= 5 EnMin= -911.561135356246     IErMin= 5 ErrMin= 1.15D-06
 ErrMax= 1.15D-06  0.00D+00 EMaxC= 1.00D-01 BMatC= 2.80D-10 BMatP= 4.83D-09
 IDIUse=1 WtCom= 1.00D+00 WtEn= 0.00D+00
 Coeff-Com: -0.553D-02 0.394D-01 0.319D+00 0.267D+00 0.380D+00
 Coeff:     -0.553D-02 0.394D-01 0.319D+00 0.267D+00 0.380D+00
 Gap=     0.152 Goal=   None    Shift=    0.000
 RMSDP=1.11D-07 MaxDP=4.49D-06 DE=-3.89D-09 OVMax= 4.73D-06

 Cycle  15  Pass 1  IDiag  1:
 RMSU=  8.96D-08    CP:  1.00D+00  9.70D-01  8.84D-01  5.12D-01  7.60D-01
 E= -911.561135356499     Delta-E=       -0.000000000253 Rises=F Damp=F
 DIIS: error= 1.68D-07 at cycle   6 NSaved=   6.
 NSaved= 6 IEnMin= 6 EnMin= -911.561135356499     IErMin= 6 ErrMin= 1.68D-07
 ErrMax= 1.68D-07  0.00D+00 EMaxC= 1.00D-01 BMatC= 1.08D-11 BMatP= 2.80D-10
 IDIUse=1 WtCom= 1.00D+00 WtEn= 0.00D+00
 Coeff-Com: -0.255D-02 0.874D-02 0.801D-01 0.765D-01 0.183D+00 0.655D+00
 Coeff:     -0.255D-02 0.874D-02 0.801D-01 0.765D-01 0.183D+00 0.655D+00
 Gap=     0.152 Goal=   None    Shift=    0.000
 RMSDP=4.01D-08 MaxDP=8.82D-07 DE=-2.53D-10 OVMax= 2.97D-06

 Cycle  16  Pass 1  IDiag  1:
 RMSU=  2.79D-08    CP:  1.00D+00  9.70D-01  8.84D-01  5.31D-01  8.63D-01
                    CP:  1.08D+00
 E= -911.561135356518     Delta-E=       -0.000000000019 Rises=F Damp=F
 DIIS: error= 9.24D-08 at cycle   7 NSaved=   7.
 NSaved= 7 IEnMin= 7 EnMin= -911.561135356518     IErMin= 7 ErrMin= 9.24D-08
 ErrMax= 9.24D-08  0.00D+00 EMaxC= 1.00D-01 BMatC= 3.03D-12 BMatP= 1.08D-11
 IDIUse=1 WtCom= 1.00D+00 WtEn= 0.00D+00
 Coeff-Com: -0.383D-03-0.317D-02-0.190D-01-0.115D-01 0.282D-01 0.379D+00
 Coeff-Com:  0.627D+00
 Coeff:     -0.383D-03-0.317D-02-0.190D-01-0.115D-01 0.282D-01 0.379D+00
 Coeff:      0.627D+00
 Gap=     0.152 Goal=   None    Shift=    0.000
 RMSDP=2.00D-08 MaxDP=4.24D-07 DE=-1.91D-11 OVMax= 1.50D-06

 Cycle  17  Pass 1  IDiag  1:
 RMSU=  1.02D-08    CP:  1.00D+00  9.71D-01  8.84D-01  5.42D-01  9.12D-01
                    CP:  1.19D+00  9.11D-01
 E= -911.561135356519     Delta-E=       -0.000000000001 Rises=F Damp=F
 DIIS: error= 2.47D-08 at cycle   8 NSaved=   8.
 NSaved= 8 IEnMin= 8 EnMin= -911.561135356519     IErMin= 8 ErrMin= 2.47D-08
 ErrMax= 2.47D-08  0.00D+00 EMaxC= 1.00D-01 BMatC= 4.39D-13 BMatP= 3.03D-12
 IDIUse=1 WtCom= 1.00D+00 WtEn= 0.00D+00
 Coeff-Com:  0.284D-03-0.344D-02-0.257D-01-0.215D-01-0.165D-01 0.986D-01
 Coeff-Com:  0.348D+00 0.620D+00
 Coeff:      0.284D-03-0.344D-02-0.257D-01-0.215D-01-0.165D-01 0.986D-01
 Coeff:      0.348D+00 0.620D+00
 Gap=     0.152 Goal=   None    Shift=    0.000
 RMSDP=8.50D-09 MaxDP=1.53D-07 DE=-9.09D-13 OVMax= 6.37D-07

 SCF Done:  E(RB3LYP) =  -911.561135357     A.U. after   17 cycles
            NFock= 17  Conv=0.85D-08     -V/T= 2.0074
 KE= 9.048909039113D+02 PE=-3.613764295801D+03 EE= 1.053342292255D+03
 Leave Link  502 at Mon Oct 14 01:40:47 2019, MaxMem= 10737418240 cpu:             100.6 elap:               4.2
 (Enter /apps/cent7/gaussian/g16-A.03/g16-haswell/g16/l601.exe)
 Copying SCF densities to generalized density rwf, IOpCl= 0 IROHF=0.

 **********************************************************************

            Population analysis using the SCF density.

 **********************************************************************

 Orbital symmetries:
       Occupied  (A) (A) (A) (A) (A) (A) (A) (A) (A) (A) (A) (A)
                 (A) (A) (A) (A) (A) (A) (A) (A) (A) (A) (A) (A)
                 (A) (A) (A) (A) (A) (A) (A) (A) (A) (A) (A) (A)
                 (A) (A) (A) (A) (A) (A) (A) (A) (A)
       Virtual   (A) (A) (A) (A) (A) (A) (A) (A) (A) (A) (A) (A)
                 (A) (A) (A) (A) (A) (A) (A) (A) (A) (A) (A) (A)
                 (A) (A) (A) (A) (A) (A) (A) (A) (A) (A) (A) (A)
                 (A) (A) (A) (A) (A) (A) (A) (A) (A) (A) (A) (A)
                 (A) (A) (A) (A) (A) (A) (A) (A) (A) (A) (A) (A)
                 (A) (A) (A) (A) (A) (A) (A) (A) (A) (A) (A) (A)
                 (A) (A) (A) (A) (A) (A) (A) (A) (A) (A) (A) (A)
                 (A) (A) (A) (A) (A) (A) (A) (A) (A) (A) (A) (A)
                 (A) (A) (A) (A) (A) (A) (A) (A) (A) (A) (A) (A)
                 (A) (A) (A) (A) (A) (A) (A) (A) (A) (A) (A) (A)
                 (A) (A) (A) (A) (A) (A) (A) (A) (A) (A) (A) (A)
                 (A) (A) (A) (A) (A) (A) (A) (A)
 The electronic state is 1-A.
 Alpha  occ. eigenvalues --  -89.34082 -19.43280 -19.37876 -19.35253 -14.61137
 Alpha  occ. eigenvalues --  -10.44010 -10.40889 -10.39800 -10.38241 -10.38144
 Alpha  occ. eigenvalues --  -10.37901  -8.36705  -6.33265  -6.33085  -6.32878
 Alpha  occ. eigenvalues --   -1.33087  -1.29498  -1.18504  -1.05972  -1.02650
 Alpha  occ. eigenvalues --   -0.97543  -0.93716  -0.91404  -0.82863  -0.80295
 Alpha  occ. eigenvalues --   -0.79959  -0.74469  -0.74029  -0.68536  -0.66891
 Alpha  occ. eigenvalues --   -0.64184  -0.63566  -0.62820  -0.60949  -0.59955
 Alpha  occ. eigenvalues --   -0.58475  -0.56379  -0.55701  -0.54381  -0.53405
 Alpha  occ. eigenvalues --   -0.49440  -0.48421  -0.45356  -0.43974  -0.40998
 Alpha virt. eigenvalues --   -0.25755  -0.22773  -0.19753  -0.18410  -0.15626
 Alpha virt. eigenvalues --   -0.12261  -0.12104  -0.07175  -0.04475  -0.04116
 Alpha virt. eigenvalues --   -0.02344  -0.01267  -0.00251   0.00137   0.03332
 Alpha virt. eigenvalues --    0.04190   0.10412   0.11439   0.11810   0.12692
 Alpha virt. eigenvalues --    0.15695   0.16780   0.19491   0.24343   0.28081
 Alpha virt. eigenvalues --    0.32700   0.35130   0.35955   0.36538   0.37533
 Alpha virt. eigenvalues --    0.38536   0.40977   0.43240   0.43603   0.44111
 Alpha virt. eigenvalues --    0.45772   0.48689   0.52237   0.53549   0.55856
 Alpha virt. eigenvalues --    0.57058   0.58019   0.58913   0.60670   0.62801
 Alpha virt. eigenvalues --    0.62880   0.64989   0.66533   0.67187   0.67752
 Alpha virt. eigenvalues --    0.69189   0.70129   0.71545   0.73646   0.75868
 Alpha virt. eigenvalues --    0.76304   0.77611   0.79170   0.80760   0.83420
 Alpha virt. eigenvalues --    0.86828   0.87437   0.88347   0.89144   0.91844
 Alpha virt. eigenvalues --    0.95373   0.95945   0.97902   1.00282   1.01678
 Alpha virt. eigenvalues --    1.04641   1.06459   1.08118   1.11559   1.20179
 Alpha virt. eigenvalues --    1.21666   1.25283   1.26482   1.27694   1.29529
 Alpha virt. eigenvalues --    1.31176   1.31923   1.34330   1.36850   1.41969
 Alpha virt. eigenvalues --    1.50859   1.52798   1.56490   1.57213   1.60093
 Alpha virt. eigenvalues --    1.61361   1.64266   1.65455   1.68597   1.70406
 Alpha virt. eigenvalues --    1.72610   1.76425   1.78516   1.80416   1.82144
 Alpha virt. eigenvalues --    1.83810   1.88239   1.89718   1.91262   1.93609
 Alpha virt. eigenvalues --    1.94371   1.95454   1.95645   2.04031   2.08497
 Alpha virt. eigenvalues --    2.10168   2.11297   2.19890   2.22469   2.25030
 Alpha virt. eigenvalues --    2.29601   2.34353   2.34956   2.38050   2.42759
 Alpha virt. eigenvalues --    2.44149   2.46241   2.49520   2.54015   2.54825
 Alpha virt. eigenvalues --    2.58097   2.64461   2.82136   3.15357   3.48060
 Alpha virt. eigenvalues --    3.55906   3.68444   3.75928   3.81837   3.89629
 Alpha virt. eigenvalues --    3.92434   3.97186   4.14059   4.15401   4.46168
          Condensed to atoms (all electrons):
               1          2          3          4          5          6
     1  O    8.280054   0.139155  -0.043975   0.000757  -0.000021  -0.000002
     2  S    0.139155  14.045466   0.149089  -0.035531   0.005201  -0.000413
     3  C   -0.043975   0.149089   5.434822   0.496913  -0.032569  -0.033709
     4  C    0.000757  -0.035531   0.496913   4.895855   0.516228  -0.027478
     5  C   -0.000021   0.005201  -0.032569   0.516228   4.849655   0.524695
     6  C   -0.000002  -0.000413  -0.033709  -0.027478   0.524695   4.827370
     7  C    0.000232   0.002297  -0.036494  -0.031976  -0.031755   0.539034
     8  C    0.004200  -0.015196   0.394388  -0.035130  -0.035809  -0.032633
     9  N   -0.041133   0.120715  -0.039131  -0.002083  -0.000083   0.000006
    10  O    0.002226  -0.000488  -0.006221   0.000367   0.000005   0.000003
    11  O   -0.028549   0.367749  -0.036067  -0.000589   0.000306  -0.000002
    12  H    0.000042  -0.000992  -0.046690   0.364558  -0.024971   0.003686
    13  H    0.000000  -0.000096   0.004274  -0.034651   0.367356  -0.034433
    14  H   -0.000000   0.000007   0.000534   0.004114  -0.035046   0.363722
    15  H    0.000001  -0.000094   0.004198   0.000500   0.003675  -0.032131
    16  H    0.002903  -0.000397  -0.076460   0.003010   0.000439   0.004025
    17  H    0.000284  -0.006937   0.000640   0.000004   0.000001  -0.000000
    18  H   -0.002376   0.004780   0.015135  -0.000032  -0.000101  -0.000048
    19  H    0.225710   0.010997  -0.001398   0.000010  -0.000004   0.000003
               7          8          9         10         11         12
     1  O    0.000232   0.004200  -0.041133   0.002226  -0.028549   0.000042
     2  S    0.002297  -0.015196   0.120715  -0.000488   0.367749  -0.000992
     3  C   -0.036494   0.394388  -0.039131  -0.006221  -0.036067  -0.046690
     4  C   -0.031976  -0.035130  -0.002083   0.000367  -0.000589   0.364558
     5  C   -0.031755  -0.035809  -0.000083   0.000005   0.000306  -0.024971
     6  C    0.539034  -0.032633   0.000006   0.000003  -0.000002   0.003686
     7  C    4.813673   0.528811  -0.000058  -0.000019  -0.000022   0.000336
     8  C    0.528811   5.015909  -0.001457  -0.002037   0.001053   0.003435
     9  N   -0.000058  -0.001457   7.038953   0.077081  -0.034317  -0.000085
    10  O   -0.000019  -0.002037   0.077081   8.192083   0.000715   0.000010
    11  O   -0.000022   0.001053  -0.034317   0.000715   8.175328   0.004947
    12  H    0.000336   0.003435  -0.000085   0.000010   0.004947   0.470932
    13  H    0.003641   0.000581   0.000001  -0.000000   0.000000  -0.004302
    14  H   -0.034651   0.004683  -0.000000   0.000000  -0.000000  -0.000110
    15  H    0.366360  -0.036446   0.000001  -0.000001   0.000000   0.000009
    16  H   -0.013951   0.357361  -0.000056  -0.000159   0.000013  -0.000130
    17  H    0.000000  -0.000032   0.310656  -0.020300   0.000537  -0.000021
    18  H    0.000088   0.013858  -0.034921   0.220778   0.000058  -0.000002
    19  H    0.000054   0.002228   0.000222  -0.000209   0.000913  -0.000005
              13         14         15         16         17         18
     1  O    0.000000  -0.000000   0.000001   0.002903   0.000284  -0.002376
     2  S   -0.000096   0.000007  -0.000094  -0.000397  -0.006937   0.004780
     3  C    0.004274   0.000534   0.004198  -0.076460   0.000640   0.015135
     4  C   -0.034651   0.004114   0.000500   0.003010   0.000004  -0.000032
     5  C    0.367356  -0.035046   0.003675   0.000439   0.000001  -0.000101
     6  C   -0.034433   0.363722  -0.032131   0.004025  -0.000000  -0.000048
     7  C    0.003641  -0.034651   0.366360  -0.013951   0.000000   0.000088
     8  C    0.000581   0.004683  -0.036446   0.357361  -0.000032   0.013858
     9  N    0.000001  -0.000000   0.000001  -0.000056   0.310656  -0.034921
    10  O   -0.000000   0.000000  -0.000001  -0.000159  -0.020300   0.220778
    11  O    0.000000  -0.000000   0.000000   0.000013   0.000537   0.000058
    12  H   -0.004302  -0.000110   0.000009  -0.000130  -0.000021  -0.000002
    13  H    0.485535  -0.003892  -0.000128   0.000011  -0.000000   0.000000
    14  H   -0.003892   0.490316  -0.003974  -0.000135   0.000000  -0.000000
    15  H   -0.000128  -0.003974   0.492822  -0.004844  -0.000000  -0.000007
    16  H    0.000011  -0.000135  -0.004844   0.563630  -0.000007   0.001134
    17  H   -0.000000   0.000000  -0.000000  -0.000007   0.270433   0.002958
    18  H    0.000000  -0.000000  -0.000007   0.001134   0.002958   0.355422
    19  H    0.000000  -0.000000  -0.000003   0.006471  -0.000020  -0.000506
              19
     1  O    0.225710
     2  S    0.010997
     3  C   -0.001398
     4  C    0.000010
     5  C   -0.000004
     6  C    0.000003
     7  C    0.000054
     8  C    0.002228
     9  N    0.000222
    10  O   -0.000209
    11  O    0.000913
    12  H   -0.000005
    13  H    0.000000
    14  H   -0.000000
    15  H   -0.000003
    16  H    0.006471
    17  H   -0.000020
    18  H   -0.000506
    19  H    0.268790
 Mulliken charges:
               1
     1  O   -0.539509
     2  S    1.214687
     3  C   -0.147278
     4  C   -0.114845
     5  C   -0.107201
     6  C   -0.101694
     7  C   -0.105601
     8  C   -0.167768
     9  N   -0.394310
    10  O   -0.463836
    11  O   -0.452073
    12  H    0.229355
    13  H    0.216102
    14  H    0.214433
    15  H    0.210063
    16  H    0.157141
    17  H    0.441804
    18  H    0.423782
    19  H    0.486748
 Sum of Mulliken charges =   1.00000
 Mulliken charges with hydrogens summed into heavy atoms:
               1
     1  O   -0.052761
     2  S    1.214687
     3  C   -0.147278
     4  C    0.114509
     5  C    0.108901
     6  C    0.112739
     7  C    0.104462
     8  C   -0.010627
     9  N    0.047493
    10  O   -0.040053
    11  O   -0.452073
 Electronic spatial extent (au):  <R**2>=           1921.8048
 Charge=              1.0000 electrons
 Dipole moment (field-independent basis, Debye):
    X=              2.8613    Y=             -2.9937    Z=              0.3963  Tot=              4.1601
 Quadrupole moment (field-independent basis, Debye-Ang):
   XX=            -41.6682   YY=            -60.8941   ZZ=            -62.0436
   XY=              2.6718   XZ=             -2.4615   YZ=             10.6692
 Traceless Quadrupole moment (field-independent basis, Debye-Ang):
   XX=             13.2004   YY=             -6.0254   ZZ=             -7.1750
   XY=              2.6718   XZ=             -2.4615   YZ=             10.6692
 Octapole moment (field-independent basis, Debye-Ang**2):
  XXX=             37.5406  YYY=            -13.4715  ZZZ=              1.1206  XYY=             11.5472
  XXY=             -1.9211  XXZ=             22.1826  XZZ=            -26.1305  YZZ=             -4.6250
  YYZ=             -5.9346  XYZ=             -2.3041
 Hexadecapole moment (field-independent basis, Debye-Ang**3):
 XXXX=          -1220.1021 YYYY=           -462.8751 ZZZZ=           -287.9124 XXXY=             -9.8990
 XXXZ=            -33.8695 YYYX=             14.3262 YYYZ=             30.4548 ZZZX=            -19.0871
 ZZZY=             18.4877 XXYY=           -319.6800 XXZZ=           -276.2948 YYZZ=           -122.5876
 XXYZ=             44.2173 YYXZ=             15.5505 ZZXY=              6.7989
 N-N= 7.439699642776D+02 E-N=-3.613764299542D+03  KE= 9.048909039113D+02
 No NMR shielding tensors so no spin-rotation constants.
 Leave Link  601 at Mon Oct 14 01:40:47 2019, MaxMem= 10737418240 cpu:               3.0 elap:               0.2
 (Enter /apps/cent7/gaussian/g16-A.03/g16-haswell/g16/l701.exe)
 ... and contract with generalized density number  0.
 Compute integral first derivatives.
 Leave Link  701 at Mon Oct 14 01:40:47 2019, MaxMem= 10737418240 cpu:               2.6 elap:               0.2
 (Enter /apps/cent7/gaussian/g16-A.03/g16-haswell/g16/l702.exe)
 L702 exits ... SP integral derivatives will be done elsewhere.
 Leave Link  702 at Mon Oct 14 01:40:47 2019, MaxMem= 10737418240 cpu:               0.5 elap:               0.0
 (Enter /apps/cent7/gaussian/g16-A.03/g16-haswell/g16/l703.exe)
 Integral derivatives from FoFJK, PRISM(SPDF).
 Compute integral first derivatives, UseDBF=F ICtDFT=           0.
 Calling FoFJK, ICntrl=      2127 FMM=F ISym2X=0 I1Cent= 0 IOpClX= 0 NMat=1 NMatS=1 NMatT=0.
 FoFJK:  IHMeth= 1 ICntrl=    2127 DoSepK=F KAlg= 0 I1Cent=           0 FoldK=F
 IRaf=         0 NMat=       1 IRICut=       1 DoRegI=T DoRafI=F ISym2E= 0 IDoP0=0 IntGTp=1.
 FoFCou: FMM=F IPFlag=           0 FMFlag=      100000 FMFlg1=         800
         NFxFlg=           0 DoJE=F BraDBF=F KetDBF=F FulRan=T
         wScrn=  0.000000 ICntrl=      2127 IOpCl=  0 I1Cent=           0 NGrid=           0
         NMat0=    1 NMatS0=      1 NMatT0=    0 NMatD0=    1 NMtDS0=    0 NMtDT0=    0
 Symmetry not used in FoFCou.
 Leave Link  703 at Mon Oct 14 01:40:49 2019, MaxMem= 10737418240 cpu:              23.5 elap:               1.0
 (Enter /apps/cent7/gaussian/g16-A.03/g16-haswell/g16/l716.exe)
 Dipole        = 1.12572377D+00-1.17780233D+00 1.55906566D-01
 ***** Axes restored to original set *****
 -------------------------------------------------------------------
 Center     Atomic                   Forces (Hartrees/Bohr)
 Number     Number              X              Y              Z
 -------------------------------------------------------------------
      1        8          -0.009778990   -0.013944537    0.000231045
      2       16          -0.121429409   -0.115159914    0.006894683
      3        6           0.023774075    0.011544787    0.005644550
      4        6          -0.006444514   -0.010868951   -0.000917856
      5        6          -0.003871407    0.009313798   -0.007330207
      6        6          -0.006013242    0.001200587   -0.004324725
      7        6          -0.005857282   -0.003512819   -0.002653029
      8        6           0.003753730    0.003092236   -0.000306766
      9        7          -0.002913518    0.028373425    0.084249670
     10        8           0.020914157    0.023882283   -0.049055998
     11        8           0.089008529    0.062178014   -0.042908499
     12        1           0.001182275    0.003006507    0.000802670
     13        1          -0.002775635    0.002391531   -0.002702127
     14        1          -0.002598857    0.000577951   -0.002011250
     15        1          -0.003393171   -0.001860545   -0.001155755
     16        1           0.003322144    0.001473048    0.003480057
     17        1          -0.012379228   -0.006095072    0.005507328
     18        1           0.019004835   -0.008426579    0.007832899
     19        1           0.016495506    0.012834249   -0.001276691
 -------------------------------------------------------------------
 Cartesian Forces:  Max     0.121429409 RMS     0.031264994
 Leave Link  716 at Mon Oct 14 01:40:49 2019, MaxMem= 10737418240 cpu:               0.6 elap:               0.1
 (Enter /apps/cent7/gaussian/g16-A.03/g16-haswell/g16/l103.exe)

 GradGradGradGradGradGradGradGradGradGradGradGradGradGradGradGradGradGrad
 Berny optimization.
 FormGI is forming the generalized inverse of G from B-inverse, IUseBI=4.
 Internal  Forces:  Max     0.116739942 RMS     0.017792083
 Search for a local minimum.
 Step number   1 out of a maximum of   99
 All quantities printed in internal units (Hartrees-Bohrs-Radians)
 RMS Force = .17792D-01 SwitMx=.10000D-02 MixMth= 1
 Mixed Optimization -- RFO/linear search
 Second derivative matrix not updated -- first step.
 ITU=  0
     Eigenvalues ---    0.00521   0.00751   0.00760   0.01470   0.01919
     Eigenvalues ---    0.01950   0.01968   0.01974   0.01988   0.01999
     Eigenvalues ---    0.02001   0.02001   0.02002   0.02562   0.07635
     Eigenvalues ---    0.09000   0.11665   0.16000   0.16000   0.16000
     Eigenvalues ---    0.16000   0.16000   0.16000   0.16000   0.16000
     Eigenvalues ---    0.19712   0.21686   0.22000   0.22000   0.22000
     Eigenvalues ---    0.23479   0.24999   0.28585   0.29667   0.34808
     Eigenvalues ---    0.34808   0.34810   0.34811   0.34813   0.40462
     Eigenvalues ---    0.40494   0.43975   0.44225   0.44511   0.44545
     Eigenvalues ---    0.45976   0.50396   0.50432   0.54430   0.55460
     Eigenvalues ---    0.55473
 RFO step:  Lambda=-7.00229742D-02 EMin= 5.20610167D-03
 Linear search not attempted -- first point.
 Maximum step size (   0.300) exceeded in Quadratic search.
    -- Step size scaled by   0.749
 Iteration  1 RMS(Cart)=  0.07283760 RMS(Int)=  0.00436672
 Iteration  2 RMS(Cart)=  0.00568567 RMS(Int)=  0.00025190
 Iteration  3 RMS(Cart)=  0.00003043 RMS(Int)=  0.00025073
 Iteration  4 RMS(Cart)=  0.00000000 RMS(Int)=  0.00025073
 ITry= 1 IFail=0 DXMaxC= 3.44D-01 DCOld= 1.00D+10 DXMaxT= 3.00D-01 DXLimC= 3.00D+00 Rises=F
 Variable       Old X    -DE/DX   Delta X   Delta X   Delta X     New X
                                 (Linear)    (Quad)   (Total)
    R1        3.03168  -0.00287   0.00000  -0.00374  -0.00374   3.02794
    R2        1.81414   0.02072   0.00000   0.02483   0.02483   1.83896
    R3        3.34577  -0.00722   0.00000  -0.01519  -0.01519   3.33058
    R4        3.32332  -0.05250   0.00000  -0.10717  -0.10717   3.21615
    R5        3.03132  -0.11674   0.00000  -0.15216  -0.15216   2.87917
    R6        2.66640  -0.00952   0.00000  -0.01377  -0.01376   2.65264
    R7        2.66637  -0.00191   0.00000  -0.00245  -0.00243   2.66394
    R8        2.65866  -0.01619   0.00000  -0.02365  -0.02366   2.63501
    R9        2.05980  -0.00307   0.00000  -0.00550  -0.00550   2.05430
   R10        2.65814  -0.00489   0.00000  -0.00746  -0.00748   2.65066
   R11        2.05983  -0.00384   0.00000  -0.00688  -0.00688   2.05295
   R12        2.65790  -0.00703   0.00000  -0.01045  -0.01047   2.64743
   R13        2.05987  -0.00332   0.00000  -0.00595  -0.00595   2.05393
   R14        2.65824  -0.01606   0.00000  -0.02321  -0.02321   2.63503
   R15        2.05985  -0.00370   0.00000  -0.00662  -0.00662   2.05323
   R16        2.05989  -0.00110   0.00000  -0.00197  -0.00197   2.05792
   R17        2.55642   0.05363   0.00000   0.06535   0.06535   2.62177
   R18        1.90859   0.00555   0.00000   0.00784   0.00784   1.91642
   R19        1.81426   0.01317   0.00000   0.01578   0.01578   1.83004
    A1        2.09440  -0.00546   0.00000  -0.01778  -0.01778   2.07661
    A2        1.93691  -0.00729   0.00000  -0.03274  -0.03330   1.90360
    A3        1.89437  -0.00043   0.00000  -0.01225  -0.01317   1.88119
    A4        1.89400   0.00253   0.00000   0.01515   0.01542   1.90943
    A5        1.90977  -0.00527   0.00000  -0.02005  -0.02074   1.88904
    A6        1.93437   0.00609   0.00000   0.02635   0.02658   1.96095
    A7        1.89345   0.00458   0.00000   0.02430   0.02438   1.91784
    A8        2.10064  -0.01835   0.00000  -0.04367  -0.04369   2.05695
    A9        2.09681   0.00517   0.00000   0.01135   0.01133   2.10814
   A10        2.08572   0.01318   0.00000   0.03232   0.03236   2.11808
   A11        2.09798  -0.01024   0.00000  -0.02565  -0.02564   2.07234
   A12        2.09499   0.00469   0.00000   0.01143   0.01142   2.10641
   A13        2.09021   0.00555   0.00000   0.01422   0.01421   2.10442
   A14        2.09475   0.00229   0.00000   0.00562   0.00560   2.10034
   A15        2.09439  -0.00364   0.00000  -0.01094  -0.01093   2.08346
   A16        2.09405   0.00135   0.00000   0.00532   0.00533   2.09938
   A17        2.09491   0.00399   0.00000   0.00978   0.00974   2.10465
   A18        2.09421  -0.00167   0.00000  -0.00383  -0.00381   2.09040
   A19        2.09406  -0.00232   0.00000  -0.00595  -0.00594   2.08813
   A20        2.09435  -0.00144   0.00000  -0.00338  -0.00340   2.09096
   A21        2.09441   0.00240   0.00000   0.00715   0.00716   2.10157
   A22        2.09442  -0.00096   0.00000  -0.00377  -0.00376   2.09066
   A23        2.09862  -0.00778   0.00000  -0.01868  -0.01866   2.07996
   A24        2.09499   0.00867   0.00000   0.02491   0.02489   2.11988
   A25        2.08958  -0.00089   0.00000  -0.00623  -0.00625   2.08334
   A26        1.87697   0.05907   0.00000   0.15246   0.15230   2.02927
   A27        2.37915  -0.04261   0.00000  -0.11880  -0.11893   2.26022
   A28        2.02706  -0.01646   0.00000  -0.03367  -0.03385   1.99321
   A29        1.91059   0.00633   0.00000   0.02060   0.02060   1.93118
    D1        0.65436  -0.00516   0.00000  -0.02387  -0.02359   0.63077
    D2       -1.44488   0.00609   0.00000   0.02874   0.02848  -1.41640
    D3        2.78384  -0.00054   0.00000  -0.00182  -0.00184   2.78200
    D4        2.62214   0.00383   0.00000   0.02327   0.02289   2.64503
    D5       -0.52595   0.00393   0.00000   0.02394   0.02356  -0.50239
    D6       -1.57098  -0.00465   0.00000  -0.02529  -0.02498  -1.59596
    D7        1.56411  -0.00456   0.00000  -0.02462  -0.02431   1.53980
    D8        0.51637   0.00144   0.00000   0.00837   0.00844   0.52481
    D9       -2.63172   0.00154   0.00000   0.00904   0.00911  -2.62261
   D10        1.11167  -0.00548   0.00000  -0.02342  -0.02299   1.08868
   D11       -2.02981  -0.00176   0.00000   0.01242   0.01223  -2.01758
   D12       -1.00434   0.00689   0.00000   0.03626   0.03644  -0.96790
   D13        2.13736   0.01061   0.00000   0.07210   0.07165   2.20902
   D14       -3.11670  -0.00016   0.00000   0.00131   0.00164  -3.11506
   D15        0.02501   0.00355   0.00000   0.03715   0.03685   0.06186
   D16       -3.13776   0.00006   0.00000   0.00039   0.00040  -3.13737
   D17        0.00388  -0.00062   0.00000  -0.00527  -0.00526  -0.00138
   D18        0.01029  -0.00001   0.00000  -0.00020  -0.00020   0.01009
   D19       -3.13126  -0.00068   0.00000  -0.00586  -0.00586  -3.13711
   D20        3.13828   0.00022   0.00000   0.00149   0.00147   3.13975
   D21       -0.00319   0.00079   0.00000   0.00634   0.00637   0.00319
   D22       -0.00975   0.00020   0.00000   0.00188   0.00188  -0.00788
   D23        3.13196   0.00077   0.00000   0.00673   0.00678   3.13874
   D24       -0.00505  -0.00015   0.00000  -0.00148  -0.00149  -0.00653
   D25        3.13646  -0.00033   0.00000  -0.00287  -0.00286   3.13359
   D26        3.13650   0.00052   0.00000   0.00417   0.00417   3.14066
   D27       -0.00519   0.00034   0.00000   0.00277   0.00279  -0.00240
   D28       -0.00081   0.00021   0.00000   0.00171   0.00172   0.00092
   D29        3.14083  -0.00004   0.00000  -0.00025  -0.00023   3.14061
   D30        3.14088   0.00039   0.00000   0.00310   0.00311  -3.13920
   D31       -0.00067   0.00014   0.00000   0.00115   0.00116   0.00049
   D32        0.00134  -0.00001   0.00000   0.00001   0.00004   0.00138
   D33       -3.14030  -0.00037   0.00000  -0.00294  -0.00292   3.13997
   D34       -3.14030   0.00024   0.00000   0.00196   0.00198  -3.13832
   D35        0.00125  -0.00012   0.00000  -0.00098  -0.00097   0.00028
   D36        0.00398  -0.00025   0.00000  -0.00195  -0.00194   0.00204
   D37       -3.13774  -0.00082   0.00000  -0.00678  -0.00673   3.13871
   D38       -3.13757   0.00010   0.00000   0.00100   0.00099  -3.13658
   D39        0.00390  -0.00046   0.00000  -0.00384  -0.00380   0.00010
   D40        0.43378   0.01644   0.00000   0.13972   0.14082   0.57460
   D41       -2.70790   0.01358   0.00000   0.11213   0.11103  -2.59687
         Item               Value     Threshold  Converged?
 Maximum Force            0.116740     0.000450     NO 
 RMS     Force            0.017792     0.000300     NO 
 Maximum Displacement     0.343869     0.001800     NO 
 RMS     Displacement     0.073748     0.001200     NO 
 Predicted change in Energy=-3.749155D-02
 Lowest energy point so far.  Saving SCF results.
 GradGradGradGradGradGradGradGradGradGradGradGradGradGradGradGradGradGrad

 Leave Link  103 at Mon Oct 14 01:40:49 2019, MaxMem= 10737418240 cpu:               1.0 elap:               0.1
 (Enter /apps/cent7/gaussian/g16-A.03/g16-haswell/g16/l202.exe)
                          Input orientation:                          
 ---------------------------------------------------------------------
 Center     Atomic      Atomic             Coordinates (Angstroms)
 Number     Number       Type             X           Y           Z
 ---------------------------------------------------------------------
      1          8           0       -2.358648    2.495806   -0.786951
      2         16           0       -1.926250    0.956907   -0.676313
      3          6           0       -0.479808    0.835676    0.323388
      4          6           0       -0.277365   -0.352640    1.042655
      5          6           0        0.858445   -0.466329    1.843479
      6          6           0        1.781164    0.587474    1.918104
      7          6           0        1.575646    1.767746    1.191873
      8          6           0        0.443601    1.898848    0.388361
      9          7           0       -1.539071    0.411923   -2.241430
     10          8           0       -0.472733    1.043321   -2.865196
     11          8           0       -3.087085    0.143967   -0.116923
     12          1           0       -0.994515   -1.167314    0.981337
     13          1           0        1.021552   -1.378540    2.410471
     14          1           0        2.662904    0.489302    2.545980
     15          1           0        2.291499    2.582826    1.252974
     16          1           0        0.289543    2.820440   -0.170980
     17          1           0       -1.992131   -0.296494   -2.808297
     18          1           0        0.194268    1.309193   -2.215387
     19          1           0       -1.666199    3.178057   -0.832169
 ---------------------------------------------------------------------
                    Distance matrix (angstroms):
                    1          2          3          4          5
     1  O    0.000000
     2  S    1.602317   0.000000
     3  C    2.742066   1.762468   0.000000
     4  C    3.974021   2.718195   1.403717   0.000000
     5  C    5.103244   4.016152   2.407658   1.394385   0.000000
     6  C    5.300669   4.540088   2.777898   2.426472   1.402668
     7  C    4.463686   4.051032   2.418246   2.819921   2.435171
     8  C    3.096824   2.763509   1.409695   2.452976   2.807762
     9  N    2.670166   1.701913   2.807116   3.600232   4.817250
    10  O    3.159983   2.628952   3.195346   4.154296   5.120811
    11  O    2.551608   1.523589   2.733171   3.079896   4.447791
    12  H    4.290239   2.851008   2.170205   1.087087   2.160586
    13  H    6.054735   4.865396   3.393044   2.147225   1.086376
    14  H    6.352202   5.626913   3.864780   3.407937   2.159354
    15  H    5.078654   4.914791   3.405408   3.906438   3.420480
    16  H    2.738197   2.939023   2.185312   3.444231   3.896735
    17  H    3.466571   2.474007   3.657374   4.215852   5.458356
    18  H    3.156875   2.643757   2.669077   3.687677   4.479732
    19  H    0.973137   2.241747   2.868725   4.231979   5.178270
                    6          7          8          9         10
     6  C    0.000000
     7  C    1.400960   0.000000
     8  C    2.418447   1.394398   0.000000
     9  N    5.325082   4.829834   3.613550   0.000000
    10  O    5.307335   4.602224   3.486722   1.387380   0.000000
    11  O    5.295080   5.107902   3.975004   2.642287   3.898292
    12  H    3.414850   3.906997   3.438190   3.629981   4.467100
    13  H    2.164405   3.419227   3.894128   5.603814   5.994244
    14  H    1.086891   2.156421   3.401094   6.370390   6.278533
    15  H    2.164317   1.086524   2.151768   5.621116   5.193301
    16  H    3.402255   2.149324   1.089003   3.664908   3.316326
    17  H    6.112120   5.743821   4.579404   1.014128   2.026551
    18  H    4.486074   3.705118   2.681299   1.951982   0.968416
    19  H    5.114629   4.073732   2.752695   3.107037   3.180355
                   11         12         13         14         15
    11  O    0.000000
    12  H    2.702680   0.000000
    13  H    5.058324   2.480235   0.000000
    14  H    6.346075   4.309199   2.490228   0.000000
    15  H    6.062492   4.993518   4.317984   2.488503   0.000000
    16  H    4.309065   4.344976   4.983087   4.295220   2.468184
    17  H    2.938780   4.014336   6.122797   7.138284   6.567640
    18  H    4.065535   4.214894   5.413582   5.425587   4.248534
    19  H    3.425813   4.756282   6.204942   6.114117   4.512815
                   16         17         18         19
    16  H    0.000000
    17  H    4.677259   0.000000
    18  H    2.544119   2.776709   0.000000
    19  H    2.095230   4.010464   2.977798   0.000000
 Stoichiometry    C6H8NO3S(1+)
 Framework group  C1[X(C6H8NO3S)]
 Deg. of freedom    51
 Full point group                 C1      NOp   1
 RotChk:  IX=2 Diff= 3.95D-02
 Largest Abelian subgroup         C1      NOp   1
 Largest concise Abelian subgroup C1      NOp   1
                         Standard orientation:                         
 ---------------------------------------------------------------------
 Center     Atomic      Atomic             Coordinates (Angstroms)
 Number     Number       Type             X           Y           Z
 ---------------------------------------------------------------------
      1          8           0       -1.779981   -0.382680   -1.550363
      2         16           0       -1.242456    0.395868   -0.257169
      3          6           0        0.499702    0.162706   -0.127506
      4          6           0        1.251633    1.170450    0.496572
      5          6           0        2.632222    1.007268    0.604540
      6          6           0        3.250441   -0.148039    0.103993
      7          6           0        2.492309   -1.152586   -0.511484
      8          6           0        1.110937   -1.003941   -0.630068
      9          7           0       -1.976267   -0.300747    1.111319
     10          8           0       -1.689326   -1.637249    1.348487
     11          8           0       -1.624287    1.867435   -0.357279
     12          1           0        0.768461    2.063895    0.883947
     13          1           0        3.225148    1.784190    1.078928
     14          1           0        4.327381   -0.265242    0.192279
     15          1           0        2.974353   -2.045654   -0.899553
     16          1           0        0.528882   -1.787978   -1.112174
     17          1           0       -2.622910    0.109938    1.775884
     18          1           0       -0.788280   -1.848856    1.063583
     19          1           0       -1.374578   -1.234143   -1.790477
 ---------------------------------------------------------------------
 Rotational constants (GHZ):           1.6812591           0.6949187           0.6338419
 Leave Link  202 at Mon Oct 14 01:40:49 2019, MaxMem= 10737418240 cpu:               0.3 elap:               0.0
 (Enter /apps/cent7/gaussian/g16-A.03/g16-haswell/g16/l301.exe)
 Standard basis: 6-31G(d) (6D, 7F)
 Ernie: Thresh=  0.10000D-02 Tol=  0.10000D-05 Strict=F.
 There are   185 symmetry adapted cartesian basis functions of A   symmetry.
 There are   185 symmetry adapted basis functions of A   symmetry.
   185 basis functions,   364 primitive gaussians,   185 cartesian basis functions
    45 alpha electrons       45 beta electrons
       nuclear repulsion energy       749.2530740060 Hartrees.
 IExCor=  402 DFT=T Ex+Corr=B3LYP ExCW=0 ScaHFX=  0.200000
 ScaDFX=  0.800000  0.720000  1.000000  0.810000 ScalE2=  1.000000  1.000000
 IRadAn=      5 IRanWt=     -1 IRanGd=            0 ICorTp=0 IEmpDi=  4
 NAtoms=   19 NActive=   19 NUniq=   19 SFac= 1.00D+00 NAtFMM=   60 NAOKFM=F Big=F
 Integral buffers will be    131072 words long.
 Raffenetti 2 integral format.
 Two-electron integral symmetry is turned on.
 Leave Link  301 at Mon Oct 14 01:40:49 2019, MaxMem= 10737418240 cpu:               1.2 elap:               0.1
 (Enter /apps/cent7/gaussian/g16-A.03/g16-haswell/g16/l302.exe)
 NPDir=0 NMtPBC=     1 NCelOv=     1 NCel=       1 NClECP=     1 NCelD=      1
         NCelK=      1 NCelE2=     1 NClLst=     1 CellRange=     0.0.
 One-electron integrals computed using PRISM.
 One-electron integral symmetry used in STVInt
 NBasis=   185 RedAO= T EigKep=  5.21D-04  NBF=   185
 NBsUse=   185 1.00D-06 EigRej= -1.00D+00 NBFU=   185
 Precomputing XC quadrature grid using
 IXCGrd= 4 IRadAn=           5 IRanWt=          -1 IRanGd=           0 AccXCQ= 0.00D+00.
 Generated NRdTot=       0 NPtTot=           0 NUsed=           0 NTot=          32
 NSgBfM=   185   185   185   185   185 MxSgAt=    19 MxSgA2=    19.
 Leave Link  302 at Mon Oct 14 01:40:49 2019, MaxMem= 10737418240 cpu:               3.3 elap:               0.2
 (Enter /apps/cent7/gaussian/g16-A.03/g16-haswell/g16/l303.exe)
 DipDrv:  MaxL=1.
 Leave Link  303 at Mon Oct 14 01:40:49 2019, MaxMem= 10737418240 cpu:               0.6 elap:               0.0
 (Enter /apps/cent7/gaussian/g16-A.03/g16-haswell/g16/l401.exe)
 Initial guess from the checkpoint file:  "29_p.chk"
 B after Tr=     0.000000    0.000000   -0.000000
         Rot=    0.999872   -0.015862    0.002272   -0.000082 Ang=  -1.84 deg.
 Guess basis will be translated and rotated to current coordinates.
 JPrj=2 DoOrth=T DoCkMO=T.
 Generating alternative initial guess.
 ExpMin= 1.17D-01 ExpMax= 2.19D+04 ExpMxC= 3.30D+03 IAcc=2 IRadAn=         4 AccDes= 0.00D+00
 Harris functional with IExCor=  402 and IRadAn=       4 diagonalized for initial guess.
 HarFok:  IExCor=  402 AccDes= 0.00D+00 IRadAn=         4 IDoV= 1 UseB2=F ITyADJ=14
 ICtDFT=  3500011 ScaDFX=  1.000000  1.000000  1.000000  1.000000
 FoFCou: FMM=F IPFlag=           0 FMFlag=      100000 FMFlg1=           0
         NFxFlg=           0 DoJE=T BraDBF=F KetDBF=T FulRan=T
         wScrn=  0.000000 ICntrl=       500 IOpCl=  0 I1Cent=   200000004 NGrid=           0
         NMat0=    1 NMatS0=      1 NMatT0=    0 NMatD0=    1 NMtDS0=    0 NMtDT0=    0
 Petite list used in FoFCou.
 Harris En= -911.720900162232    
 Leave Link  401 at Mon Oct 14 01:40:49 2019, MaxMem= 10737418240 cpu:               6.8 elap:               0.3
 (Enter /apps/cent7/gaussian/g16-A.03/g16-haswell/g16/l502.exe)
 Integral symmetry usage will be decided dynamically.
 Closed shell SCF:
 Using DIIS extrapolation, IDIIS=  1040.
 NGot= 10737418240 LenX= 10737343233 LenY= 10737308567
 Requested convergence on RMS density matrix=1.00D-08 within 128 cycles.
 Requested convergence on MAX density matrix=1.00D-06.
 Requested convergence on             energy=1.00D-06.
 No special actions if energy rises.
 Fock matrices will be formed incrementally for  20 cycles.
 Integral accuracy reduced to 1.0D-05 until final iterations.

 Cycle   1  Pass 0  IDiag  1:
 FoFJK:  IHMeth= 1 ICntrl=       0 DoSepK=F KAlg= 0 I1Cent=           0 FoldK=F
 IRaf= 920000000 NMat=       1 IRICut=       1 DoRegI=T DoRafI=F ISym2E= 0 IDoP0=0 IntGTp=1.
 FoFCou: FMM=F IPFlag=           0 FMFlag=      100000 FMFlg1=           0
         NFxFlg=           0 DoJE=F BraDBF=F KetDBF=F FulRan=T
         wScrn=  0.000000 ICntrl=         0 IOpCl=  0 I1Cent=           0 NGrid=           0
         NMat0=    1 NMatS0=      1 NMatT0=    0 NMatD0=    1 NMtDS0=    0 NMtDT0=    0
 Symmetry not used in FoFCou.
 E= -911.582762724546    
 DIIS: error= 4.29D-03 at cycle   1 NSaved=   1.
 NSaved= 1 IEnMin= 1 EnMin= -911.582762724546     IErMin= 1 ErrMin= 4.29D-03
 ErrMax= 4.29D-03  0.00D+00 EMaxC= 1.00D-01 BMatC= 1.12D-02 BMatP= 1.12D-02
 IDIUse=3 WtCom= 9.57D-01 WtEn= 4.29D-02
 Coeff-Com:  0.100D+01
 Coeff-En:   0.100D+01
 Coeff:      0.100D+01
 Gap=     1.843 Goal=   None    Shift=    0.000
 GapD=    1.843 DampG=2.000 DampE=1.000 DampFc=2.0000 IDamp=-1.
 RMSDP=1.21D-03 MaxDP=3.29D-02              OVMax= 3.22D-02

 Cycle   2  Pass 0  IDiag  1:
 RMSU=  1.20D-03    CP:  9.96D-01
 E= -911.598164213663     Delta-E=       -0.015401489117 Rises=F Damp=F
 DIIS: error= 3.67D-03 at cycle   2 NSaved=   2.
 NSaved= 2 IEnMin= 2 EnMin= -911.598164213663     IErMin= 2 ErrMin= 3.67D-03
 ErrMax= 3.67D-03  0.00D+00 EMaxC= 1.00D-01 BMatC= 4.33D-03 BMatP= 1.12D-02
 IDIUse=3 WtCom= 9.63D-01 WtEn= 3.67D-02
 Coeff-Com:  0.315D+00 0.685D+00
 Coeff-En:   0.000D+00 0.100D+01
 Coeff:      0.303D+00 0.697D+00
 Gap=     0.191 Goal=   None    Shift=    0.000
 RMSDP=7.76D-04 MaxDP=2.78D-02 DE=-1.54D-02 OVMax= 3.94D-02

 Cycle   3  Pass 0  IDiag  1:
 RMSU=  7.16D-04    CP:  9.98D-01  7.58D-01
 E= -911.595742827515     Delta-E=        0.002421386148 Rises=F Damp=F
 DIIS: error= 5.08D-03 at cycle   3 NSaved=   3.
 NSaved= 3 IEnMin= 2 EnMin= -911.598164213663     IErMin= 2 ErrMin= 3.67D-03
 ErrMax= 5.08D-03  0.00D+00 EMaxC= 1.00D-01 BMatC= 7.39D-03 BMatP= 4.33D-03
 IDIUse=3 WtCom= 1.23D-01 WtEn= 8.77D-01
 Coeff-Com: -0.181D-01 0.575D+00 0.443D+00
 Coeff-En:   0.000D+00 0.597D+00 0.403D+00
 Coeff:     -0.222D-02 0.595D+00 0.408D+00
 Gap=     0.189 Goal=   None    Shift=    0.000
 RMSDP=4.45D-04 MaxDP=1.50D-02 DE= 2.42D-03 OVMax= 2.26D-02

 Cycle   4  Pass 0  IDiag  1:
 RMSU=  1.22D-04    CP:  9.96D-01  9.32D-01  4.84D-01
 E= -911.601539713800     Delta-E=       -0.005796886285 Rises=F Damp=F
 DIIS: error= 5.46D-04 at cycle   4 NSaved=   4.
 NSaved= 4 IEnMin= 4 EnMin= -911.601539713800     IErMin= 4 ErrMin= 5.46D-04
 ErrMax= 5.46D-04  0.00D+00 EMaxC= 1.00D-01 BMatC= 1.56D-04 BMatP= 4.33D-03
 IDIUse=3 WtCom= 9.95D-01 WtEn= 5.46D-03
 Coeff-Com: -0.242D-01 0.311D+00 0.218D+00 0.495D+00
 Coeff-En:   0.000D+00 0.000D+00 0.000D+00 0.100D+01
 Coeff:     -0.241D-01 0.309D+00 0.217D+00 0.498D+00
 Gap=     0.188 Goal=   None    Shift=    0.000
 RMSDP=7.23D-05 MaxDP=2.68D-03 DE=-5.80D-03 OVMax= 2.71D-03

 Cycle   5  Pass 0  IDiag  1:
 RMSU=  4.48D-05    CP:  9.97D-01  9.46D-01  4.63D-01  5.81D-01
 E= -911.601651474112     Delta-E=       -0.000111760312 Rises=F Damp=F
 DIIS: error= 2.03D-04 at cycle   5 NSaved=   5.
 NSaved= 5 IEnMin= 5 EnMin= -911.601651474112     IErMin= 5 ErrMin= 2.03D-04
 ErrMax= 2.03D-04  0.00D+00 EMaxC= 1.00D-01 BMatC= 1.93D-05 BMatP= 1.56D-04
 IDIUse=3 WtCom= 9.98D-01 WtEn= 2.03D-03
 Coeff-Com: -0.114D-01 0.981D-01 0.672D-01 0.291D+00 0.555D+00
 Coeff-En:   0.000D+00 0.000D+00 0.000D+00 0.613D-01 0.939D+00
 Coeff:     -0.114D-01 0.979D-01 0.671D-01 0.291D+00 0.556D+00
 Gap=     0.188 Goal=   None    Shift=    0.000
 RMSDP=2.34D-05 MaxDP=6.49D-04 DE=-1.12D-04 OVMax= 8.20D-04

 Cycle   6  Pass 0  IDiag  1:
 RMSU=  1.58D-05    CP:  9.97D-01  9.49D-01  4.67D-01  6.42D-01  6.64D-01
 E= -911.601664932516     Delta-E=       -0.000013458405 Rises=F Damp=F
 DIIS: error= 4.82D-05 at cycle   6 NSaved=   6.
 NSaved= 6 IEnMin= 6 EnMin= -911.601664932516     IErMin= 6 ErrMin= 4.82D-05
 ErrMax= 4.82D-05  0.00D+00 EMaxC= 1.00D-01 BMatC= 1.17D-06 BMatP= 1.93D-05
 IDIUse=1 WtCom= 1.00D+00 WtEn= 0.00D+00
 Coeff-Com: -0.367D-02 0.251D-01 0.171D-01 0.109D+00 0.275D+00 0.578D+00
 Coeff:     -0.367D-02 0.251D-01 0.171D-01 0.109D+00 0.275D+00 0.578D+00
 Gap=     0.188 Goal=   None    Shift=    0.000
 RMSDP=8.80D-06 MaxDP=2.27D-04 DE=-1.35D-05 OVMax= 4.05D-04

 Initial convergence to 1.0D-05 achieved.  Increase integral accuracy.
 Cycle   7  Pass 1  IDiag  1:
 E= -911.601640214501     Delta-E=        0.000024718015 Rises=F Damp=F
 DIIS: error= 2.15D-05 at cycle   1 NSaved=   1.
 NSaved= 1 IEnMin= 1 EnMin= -911.601640214501     IErMin= 1 ErrMin= 2.15D-05
 ErrMax= 2.15D-05  0.00D+00 EMaxC= 1.00D-01 BMatC= 2.92D-07 BMatP= 2.92D-07
 IDIUse=1 WtCom= 1.00D+00 WtEn= 0.00D+00
 Coeff-Com:  0.100D+01
 Coeff:      0.100D+01
 Gap=     0.188 Goal=   None    Shift=    0.000
 RMSDP=8.80D-06 MaxDP=2.27D-04 DE= 2.47D-05 OVMax= 3.60D-04

 Cycle   8  Pass 1  IDiag  1:
 RMSU=  1.11D-05    CP:  1.00D+00
 E= -911.601639600985     Delta-E=        0.000000613516 Rises=F Damp=F
 DIIS: error= 4.21D-05 at cycle   2 NSaved=   2.
 NSaved= 2 IEnMin= 1 EnMin= -911.601640214501     IErMin= 1 ErrMin= 2.15D-05
 ErrMax= 4.21D-05  0.00D+00 EMaxC= 1.00D-01 BMatC= 9.71D-07 BMatP= 2.92D-07
 IDIUse=1 WtCom= 1.00D+00 WtEn= 0.00D+00
 Coeff-Com:  0.651D+00 0.349D+00
 Coeff:      0.651D+00 0.349D+00
 Gap=     0.188 Goal=   None    Shift=    0.000
 RMSDP=5.61D-06 MaxDP=1.44D-04 DE= 6.14D-07 OVMax= 2.50D-04

[...]
 ,0.55231921,-0.00049988,0.00095036,-0.00119926,-0.00048651,-0.00152903
 ,0.00901490,0.01770662,0.01114321,0.00824325,0.01310570,-0.10117945,0.
 05265633,0.16462910,0.48024564,-0.00200153,0.00118601,-0.00214793,0.00
 296699,0.00679965,0.00187692,-0.01033507,0.03088843,-0.03591450,-0.148
 13259,0.02148496,-0.20300364,0.14754304,-0.25277954,0.52888157,0.00013
 300,-0.00033895,0.00018271,-0.00078349,-0.00128613,0.00165522,-0.01697
 360,-0.01866144,0.01312791,-0.04217198,-0.00211899,-0.03532061,-0.2456
 3873,-0.14048704,0.01217043,0.60242683,0.00036600,-0.00044014,0.000484
 34,-0.00031966,-0.00284505,0.00191267,-0.01923474,-0.03575496,0.015973
 85,-0.02713278,0.02734438,-0.04531506,-0.10252346,-0.18307158,0.050409
 27,0.15758652,0.44665051,0.00004898,-0.00013226,0.00000764,0.00022972,
 0.00132152,-0.00182530,0.01416106,0.01617129,-0.01473570,-0.00799636,-
 0.02557466,0.02787234,-0.02971318,0.02060228,-0.11021274,0.18510403,-0
 .20717650,0.51993549,0.00046374,0.00048112,0.00029754,0.00132900,-0.00
 728347,0.00284907,-0.04527889,-0.02773744,-0.01060628,-0.01042930,0.01
 472282,-0.01988046,0.02459186,-0.01434941,0.02957723,-0.11934567,-0.04
 994905,0.01169589,0.61239260,0.00047814,0.00050454,-0.00042402,-0.0107
 4319,0.00045434,-0.00045852,0.00265439,0.02362986,-0.01553596,0.009860
 62,-0.01409644,0.01676859,-0.03557238,-0.02581704,0.00835639,-0.011701
 32,-0.20108030,0.14151796,0.20538011,0.46698093,-0.00140333,0.00057319
 ,-0.00118555,0.00767223,0.00043026,0.01054945,-0.04431822,-0.03987162,
 0.01570783,-0.01418483,0.02065062,-0.04002225,0.05303897,0.02493603,0.
 02125491,-0.03054742,0.11144930,-0.21085625,0.15140444,-0.20631453,0.4
 7953540,0.00088602,-0.00132260,0.00122886,-0.03810707,-0.00293026,-0.0
 1755898,-0.20079517,-0.10686730,0.00118466,0.01653583,-0.03604078,0.04
 707900,-0.04708938,-0.01187611,-0.01950516,0.03182847,0.05092354,-0.03
 565779,-0.23501412,-0.02638508,-0.10821790,0.53409547,0.00154018,-0.00
 257520,0.00302375,-0.00308656,0.00576661,-0.01650581,-0.13057410,-0.17
 333481,0.03421154,-0.01325712,-0.02722773,0.02738613,-0.01695122,-0.00
 775170,-0.01077084,0.02615816,0.01491109,0.01036508,0.01351666,-0.1008
 0599,0.05454621,0.15332933,0.47128309,0.00033537,0.00191688,-0.0001995
 2,-0.01947477,-0.01692011,-0.00501191,0.02597647,0.05197992,-0.0862813
 6,0.02213740,0.00927609,0.01435374,-0.01453494,-0.00685877,-0.00913390
 ,-0.00776953,0.03017898,-0.03408834,-0.15207954,0.02294242,-0.20566001
 ,0.14999214,-0.25818251,0.53039711,-0.00154458,0.00934633,0.00731262,-
 0.07008017,-0.00273398,-0.00230958,0.00713681,0.00166283,-0.01175606,-
 0.00129419,-0.00294300,-0.00129147,-0.00032796,0.00132473,0.00020456,-
 0.00007094,-0.00027430,0.00005917,-0.00025089,0.00129285,-0.00042192,0
 .00088923,-0.00097251,0.00028095,0.19089968,0.02486902,-0.01681011,-0.
 02694834,0.00847941,-0.06826631,-0.01815360,-0.00044473,0.00381258,0.0
 0552170,-0.00116195,0.00186682,0.00004934,0.00151093,-0.00004898,-0.00
 013151,-0.00046523,-0.00042232,0.00041270,0.00014263,0.00024300,-0.000
 64662,-0.00104435,-0.00136904,0.00099966,-0.08155244,0.56025467,0.0034
 0494,-0.00100851,-0.00518220,0.06256869,0.00103103,-0.10728792,0.00385
 890,0.00517158,-0.00002838,-0.00060421,-0.00226793,-0.00129804,0.00014
 635,0.00077158,-0.00036359,0.00014896,0.00012616,-0.00009434,0.0003702
 4,-0.00046678,0.00025327,-0.00140839,-0.00031350,-0.00167076,0.0333418
 1,0.07055986,0.33298252,0.00332437,-0.00433286,0.00714282,-0.00035026,
 -0.00033528,0.00039446,0.00069518,0.00121652,-0.00144157,-0.00002277,-
 0.00082157,-0.00007884,-0.00038086,0.00003024,-0.00021699,0.00023152,0
 .00028561,-0.00014553,0.00035394,-0.00021121,-0.00000315,0.00030605,0.
 00053437,-0.00004530,-0.11697651,0.04708358,-0.04432400,0.32773295,-0.
 00202468,0.00687517,-0.01019371,0.00715434,-0.01834692,0.02088413,-0.0
 0068919,0.00135218,0.00135737,0.00011762,0.00102925,-0.00017740,0.0004
 0764,-0.00013102,-0.00008876,-0.00008351,0.00010665,-0.00009269,0.0005
 2502,-0.00041012,0.00013831,-0.00068534,-0.00046394,0.00041102,0.05830
 188,-0.10668745,0.04323403,0.13384237,0.36958535,-0.00080830,0.0038163
 2,-0.00717890,-0.02695590,0.00859174,-0.03682714,0.00252047,0.00232370
 ,-0.00544861,-0.00088378,-0.00331524,-0.00007082,-0.00125941,0.0004801
 8,-0.00033539,0.00041637,0.00020687,-0.00015700,-0.00034616,0.00062136
 ,-0.00020162,0.00154324,0.00133316,-0.00027529,-0.06967152,0.06253736,
 -0.11142579,-0.02250735,-0.21952436,0.24221671,0.01393575,0.01372054,0
 .00164608,-0.36383503,-0.27692533,0.05043553,-0.00873008,-0.01951651,0
 .00709486,-0.00059841,-0.00227561,0.00199895,-0.00036437,0.00005858,0.
 00008505,-0.00024275,-0.00097697,0.00073158,-0.00232967,-0.00050164,-0
 .00041150,0.00183414,0.00435525,-0.00675631,0.00112019,-0.00411610,-0.
 00551858,0.00151592,-0.00513935,0.00314108,0.35902241,-0.01870172,-0.0
 1270248,0.00416613,-0.26788223,-0.32863462,0.05397132,-0.00065143,0.00
 161276,0.00546320,-0.00017208,-0.00161052,0.00236629,0.00044172,0.0008
 5278,-0.00107095,0.00019568,-0.00009774,0.00047767,-0.00008788,-0.0004
 2746,-0.00046756,-0.00106538,0.00277535,-0.00013118,-0.00311809,0.0073
 5648,-0.00558685,0.00196201,0.00078066,0.00074340,0.29399832,0.3281045
 5,0.00222732,-0.00187188,0.01348300,0.04816093,0.05655950,-0.08881620,
 -0.01255261,-0.00957382,0.00996882,-0.00052249,0.00077478,-0.00057565,
 -0.00019342,-0.00148698,0.00065616,-0.00050096,-0.00040762,0.00025455,
 -0.00110142,-0.00133084,-0.00045633,-0.00092763,0.00459789,-0.00217178
 ,0.02410628,0.01173247,0.00065129,-0.00161816,0.00182299,0.00367754,-0
 .05214405,-0.05692158,0.06178197,-0.00029321,-0.00002269,-0.00028241,0
 .00000265,0.00165521,0.00020670,0.00307795,0.00021808,0.00096735,-0.23
 881083,-0.14736537,0.00502162,-0.01158508,-0.01383980,0.00211288,-0.00
 036425,-0.00112497,-0.00489531,-0.00030741,0.00089964,-0.00048935,0.00
 215436,-0.00045565,-0.00173257,-0.00005915,-0.00026205,0.00016147,-0.0
 0001368,-0.00009591,0.00013355,-0.00131020,0.00050315,-0.00125748,0.24
 780154,0.00044453,-0.00000141,0.00045781,-0.00193556,-0.00335685,-0.00
 070731,-0.01513261,-0.00960384,0.00055194,-0.14655786,-0.15645499,0.01
 705295,0.00351188,0.00758676,0.00042229,-0.00118101,0.00340146,0.00360
 445,0.00054756,-0.00015507,-0.00043659,0.00019484,0.00067382,0.0049214
 7,0.00008290,0.00029658,-0.00012370,0.00000384,0.00008906,-0.00020946,
 0.00031540,0.00103886,-0.00131889,0.15870673,0.15827643,0.00005474,-0.
 00092681,0.00048472,0.00424041,0.00260632,-0.00201211,0.01768279,0.012
 67314,0.00150393,0.00441488,0.01647027,-0.05214446,-0.01726998,-0.0132
 8258,0.00662481,-0.00496537,0.00358828,-0.00036113,-0.00014227,-0.0001
 6004,-0.00089564,-0.00231484,0.00449417,-0.00184552,-0.00064267,0.0000
 9758,0.00016111,0.00002623,-0.00002173,-0.00006385,-0.00116409,-0.0013
 1951,0.00024239,-0.00185104,-0.02209131,0.04899973,-0.00017947,0.00009
 367,-0.00016208,0.00073535,0.00053704,-0.00099557,-0.00126432,-0.00195
 155,-0.00394622,0.00381075,0.01725817,-0.01872904,-0.05567845,-0.01671
 267,0.00521977,0.00316243,-0.01800039,0.01924713,-0.00241807,-0.004704
 31,-0.00221872,-0.00113346,-0.00016275,-0.00019259,-0.00030917,0.00012
 014,-0.00025350,-0.00008161,0.00010177,-0.00031934,-0.00014057,-0.0001
 2872,0.00008825,-0.00004556,0.00150131,0.00164075,0.05364132,-0.000305
 91,0.00018159,-0.00027364,-0.00035140,0.00066163,0.00019964,-0.0016264
 3,0.00362173,0.00189532,-0.00084217,0.00293788,-0.00020583,-0.01641434
 ,-0.18904848,0.15293688,0.00010525,-0.00836729,0.01375245,-0.00492116,
 0.00183090,0.00180351,-0.00027009,-0.00018517,-0.00074959,0.00010570,-
 0.00014609,0.00004898,0.00004165,-0.00003570,0.00011241,0.00004918,-0.
 00003861,-0.00001400,0.00154787,-0.00142703,-0.00190395,0.02090891,0.1
 9195386,-0.00040678,0.00022634,-0.00043271,0.00029591,0.00091351,0.000
 21499,-0.00436620,0.00168999,0.00118515,0.00137104,0.01406747,-0.01114
 593,0.00496688,0.15276888,-0.20379249,-0.00081877,-0.00058592,0.003987
 97,-0.00199205,0.00193510,0.00323814,-0.00009045,-0.00064881,-0.000001
 86,-0.00001981,-0.00009971,0.00005737,0.00003086,-0.00000398,0.0000068
 8,-0.00009377,-0.00012673,-0.00002498,0.00155623,-0.00196707,-0.000869
 57,-0.00189641,-0.16602150,0.20874631,-0.00008845,0.00011843,-0.000151
 01,-0.00061592,0.00029071,0.00044153,0.00041988,-0.00070894,0.00083010
 ,-0.00136550,-0.00517302,-0.00114440,-0.01243669,0.00255258,-0.0172713
 6,-0.21428097,0.01182185,-0.14699260,0.00681442,-0.00166824,0.00264139
 ,0.00232014,-0.00266408,-0.00070387,0.00011762,-0.00004711,-0.00000938
 ,-0.00002129,-0.00004624,0.00007142,0.00008146,0.00007256,-0.00014579,
 -0.00066806,0.00044429,-0.00063514,-0.00008188,0.00151575,0.00131869,0
 .21992902,0.00019004,-0.00006799,0.00018960,0.00035331,-0.00081675,-0.
 00057422,-0.00074206,-0.00061753,0.00052710,-0.00546291,0.00080474,0.0
 0291108,-0.01553029,0.00675749,-0.01306444,0.01180804,-0.05571360,0.02
 243834,0.01645464,0.00334456,0.01559261,-0.00237828,-0.00001451,0.0057
 7717,-0.00010333,0.00009685,0.00000576,0.00003759,0.00007910,-0.000102
 99,-0.00000387,0.00016087,-0.00000457,-0.00049904,-0.00002609,-0.00092
 865,0.00163641,-0.00114468,-0.00173925,-0.00803159,0.04842732,0.000139
 50,-0.00016043,0.00022911,0.00032648,-0.00040416,-0.00080971,0.0008388
 0,0.00057584,0.00042226,-0.00077581,0.00315789,0.00324555,0.00257123,0
 .00107473,0.00677500,-0.14702992,0.02246098,-0.18398072,-0.01725702,0.
 00144033,-0.00940901,-0.00101708,0.00552471,0.00007666,-0.00011481,0.0
 0001809,-0.00001800,0.00002662,0.00004704,-0.00007346,-0.00007068,-0.0
 0000357,0.00009509,0.00039510,-0.00017398,0.00000741,0.00118925,-0.001
 84493,-0.00091529,0.16018189,-0.02954592,0.18573392,-0.00002616,0.0001
 5717,-0.00003618,0.00008228,-0.00116190,-0.00000700,0.00022282,-0.0007
 1980,-0.00444266,0.00015900,0.00062245,-0.00008951,0.00238835,-0.00133
 634,-0.00191859,0.00394036,0.00077401,-0.00080452,-0.23714957,-0.14614
 648,0.00475965,-0.01411315,-0.01379392,0.00142761,-0.00001873,0.000097
 83,-0.00003677,0.00000059,0.00008878,-0.00009878,-0.00050210,0.0000654
 7,-0.00009354,-0.00021018,0.00024768,0.00028562,0.00009965,0.00017646,
 -0.00007769,-0.00027434,0.00129971,0.00128284,0.24563905,-0.00006621,-
 0.00001674,-0.00010067,-0.00000849,0.00097930,0.00068530,-0.00114172,0
 .00345302,0.00282913,0.00073840,-0.00035310,0.00033791,-0.00110016,0.0
 0084951,0.00554670,-0.01743746,-0.00858400,-0.00003096,-0.14642274,-0.
 15806631,0.01614401,0.00446896,0.00595115,0.00061471,0.00005117,-0.000
 08546,0.00001619,-0.00000175,-0.00006822,0.00004100,0.00046122,-0.0001
 2231,-0.00006912,0.00023346,-0.00038151,-0.00041392,-0.00080362,-0.000
 47052,-0.00017117,0.00142799,-0.00101839,-0.00183572,0.15814618,0.1592
 9091,-0.00006980,0.00022102,-0.00025342,-0.00114696,-0.00032805,0.0010
 0844,-0.00405179,0.00315983,0.00022514,-0.00024989,0.00024510,-0.00106
 938,-0.00214092,0.00540403,-0.00096723,0.01931220,0.01434550,0.0032640
 2,0.00499519,0.01629137,-0.05278375,-0.01862219,-0.01372341,0.00372316
 ,0.00011488,-0.00000352,-0.00002732,0.00000443,0.00002168,-0.00004995,
 -0.00043221,-0.00036706,-0.00053254,0.00029802,-0.00041170,-0.00023879
 ,0.00100394,0.00060254,0.00007498,0.00113193,-0.00194306,-0.00067756,-
 0.00176720,-0.02151258,0.04906286,0.00000704,0.00076432,-0.00046415,-0
 .00066019,-0.00237974,0.00267730,0.00096456,-0.01642441,0.01859725,-0.
 00312227,-0.00374272,-0.00256164,-0.00069312,0.00023689,-0.00005112,-0
 .00202511,-0.00253933,-0.00491188,0.00671849,0.01705382,-0.01755031,-0
 .05492352,-0.01765848,0.00401147,-0.00018947,0.00048096,0.00008129,-0.
 00013033,0.00002664,0.00011264,0.00027851,0.00043021,-0.00020305,0.000
 51866,-0.00113824,0.00058683,-0.00009936,0.00036624,0.00032667,0.00013
 113,0.00101552,-0.00066173,-0.00018363,0.00146054,0.00168005,0.0532161
 4,0.00065768,-0.00018719,0.00007049,0.00030016,-0.00209432,0.00100012,
 0.00013963,-0.00981795,0.01129442,-0.00459328,0.00158585,0.00048121,0.
 00049938,-0.00004025,-0.00060008,-0.00218527,0.00389807,0.00255654,-0.
 00097512,0.00373419,0.00080396,-0.01785434,-0.18767526,0.15443852,0.00
 004487,0.00051783,0.00026795,0.00040394,0.00014601,-0.00017804,0.00006
 786,0.00025899,-0.00031794,-0.00017823,0.00023894,0.00111737,0.0003460
 9,-0.00044617,-0.00037033,0.00005167,-0.00018238,-0.00026697,0.0015473
 2,-0.00143142,-0.00202035,0.02186873,0.19137139,-0.00001285,-0.0006552
 1,0.00013963,0.00009275,-0.00016576,-0.00079248,0.00021441,-0.00153166
 ,0.00218008,-0.00158139,0.00105029,0.00277833,-0.00043379,-0.00082433,
 -0.00038054,-0.00523878,0.00233877,0.00100541,0.00230275,0.01495178,-0
 .00933295,0.00454311,0.15484868,-0.20261803,-0.00058867,-0.00035169,-0
 .00028962,0.00016120,0.00022691,-0.00012630,0.00026664,-0.00000333,0.0
 0008803,-0.00044081,0.00038119,0.00065743,0.00034408,-0.00035147,-0.00
 035568,0.00042072,0.00048715,-0.00070036,0.00159059,-0.00207564,-0.000
 80975,-0.00133529,-0.16806567,0.20859752,-0.00036899,0.00194929,0.0031
 0878,-0.00602297,0.01578266,0.02444412,-0.00070161,0.00000921,0.000775
 70,0.00000404,0.00003444,-0.00004252,-0.00004111,-0.00003044,-0.000031
 19,-0.00008849,-0.00005886,0.00000561,-0.00013536,0.00013943,-0.000156
 49,-0.00022768,-0.00021865,-0.00035041,-0.01781593,-0.02767348,-0.0260
 1437,-0.00629354,0.03155622,0.00054662,0.00048951,-0.00261060,-0.00327
 655,0.00005755,-0.00005247,0.00006446,-0.00000042,0.00000374,-0.000013
 56,0.00000805,-0.00000617,-0.00003163,-0.00002709,-0.00000930,-0.00004
 386,0.00029087,0.00012402,-0.00001637,0.03226574,-0.00180751,0.0033109
 8,0.00265790,-0.00491595,0.00302404,-0.00062846,0.00005701,-0.00003183
 ,-0.00064299,0.00035326,-0.00014630,-0.00008216,-0.00009826,-0.0000219
 0,0.00002593,0.00005557,0.00008070,-0.00007949,0.00009902,-0.00003895,
 0.00008064,-0.00006670,-0.00001444,0.00006487,0.02371058,-0.36256323,-
 0.12143662,-0.00071704,-0.01461397,0.00517010,-0.00097930,-0.00094580,
 0.00203802,-0.00004501,0.00006952,-0.00003151,-0.00000189,0.00003138,0
 .00005256,-0.00000013,0.00000720,0.00001104,0.00001259,-0.00000462,0.0
 0002166,-0.00007227,-0.00004003,0.00000455,-0.01948313,0.37485697,0.00
 457118,-0.00237210,-0.00456590,-0.00154920,-0.03318974,-0.01408009,0.0
 0147592,0.00160805,-0.00065045,-0.00070382,0.00012991,-0.00043222,0.00
 027117,0.00028665,-0.00012733,0.00000870,0.00003149,-0.00004981,0.0001
 0434,-0.00015118,0.00014872,-0.00029001,-0.00013373,0.00026616,0.00771
 578,-0.12123257,-0.09280157,-0.00911615,0.03577285,-0.00118572,-0.0008
 4456,0.00271830,0.00319239,0.00003303,0.00002554,-0.00005096,-0.000039
 15,-0.00002141,-0.00003834,-0.00001508,0.00001724,0.00001447,0.0000216
 1,-0.00002243,-0.00000244,0.00000013,-0.00002231,0.00004434,0.00271095
 ,0.11252182,0.11153236,0.00013267,0.00042905,-0.00006821,-0.00302556,0
 .00253237,-0.00016095,0.00023644,-0.00016035,-0.00073754,-0.00014356,-
 0.00047047,0.00017844,-0.00024397,0.00000660,-0.00005215,0.00007248,0.
 00004776,-0.00003656,-0.00012918,0.00001017,0.00004013,0.00025258,0.00
 044009,-0.00029043,0.01028151,0.03518595,-0.02563809,-0.21076499,-0.21
 972580,0.11668227,0.00113170,0.00006847,-0.00049662,0.00004108,-0.0000
 5050,0.00002660,-0.00003911,0.00000349,-0.00001281,0.00000856,-0.00002
 477,-0.00000412,-0.00003620,0.00001240,-0.00004292,0.00003272,-0.00011
 035,-0.00018612,-0.00159084,0.00355008,-0.00367872,0.20454212,-0.00009
 048,-0.00219046,-0.00083807,-0.00020112,0.00248431,0.00113176,0.000374
 88,-0.00032946,-0.00107646,-0.00023182,-0.00036882,0.00006227,-0.00018
 427,0.00003813,-0.00002513,0.00004682,0.00004358,-0.00003399,-0.000051
 95,-0.00002416,0.00002472,0.00014979,0.00040029,-0.00024281,-0.0043219
 5,-0.01821380,0.00963328,-0.17700255,-0.23807342,0.13567077,0.00113276
 ,0.00042137,-0.00139256,0.00003443,-0.00005961,0.00003676,-0.00004142,
 0.00000634,-0.00001319,-0.00000252,-0.00000701,0.00000405,-0.00003825,
 0.00002522,-0.00002782,-0.00002799,0.00009632,-0.00004308,0.00054823,-
 0.00242183,0.00373697,0.17943011,0.25602830,-0.00057369,-0.00178151,0.
 00187985,-0.00075932,0.00786904,-0.00740436,0.00031630,-0.00052248,-0.
 00035115,0.00005490,-0.00002244,-0.00009019,-0.00002467,0.00005775,0.0
 0008437,0.00001260,-0.00002294,0.00000439,-0.00018369,-0.00001680,0.00
 013587,0.00004957,0.00006971,-0.00014832,0.00975276,0.01941666,-0.0133
 0160,0.07553303,0.12185002,-0.08212144,0.00092692,-0.00069015,0.000097
 44,0.00002853,-0.00000837,-0.00004131,-0.00000512,0.00000988,0.0000113
 2,0.00001441,-0.00003630,-0.00000308,-0.00001501,0.00001607,0.00001143
 ,-0.00021840,-0.00015769,-0.00017910,-0.00095171,-0.00029130,0.0000955
 7,-0.08644002,-0.14633129,0.10320130,-0.13791525,0.05757969,-0.1838232
 0,-0.00668557,0.01184338,-0.01143930,0.00088662,0.00238242,-0.00095588
 ,-0.00074684,0.00028408,0.00053294,-0.00014284,-0.00003282,-0.00036421
 ,0.00019088,0.00032921,-0.00012945,0.00012407,-0.00013532,0.00036630,0
 .00030126,-0.00007901,-0.00023115,-0.00150735,-0.00120301,-0.00027536,
 0.00087532,-0.00363225,-0.00231712,-0.00135642,-0.00331944,0.00045100,
 0.00001380,0.00004728,-0.00003793,0.00002196,-0.00009276,-0.00007799,0
 .00000283,-0.00001297,0.00001106,0.00000907,-0.00000885,0.00002710,-0.
 00013112,-0.00015477,-0.00010218,0.00019826,0.00034909,-0.00067613,-0.
 00075844,0.00047729,0.00248261,0.14661973,0.03798239,-0.04782903,0.042
 61595,0.03192702,-0.02162613,0.03348316,0.00075458,-0.00331952,-0.0006
 4895,0.00090532,-0.00007396,-0.00070718,-0.00012092,0.00021555,0.00047
 474,-0.00000969,-0.00005947,-0.00009976,-0.00009136,0.00019951,0.00056
 353,-0.00027985,-0.00034363,-0.00043673,0.00009575,0.00016799,0.000337
 49,-0.00201946,-0.00121267,0.00168174,-0.00372442,0.00121688,-0.002815
 88,0.00009015,-0.00020503,-0.00000388,0.00000381,0.00008443,0.00009382
 ,0.00004605,-0.00006918,-0.00007899,-0.00003896,0.00005348,0.00002480,
 0.00027931,0.00006737,-0.00022148,-0.00000415,-0.00053789,0.00029666,-
 0.00117431,0.00214471,0.00059212,-0.06462125,0.07112658,-0.19509434,0.
 06928767,-0.28952542,-0.00472746,0.01081837,0.01078703,0.00130149,-0.0
 0263925,-0.00063349,0.00067554,0.00001037,0.00003233,-0.00013175,0.000
 13486,0.00022552,0.00005223,0.00000157,0.00002952,-0.00000781,0.000033
 37,-0.00002024,-0.00001017,-0.00012243,0.00028977,0.00392770,-0.003777
 85,-0.00031645,-0.00382262,0.00433629,-0.00035987,0.00110905,-0.003217
 85,-0.00161121,0.00003447,0.00003072,-0.00015820,0.00002457,0.00002472
 ,0.00005372,0.00001655,-0.00000666,-0.00001228,0.00001954,0.00000120,0
 .00004210,-0.00011607,-0.00003118,0.00009406,-0.00072758,0.00054344,-0
 .00130920,0.00091780,-0.00027619,-0.00188098,0.19655888,-0.07515118,0.
 28427328\\0.00000014,-0.00001010,-0.00002807,-0.00002709,0.00002448,-0
 .00001052,0.00002624,0.00003000,0.00003274,0.00001254,-0.00000603,-0.0
 0000782,-0.00001049,-0.00000090,-0.00000100,-0.00000176,0.00000409,-0.
 00000224,-0.00000273,0.00000258,0.00001029,-0.00001871,-0.00001209,-0.
 00002208,0.00009112,-0.00005552,0.00007756,-0.00007170,0.00007031,-0.0
 0007031,-0.00002943,-0.00003296,0.00001337,-0.00000406,-0.00000084,0.0
 0000182,-0.00000063,-0.00000085,0.00000006,0.00000014,-0.00000319,-0.0
 0000161,-0.00000123,0.00000133,-0.00000495,0.00001080,0.00000247,0.000
 00353,0.00000364,0.00000109,-0.00001317,-0.00000279,-0.00000619,-0.000
 01494,0.00002600,-0.00000768,0.00003734\\\@


 "ANNA, YOU MUSN'T SPEAK OF OXIDIZED MURIATIC ACID
 ANYMORE, FROM NOW ON YOU MUST SAY CHLORINE."
   -- JENS JACOB BERZELIUS, IN 1820, TO HIS COOK, WHO HAD
 COMPLAINED OF THE SMELL OF THE FLASK SHE WAS CLEANING.
 Job cpu time:       0 days  0 hours 11 minutes 56.1 seconds.
 Elapsed time:       0 days  0 hours  0 minutes 30.4 seconds.
 File lengths (MBytes):  RWF=     88 Int=      0 D2E=      0 Chk=      4 Scr=      1
 Normal termination of Gaussian 16 at Mon Oct 14 01:44:13 2019.
real 212.42
user 4711.18
sys 44.58
Machine:
brown-a451
brown-a451
brown-a451
brown-a451
brown-a451
brown-a451
brown-a451
brown-a451
brown-a451
brown-a451
brown-a451
brown-a451
brown-a451
brown-a451
brown-a451
brown-a451
brown-a451
brown-a451
brown-a451
brown-a451
brown-a451
brown-a451
brown-a451
brown-a451
