 Entering Gaussian System, Link 0=/apps/cent7/gaussian/g16-A.03/g16-haswell/g16/g16
 Initial command:
 /apps/cent7/gaussian/g16-A.03/g16-haswell/g16/l1.exe "/scratch/brown/finej/gaussian/Gau-14047.inp" -scrdir="/scratch/brown/finej/gaussian/"
 Entering Link 1 = /apps/cent7/gaussian/g16-A.03/g16-haswell/g16/l1.exe PID=     14050.
  
 Copyright (c) 1988,1990,1992,1993,1995,1998,2003,2009,2016,
            Gaussian, Inc.  All Rights Reserved.
  
 This is part of the Gaussian(R) 16 program.  It is based on
 the Gaussian(R) 09 system (copyright 2009, Gaussian, Inc.),
 the Gaussian(R) 03 system (copyright 2003, Gaussian, Inc.),
 the Gaussian(R) 98 system (copyright 1998, Gaussian, Inc.),
 the Gaussian(R) 94 system (copyright 1995, Gaussian, Inc.),
 the Gaussian 92(TM) system (copyright 1992, Gaussian, Inc.),
 the Gaussian 90(TM) system (copyright 1990, Gaussian, Inc.),
 the Gaussian 88(TM) system (copyright 1988, Gaussian, Inc.),
 the Gaussian 86(TM) system (copyright 1986, Carnegie Mellon
 University), and the Gaussian 82(TM) system (copyright 1983,
 Carnegie Mellon University). Gaussian is a federally registered
 trademark of Gaussian, Inc.
  
 This software contains proprietary and confidential information,
 including trade secrets, belonging to Gaussian, Inc.
  
 This software is provided under written license and may be
 used, copied, transmitted, or stored only in accord with that
 written license.
  
 The following legend is applicable only to US Government
 contracts under FAR:
  
                    RESTRICTED RIGHTS LEGEND
  
 Use, reproduction and disclosure by the US Government is
 subject to restrictions as set forth in subparagraphs (a)
 and (c) of the Commercial Computer Software - Restricted
 Rights clause in FAR 52.227-19.
  
 Gaussian, Inc.
 340 Quinnipiac St., Bldg. 40, Wallingford CT 06492
  
  
 ---------------------------------------------------------------
 Warning -- This program may not be used in any manner that
 competes with the business of Gaussian, Inc. or will provide
 assistance to any competitor of Gaussian, Inc.  The licensee
 of this program is prohibited from giving any competitor of
 Gaussian, Inc. access to this program.  By using this program,
 the user acknowledges that Gaussian, Inc. is engaged in the
 business of creating and licensing software in the field of
 computational chemistry and represents and warrants to the
 licensee that it is not a competitor of Gaussian, Inc. and that
 it will not use this program in any manner prohibited above.
 ---------------------------------------------------------------
  

 Cite this work as:
 Gaussian 16, Revision A.03,
 M. J. Frisch, G. W. Trucks, H. B. Schlegel, G. E. Scuseria, 
 M. A. Robb, J. R. Cheeseman, G. Scalmani, V. Barone, 
 G. A. Petersson, H. Nakatsuji, X. Li, M. Caricato, A. V. Marenich, 
 J. Bloino, B. G. Janesko, R. Gomperts, B. Mennucci, H. P. Hratchian, 
 J. V. Ortiz, A. F. Izmaylov, J. L. Sonnenberg, D. Williams-Young, 
 F. Ding, F. Lipparini, F. Egidi, J. Goings, B. Peng, A. Petrone, 
 T. Henderson, D. Ranasinghe, V. G. Zakrzewski, J. Gao, N. Rega, 
 G. Zheng, W. Liang, M. Hada, M. Ehara, K. Toyota, R. Fukuda, 
 J. Hasegawa, M. Ishida, T. Nakajima, Y. Honda, O. Kitao, H. Nakai, 
 T. Vreven, K. Throssell, J. A. Montgomery, Jr., J. E. Peralta, 
 F. Ogliaro, M. J. Bearpark, J. J. Heyd, E. N. Brothers, K. N. Kudin, 
 V. N. Staroverov, T. A. Keith, R. Kobayashi, J. Normand, 
 K. Raghavachari, A. P. Rendell, J. C. Burant, S. S. Iyengar, 
 J. Tomasi, M. Cossi, J. M. Millam, M. Klene, C. Adamo, R. Cammi, 
 J. W. Ochterski, R. L. Martin, K. Morokuma, O. Farkas, 
 J. B. Foresman, and D. J. Fox, Gaussian, Inc., Wallingford CT, 2016.
 
 ******************************************
 Gaussian 16:  ES64L-G16RevA.03 25-Dec-2016
                14-Oct-2019 
 ******************************************
 %chk=2_p.chk
 %nprocshared=24
 Will use up to   24 processors via shared memory.
 %mem=80GB
 --------------------------------------------------------------
 #P opt freq b3lyp/6-31g(d) geom=connectivity temperature=0.001
 --------------------------------------------------------------
 1/18=20,19=15,26=3,38=1,57=2,112=-1000/1,3;
 2/9=110,12=2,17=6,18=5,40=1/2;
 3/5=1,6=6,7=1,11=2,25=1,30=1,71=1,74=-5/1,2,3;
 4//1;
 5/5=2,38=5/2;
 6/7=2,8=2,9=2,10=2,28=1/1;
 7//1,2,3,16;
 1/18=20,19=15,26=3/3(2);
 2/9=110/2;
 99//99;
 2/9=110/2;
 3/5=1,6=6,7=1,11=2,25=1,30=1,71=1,74=-5/1,2,3;
 4/5=5,16=3,69=1/1;
 5/5=2,38=5/2;
 7//1,2,3,16;
 1/18=20,19=15,26=3/3(-5);
 2/9=110/2;
 6/7=2,8=2,9=2,10=2,19=2,28=1/1;
 99/9=1/99;
 Leave Link    1 at Mon Oct 14 01:41:10 2019, MaxMem= 10737418240 cpu:               0.9 elap:               0.0
 (Enter /apps/cent7/gaussian/g16-A.03/g16-haswell/g16/l101.exe)
 -------------------
 Title Card Required
 -------------------
 Symbolic Z-matrix:
 Charge =  1 Multiplicity = 1
 O                     1.2297   -0.118    -0.0218 
 N                    -0.0286    0.0421   -0.007 
 C                    -0.6307    1.1748   -0.0132 
 C                    -1.9705    1.3227    0.0019 
 O                    -2.8586    0.3182    0.0307 
 C                    -3.2781   -0.0096    1.3699 
 N                    -2.3119    2.5611   -0.0253 
 C                    -1.2233    3.2866   -0.0347 
 C                    -1.0742    4.6849   -0.023 
 C                     0.2311    5.221    -0.0064 
 C                     1.3565    4.365    -0.0046 
 C                     1.1911    2.9621   -0.0148 
 C                    -0.1183    2.4411   -0.0282 
 H                     1.5576   -0.1597    0.8795 
 H                    -3.314    -1.093     1.4844 
 H                    -2.5695    0.4081    2.0851 
 H                    -4.2681    0.4081    1.553 
 H                    -1.948     5.3365   -0.0266 
 H                     0.3708    6.3019    0.005 
 H                     2.3601    4.7902    0.0046 
 H                     2.0544    2.2967   -0.0123 
 H                    -0.59672  -0.78065   0.01094 
 
 ITRead=  0  0  0  0  0  0  0  0  0  0  0  0  0  0  0  0  0  0  0  0
 ITRead=  0  0
 MicOpt= -1 -1 -1 -1 -1 -1 -1 -1 -1 -1 -1 -1 -1 -1 -1 -1 -1 -1 -1 -1
 MicOpt= -1 -1
 NAtoms=     22 NQM=       22 NQMF=       0 NMMI=      0 NMMIF=      0
                NMic=       0 NMicF=      0.
                    Isotopes and Nuclear Properties:
 (Nuclear quadrupole moments (NQMom) in fm**2, nuclear magnetic moments (NMagM)
  in nuclear magnetons)

  Atom         1           2           3           4           5           6           7           8           9          10
 IAtWgt=          16          14          12          12          16          12          14          12          12          12
 AtmWgt=  15.9949146  14.0030740  12.0000000  12.0000000  15.9949146  12.0000000  14.0030740  12.0000000  12.0000000  12.0000000
 NucSpn=           0           2           0           0           0           0           2           0           0           0
 AtZEff=  -0.0000000  -0.0000000  -0.0000000  -0.0000000  -0.0000000  -0.0000000  -0.0000000  -0.0000000  -0.0000000  -0.0000000
 NQMom=    0.0000000   2.0440000   0.0000000   0.0000000   0.0000000   0.0000000   2.0440000   0.0000000   0.0000000   0.0000000
 NMagM=    0.0000000   0.4037610   0.0000000   0.0000000   0.0000000   0.0000000   0.4037610   0.0000000   0.0000000   0.0000000
 AtZNuc=   8.0000000   7.0000000   6.0000000   6.0000000   8.0000000   6.0000000   7.0000000   6.0000000   6.0000000   6.0000000

  Atom        11          12          13          14          15          16          17          18          19          20
 IAtWgt=          12          12          12           1           1           1           1           1           1           1
 AtmWgt=  12.0000000  12.0000000  12.0000000   1.0078250   1.0078250   1.0078250   1.0078250   1.0078250   1.0078250   1.0078250
 NucSpn=           0           0           0           1           1           1           1           1           1           1
 AtZEff=  -0.0000000  -0.0000000  -0.0000000  -0.0000000  -0.0000000  -0.0000000  -0.0000000  -0.0000000  -0.0000000  -0.0000000
 NQMom=    0.0000000   0.0000000   0.0000000   0.0000000   0.0000000   0.0000000   0.0000000   0.0000000   0.0000000   0.0000000
 NMagM=    0.0000000   0.0000000   0.0000000   2.7928460   2.7928460   2.7928460   2.7928460   2.7928460   2.7928460   2.7928460
 AtZNuc=   6.0000000   6.0000000   6.0000000   1.0000000   1.0000000   1.0000000   1.0000000   1.0000000   1.0000000   1.0000000

  Atom        21          22
 IAtWgt=           1           1
 AtmWgt=   1.0078250   1.0078250
 NucSpn=           1           1
 AtZEff=  -0.0000000  -0.0000000
 NQMom=    0.0000000   0.0000000
 NMagM=    2.7928460   2.7928460
 AtZNuc=   1.0000000   1.0000000
 Leave Link  101 at Mon Oct 14 01:41:11 2019, MaxMem= 10737418240 cpu:               9.7 elap:               0.4
 (Enter /apps/cent7/gaussian/g16-A.03/g16-haswell/g16/l103.exe)

 GradGradGradGradGradGradGradGradGradGradGradGradGradGradGradGradGradGrad
 Berny optimization.
 Initialization pass.
                           ----------------------------
                           !    Initial Parameters    !
                           ! (Angstroms and Degrees)  !
 --------------------------                            --------------------------
 ! Name  Definition              Value          Derivative Info.                !
 --------------------------------------------------------------------------------
 ! R1    R(1,2)                  1.2685         estimate D2E/DX2                !
 ! R2    R(1,14)                 0.96           estimate D2E/DX2                !
 ! R3    R(2,3)                  1.2828         estimate D2E/DX2                !
 ! R4    R(2,22)                 1.0            estimate D2E/DX2                !
 ! R5    R(3,4)                  1.348          estimate D2E/DX2                !
 ! R6    R(3,13)                 1.3661         estimate D2E/DX2                !
 ! R7    R(4,5)                  1.3411         estimate D2E/DX2                !
 ! R8    R(4,7)                  1.2849         estimate D2E/DX2                !
 ! R9    R(5,6)                  1.4411         estimate D2E/DX2                !
 ! R10   R(6,15)                 1.09           estimate D2E/DX2                !
 ! R11   R(6,16)                 1.09           estimate D2E/DX2                !
 ! R12   R(6,17)                 1.09           estimate D2E/DX2                !
 ! R13   R(7,8)                  1.3082         estimate D2E/DX2                !
 ! R14   R(8,9)                  1.4063         estimate D2E/DX2                !
 ! R15   R(8,13)                 1.3914         estimate D2E/DX2                !
 ! R16   R(9,10)                 1.4112         estimate D2E/DX2                !
 ! R17   R(9,18)                 1.09           estimate D2E/DX2                !
 ! R18   R(10,11)                1.414          estimate D2E/DX2                !
 ! R19   R(10,19)                1.0899         estimate D2E/DX2                !
 ! R20   R(11,12)                1.4127         estimate D2E/DX2                !
 ! R21   R(11,20)                1.09           estimate D2E/DX2                !
 ! R22   R(12,13)                1.4093         estimate D2E/DX2                !
 ! R23   R(12,21)                1.09           estimate D2E/DX2                !
 ! A1    A(2,1,14)             109.4714         estimate D2E/DX2                !
 ! A2    A(1,2,3)              125.2373         estimate D2E/DX2                !
 ! A3    A(1,2,22)             117.3814         estimate D2E/DX2                !
 ! A4    A(3,2,22)             117.3814         estimate D2E/DX2                !
 ! A5    A(2,3,4)              124.2861         estimate D2E/DX2                !
 ! A6    A(2,3,13)             129.9767         estimate D2E/DX2                !
 ! A7    A(4,3,13)             105.7364         estimate D2E/DX2                !
 ! A8    A(3,4,5)              125.1862         estimate D2E/DX2                !
 ! A9    A(3,4,7)              111.6906         estimate D2E/DX2                !
 ! A10   A(5,4,7)              123.1211         estimate D2E/DX2                !
 ! A11   A(4,5,6)              112.525          estimate D2E/DX2                !
 ! A12   A(5,6,15)             109.4677         estimate D2E/DX2                !
 ! A13   A(5,6,16)             109.4713         estimate D2E/DX2                !
 ! A14   A(5,6,17)             109.4703         estimate D2E/DX2                !
 ! A15   A(15,6,16)            109.4734         estimate D2E/DX2                !
 ! A16   A(15,6,17)            109.4706         estimate D2E/DX2                !
 ! A17   A(16,6,17)            109.474          estimate D2E/DX2                !
 ! A18   A(4,7,8)              108.2736         estimate D2E/DX2                !
 ! A19   A(7,8,9)              129.7606         estimate D2E/DX2                !
 ! A20   A(7,8,13)             108.894          estimate D2E/DX2                !
 ! A21   A(9,8,13)             121.3311         estimate D2E/DX2                !
 ! A22   A(8,9,10)             118.418          estimate D2E/DX2                !
 ! A23   A(8,9,18)             120.6226         estimate D2E/DX2                !
 ! A24   A(10,9,18)            120.9594         estimate D2E/DX2                !
 ! A25   A(9,10,11)            120.4129         estimate D2E/DX2                !
 ! A26   A(9,10,19)            119.6968         estimate D2E/DX2                !
 ! A27   A(11,10,19)           119.8903         estimate D2E/DX2                !
 ! A28   A(10,11,12)           120.5317         estimate D2E/DX2                !
 ! A29   A(10,11,20)           119.7811         estimate D2E/DX2                !
 ! A30   A(12,11,20)           119.6872         estimate D2E/DX2                !
 ! A31   A(11,12,13)           118.4235         estimate D2E/DX2                !
 ! A32   A(11,12,21)           120.8976         estimate D2E/DX2                !
 ! A33   A(13,12,21)           120.6789         estimate D2E/DX2                !
 ! A34   A(3,13,8)             105.3932         estimate D2E/DX2                !
 ! A35   A(3,13,12)            133.7136         estimate D2E/DX2                !
 ! A36   A(8,13,12)            120.8821         estimate D2E/DX2                !
 ! D1    D(14,1,2,3)            90.8101         estimate D2E/DX2                !
 ! D2    D(14,1,2,22)          -89.1899         estimate D2E/DX2                !
 ! D3    D(1,2,3,4)            179.9515         estimate D2E/DX2                !
 ! D4    D(1,2,3,13)            -0.4253         estimate D2E/DX2                !
 ! D5    D(22,2,3,4)            -0.0485         estimate D2E/DX2                !
 ! D6    D(22,2,3,13)          179.5747         estimate D2E/DX2                !
 ! D7    D(2,3,4,5)              0.2803         estimate D2E/DX2                !
 ! D8    D(2,3,4,7)           -179.2119         estimate D2E/DX2                !
 ! D9    D(13,3,4,5)          -179.4197         estimate D2E/DX2                !
 ! D10   D(13,3,4,7)             1.0881         estimate D2E/DX2                !
 ! D11   D(2,3,13,8)           179.7295         estimate D2E/DX2                !
 ! D12   D(2,3,13,12)           -1.5215         estimate D2E/DX2                !
 ! D13   D(4,3,13,8)            -0.594          estimate D2E/DX2                !
 ! D14   D(4,3,13,12)          178.155          estimate D2E/DX2                !
 ! D15   D(3,4,5,6)             94.1032         estimate D2E/DX2                !
 ! D16   D(7,4,5,6)            -86.4602         estimate D2E/DX2                !
 ! D17   D(3,4,7,8)             -1.1405         estimate D2E/DX2                !
 ! D18   D(5,4,7,8)            179.3551         estimate D2E/DX2                !
 ! D19   D(4,5,6,15)          -137.3784         estimate D2E/DX2                !
 ! D20   D(4,5,6,16)           -17.3779         estimate D2E/DX2                !
 ! D21   D(4,5,6,17)           102.625          estimate D2E/DX2                !
 ! D22   D(4,7,8,9)           -177.8958         estimate D2E/DX2                !
 ! D23   D(4,7,8,13)             0.7177         estimate D2E/DX2                !
 ! D24   D(7,8,9,10)           178.5594         estimate D2E/DX2                !
 ! D25   D(7,8,9,18)            -1.4343         estimate D2E/DX2                !
 ! D26   D(13,8,9,10)            0.0952         estimate D2E/DX2                !
 ! D27   D(13,8,9,18)         -179.8985         estimate D2E/DX2                !
 ! D28   D(7,8,13,3)            -0.0521         estimate D2E/DX2                !
 ! D29   D(7,8,13,12)         -178.9985         estimate D2E/DX2                !
 ! D30   D(9,8,13,3)           178.7001         estimate D2E/DX2                !
 ! D31   D(9,8,13,12)           -0.2463         estimate D2E/DX2                !
 ! D32   D(8,9,10,11)            0.1337         estimate D2E/DX2                !
 ! D33   D(8,9,10,19)         -179.8718         estimate D2E/DX2                !
 ! D34   D(18,9,10,11)        -179.8726         estimate D2E/DX2                !
 ! D35   D(18,9,10,19)           0.1219         estimate D2E/DX2                !
 ! D36   D(9,10,11,12)          -0.2154         estimate D2E/DX2                !
 ! D37   D(9,10,11,20)         179.7767         estimate D2E/DX2                !
 ! D38   D(19,10,11,12)        179.7902         estimate D2E/DX2                !
 ! D39   D(19,10,11,20)         -0.2177         estimate D2E/DX2                !
 ! D40   D(10,11,12,13)          0.0669         estimate D2E/DX2                !
 ! D41   D(10,11,12,21)       -179.928          estimate D2E/DX2                !
 ! D42   D(20,11,12,13)       -179.9253         estimate D2E/DX2                !
 ! D43   D(20,11,12,21)          0.0799         estimate D2E/DX2                !
 ! D44   D(11,12,13,3)        -178.433          estimate D2E/DX2                !
 ! D45   D(11,12,13,8)           0.1616         estimate D2E/DX2                !
 ! D46   D(21,12,13,3)           1.5618         estimate D2E/DX2                !
 ! D47   D(21,12,13,8)        -179.8435         estimate D2E/DX2                !
 --------------------------------------------------------------------------------
 Trust Radius=3.00D-01 FncErr=1.00D-07 GrdErr=1.00D-06 EigMax=2.50D+02 EigMin=1.00D-04
 Number of steps in this run=    116 maximum allowed number of steps=    132.
 GradGradGradGradGradGradGradGradGradGradGradGradGradGradGradGradGradGrad

 Leave Link  103 at Mon Oct 14 01:41:11 2019, MaxMem= 10737418240 cpu:               0.3 elap:               0.0
 (Enter /apps/cent7/gaussian/g16-A.03/g16-haswell/g16/l202.exe)
                          Input orientation:                          
 ---------------------------------------------------------------------
 Center     Atomic      Atomic             Coordinates (Angstroms)
 Number     Number       Type             X           Y           Z
 ---------------------------------------------------------------------
      1          8           0        1.229700   -0.118000   -0.021800
      2          7           0       -0.028600    0.042100   -0.007000
      3          6           0       -0.630700    1.174800   -0.013200
      4          6           0       -1.970500    1.322700    0.001900
      5          8           0       -2.858600    0.318200    0.030700
      6          6           0       -3.278100   -0.009600    1.369900
      7          7           0       -2.311900    2.561100   -0.025300
      8          6           0       -1.223300    3.286600   -0.034700
      9          6           0       -1.074200    4.684900   -0.023000
     10          6           0        0.231100    5.221000   -0.006400
     11          6           0        1.356500    4.365000   -0.004600
     12          6           0        1.191100    2.962100   -0.014800
     13          6           0       -0.118300    2.441100   -0.028200
     14          1           0        1.557600   -0.159700    0.879500
     15          1           0       -3.314000   -1.093000    1.484400
     16          1           0       -2.569500    0.408100    2.085100
     17          1           0       -4.268100    0.408100    1.553000
     18          1           0       -1.948000    5.336500   -0.026600
     19          1           0        0.370800    6.301900    0.005000
     20          1           0        2.360100    4.790200    0.004600
     21          1           0        2.054400    2.296700   -0.012300
     22          1           0       -0.596722   -0.780649    0.010939
 ---------------------------------------------------------------------
                    Distance matrix (angstroms):
                    1          2          3          4          5
     1  O    0.000000
     2  N    1.268531   0.000000
     3  C    2.265501   1.282799   0.000000
     4  C    3.509624   2.326154   1.348023   0.000000
     5  O    4.111839   2.843686   2.387306   1.341108   0.000000
     6  C    4.718987   3.529558   3.213175   2.314361   1.441142
     7  N    4.440779   3.399876   2.179084   1.284885   2.309246
     8  C    4.196269   3.457579   2.193476   2.101559   3.389673
     9  C    5.326895   4.759110   3.538021   3.479707   4.717524
    10  C    5.431608   5.185407   4.136965   4.477036   5.795263
    11  C    4.484826   4.539380   3.758512   4.508277   5.843364
    12  C    3.080350   3.164511   2.552136   3.561408   4.836564
    13  C    2.892428   2.400770   1.366124   2.163878   3.466903
    14  H    0.959999   1.828288   2.714122   3.926217   4.522353
    15  H    4.885128   3.782404   3.819139   3.136623   2.076564
    16  H    4.376040   3.311648   2.957979   2.352662   2.076589
    17  H    5.743046   4.532209   4.033794   2.919139   2.076576
    18  H    6.312636   5.631621   4.365227   4.013964   5.100570
    19  H    6.477156   6.272540   5.224030   5.502193   6.799585
    20  H    5.036758   5.315118   4.692155   5.547762   6.872721
    21  H    2.551665   3.069550   2.910055   4.141099   5.296591
    22  H    1.943191   1.000000   1.955893   2.512255   2.514747
                    6          7          8          9         10
     6  C    0.000000
     7  N    3.080361   0.000000
     8  C    4.130380   1.308239   0.000000
     9  C    5.369886   2.458136   1.406275   0.000000
    10  C    6.447314   3.679983   2.420327   1.411201   0.000000
    11  C    6.519654   4.087988   2.796287   2.451729   1.413953
    12  C    5.542756   3.525893   2.436190   2.845996   2.454445
    13  C    4.236148   2.196882   1.391380   2.438936   2.801856
    14  H    4.862820   4.816061   4.521742   5.586683   5.612161
    15  H    1.090025   4.078706   5.085232   6.377546   7.393025
    16  H    1.089999   3.025815   3.819891   4.997102   5.948255
    17  H    1.089999   3.309556   4.480777   5.565590   6.770416
    18  H    5.683323   2.799155   2.174246   1.090010   2.182252
    19  H    7.417038   4.603410   3.410977   2.168755   1.089950
    20  H    7.529371   5.176617   3.886272   3.436025   2.172176
    21  H    5.972023   4.374317   3.423992   3.935956   3.446156
    22  H    3.103399   3.756386   4.115483   5.486471   6.058497
                   11         12         13         14         15
    11  C    0.000000
    12  C    1.412653   0.000000
    13  C    2.424249   1.409308   0.000000
    14  H    4.614649   3.267986   3.224395   0.000000
    15  H    7.336243   6.243986   4.999032   4.996943   0.000000
    16  H    5.952930   5.007455   3.821977   4.336914   1.780006
    17  H    7.051191   6.227662   4.884068   5.891925   1.779976
    18  H    3.444418   3.935970   3.425076   6.581676   6.744446
    19  H    2.173310   3.439120   3.891799   6.627633   8.393505
    20  H    1.089997   2.169997   3.414940   5.090282   8.306459
    21  H    2.182885   1.089977   2.177551   2.660079   6.523028
    22  H    5.503910   4.147908   3.257313   2.404387   3.106808
                   16         17         18         19         20
    16  H    0.000000
    17  H    1.779992   0.000000
    18  H    5.397654   5.671607   0.000000
    19  H    6.907174   7.658497   2.511937   0.000000
    20  H    6.916085   8.095269   4.342711   2.498510   0.000000
    21  H    5.417227   6.781665   5.025912   4.344702   2.512226
    22  H    3.099536   4.155731   6.264733   7.148331   6.306916
                   21         22
    21  H    0.000000
    22  H    4.061904   0.000000
 Stoichiometry    C9H9N2O2(1+)
 Framework group  C1[X(C9H9N2O2)]
 Deg. of freedom    60
 Full point group                 C1      NOp   1
 Largest Abelian subgroup         C1      NOp   1
 Largest concise Abelian subgroup C1      NOp   1
                         Standard orientation:                         
 ---------------------------------------------------------------------
 Center     Atomic      Atomic             Coordinates (Angstroms)
 Number     Number       Type             X           Y           Z
 ---------------------------------------------------------------------
      1          8           0        0.812972    2.813424   -0.060654
      2          7           0        1.322500    1.658470   -0.185674
      3          6           0        0.665547    0.556696   -0.194581
      4          6           0        1.227221   -0.661264   -0.329721
      5          8           0        2.540470   -0.895671   -0.467573
      6          6           0        3.186297   -1.175636    0.789971
      7          7           0        0.344420   -1.594822   -0.322073
      8          6           0       -0.831704   -1.045878   -0.158117
      9          6           0       -2.097353   -1.648138   -0.043976
     10          6           0       -3.220191   -0.818005    0.159986
     11          6           0       -3.067244    0.585172    0.243454
     12          6           0       -1.789163    1.175854    0.128585
     13          6           0       -0.676721    0.334144   -0.071776
     14          1           0        0.782877    3.050987    0.869000
     15          1           0        4.140177   -0.649920    0.833451
     16          1           0        2.549014   -0.840423    1.608263
     17          1           0        3.358222   -2.248284    0.879235
     18          1           0       -2.205262   -2.730673   -0.111757
     19          1           0       -4.210796   -1.262926    0.253454
     20          1           0       -3.942038    1.216905    0.397531
     21          1           0       -1.664252    2.256721    0.193192
     22          1           0        2.315947    1.602389   -0.285271
 ---------------------------------------------------------------------
 Rotational constants (GHZ):           1.3652836           0.6909890           0.4772768
 Leave Link  202 at Mon Oct 14 01:41:11 2019, MaxMem= 10737418240 cpu:               0.3 elap:               0.0
 (Enter /apps/cent7/gaussian/g16-A.03/g16-haswell/g16/l301.exe)
 Standard basis: 6-31G(d) (6D, 7F)
 Ernie: Thresh=  0.10000D-02 Tol=  0.10000D-05 Strict=F.
 There are   213 symmetry adapted cartesian basis functions of A   symmetry.
 There are   213 symmetry adapted basis functions of A   symmetry.
   213 basis functions,   400 primitive gaussians,   213 cartesian basis functions
    46 alpha electrons       46 beta electrons
       nuclear repulsion energy       783.9889774418 Hartrees.
 IExCor=  402 DFT=T Ex+Corr=B3LYP ExCW=0 ScaHFX=  0.200000
 ScaDFX=  0.800000  0.720000  1.000000  0.810000 ScalE2=  1.000000  1.000000
 IRadAn=      5 IRanWt=     -1 IRanGd=            0 ICorTp=0 IEmpDi=  4
 NAtoms=   22 NActive=   22 NUniq=   22 SFac= 1.00D+00 NAtFMM=   60 NAOKFM=F Big=F
 Integral buffers will be    131072 words long.
 Raffenetti 2 integral format.
 Two-electron integral symmetry is turned on.
 Leave Link  301 at Mon Oct 14 01:41:11 2019, MaxMem= 10737418240 cpu:               1.3 elap:               0.1
 (Enter /apps/cent7/gaussian/g16-A.03/g16-haswell/g16/l302.exe)
 NPDir=0 NMtPBC=     1 NCelOv=     1 NCel=       1 NClECP=     1 NCelD=      1
         NCelK=      1 NCelE2=     1 NClLst=     1 CellRange=     0.0.
 One-electron integrals computed using PRISM.
 One-electron integral symmetry used in STVInt
 NBasis=   213 RedAO= T EigKep=  3.08D-04  NBF=   213
 NBsUse=   213 1.00D-06 EigRej= -1.00D+00 NBFU=   213
 Precomputing XC quadrature grid using
 IXCGrd= 4 IRadAn=           5 IRanWt=          -1 IRanGd=           0 AccXCQ= 0.00D+00.
 Generated NRdTot=       0 NPtTot=           0 NUsed=           0 NTot=          32
 NSgBfM=   212   212   212   212   212 MxSgAt=    22 MxSgA2=    22.
 Leave Link  302 at Mon Oct 14 01:41:11 2019, MaxMem= 10737418240 cpu:               3.8 elap:               0.2
 (Enter /apps/cent7/gaussian/g16-A.03/g16-haswell/g16/l303.exe)
 DipDrv:  MaxL=1.
 Leave Link  303 at Mon Oct 14 01:41:11 2019, MaxMem= 10737418240 cpu:               1.4 elap:               0.1
 (Enter /apps/cent7/gaussian/g16-A.03/g16-haswell/g16/l401.exe)
 ExpMin= 1.61D-01 ExpMax= 5.48D+03 ExpMxC= 8.25D+02 IAcc=3 IRadAn=         5 AccDes= 0.00D+00
 Harris functional with IExCor=  402 and IRadAn=       5 diagonalized for initial guess.
 HarFok:  IExCor=  402 AccDes= 0.00D+00 IRadAn=         5 IDoV= 1 UseB2=F ITyADJ=14
 ICtDFT=  3500011 ScaDFX=  1.000000  1.000000  1.000000  1.000000
 FoFCou: FMM=F IPFlag=           0 FMFlag=      100000 FMFlg1=           0
         NFxFlg=           0 DoJE=T BraDBF=F KetDBF=T FulRan=T
         wScrn=  0.000000 ICntrl=       500 IOpCl=  0 I1Cent=   200000004 NGrid=           0
         NMat0=    1 NMatS0=      1 NMatT0=    0 NMatD0=    1 NMtDS0=    0 NMtDT0=    0
 Petite list used in FoFCou.
 Harris En= -607.948636712630    
 JPrj=0 DoOrth=F DoCkMO=F.
 Leave Link  401 at Mon Oct 14 01:41:12 2019, MaxMem= 10737418240 cpu:               9.3 elap:               0.4
 (Enter /apps/cent7/gaussian/g16-A.03/g16-haswell/g16/l502.exe)
 Integral symmetry usage will be decided dynamically.
 Closed shell SCF:
 Using DIIS extrapolation, IDIIS=  1040.
 NGot= 10737418240 LenX= 10737319975 LenY= 10737274165
 Requested convergence on RMS density matrix=1.00D-08 within 128 cycles.
 Requested convergence on MAX density matrix=1.00D-06.
 Requested convergence on             energy=1.00D-06.
 No special actions if energy rises.
 Fock matrices will be formed incrementally for  20 cycles.
 Integral accuracy reduced to 1.0D-05 until final iterations.

 Cycle   1  Pass 0  IDiag  1:
 FoFJK:  IHMeth= 1 ICntrl=       0 DoSepK=F KAlg= 0 I1Cent=           0 FoldK=F
 IRaf= 890000000 NMat=       1 IRICut=       1 DoRegI=T DoRafI=F ISym2E= 0 IDoP0=0 IntGTp=1.
 FoFCou: FMM=F IPFlag=           0 FMFlag=      100000 FMFlg1=           0
         NFxFlg=           0 DoJE=F BraDBF=F KetDBF=F FulRan=T
         wScrn=  0.000000 ICntrl=         0 IOpCl=  0 I1Cent=           0 NGrid=           0
         NMat0=    1 NMatS0=      1 NMatT0=    0 NMatD0=    1 NMtDS0=    0 NMtDT0=    0
 Symmetry not used in FoFCou.
 E= -607.606662442709    
 DIIS: error= 2.24D-02 at cycle   1 NSaved=   1.
 NSaved= 1 IEnMin= 1 EnMin= -607.606662442709     IErMin= 1 ErrMin= 2.24D-02
 ErrMax= 2.24D-02  0.00D+00 EMaxC= 1.00D-01 BMatC= 2.96D-01 BMatP= 2.96D-01
 IDIUse=3 WtCom= 7.76D-01 WtEn= 2.24D-01
 Coeff-Com:  0.100D+01
 Coeff-En:   0.100D+01
 Coeff:      0.100D+01
 Gap=    -0.100 Goal=   None    Shift=    0.000
 GapD=   -0.100 DampG=0.250 DampE=0.500 DampFc=0.2500 IDamp=-1.
 Damping current iteration by 2.50D-01
 RMSDP=8.86D-03 MaxDP=3.05D-01              OVMax= 6.24D-01

 Cycle   2  Pass 0  IDiag  1:
 RMSU=  2.19D-03    CP:  9.88D-01
 E= -607.709322189531     Delta-E=       -0.102659746822 Rises=F Damp=T
 DIIS: error= 1.14D-02 at cycle   2 NSaved=   2.
 NSaved= 2 IEnMin= 2 EnMin= -607.709322189531     IErMin= 2 ErrMin= 1.14D-02
 ErrMax= 1.14D-02  0.00D+00 EMaxC= 1.00D-01 BMatC= 6.52D-02 BMatP= 2.96D-01
 IDIUse=3 WtCom= 8.86D-01 WtEn= 1.14D-01
 Coeff-Com: -0.327D+00 0.133D+01
 Coeff-En:   0.497D-01 0.950D+00
 Coeff:     -0.284D+00 0.128D+01
 Gap=     0.034 Goal=   None    Shift=    0.000
 RMSDP=3.60D-03 MaxDP=1.10D-01 DE=-1.03D-01 OVMax= 7.19D-01

 Cycle   3  Pass 0  IDiag  1:
 RMSU=  3.44D-03    CP:  9.47D-01  1.13D+00
 E= -607.812205885143     Delta-E=       -0.102883695612 Rises=F Damp=F
 DIIS: error= 1.31D-02 at cycle   3 NSaved=   3.
 NSaved= 3 IEnMin= 3 EnMin= -607.812205885143     IErMin= 2 ErrMin= 1.14D-02
 ErrMax= 1.31D-02  0.00D+00 EMaxC= 1.00D-01 BMatC= 9.74D-02 BMatP= 6.52D-02
 IDIUse=2 WtCom= 0.00D+00 WtEn= 1.00D+00
 Coeff-En:   0.000D+00 0.135D+00 0.865D+00
 Coeff:      0.000D+00 0.135D+00 0.865D+00
 Gap=     0.039 Goal=   None    Shift=    0.000
 RMSDP=5.59D-03 MaxDP=1.83D-01 DE=-1.03D-01 OVMax= 7.47D-01

 Cycle   4  Pass 0  IDiag  1:
 RMSU=  3.35D-03    CP:  9.55D-01  2.43D+00  1.16D-05
 E= -607.131388444361     Delta-E=        0.680817440781 Rises=F Damp=F
 DIIS: error= 3.52D-02 at cycle   4 NSaved=   4.
 NSaved= 4 IEnMin= 3 EnMin= -607.812205885143     IErMin= 2 ErrMin= 1.14D-02
 ErrMax= 3.52D-02  0.00D+00 EMaxC= 1.00D-01 BMatC= 5.95D-01 BMatP= 6.52D-02
 IDIUse=2 WtCom= 0.00D+00 WtEn= 1.00D+00
 Coeff-En:   0.000D+00 0.000D+00 0.808D+00 0.192D+00
 Coeff:      0.000D+00 0.000D+00 0.808D+00 0.192D+00
 Gap=     0.059 Goal=   None    Shift=    0.000
 RMSDP=3.33D-03 MaxDP=1.11D-01 DE= 6.81D-01 OVMax= 4.87D-01

 Cycle   5  Pass 0  IDiag  1:
 RMSU=  1.14D-03    CP:  9.54D-01  1.43D+00  5.06D-01  5.85D-01
 E= -607.869527708040     Delta-E=       -0.738139263678 Rises=F Damp=F
 DIIS: error= 1.12D-02 at cycle   5 NSaved=   5.
 NSaved= 5 IEnMin= 5 EnMin= -607.869527708040     IErMin= 5 ErrMin= 1.12D-02
 ErrMax= 1.12D-02  0.00D+00 EMaxC= 1.00D-01 BMatC= 5.06D-02 BMatP= 6.52D-02
 IDIUse=3 WtCom= 8.88D-01 WtEn= 1.12D-01
 Coeff-Com: -0.128D+00 0.281D+00 0.375D+00-0.423D-01 0.515D+00
 Coeff-En:   0.000D+00 0.000D+00 0.373D+00 0.000D+00 0.627D+00
 Coeff:     -0.114D+00 0.249D+00 0.375D+00-0.376D-01 0.527D+00
 Gap=     0.074 Goal=   None    Shift=    0.000
 RMSDP=1.28D-03 MaxDP=4.39D-02 DE=-7.38D-01 OVMax= 1.14D-01

 Cycle   6  Pass 0  IDiag  1:
 RMSU=  4.70D-04    CP:  9.53D-01  1.30D+00  6.97D-01  3.29D-01  6.40D-01
 E= -607.924576517351     Delta-E=       -0.055048809311 Rises=F Damp=F
 DIIS: error= 2.26D-03 at cycle   6 NSaved=   6.
 NSaved= 6 IEnMin= 6 EnMin= -607.924576517351     IErMin= 6 ErrMin= 2.26D-03
 ErrMax= 2.26D-03  0.00D+00 EMaxC= 1.00D-01 BMatC= 2.26D-03 BMatP= 5.06D-02
 IDIUse=3 WtCom= 9.77D-01 WtEn= 2.26D-02
 Coeff-Com: -0.607D-01 0.993D-01 0.163D+00-0.458D-01 0.354D+00 0.491D+00
 Coeff-En:   0.000D+00 0.000D+00 0.000D+00 0.000D+00 0.000D+00 0.100D+01
 Coeff:     -0.593D-01 0.970D-01 0.159D+00-0.448D-01 0.346D+00 0.502D+00
 Gap=     0.079 Goal=   None    Shift=    0.000
 RMSDP=2.57D-04 MaxDP=8.73D-03 DE=-5.50D-02 OVMax= 2.60D-02

 Cycle   7  Pass 0  IDiag  1:
 RMSU=  1.36D-04    CP:  9.52D-01  1.31D+00  6.92D-01  3.46D-01  7.24D-01
                    CP:  6.08D-01
 E= -607.926466308321     Delta-E=       -0.001889790970 Rises=F Damp=F
 DIIS: error= 4.45D-04 at cycle   7 NSaved=   7.
 NSaved= 7 IEnMin= 7 EnMin= -607.926466308321     IErMin= 7 ErrMin= 4.45D-04
 ErrMax= 4.45D-04  0.00D+00 EMaxC= 1.00D-01 BMatC= 1.26D-04 BMatP= 2.26D-03
 IDIUse=3 WtCom= 9.96D-01 WtEn= 4.45D-03
 Coeff-Com:  0.125D-02-0.408D-02 0.270D-01-0.106D-01 0.762D-01 0.219D+00
 Coeff-Com:  0.691D+00
 Coeff-En:   0.000D+00 0.000D+00 0.000D+00 0.000D+00 0.000D+00 0.000D+00
 Coeff-En:   0.100D+01
 Coeff:      0.124D-02-0.406D-02 0.269D-01-0.105D-01 0.759D-01 0.218D+00
 Coeff:      0.692D+00
 Gap=     0.081 Goal=   None    Shift=    0.000
 RMSDP=7.25D-05 MaxDP=2.29D-03 DE=-1.89D-03 OVMax= 8.04D-03

 Cycle   8  Pass 0  IDiag  1:
 RMSU=  4.99D-05    CP:  9.52D-01  1.30D+00  6.96D-01  3.49D-01  7.10D-01
                    CP:  6.64D-01  7.60D-01
 E= -607.926566825594     Delta-E=       -0.000100517273 Rises=F Damp=F
 DIIS: error= 2.44D-04 at cycle   8 NSaved=   8.
 NSaved= 8 IEnMin= 8 EnMin= -607.926566825594     IErMin= 8 ErrMin= 2.44D-04
 ErrMax= 2.44D-04  0.00D+00 EMaxC= 1.00D-01 BMatC= 2.82D-05 BMatP= 1.26D-04
 IDIUse=3 WtCom= 9.98D-01 WtEn= 2.44D-03
 Coeff-Com:  0.948D-02-0.150D-01-0.352D-02-0.453D-03-0.314D-02 0.637D-01
 Coeff-Com:  0.424D+00 0.525D+00
 Coeff-En:   0.000D+00 0.000D+00 0.000D+00 0.000D+00 0.000D+00 0.000D+00
 Coeff-En:   0.118D+00 0.882D+00
 Coeff:      0.946D-02-0.150D-01-0.351D-02-0.452D-03-0.313D-02 0.635D-01
 Coeff:      0.423D+00 0.526D+00
 Gap=     0.081 Goal=   None    Shift=    0.000
 RMSDP=3.26D-05 MaxDP=9.95D-04 DE=-1.01D-04 OVMax= 2.31D-03

 Cycle   9  Pass 0  IDiag  1:
 RMSU=  1.87D-05    CP:  9.52D-01  1.30D+00  6.96D-01  3.48D-01  7.11D-01
                    CP:  6.71D-01  8.72D-01  6.12D-01
 E= -607.926597034749     Delta-E=       -0.000030209156 Rises=F Damp=F
 DIIS: error= 6.74D-05 at cycle   9 NSaved=   9.
 NSaved= 9 IEnMin= 9 EnMin= -607.926597034749     IErMin= 9 ErrMin= 6.74D-05
 ErrMax= 6.74D-05  0.00D+00 EMaxC= 1.00D-01 BMatC= 1.65D-06 BMatP= 2.82D-05
 IDIUse=1 WtCom= 1.00D+00 WtEn= 0.00D+00
 Coeff-Com:  0.362D-02-0.519D-02-0.260D-02 0.110D-03-0.633D-02 0.147D-01
 Coeff-Com:  0.157D+00 0.273D+00 0.566D+00
 Coeff:      0.362D-02-0.519D-02-0.260D-02 0.110D-03-0.633D-02 0.147D-01
 Coeff:      0.157D+00 0.273D+00 0.566D+00
 Gap=     0.081 Goal=   None    Shift=    0.000
 RMSDP=1.01D-05 MaxDP=3.83D-04 DE=-3.02D-05 OVMax= 1.01D-03

 Cycle  10  Pass 0  IDiag  1:
 RMSU=  6.93D-06    CP:  9.52D-01  1.30D+00  6.97D-01  3.47D-01  7.11D-01
                    CP:  6.69D-01  8.65D-01  6.94D-01  7.53D-01
 E= -607.926598477332     Delta-E=       -0.000001442583 Rises=F Damp=F
 DIIS: error= 3.07D-05 at cycle  10 NSaved=  10.
 NSaved=10 IEnMin=10 EnMin= -607.926598477332     IErMin=10 ErrMin= 3.07D-05
 ErrMax= 3.07D-05  0.00D+00 EMaxC= 1.00D-01 BMatC= 5.21D-07 BMatP= 1.65D-06
 IDIUse=1 WtCom= 1.00D+00 WtEn= 0.00D+00
 Coeff-Com:  0.779D-03-0.901D-03-0.115D-02 0.228D-03-0.389D-02-0.135D-02
 Coeff-Com:  0.326D-01 0.966D-01 0.403D+00 0.475D+00
 Coeff:      0.779D-03-0.901D-03-0.115D-02 0.228D-03-0.389D-02-0.135D-02
 Coeff:      0.326D-01 0.966D-01 0.403D+00 0.475D+00
 Gap=     0.081 Goal=   None    Shift=    0.000
 RMSDP=3.83D-06 MaxDP=1.14D-04 DE=-1.44D-06 OVMax= 2.27D-04

 Initial convergence to 1.0D-05 achieved.  Increase integral accuracy.
 Cycle  11  Pass 1  IDiag  1:
 E= -607.926596085575     Delta-E=        0.000002391757 Rises=F Damp=F
 DIIS: error= 1.34D-05 at cycle   1 NSaved=   1.
 NSaved= 1 IEnMin= 1 EnMin= -607.926596085575     IErMin= 1 ErrMin= 1.34D-05
 ErrMax= 1.34D-05  0.00D+00 EMaxC= 1.00D-01 BMatC= 8.05D-08 BMatP= 8.05D-08
 IDIUse=1 WtCom= 1.00D+00 WtEn= 0.00D+00
 Coeff-Com:  0.100D+01
 Coeff:      0.100D+01
 Gap=     0.081 Goal=   None    Shift=    0.000
 RMSDP=3.83D-06 MaxDP=1.14D-04 DE= 2.39D-06 OVMax= 3.25D-04

 Cycle  12  Pass 1  IDiag  1:
 RMSU=  1.02D-05    CP:  1.00D+00
 E= -607.926595929779     Delta-E=        0.000000155796 Rises=F Damp=F
 DIIS: error= 1.90D-05 at cycle   2 NSaved=   2.
 NSaved= 2 IEnMin= 1 EnMin= -607.926596085575     IErMin= 1 ErrMin= 1.34D-05
 ErrMax= 1.90D-05  0.00D+00 EMaxC= 1.00D-01 BMatC= 1.95D-07 BMatP= 8.05D-08
 IDIUse=1 WtCom= 1.00D+00 WtEn= 0.00D+00
 Coeff-Com:  0.632D+00 0.368D+00
 Coeff:      0.632D+00 0.368D+00
 Gap=     0.081 Goal=   None    Shift=    0.000
 RMSDP=3.33D-06 MaxDP=1.03D-04 DE= 1.56D-07 OVMax= 3.68D-04

 Cycle  13  Pass 1  IDiag  1:
 RMSU=  3.19D-06    CP:  1.00D+00  9.11D-01
 E= -607.926596120865     Delta-E=       -0.000000191086 Rises=F Damp=F
 DIIS: error= 8.18D-06 at cycle   3 NSaved=   3.
 NSaved= 3 IEnMin= 3 EnMin= -607.926596120865     IErMin= 3 ErrMin= 8.18D-06
 ErrMax= 8.18D-06  0.00D+00 EMaxC= 1.00D-01 BMatC= 3.15D-08 BMatP= 8.05D-08
 IDIUse=1 WtCom= 1.00D+00 WtEn= 0.00D+00
 Coeff-Com:  0.130D+00 0.277D+00 0.593D+00
 Coeff:      0.130D+00 0.277D+00 0.593D+00
 Gap=     0.081 Goal=   None    Shift=    0.000
 RMSDP=1.09D-06 MaxDP=4.13D-05 DE=-1.91D-07 OVMax= 1.23D-04

 Cycle  14  Pass 1  IDiag  1:
 RMSU=  6.79D-07    CP:  1.00D+00  9.41D-01  7.54D-01
 E= -607.926596151998     Delta-E=       -0.000000031132 Rises=F Damp=F
 DIIS: error= 2.12D-06 at cycle   4 NSaved=   4.
 NSaved= 4 IEnMin= 4 EnMin= -607.926596151998     IErMin= 4 ErrMin= 2.12D-06
 ErrMax= 2.12D-06  0.00D+00 EMaxC= 1.00D-01 BMatC= 4.48D-09 BMatP= 3.15D-08
 IDIUse=1 WtCom= 1.00D+00 WtEn= 0.00D+00
 Coeff-Com: -0.688D-03 0.140D+00 0.379D+00 0.482D+00
 Coeff:     -0.688D-03 0.140D+00 0.379D+00 0.482D+00
 Gap=     0.081 Goal=   None    Shift=    0.000
 RMSDP=3.81D-07 MaxDP=1.07D-05 DE=-3.11D-08 OVMax= 3.02D-05

 Cycle  15  Pass 1  IDiag  1:
 RMSU=  1.64D-07    CP:  1.00D+00  9.44D-01  7.72D-01  5.04D-01
 E= -607.926596156062     Delta-E=       -0.000000004064 Rises=F Damp=F
 DIIS: error= 5.70D-07 at cycle   5 NSaved=   5.
 NSaved= 5 IEnMin= 5 EnMin= -607.926596156062     IErMin= 5 ErrMin= 5.70D-07
 ErrMax= 5.70D-07  0.00D+00 EMaxC= 1.00D-01 BMatC= 1.68D-10 BMatP= 4.48D-09
 IDIUse=1 WtCom= 1.00D+00 WtEn= 0.00D+00
 Coeff-Com: -0.381D-02 0.755D-01 0.193D+00 0.280D+00 0.455D+00
 Coeff:     -0.381D-02 0.755D-01 0.193D+00 0.280D+00 0.455D+00
 Gap=     0.081 Goal=   None    Shift=    0.000
 RMSDP=8.48D-08 MaxDP=2.26D-06 DE=-4.06D-09 OVMax= 8.05D-06

 Cycle  16  Pass 1  IDiag  1:
 RMSU=  7.68D-08    CP:  1.00D+00  9.46D-01  7.68D-01  5.42D-01  9.34D-01
 E= -607.926596156253     Delta-E=       -0.000000000191 Rises=F Damp=F
 DIIS: error= 2.20D-07 at cycle   6 NSaved=   6.
 NSaved= 6 IEnMin= 6 EnMin= -607.926596156253     IErMin= 6 ErrMin= 2.20D-07
 ErrMax= 2.20D-07  0.00D+00 EMaxC= 1.00D-01 BMatC= 2.97D-11 BMatP= 1.68D-10
 IDIUse=1 WtCom= 1.00D+00 WtEn= 0.00D+00
 Coeff-Com: -0.209D-02 0.273D-01 0.571D-01 0.103D+00 0.296D+00 0.518D+00
 Coeff:     -0.209D-02 0.273D-01 0.571D-01 0.103D+00 0.296D+00 0.518D+00
 Gap=     0.081 Goal=   None    Shift=    0.000
 RMSDP=3.55D-08 MaxDP=1.36D-06 DE=-1.91D-10 OVMax= 4.16D-06

 Cycle  17  Pass 1  IDiag  1:
 RMSU=  2.88D-08    CP:  1.00D+00  9.46D-01  7.67D-01  5.44D-01  1.06D+00
                    CP:  9.52D-01
 E= -607.926596156280     Delta-E=       -0.000000000027 Rises=F Damp=F
 DIIS: error= 1.01D-07 at cycle   7 NSaved=   7.
 NSaved= 7 IEnMin= 7 EnMin= -607.926596156280     IErMin= 7 ErrMin= 1.01D-07
 ErrMax= 1.01D-07  0.00D+00 EMaxC= 1.00D-01 BMatC= 6.46D-12 BMatP= 2.97D-11
 IDIUse=1 WtCom= 1.00D+00 WtEn= 0.00D+00
 Coeff-Com:  0.189D-04-0.117D-01-0.466D-01-0.439D-01 0.377D-01 0.260D+00
 Coeff-Com:  0.805D+00
 Coeff:      0.189D-04-0.117D-01-0.466D-01-0.439D-01 0.377D-01 0.260D+00
 Coeff:      0.805D+00
 Gap=     0.081 Goal=   None    Shift=    0.000
 RMSDP=3.17D-08 MaxDP=6.25D-07 DE=-2.73D-11 OVMax= 4.84D-06

 Cycle  18  Pass 1  IDiag  1:
 RMSU=  1.28D-08    CP:  1.00D+00  9.46D-01  7.67D-01  5.55D-01  1.20D+00
                    CP:  1.17D+00  1.04D+00
 E= -607.926596156288     Delta-E=       -0.000000000008 Rises=F Damp=F
 DIIS: error= 4.93D-08 at cycle   8 NSaved=   8.
 NSaved= 8 IEnMin= 8 EnMin= -607.926596156288     IErMin= 8 ErrMin= 4.93D-08
 ErrMax= 4.93D-08  0.00D+00 EMaxC= 1.00D-01 BMatC= 1.15D-12 BMatP= 6.46D-12
 IDIUse=1 WtCom= 1.00D+00 WtEn= 0.00D+00
 Coeff-Com:  0.349D-03-0.842D-02-0.299D-01-0.322D-01-0.644D-02 0.210D-01
 Coeff-Com:  0.445D+00 0.610D+00
 Coeff:      0.349D-03-0.842D-02-0.299D-01-0.322D-01-0.644D-02 0.210D-01
 Coeff:      0.445D+00 0.610D+00
 Gap=     0.081 Goal=   None    Shift=    0.000
 RMSDP=1.07D-08 MaxDP=2.84D-07 DE=-8.19D-12 OVMax= 1.82D-06

 Cycle  19  Pass 1  IDiag  1:
 RMSU=  5.51D-09    CP:  1.00D+00  9.46D-01  7.67D-01  5.56D-01  1.23D+00
                    CP:  1.20D+00  1.23D+00  9.55D-01
 E= -607.926596156297     Delta-E=       -0.000000000009 Rises=F Damp=F
 DIIS: error= 2.03D-08 at cycle   9 NSaved=   9.
 NSaved= 9 IEnMin= 9 EnMin= -607.926596156297     IErMin= 9 ErrMin= 2.03D-08
 ErrMax= 2.03D-08  0.00D+00 EMaxC= 1.00D-01 BMatC= 2.21D-13 BMatP= 1.15D-12
 IDIUse=1 WtCom= 1.00D+00 WtEn= 0.00D+00
 Coeff-Com:  0.215D-03-0.416D-02-0.137D-01-0.158D-01-0.880D-02-0.418D-01
 Coeff-Com:  0.165D+00 0.386D+00 0.533D+00
 Coeff:      0.215D-03-0.416D-02-0.137D-01-0.158D-01-0.880D-02-0.418D-01
 Coeff:      0.165D+00 0.386D+00 0.533D+00
 Gap=     0.081 Goal=   None    Shift=    0.000
 RMSDP=3.86D-09 MaxDP=9.42D-08 DE=-8.87D-12 OVMax= 4.74D-07

 SCF Done:  E(RB3LYP) =  -607.926596156     A.U. after   19 cycles
            NFock= 19  Conv=0.39D-08     -V/T= 2.0072
 KE= 6.035704388011D+02 PE=-2.968448210093D+03 EE= 9.729621976936D+02
 Leave Link  502 at Mon Oct 14 01:41:18 2019, MaxMem= 10737418240 cpu:             147.2 elap:               6.2
 (Enter /apps/cent7/gaussian/g16-A.03/g16-haswell/g16/l601.exe)
 Copying SCF densities to generalized density rwf, IOpCl= 0 IROHF=0.

 **********************************************************************

            Population analysis using the SCF density.

 **********************************************************************

 Orbital symmetries:
       Occupied  (A) (A) (A) (A) (A) (A) (A) (A) (A) (A) (A) (A)
                 (A) (A) (A) (A) (A) (A) (A) (A) (A) (A) (A) (A)
                 (A) (A) (A) (A) (A) (A) (A) (A) (A) (A) (A) (A)
                 (A) (A) (A) (A) (A) (A) (A) (A) (A) (A)
       Virtual   (A) (A) (A) (A) (A) (A) (A) (A) (A) (A) (A) (A)
                 (A) (A) (A) (A) (A) (A) (A) (A) (A) (A) (A) (A)
                 (A) (A) (A) (A) (A) (A) (A) (A) (A) (A) (A) (A)
                 (A) (A) (A) (A) (A) (A) (A) (A) (A) (A) (A) (A)
                 (A) (A) (A) (A) (A) (A) (A) (A) (A) (A) (A) (A)
                 (A) (A) (A) (A) (A) (A) (A) (A) (A) (A) (A) (A)
                 (A) (A) (A) (A) (A) (A) (A) (A) (A) (A) (A) (A)
                 (A) (A) (A) (A) (A) (A) (A) (A) (A) (A) (A) (A)
                 (A) (A) (A) (A) (A) (A) (A) (A) (A) (A) (A) (A)
                 (A) (A) (A) (A) (A) (A) (A) (A) (A) (A) (A) (A)
                 (A) (A) (A) (A) (A) (A) (A) (A) (A) (A) (A) (A)
                 (A) (A) (A) (A) (A) (A) (A) (A) (A) (A) (A) (A)
                 (A) (A) (A) (A) (A) (A) (A) (A) (A) (A) (A) (A)
                 (A) (A) (A) (A) (A) (A) (A) (A) (A) (A) (A)
 The electronic state is 1-A.
 Alpha  occ. eigenvalues --  -19.41474 -19.33093 -14.66341 -14.49563 -10.44983
 Alpha  occ. eigenvalues --  -10.44127 -10.38456 -10.37860 -10.37742 -10.36955
 Alpha  occ. eigenvalues --  -10.36408 -10.35870 -10.35725  -1.38637  -1.24267
 Alpha  occ. eigenvalues --   -1.16997  -1.11517  -1.00955  -0.96021  -0.90597
 Alpha  occ. eigenvalues --   -0.89810  -0.85247  -0.83559  -0.83159  -0.77410
 Alpha  occ. eigenvalues --   -0.75686  -0.71525  -0.70430  -0.67327  -0.66168
 Alpha  occ. eigenvalues --   -0.64180  -0.61870  -0.60372  -0.59681  -0.58645
 Alpha  occ. eigenvalues --   -0.58425  -0.54334  -0.53022  -0.52767  -0.51728
 Alpha  occ. eigenvalues --   -0.51205  -0.48638  -0.44324  -0.43591  -0.42821
 Alpha  occ. eigenvalues --   -0.38684
 Alpha virt. eigenvalues --   -0.30595  -0.17930  -0.12816  -0.11975  -0.09019
 Alpha virt. eigenvalues --   -0.06767  -0.03837  -0.02320   0.00179   0.00576
 Alpha virt. eigenvalues --    0.00832   0.01603   0.02079   0.03471   0.04365
 Alpha virt. eigenvalues --    0.04447   0.08608   0.10281   0.11771   0.13750
 Alpha virt. eigenvalues --    0.16706   0.18112   0.20686   0.21692   0.26084
 Alpha virt. eigenvalues --    0.30127   0.31664   0.33142   0.34700   0.36853
 Alpha virt. eigenvalues --    0.37257   0.38461   0.39005   0.39560   0.41190
 Alpha virt. eigenvalues --    0.42507   0.44238   0.44666   0.45029   0.45279
 Alpha virt. eigenvalues --    0.46289   0.47835   0.48807   0.48912   0.50785
 Alpha virt. eigenvalues --    0.53113   0.56502   0.58310   0.59558   0.59672
 Alpha virt. eigenvalues --    0.62778   0.64204   0.66194   0.66997   0.68324
 Alpha virt. eigenvalues --    0.69667   0.71543   0.71722   0.72313   0.73619
 Alpha virt. eigenvalues --    0.74290   0.75273   0.76309   0.78409   0.79684
 Alpha virt. eigenvalues --    0.80895   0.82204   0.84003   0.84800   0.89209
 Alpha virt. eigenvalues --    0.89502   0.91730   0.93601   0.95731   0.98722
 Alpha virt. eigenvalues --    1.00966   1.02689   1.05609   1.09732   1.11332
 Alpha virt. eigenvalues --    1.13860   1.14132   1.17684   1.21548   1.24091
 Alpha virt. eigenvalues --    1.25389   1.28504   1.29184   1.30071   1.30799
 Alpha virt. eigenvalues --    1.32366   1.32867   1.37364   1.39213   1.40478
 Alpha virt. eigenvalues --    1.46303   1.50202   1.50719   1.54630   1.59515
 Alpha virt. eigenvalues --    1.63467   1.65164   1.66390   1.69164   1.70889
 Alpha virt. eigenvalues --    1.71255   1.73799   1.77026   1.81055   1.82208
 Alpha virt. eigenvalues --    1.84015   1.85617   1.87238   1.90295   1.90854
 Alpha virt. eigenvalues --    1.92382   1.96259   1.96922   2.00126   2.02718
 Alpha virt. eigenvalues --    2.04277   2.06893   2.08448   2.10409   2.11432
 Alpha virt. eigenvalues --    2.15545   2.17730   2.19440   2.22421   2.25763
 Alpha virt. eigenvalues --    2.27443   2.32363   2.34448   2.38313   2.39811
 Alpha virt. eigenvalues --    2.45337   2.46350   2.49493   2.51402   2.51979
 Alpha virt. eigenvalues --    2.55039   2.56985   2.59788   2.62099   2.65421
 Alpha virt. eigenvalues --    2.69977   2.74073   2.76443   2.83480   2.94449
 Alpha virt. eigenvalues --    3.03788   3.13011   3.24993   3.32966   3.56517
 Alpha virt. eigenvalues --    3.80479   3.90809   3.94474   3.95282   4.02636
 Alpha virt. eigenvalues --    4.08048   4.14272   4.17037   4.23829   4.37889
 Alpha virt. eigenvalues --    4.54801   4.72512
          Condensed to atoms (all electrons):
               1          2          3          4          5          6
     1  O    8.097285   0.146355  -0.032290   0.004109   0.000082  -0.000019
     2  N    0.146355   6.858528   0.216350  -0.082140  -0.003362   0.000293
     3  C   -0.032290   0.216350   5.342246   0.193415  -0.087456  -0.005426
     4  C    0.004109  -0.082140   0.193415   4.760151   0.289748  -0.032153
     5  O    0.000082  -0.003362  -0.087456   0.289748   8.234539   0.217120
     6  C   -0.000019   0.000293  -0.005426  -0.032153   0.217120   4.945103
     7  N   -0.000112   0.009785  -0.131704   0.526740  -0.073567  -0.004224
     8  C   -0.000277   0.009125   0.040191  -0.125450   0.000098   0.000576
     9  C   -0.000001  -0.000248   0.019033   0.000797  -0.000140   0.000018
    10  C    0.000001   0.000017  -0.000399  -0.000185   0.000001  -0.000000
    11  C    0.000309  -0.000072   0.010803  -0.000407  -0.000000  -0.000000
    12  C    0.006566  -0.018121  -0.111249   0.020104  -0.000022  -0.000001
    13  C   -0.015814  -0.065304   0.243330  -0.038446   0.007656   0.000130
    14  H    0.244562  -0.039920  -0.002764  -0.000058   0.000005  -0.000006
    15  H   -0.000004  -0.000128   0.001258   0.001070  -0.030114   0.379606
    16  H   -0.000004   0.000252   0.004191   0.001787  -0.037382   0.357889
    17  H    0.000000   0.000036  -0.000766  -0.000955  -0.032108   0.385815
    18  H    0.000000   0.000000  -0.000307   0.000147  -0.000003   0.000001
    19  H    0.000000   0.000000   0.000010   0.000002  -0.000000  -0.000000
    20  H   -0.000002  -0.000001  -0.000222   0.000004  -0.000000   0.000000
    21  H    0.009705  -0.000949  -0.007737  -0.000089   0.000000   0.000000
    22  H   -0.031922   0.320729  -0.055369   0.002400   0.017718  -0.000509
               7          8          9         10         11         12
     1  O   -0.000112  -0.000277  -0.000001   0.000001   0.000309   0.006566
     2  N    0.009785   0.009125  -0.000248   0.000017  -0.000072  -0.018121
     3  C   -0.131704   0.040191   0.019033  -0.000399   0.010803  -0.111249
     4  C    0.526740  -0.125450   0.000797  -0.000185  -0.000407   0.020104
     5  O   -0.073567   0.000098  -0.000140   0.000001  -0.000000  -0.000022
     6  C   -0.004224   0.000576   0.000018  -0.000000  -0.000000  -0.000001
     7  N    6.926207   0.319687  -0.077813   0.005742  -0.000679   0.014320
     8  C    0.319687   4.658283   0.503546  -0.001538  -0.041039  -0.050275
     9  C   -0.077813   0.503546   5.057902   0.452839  -0.022503  -0.051921
    10  C    0.005742  -0.001538   0.452839   4.877864   0.527987  -0.022638
    11  C   -0.000679  -0.041039  -0.022503   0.527987   4.905812   0.456780
    12  C    0.014320  -0.050275  -0.051921  -0.022638   0.456780   5.141084
    13  C   -0.076734   0.434415  -0.054514  -0.037421  -0.003786   0.430333
    14  H    0.000012   0.000028  -0.000000  -0.000001  -0.000018   0.001096
    15  H   -0.000154  -0.000000  -0.000000   0.000000   0.000000  -0.000000
    16  H    0.000064   0.000740   0.000021  -0.000001   0.000001   0.000006
    17  H    0.002328  -0.000154  -0.000001   0.000000   0.000000  -0.000000
    18  H   -0.000741  -0.026068   0.350486  -0.038895   0.003795   0.000173
    19  H   -0.000074   0.002372  -0.032708   0.365203  -0.032649   0.003729
    20  H    0.000002   0.000755   0.003413  -0.031808   0.365167  -0.032089
    21  H   -0.000175   0.003615   0.000238   0.003654  -0.032487   0.353407
    22  H    0.000641  -0.000066   0.000007  -0.000000   0.000009  -0.000006
              13         14         15         16         17         18
     1  O   -0.015814   0.244562  -0.000004  -0.000004   0.000000   0.000000
     2  N   -0.065304  -0.039920  -0.000128   0.000252   0.000036   0.000000
     3  C    0.243330  -0.002764   0.001258   0.004191  -0.000766  -0.000307
     4  C   -0.038446  -0.000058   0.001070   0.001787  -0.000955   0.000147
     5  O    0.007656   0.000005  -0.030114  -0.037382  -0.032108  -0.000003
     6  C    0.000130  -0.000006   0.379606   0.357889   0.385815   0.000001
     7  N   -0.076734   0.000012  -0.000154   0.000064   0.002328  -0.000741
     8  C    0.434415   0.000028  -0.000000   0.000740  -0.000154  -0.026068
     9  C   -0.054514  -0.000000  -0.000000   0.000021  -0.000001   0.350486
    10  C   -0.037421  -0.000001   0.000000  -0.000001   0.000000  -0.038895
    11  C   -0.003786  -0.000018   0.000000   0.000001   0.000000   0.003795
    12  C    0.430333   0.001096  -0.000000   0.000006  -0.000000   0.000173
    13  C    5.060963   0.000935  -0.000016  -0.001136   0.000063   0.005923
    14  H    0.000935   0.329049   0.000001  -0.000006  -0.000000  -0.000000
    15  H   -0.000016   0.000001   0.513509  -0.030605  -0.030253  -0.000000
    16  H   -0.001136  -0.000006  -0.030605   0.580454  -0.030389   0.000001
    17  H    0.000063  -0.000000  -0.030253  -0.030389   0.485396   0.000000
    18  H    0.005923  -0.000000  -0.000000   0.000001   0.000000   0.498450
    19  H    0.000491  -0.000000  -0.000000  -0.000000   0.000000  -0.003694
    20  H    0.002034  -0.000000   0.000000   0.000000  -0.000000  -0.000106
    21  H   -0.036707  -0.000487   0.000000  -0.000000   0.000000   0.000014
    22  H    0.004715   0.000719  -0.000495  -0.000225   0.000130  -0.000000
              19         20         21         22
     1  O    0.000000  -0.000002   0.009705  -0.031922
     2  N    0.000000  -0.000001  -0.000949   0.320729
     3  C    0.000010  -0.000222  -0.007737  -0.055369
     4  C    0.000002   0.000004  -0.000089   0.002400
     5  O   -0.000000  -0.000000   0.000000   0.017718
     6  C   -0.000000   0.000000   0.000000  -0.000509
     7  N   -0.000074   0.000002  -0.000175   0.000641
     8  C    0.002372   0.000755   0.003615  -0.000066
     9  C   -0.032708   0.003413   0.000238   0.000007
    10  C    0.365203  -0.031808   0.003654  -0.000000
    11  C   -0.032649   0.365167  -0.032487   0.000009
    12  C    0.003729  -0.032089   0.353407  -0.000006
    13  C    0.000491   0.002034  -0.036707   0.004715
    14  H   -0.000000  -0.000000  -0.000487   0.000719
    15  H   -0.000000   0.000000   0.000000  -0.000495
    16  H   -0.000000   0.000000  -0.000000  -0.000225
    17  H    0.000000  -0.000000   0.000000   0.000130
    18  H   -0.003694  -0.000106   0.000014  -0.000000
    19  H    0.492495  -0.003666  -0.000118   0.000000
    20  H   -0.003666   0.502393  -0.003418  -0.000000
    21  H   -0.000118  -0.003418   0.521991   0.000021
    22  H    0.000000  -0.000000   0.000021   0.347488
 Mulliken charges:
               1
     1  O   -0.428528
     2  N   -0.351226
     3  C    0.364863
     4  C    0.479409
     5  O   -0.502814
     6  C   -0.244209
     7  N   -0.439548
     8  C    0.271438
     9  C   -0.148448
    10  C   -0.100421
    11  C   -0.137023
    12  C   -0.141274
    13  C    0.138889
    14  H    0.466855
    15  H    0.196325
    16  H    0.154343
    17  H    0.220858
    18  H    0.210824
    19  H    0.208610
    20  H    0.197543
    21  H    0.189521
    22  H    0.394015
 Sum of Mulliken charges =   1.00000
 Mulliken charges with hydrogens summed into heavy atoms:
               1
     1  O    0.038327
     2  N    0.042789
     3  C    0.364863
     4  C    0.479409
     5  O   -0.502814
     6  C    0.327317
     7  N   -0.439548
     8  C    0.271438
     9  C    0.062376
    10  C    0.108189
    11  C    0.060521
    12  C    0.048246
    13  C    0.138889
 Electronic spatial extent (au):  <R**2>=           2261.9835
 Charge=              1.0000 electrons
 Dipole moment (field-independent basis, Debye):
    X=              0.2387    Y=              4.1208    Z=              3.2011  Tot=              5.2235
 Quadrupole moment (field-independent basis, Debye-Ang):
   XX=            -35.3413   YY=            -54.5143   ZZ=            -70.4240
   XY=              7.3331   XZ=              4.4137   YZ=              2.9282
 Traceless Quadrupole moment (field-independent basis, Debye-Ang):
   XX=             18.0853   YY=             -1.0878   ZZ=            -16.9975
   XY=              7.3331   XZ=              4.4137   YZ=              2.9282
 Octapole moment (field-independent basis, Debye-Ang**2):
  XXX=             -2.9675  YYY=             38.0999  ZZZ=              0.6281  XYY=              4.7793
  XXY=             -3.6702  XXZ=             21.8035  XZZ=             15.0166  YZZ=              9.6186
  YYZ=             21.3946  XYZ=             -5.3016
 Hexadecapole moment (field-independent basis, Debye-Ang**3):
 XXXX=          -1396.0016 YYYY=           -754.1855 ZZZZ=           -122.8867 XXXY=             24.1039
 XXXZ=             22.7439 YYYX=             44.7486 YYYZ=             52.0629 ZZZX=              3.2659
 ZZZY=              5.7247 XXYY=           -352.4510 XXZZ=           -339.1330 YYZZ=           -152.0161
 XXYZ=            -17.3408 YYXZ=             18.4319 ZZXY=              4.0807
 N-N= 7.839889774418D+02 E-N=-2.968448209622D+03  KE= 6.035704388011D+02
 No NMR shielding tensors so no spin-rotation constants.
 Leave Link  601 at Mon Oct 14 01:41:18 2019, MaxMem= 10737418240 cpu:               2.6 elap:               0.1
 (Enter /apps/cent7/gaussian/g16-A.03/g16-haswell/g16/l701.exe)
 ... and contract with generalized density number  0.
 Compute integral first derivatives.
 Leave Link  701 at Mon Oct 14 01:41:18 2019, MaxMem= 10737418240 cpu:               3.9 elap:               0.2
 (Enter /apps/cent7/gaussian/g16-A.03/g16-haswell/g16/l702.exe)
 L702 exits ... SP integral derivatives will be done elsewhere.
 Leave Link  702 at Mon Oct 14 01:41:18 2019, MaxMem= 10737418240 cpu:               0.4 elap:               0.0
 (Enter /apps/cent7/gaussian/g16-A.03/g16-haswell/g16/l703.exe)
 Integral derivatives from FoFJK, PRISM(SPDF).
 Compute integral first derivatives, UseDBF=F ICtDFT=           0.
 Calling FoFJK, ICntrl=      2127 FMM=F ISym2X=0 I1Cent= 0 IOpClX= 0 NMat=1 NMatS=1 NMatT=0.
 FoFJK:  IHMeth= 1 ICntrl=    2127 DoSepK=F KAlg= 0 I1Cent=           0 FoldK=F
 IRaf=         0 NMat=       1 IRICut=       1 DoRegI=T DoRafI=F ISym2E= 0 IDoP0=0 IntGTp=1.
 FoFCou: FMM=F IPFlag=           0 FMFlag=      100000 FMFlg1=         800
         NFxFlg=           0 DoJE=F BraDBF=F KetDBF=F FulRan=T
         wScrn=  0.000000 ICntrl=      2127 IOpCl=  0 I1Cent=           0 NGrid=           0
         NMat0=    1 NMatS0=      1 NMatT0=    0 NMatD0=    1 NMtDS0=    0 NMtDT0=    0
 Symmetry not used in FoFCou.
 Leave Link  703 at Mon Oct 14 01:41:20 2019, MaxMem= 10737418240 cpu:              31.2 elap:               1.3
 (Enter /apps/cent7/gaussian/g16-A.03/g16-haswell/g16/l716.exe)
 Dipole        = 9.39278753D-02 1.62123452D+00 1.25939792D+00
 ***** Axes restored to original set *****
 -------------------------------------------------------------------
 Center     Atomic                   Forces (Hartrees/Bohr)
 Number     Number              X              Y              Z
 -------------------------------------------------------------------
      1        8           0.088653616   -0.008962399   -0.019290225
      2        7          -0.076906749   -0.008519094    0.008001244
      3        6           0.079753484   -0.029259065   -0.003788122
      4        6          -0.131106040    0.004865896   -0.006289260
      5        8           0.011901529   -0.011242901   -0.002939439
      6        6          -0.007994703   -0.002058064    0.008816066
      7        7          -0.099022775   -0.031642220    0.002973079
      8        6           0.065422304    0.076346599   -0.000527816
      9        6          -0.013944900   -0.019054114   -0.000849869
     10        6           0.019299542   -0.012503552   -0.000204335
     11        6          -0.008192883    0.008846334   -0.000270213
     12        6          -0.003735841   -0.001936866   -0.000042428
     13        6           0.080684146    0.062771976   -0.000346273
     14        1           0.010128177   -0.002892768    0.017572096
     15        1          -0.000152895   -0.001874069   -0.003426326
     16        1          -0.000128882    0.000032270    0.004861735
     17        1          -0.001173541    0.001508232   -0.000028142
     18        1           0.001994577   -0.002895842    0.000059221
     19        1          -0.000110266   -0.003349509   -0.000110678
     20        1          -0.003485357   -0.001703319    0.000057693
     21        1          -0.001289627    0.004542264   -0.000777455
     22        1          -0.010592916   -0.021019789   -0.003450555
 -------------------------------------------------------------------
 Cartesian Forces:  Max     0.131106040 RMS     0.033253841
 Leave Link  716 at Mon Oct 14 01:41:20 2019, MaxMem= 10737418240 cpu:               0.6 elap:               0.0
 (Enter /apps/cent7/gaussian/g16-A.03/g16-haswell/g16/l103.exe)

 GradGradGradGradGradGradGradGradGradGradGradGradGradGradGradGradGradGrad
 Berny optimization.
 FormGI is forming the generalized inverse of G from B-inverse, IUseBI=4.
 Internal  Forces:  Max     0.126326396 RMS     0.021986107
 Search for a local minimum.
 Step number   1 out of a maximum of  116
 All quantities printed in internal units (Hartrees-Bohrs-Radians)
 RMS Force = .21986D-01 SwitMx=.10000D-02 MixMth= 1
 Mixed Optimization -- RFO/linear search
 Second derivative matrix not updated -- first step.
 ITU=  0
     Eigenvalues ---    0.01148   0.01912   0.01922   0.01925   0.01945
     Eigenvalues ---    0.01962   0.01975   0.02213   0.02256   0.02378
     Eigenvalues ---    0.02471   0.02757   0.02824   0.02975   0.03034
     Eigenvalues ---    0.03173   0.03242   0.10288   0.10288   0.16000
     Eigenvalues ---    0.16000   0.16000   0.16000   0.16000   0.16000
     Eigenvalues ---    0.16000   0.16000   0.16000   0.22000   0.22000
     Eigenvalues ---    0.22607   0.24521   0.24983   0.24998   0.24999
     Eigenvalues ---    0.25000   0.25000   0.34810   0.34811   0.34813
     Eigenvalues ---    0.34813   0.34813   0.34815   0.34818   0.38978
     Eigenvalues ---    0.39429   0.40279   0.43455   0.43663   0.43981
     Eigenvalues ---    0.44348   0.47688   0.48449   0.52781   0.55474
     Eigenvalues ---    0.56957   0.62248   0.68087   0.72206   0.76749
 RFO step:  Lambda=-7.96460268D-02 EMin= 1.14755305D-02
 Linear search not attempted -- first point.
 Maximum step size (   0.300) exceeded in Quadratic search.
    -- Step size scaled by   0.835
 Iteration  1 RMS(Cart)=  0.08038482 RMS(Int)=  0.00137577
 Iteration  2 RMS(Cart)=  0.00193423 RMS(Int)=  0.00007750
 Iteration  3 RMS(Cart)=  0.00000356 RMS(Int)=  0.00007748
 Iteration  4 RMS(Cart)=  0.00000000 RMS(Int)=  0.00007748
 ITry= 1 IFail=0 DXMaxC= 3.27D-01 DCOld= 1.00D+10 DXMaxT= 3.00D-01 DXLimC= 3.00D+00 Rises=F
 Variable       Old X    -DE/DX   Delta X   Delta X   Delta X     New X
                                 (Linear)    (Quad)   (Total)
    R1        2.39718   0.09950   0.00000   0.09803   0.09803   2.49520
    R2        1.81414   0.02008   0.00000   0.02642   0.02642   1.84056
    R3        2.42414   0.04186   0.00000   0.04358   0.04358   2.46771
    R4        1.88973   0.02325   0.00000   0.03487   0.03487   1.92459
    R5        2.54739   0.12633   0.00000   0.16840   0.16842   2.71581
    R6        2.58160   0.07211   0.00000   0.10028   0.10019   2.68179
    R7        2.53433   0.00875   0.00000   0.01124   0.01124   2.54557
    R8        2.42808   0.01466   0.00000   0.01684   0.01694   2.44502
    R9        2.72336   0.01280   0.00000   0.02253   0.02253   2.74590
   R10        2.05985   0.00151   0.00000   0.00294   0.00294   2.06279
   R11        2.05980   0.00312   0.00000   0.00608   0.00608   2.06588
   R12        2.05980   0.00164   0.00000   0.00320   0.00320   2.06300
   R13        2.47221   0.11075   0.00000   0.12597   0.12602   2.59823
   R14        2.65748  -0.02398   0.00000  -0.03772  -0.03765   2.61982
   R15        2.62933   0.03374   0.00000   0.04944   0.04935   2.67868
   R16        2.66678   0.00784   0.00000   0.01187   0.01195   2.67873
   R17        2.05982  -0.00333   0.00000  -0.00650  -0.00650   2.05332
   R18        2.67198  -0.01638   0.00000  -0.02774  -0.02772   2.64427
   R19        2.05971  -0.00334   0.00000  -0.00651  -0.00651   2.05320
   R20        2.66953  -0.00700   0.00000  -0.01168  -0.01175   2.65778
   R21        2.05980  -0.00387   0.00000  -0.00756  -0.00756   2.05224
   R22        2.66321  -0.00786   0.00000  -0.01182  -0.01190   2.65131
   R23        2.05976  -0.00380   0.00000  -0.00741  -0.00741   2.05235
    A1        1.91064   0.00676   0.00000   0.02354   0.02354   1.93417
    A2        2.18580  -0.00261   0.00000  -0.00726  -0.00743   2.17837
    A3        2.04869  -0.00176   0.00000  -0.00704  -0.00721   2.04148
    A4        2.04869   0.00437   0.00000   0.01430   0.01412   2.06281
    A5        2.16920  -0.01083   0.00000  -0.02885  -0.02882   2.14038
    A6        2.26852   0.00528   0.00000   0.01195   0.01198   2.28050
    A7        1.84545   0.00556   0.00000   0.01695   0.01685   1.86230
    A8        2.18491  -0.00684   0.00000  -0.02060  -0.02066   2.16425
    A9        1.94937  -0.00776   0.00000  -0.01309  -0.01301   1.93636
   A10        2.14887   0.01458   0.00000   0.03363   0.03357   2.18244
   A11        1.96393   0.02265   0.00000   0.05735   0.05735   2.02129
   A12        1.91057  -0.00614   0.00000  -0.02202  -0.02204   1.88853
   A13        1.91063   0.00726   0.00000   0.02644   0.02647   1.93710
   A14        1.91062  -0.00143   0.00000  -0.00549  -0.00557   1.90505
   A15        1.91067   0.00065   0.00000   0.00332   0.00340   1.91407
   A16        1.91062   0.00112   0.00000   0.00157   0.00145   1.91207
   A17        1.91068  -0.00146   0.00000  -0.00382  -0.00385   1.90683
   A18        1.88973  -0.00656   0.00000  -0.01404  -0.01387   1.87587
   A19        2.26475  -0.01205   0.00000  -0.02851  -0.02851   2.23624
   A20        1.90056   0.02248   0.00000   0.05092   0.05086   1.95142
   A21        2.11763  -0.01042   0.00000  -0.02232  -0.02227   2.09536
   A22        2.06678   0.00006   0.00000  -0.00164  -0.00150   2.06528
   A23        2.10526  -0.00119   0.00000  -0.00323  -0.00330   2.10197
   A24        2.11114   0.00113   0.00000   0.00487   0.00480   2.11594
   A25        2.10160   0.00883   0.00000   0.02023   0.02032   2.12192
   A26        2.08910  -0.00408   0.00000  -0.00897  -0.00901   2.08009
   A27        2.09248  -0.00474   0.00000  -0.01126  -0.01131   2.08117
   A28        2.10368   0.00008   0.00000  -0.00336  -0.00343   2.10025
   A29        2.09057   0.00017   0.00000   0.00243   0.00246   2.09304
   A30        2.08894  -0.00026   0.00000   0.00093   0.00096   2.08990
   A31        2.06688  -0.00335   0.00000  -0.00959  -0.00976   2.05712
   A32        2.11006  -0.00121   0.00000  -0.00525  -0.00517   2.10489
   A33        2.10624   0.00456   0.00000   0.01485   0.01493   2.12117
   A34        1.83946  -0.01371   0.00000  -0.04064  -0.04076   1.79870
   A35        2.33374   0.00893   0.00000   0.02406   0.02420   2.35795
   A36        2.10979   0.00480   0.00000   0.01668   0.01664   2.12643
    D1        1.58493   0.00373   0.00000   0.02810   0.02796   1.61290
    D2       -1.55666  -0.00101   0.00000  -0.00744  -0.00730  -1.56396
    D3        3.14075  -0.00275   0.00000  -0.02088  -0.02091   3.11984
    D4       -0.00742  -0.00127   0.00000  -0.00930  -0.00940  -0.01682
    D5       -0.00085   0.00199   0.00000   0.01466   0.01476   0.01391
    D6        3.13417   0.00347   0.00000   0.02623   0.02626  -3.12275
    D7        0.00489  -0.00021   0.00000  -0.00265  -0.00268   0.00221
    D8       -3.12784   0.00074   0.00000   0.00506   0.00486  -3.12297
    D9       -3.13146  -0.00139   0.00000  -0.01189  -0.01182   3.13990
   D10        0.01899  -0.00045   0.00000  -0.00418  -0.00428   0.01472
   D11        3.13687  -0.00081   0.00000  -0.00701  -0.00715   3.12972
   D12       -0.02655  -0.00014   0.00000  -0.00138  -0.00153  -0.02808
   D13       -0.01037   0.00041   0.00000   0.00279   0.00283  -0.00754
   D14        3.10939   0.00108   0.00000   0.00841   0.00845   3.11784
   D15        1.64241   0.00578   0.00000   0.04594   0.04598   1.68839
   D16       -1.50902   0.00461   0.00000   0.03713   0.03709  -1.47192
   D17       -0.01990   0.00090   0.00000   0.00482   0.00469  -0.01521
   D18        3.13034   0.00194   0.00000   0.01266   0.01266  -3.14019
   D19       -2.39771  -0.00266   0.00000  -0.01706  -0.01690  -2.41461
   D20       -0.30330  -0.00117   0.00000  -0.01029  -0.01038  -0.31368
   D21        1.79114   0.00061   0.00000  -0.00215  -0.00222   1.78892
   D22       -3.10487  -0.00070   0.00000  -0.00664  -0.00666  -3.11153
   D23        0.01253  -0.00022   0.00000  -0.00222  -0.00219   0.01034
   D24        3.11645   0.00093   0.00000   0.00613   0.00603   3.12248
   D25       -0.02503   0.00071   0.00000   0.00461   0.00454  -0.02050
   D26        0.00166   0.00003   0.00000   0.00040   0.00038   0.00205
   D27       -3.13982  -0.00020   0.00000  -0.00112  -0.00110  -3.14092
   D28       -0.00091   0.00016   0.00000  -0.00009  -0.00023  -0.00114
   D29       -3.12411  -0.00051   0.00000  -0.00507  -0.00514  -3.12926
   D30        3.11891   0.00051   0.00000   0.00367   0.00362   3.12252
   D31       -0.00430  -0.00016   0.00000  -0.00131  -0.00130  -0.00560
   D32        0.00233   0.00008   0.00000   0.00044   0.00044   0.00277
   D33       -3.13936  -0.00012   0.00000  -0.00092  -0.00091  -3.14027
   D34       -3.13937   0.00030   0.00000   0.00197   0.00194  -3.13743
   D35        0.00213   0.00010   0.00000   0.00061   0.00059   0.00272
   D36       -0.00376  -0.00008   0.00000  -0.00047  -0.00045  -0.00421
   D37        3.13770  -0.00018   0.00000  -0.00139  -0.00139   3.13631
   D38        3.13793   0.00011   0.00000   0.00090   0.00090   3.13883
   D39       -0.00380   0.00001   0.00000  -0.00003  -0.00004  -0.00384
   D40        0.00117  -0.00006   0.00000  -0.00043  -0.00045   0.00072
   D41       -3.14034  -0.00047   0.00000  -0.00422  -0.00424   3.13861
   D42       -3.14029   0.00004   0.00000   0.00049   0.00049  -3.13980
   D43        0.00139  -0.00037   0.00000  -0.00329  -0.00330  -0.00190
   D44       -3.11424  -0.00042   0.00000  -0.00449  -0.00463  -3.11887
   D45        0.00282   0.00017   0.00000   0.00131   0.00131   0.00413
   D46        0.02726  -0.00001   0.00000  -0.00072  -0.00080   0.02646
   D47       -3.13886   0.00058   0.00000   0.00508   0.00514  -3.13372
         Item               Value     Threshold  Converged?
 Maximum Force            0.126326     0.000450     NO 
 RMS     Force            0.021986     0.000300     NO 
 Maximum Displacement     0.327086     0.001800     NO 
 RMS     Displacement     0.080555     0.001200     NO 
 Predicted change in Energy=-4.258810D-02
 Lowest energy point so far.  Saving SCF results.
 GradGradGradGradGradGradGradGradGradGradGradGradGradGradGradGradGradGrad

 Leave Link  103 at Mon Oct 14 01:41:20 2019, MaxMem= 10737418240 cpu:               1.0 elap:               0.1
 (Enter /apps/cent7/gaussian/g16-A.03/g16-haswell/g16/l202.exe)
                          Input orientation:                          
 ---------------------------------------------------------------------
 Center     Atomic      Atomic             Coordinates (Angstroms)
 Number     Number       Type             X           Y           Z
 ---------------------------------------------------------------------
      1          8           0        1.296357   -0.175668   -0.041900
      2          7           0       -0.009245    0.014734    0.009266
      3          6           0       -0.592772    1.182964    0.010381
      4          6           0       -2.021454    1.335645    0.041136
      5          8           0       -2.888632    0.305358    0.073899
      6          6           0       -3.383609   -0.063392    1.389354
      7          7           0       -2.353715    2.585793    0.013211
      8          6           0       -1.192373    3.321193   -0.016645
      9          6           0       -1.052487    4.700464   -0.019669
     10          6           0        0.256718    5.243841   -0.029593
     11          6           0        1.390397    4.423675   -0.039570
     12          6           0        1.254470    3.023830   -0.034870
     13          6           0       -0.043381    2.491077   -0.020901
     14          1           0        1.671439   -0.245249    0.854264
     15          1           0       -3.400826   -1.152912    1.454164
     16          1           0       -2.742586    0.341955    2.176699
     17          1           0       -4.395927    0.326044    1.513220
     18          1           0       -1.929013    5.342589   -0.015811
     19          1           0        0.382355    6.323057   -0.030813
     20          1           0        2.380922    4.868755   -0.052018
     21          1           0        2.131382    2.383174   -0.045357
     22          1           0       -0.597243   -0.816778    0.018692
 ---------------------------------------------------------------------
                    Distance matrix (angstroms):
                    1          2          3          4          5
     1  O    0.000000
     2  N    1.320405   0.000000
     3  C    2.327536   1.305858   0.000000
     4  C    3.646757   2.407241   1.437147   0.000000
     5  O    4.214135   2.894738   2.458700   1.347057   0.000000
     6  C    4.895219   3.646515   3.353169   2.372859   1.453065
     7  N    4.577306   3.479497   2.251412   1.293849   2.343118
     8  C    4.292138   3.511856   2.220872   2.152467   3.461323
     9  C    5.412413   4.800547   3.547540   3.502085   4.764152
    10  C    5.518340   5.236011   4.148970   4.524275   5.855985
    11  C    4.600304   4.626028   3.799692   4.602518   5.939992
    12  C    3.199779   3.263982   2.608282   3.686113   4.956533
    13  C    2.984437   2.476762   1.419143   2.291647   3.589124
    14  H    0.973980   1.899029   2.806881   4.098520   4.659011
    15  H    5.025609   3.867034   3.927595   3.176827   2.072203
    16  H    4.637152   3.503711   3.165744   2.463348   2.108183
    17  H    5.922179   4.647770   4.178137   2.970597   2.084229
    18  H    6.391779   5.663230   4.369062   4.008414   5.128607
    19  H    6.562694   6.320593   5.231933   5.536945   6.850039
    20  H    5.159708   5.410931   4.736222   5.645570   6.971991
    21  H    2.691644   3.192926   2.977351   4.283788   5.434343
    22  H    2.000103   1.018451   1.999765   2.581048   2.552000
                    6          7          8          9         10
     6  C    0.000000
     7  N    3.157947   0.000000
     8  C    4.270100   1.374925   0.000000
     9  C    5.487603   2.483165   1.386350   0.000000
    10  C    6.590304   3.725777   2.407615   1.417524   0.000000
    11  C    6.705723   4.171207   2.808326   2.458595   1.399286
    12  C    5.750750   3.634995   2.464914   2.851909   2.433925
    13  C    4.435228   2.312526   1.417495   2.428926   2.769088
    14  H    5.086541   4.992398   4.656115   5.713458   5.736964
    15  H    1.091582   4.141340   5.201745   6.476796   7.516490
    16  H    1.093219   3.141132   4.011207   5.164985   6.155651
    17  H    1.091692   3.395161   4.644799   5.715233   6.943494
    18  H    5.771912   2.789469   2.151437   1.086572   2.188004
    19  H    7.548913   4.631972   3.389862   2.166035   1.086505
    20  H    7.722269   5.256706   3.894180   3.437683   2.157183
    21  H    6.201548   4.490053   3.453700   3.937957   3.420238
    22  H    3.195331   3.829192   4.180697   5.536124   6.120677
                   11         12         13         14         15
    11  C    0.000000
    12  C    1.406437   0.000000
    13  C    2.406450   1.403011   0.000000
    14  H    4.762014   3.413400   3.345744   0.000000
    15  H    7.502358   6.429166   5.169808   5.187640   0.000000
    16  H    6.217221   5.297165   4.090707   4.645133   1.786046
    17  H    7.258325   6.449932   5.097602   6.129725   1.783542
    18  H    3.444336   3.938473   3.418589   6.704045   6.820454
    19  H    2.150321   3.412551   3.855570   6.751870   8.509273
    20  H    1.085998   2.161698   3.395816   5.241923   8.482787
    21  H    2.170883   1.086058   2.177575   2.815932   6.734819
    22  H    5.605038   4.264033   3.354137   2.484299   3.167594
                   16         17         18         19         20
    16  H    0.000000
    17  H    1.781570   0.000000
    18  H    5.520448   5.795630   0.000000
    19  H    7.100138   7.821776   2.510770   0.000000
    20  H    7.190928   8.307339   4.336055   2.471784   0.000000
    21  H    5.732336   7.019024   5.024521   4.310683   2.498085
    22  H    3.256095   4.239064   6.301793   7.206893   6.418703
                   21         22
    21  H    0.000000
    22  H    4.205851   0.000000
 Stoichiometry    C9H9N2O2(1+)
 Framework group  C1[X(C9H9N2O2)]
 Deg. of freedom    60
 Full point group                 C1      NOp   1
 RotChk:  IX=0 Diff= 3.25D-02
 Largest Abelian subgroup         C1      NOp   1
 Largest concise Abelian subgroup C1      NOp   1
                         Standard orientation:                         
 ---------------------------------------------------------------------
 Center     Atomic      Atomic             Coordinates (Angstroms)
 Number     Number       Type             X           Y           Z
 ---------------------------------------------------------------------
      1          8           0        0.773745    2.915111   -0.068016
      2          7           0        1.310022    1.713132   -0.173478
      3          6           0        0.637054    0.594034   -0.174499
      4          6           0        1.267586   -0.689371   -0.318355
      5          8           0        2.595486   -0.864451   -0.461852
      6          6           0        3.327013   -1.179927    0.753361
      7          7           0        0.389465   -1.639576   -0.310670
      8          6           0       -0.845795   -1.059009   -0.144862
      9          6           0       -2.078901   -1.684458   -0.043717
     10          6           0       -3.228552   -0.877865    0.148852
     11          6           0       -3.139850    0.516031    0.233628
     12          6           0       -1.891348    1.155761    0.133367
     13          6           0       -0.756131    0.352666   -0.053075
     14          1           0        0.743057    3.200037    0.862851
     15          1           0        4.259372   -0.612282    0.747247
[...]
 -0.00117333,0.00052286,0.00421534,0.01215604,-0.00939797,0.00013497,0.
 00354773,0.00912121,-0.00580243,-0.01203125,-0.00581712,0.00790282,0.0
 1977472,0.00628421,-0.06735410,-0.14288622,-0.01162970,0.17867581,0.00
 577344,-0.00269073,-0.00344529,0.01830419,0.01343341,-0.00072255,-0.12
 205883,-0.04453994,0.01961344,-0.02465550,-0.01668252,0.00939392,-0.00
 746414,0.00114174,0.00193096,0.00109770,-0.00102622,-0.00033236,-0.051
 42936,-0.00705444,0.01551242,-0.21226939,0.04130292,0.03523451,0.02184
 450,0.04399192,-0.00608421,-0.04430856,0.00387332,0.00965979,0.0224911
 7,-0.06069801,-0.00025935,-0.27892215,-0.05446911,0.06365660,0.6900528
 3,0.00111039,0.00301485,-0.00260040,0.00575120,-0.06858571,0.01039425,
 -0.05462838,-0.21996477,0.02148010,-0.03184248,-0.00261576,0.00907073,
 0.00393187,0.01085083,-0.00166441,-0.00178615,-0.00050700,0.00050113,-
 0.01699667,0.01351226,0.00393030,0.06546139,-0.15863190,-0.01204411,0.
 02035188,-0.02483947,-0.00330622,-0.01182497,-0.00356345,0.00305344,-0
 .01536222,-0.04772018,0.00746883,-0.07478539,-0.12586272,0.02350039,0.
 09174923,0.61353673,-0.00390412,0.00025607,-0.00410887,0.00026466,0.00
 174688,0.00705159,0.02021738,0.02172425,-0.06103677,0.00970162,0.00464
 648,0.00484148,0.00175237,-0.00085119,0.00036361,-0.00027631,0.0003017
 2,-0.00033211,0.01582427,0.00111055,0.00348457,0.03438538,-0.00559004,
 -0.07314307,-0.00450978,-0.00958465,0.00983859,0.01042174,-0.00114805,
 -0.00912338,-0.00272658,0.01883889,0.00863797,0.06416399,0.01822333,-0
 .07073922,-0.15383584,-0.05212301,0.16239267,-0.14114595,0.09654322,-0
 .12009984,-0.03711035,0.02480135,-0.02187193,-0.00469201,0.00000265,0.
 00019857,0.00053881,0.00110670,0.00212037,0.00045626,0.00004700,-0.000
 19984,-0.00030080,-0.00008153,0.00000904,-0.00057584,0.00007396,-0.000
 46779,-0.00052725,0.00021756,0.00019286,-0.00030292,-0.00040139,0.0002
 0248,0.00009517,0.00002463,-0.00006795,0.00035861,-0.00025528,0.000068
 56,0.00047071,0.00035403,-0.00040575,-0.00044265,-0.00123615,-0.000850
 86,0.18411112,0.12435307,-0.11878851,0.16467344,-0.00284890,-0.0004428
 9,-0.00239372,0.00034693,-0.00246534,0.00128645,0.00138843,0.00043966,
 -0.00072030,-0.00084703,-0.00109013,0.00022393,0.00041415,0.00012103,-
 0.00000053,0.00043991,-0.00025744,-0.00001663,0.00042006,-0.00045059,-
 0.00009146,0.00052855,0.00044140,-0.00016395,0.00007409,-0.00000919,0.
 00003972,-0.00064205,0.00061909,0.00032911,-0.00068980,-0.00095595,-0.
 00005775,0.00093412,0.00199081,-0.00026168,-0.12129057,0.11954563,-0.1
 7417292,0.18037900,-0.25665184,0.02521604,-0.01711886,0.01341545,0.005
 03479,0.00158964,-0.00048362,-0.00058012,-0.00091008,-0.00042990,0.000
 23943,-0.00006827,-0.00014192,-0.00013284,0.00000271,0.00008026,0.0008
 2374,-0.00042728,-0.00002616,-0.00005146,0.00019607,-0.00010460,-0.000
 09165,-0.00015329,0.00002840,0.00011561,0.00003127,-0.00003440,-0.0001
 1447,-0.00001051,-0.00008155,0.00017284,-0.00010302,0.00000415,-0.0001
 6276,-0.00029741,0.00002671,0.14315581,-0.16318129,0.24373683,-0.00018
 765,0.00017743,0.00004668,0.00014898,-0.00010870,-0.00009767,-0.000380
 74,-0.00133862,0.00024496,-0.00590798,0.00305118,0.00134096,-0.0252471
 6,-0.03625808,0.00792182,-0.06635481,-0.06562133,0.00590513,0.00080127
 ,0.00021357,-0.00011350,0.00031747,-0.00017313,-0.00002242,-0.00017585
 ,-0.00019514,0.00004826,0.00019347,0.00003489,-0.00005549,-0.00011913,
 0.00011643,0.00002759,0.00003315,-0.00022582,-0.00000880,-0.00036834,0
 .00014031,0.00007136,-0.00000521,-0.00006227,0.00002577,0.08651455,-0.
 00003533,0.00001832,0.00001059,-0.00004007,0.00004790,-0.00000052,0.00
 030180,0.00014679,-0.00007812,0.00216872,0.00086088,-0.00056497,0.0025
 9055,0.00727019,-0.00100441,-0.08089425,-0.31861017,0.03260297,-0.0005
 3391,-0.00017517,0.00016093,-0.00002638,0.00034358,-0.00000659,-0.0000
 1004,-0.00000467,0.00000216,0.00000437,0.00001006,-0.00000229,-0.00000
 335,-0.00001839,0.00000224,0.00000285,0.00006794,-0.00000739,-0.000154
 10,-0.00013793,0.00004757,0.00000792,-0.00001685,0.00000428,0.08311032
 ,0.33160874,0.00003761,-0.00004744,-0.00005509,-0.00003103,0.00003170,
 0.00000883,0.00015185,0.00033638,0.00025724,0.00143081,-0.00077741,-0.
 00012104,0.00605916,0.00866846,-0.00234149,0.00662947,0.02877672,-0.05
 815660,-0.00007484,-0.00002466,0.00041091,-0.00003152,0.00003339,0.000
 17787,0.00003937,0.00004871,-0.00003421,-0.00005168,-0.00001007,0.0000
 0250,0.00003026,-0.00002701,-0.00000159,-0.00002113,0.00004831,-0.0000
 4258,0.00008630,-0.00002425,-0.00006660,-0.00000790,0.00001500,0.00001
 149,-0.01344674,-0.03409199,0.05332483,-0.00023771,0.00010374,0.000141
 81,0.00013533,-0.00018222,-0.00002105,-0.00098071,-0.00009282,-0.00088
 608,0.00281744,0.00748687,0.00061451,-0.02342554,0.01561446,0.03549147
 ,-0.04939531,0.00439462,0.00788321,0.00061862,-0.00224838,0.00055109,0
 .00049113,0.00040358,-0.00053314,-0.00032177,-0.00042085,0.00006591,0.
 00043898,0.00005669,-0.00011392,-0.00019644,0.00031408,-0.00001632,-0.
 00009871,-0.00028420,0.00004425,0.00000382,0.00038513,0.00008949,0.000
 04632,-0.00007263,0.00003408,0.00287455,-0.00320589,-0.00896641,0.0624
 6914,0.00002402,0.00001029,0.00008791,-0.00008064,-0.00001036,0.000032
 78,0.00031388,0.00020644,-0.00060422,-0.00172357,0.00201256,0.00147099
 ,0.00282853,0.00065939,0.00157065,0.00980143,-0.13105691,-0.12539375,0
 .00102224,-0.00020202,0.00035205,-0.00030637,-0.00009230,-0.00051139,-
 0.00001199,-0.00005231,0.00001270,0.00004831,-0.00001891,0.00003216,0.
 00006479,0.00001226,-0.00004310,0.00003897,0.00003014,0.00000745,0.000
 17419,-0.00002332,0.00004195,0.00001145,-0.00000673,-0.00002431,0.0024
 9574,-0.01175425,-0.02585634,-0.01268883,0.13120417,-0.00005159,0.0000
 5223,0.00002894,-0.00005318,0.00002981,0.00003934,0.00038585,0.0002024
 8,-0.00028128,-0.00049226,-0.00294816,0.00057360,0.00805407,0.00000429
 ,-0.00257296,0.01574873,-0.12269186,-0.25289812,-0.00046783,0.00005582
 ,0.00032463,-0.00041556,0.00027715,0.00002328,0.00011989,0.00013025,-0
 .00003756,-0.00019231,-0.00002115,0.00006063,0.00010448,-0.00019195,-0
 .00002470,0.00007837,0.00023410,-0.00004374,-0.00022664,-0.00033197,0.
 00008804,-0.00000309,-0.00001325,0.00000004,-0.00191657,0.00346921,0.0
 0689962,-0.02191749,0.13524293,0.26558794,-0.00010475,0.00000118,-0.00
 003963,0.00006548,-0.00015703,-0.00004976,-0.00061616,-0.00016012,0.00
 107652,0.00209267,0.00782850,-0.00225327,-0.03721610,0.01137788,-0.018
 27145,-0.10660401,0.05366200,-0.09440776,0.00053151,-0.00205807,-0.000
 46165,0.00079256,0.00028209,0.00009544,-0.00033674,-0.00045064,0.00014
 604,0.00050144,0.00006080,-0.00013435,-0.00020921,0.00039065,0.0000779
 4,-0.00013597,-0.00038099,0.00004629,0.00005263,0.00050375,-0.00013959
 ,0.00002377,-0.00002772,0.00001904,0.00802448,-0.00331754,0.00809646,0
 .00441973,-0.00193015,0.00134319,0.12843433,0.00004305,-0.00002267,-0.
 00006288,-0.00011917,0.00000546,-0.00002816,0.00055534,0.00022354,0.00
 034304,-0.00226743,0.00202430,-0.00059686,0.00184743,0.00015265,-0.002
 10380,0.05898015,-0.11016990,0.09633540,0.00078627,-0.00022254,-0.0007
 4532,-0.00002229,-0.00007440,0.00058724,-0.00001596,-0.00004988,0.0000
 0073,0.00002788,-0.00002370,-0.00005007,0.00007601,0.00001840,0.000006
 57,0.00002647,0.00001866,-0.00002913,0.00015093,-0.00002305,-0.0001267
 8,-0.00001427,0.00000666,0.00000035,0.01479263,-0.00962934,0.02285948,
 -0.00935102,0.00909230,-0.01352446,-0.06546433,0.10867147,0.00010326,-
 0.00004567,0.00002254,0.00009148,0.00004994,0.00007069,-0.00029362,-0.
 00019542,-0.00065276,-0.00012921,-0.00099565,0.00125580,0.01016507,-0.
 00612951,0.01165709,-0.10280310,0.09632904,-0.21655083,0.00026886,0.00
 108796,0.00039279,0.00003182,-0.00046617,-0.00026916,0.00004484,0.0000
 9750,-0.00003721,-0.00004503,-0.00000494,0.00002653,-0.00002229,0.0000
 1066,-0.00003081,-0.00002749,-0.00007142,0.00000700,0.00022063,0.00012
 670,0.00001324,-0.00000296,0.00002382,-0.00001889,-0.00008228,-0.00054
 299,-0.00037721,-0.01253703,0.01363353,-0.01776420,0.10509809,-0.10296
 169,0.22220469,-0.00001722,0.00002797,0.00005606,-0.00005380,-0.000156
 70,-0.00016099,0.00003154,-0.00039681,0.00026925,0.00035904,-0.0000658
 3,-0.00010587,-0.00016134,-0.00014163,0.00014399,0.00009991,-0.0000080
 8,-0.00003524,0.00023670,0.00045738,-0.00119882,0.00583727,-0.00165080
 ,-0.00020601,-0.25534556,0.13009264,0.04891495,-0.01627482,0.01486449,
 0.00406147,-0.00173337,-0.00337523,0.00218230,0.00004373,-0.00070187,-
 0.00002737,0.00108929,-0.00070144,0.00159501,0.00000359,-0.00000323,0.
 00000549,-0.00001508,0.00000714,0.00000280,-0.00000303,-0.00001414,0.0
 0001878,-0.00001525,-0.00000676,-0.00001915,0.26589767,-0.00011063,0.0
 0007455,0.00003749,-0.00044249,-0.00061016,0.00009631,0.00174152,-0.00
 011917,-0.00036262,-0.00010902,-0.00051183,0.00004652,0.00001451,0.000
 44620,-0.00000714,-0.00005664,-0.00005851,0.00001467,-0.00016417,0.002
 83686,-0.00034230,0.02833443,-0.01255142,-0.00636722,0.12963633,-0.145
 02030,-0.02761258,-0.01430047,0.01321277,0.00310109,-0.00298014,-0.001
 35766,0.00119184,-0.00067982,-0.00075456,0.00020946,-0.00173050,-0.004
 28377,0.00105137,-0.00001896,0.00000082,-0.00000177,-0.00001612,0.0000
 1368,0.00000327,0.00000922,-0.00002482,0.00001532,0.00000079,-0.000024
 82,-0.00001644,-0.13899694,0.14745783,0.00006373,-0.00000465,0.0001481
 0,-0.00021942,0.00002761,-0.00060909,0.00021210,0.00021353,0.00089386,
 -0.00013687,0.00006156,0.00000469,0.00014016,0.00003537,0.00032315,-0.
 00003448,0.00000285,-0.00003028,-0.00115487,-0.00052244,-0.00401574,-0
 .00189570,0.00149471,0.00509911,0.04885856,-0.02777624,-0.04941417,0.0
 0571617,-0.00441158,0.00140994,0.00215550,0.00125589,0.00534785,-0.000
 03327,0.00018102,-0.00022815,0.00175027,0.00075555,0.00670474,0.000030
 83,0.00000403,0.00001753,0.00000438,-0.00000279,-0.00000356,0.00000403
 ,-0.00001392,-0.00001826,-0.00000381,0.00002159,-0.00000532,-0.0543251
 9,0.02920495,0.03843850,0.00005164,0.00006569,-0.00003447,-0.00005154,
 0.00006527,0.00006016,0.00018069,0.00001763,-0.00036626,-0.00068006,0.
 00019616,0.00024102,0.00006616,-0.00025593,0.00004115,0.00007068,0.000
 00800,-0.00003425,0.00011662,-0.00166909,-0.00024366,-0.00419715,-0.00
 174617,0.00291779,0.00376285,-0.02813102,0.00242847,-0.06074799,-0.007
 29342,0.00474846,0.00563422,0.02702503,-0.00107378,-0.00395034,0.00305
 944,0.00277552,-0.00094334,-0.00021788,0.00009974,0.00000543,-0.000028
 02,0.00000038,-0.00000011,-0.00000423,0.00000126,0.00000402,0.00000581
 ,-0.00000592,0.00000212,0.00000817,0.00000462,0.00077719,0.00034094,-0
 .00107195,0.05915309,-0.00005741,-0.00003732,0.00002689,0.00001613,0.0
 0029655,-0.00006206,-0.00015217,-0.00059172,0.00000596,-0.00022073,0.0
 0012651,0.00006501,-0.00007355,-0.00026900,0.00004242,0.00009029,0.000
 00669,-0.00002620,0.00033857,-0.00056441,-0.00012246,-0.00182208,0.000
 77476,0.00081250,0.00119837,-0.00838510,0.00054774,-0.00705808,-0.3462
 7251,0.01868040,-0.00228688,-0.01030945,0.00159187,0.00257328,-0.00041
 139,-0.00025721,0.00031903,0.00132246,-0.00019118,0.00000535,-0.000018
 98,-0.00000301,-0.00000474,-0.00000201,0.00000149,-0.00000582,0.000005
 63,0.,-0.00000607,0.00000627,0.00000251,-0.00002948,0.00075405,-0.0002
 1853,0.00752321,0.36329664,-0.00006804,0.00006180,-0.00014345,0.000124
 03,-0.00003216,0.00024493,-0.00039127,0.00000295,-0.00116528,0.0002705
 0,-0.00004130,0.00021869,0.00002354,0.00008796,0.00017806,-0.00003676,
 -0.00000289,-0.00005720,-0.00034242,0.00041887,-0.00109128,0.00290182,
 0.00076808,0.00592666,0.00074924,0.00816911,0.00633418,0.00472105,0.01
 877856,-0.04639116,0.00067854,-0.00606708,0.00757335,0.00274753,-0.000
 38313,0.00644610,0.00008471,-0.00010168,-0.00060696,-0.00000946,-0.000
 05130,0.00002411,0.00000102,0.00000133,0.00000363,0.00000875,-0.000006
 02,0.00000105,-0.00000996,0.00000181,0.00000292,-0.00104956,-0.0003152
 2,-0.00299599,-0.00900313,-0.02074651,0.02975766,0.00000886,0.00000004
 ,0.00001316,0.00004351,-0.00018827,0.00000961,0.00025417,0.00029470,0.
 00023373,0.00025892,-0.00004059,-0.00011392,-0.00001429,-0.00005112,-0
 .00001730,0.00001728,0.00001175,-0.00003024,0.00010268,0.00006746,-0.0
 0017919,-0.00011204,0.00100818,-0.00019238,-0.00170220,0.00355271,0.00
 201607,-0.01766061,-0.01336314,0.00608751,-0.26273821,-0.11776823,0.06
 672066,0.00519300,0.00228749,-0.00090442,0.00147872,0.00103207,0.00132
 069,0.00000648,0.00001461,-0.00000099,0.00000126,-0.00000149,0.0000007
 2,-0.00000088,-0.00000029,-0.00000225,-0.00000771,0.00000071,0.0000050
 8,-0.00069886,-0.00072451,0.00027435,0.00061576,-0.00007817,-0.0011871
 6,0.27461590,0.00015583,-0.00006145,-0.00002386,-0.00025821,0.00004836
 ,0.00007082,-0.00116104,0.00011239,0.00038878,0.00016201,-0.00053041,-
 0.00001093,-0.00017940,0.00019672,0.00002779,-0.00000591,-0.00003127,-
 0.00000236,-0.00026207,0.00030747,0.00001515,0.00061333,-0.00102103,-0
 .00014026,0.00315299,-0.00166979,-0.00034216,0.01666923,0.01226913,-0.
 00496438,-0.11761508,-0.12706890,0.03622443,-0.02771223,-0.01175944,0.
 00815212,0.00166572,-0.00527085,0.00018912,-0.00004684,0.00001146,-0.0
 0001253,-0.00001327,0.00000161,0.00000342,-0.00000177,-0.00000258,-0.0
 0000185,-0.00000233,-0.00000230,0.00000335,0.00076827,0.00052488,-0.00
 020922,-0.00027939,0.00081398,-0.00019601,0.12419777,0.13203103,-0.000
 02204,-0.00000763,0.00009911,-0.00002138,0.00002951,-0.00008802,0.0003
 2386,0.00004116,0.00115171,-0.00012166,0.00002255,-0.00015998,-0.00000
 675,0.00000977,-0.00009347,-0.00002925,-0.00000669,-0.00008440,-0.0001
 6478,-0.00005612,-0.00051219,-0.00014670,-0.00031572,-0.00058021,0.002
 03413,-0.00043536,0.00613584,0.00428524,0.00301511,0.00116844,0.066884
 96,0.03620525,-0.05580603,0.00079205,0.00026010,0.00200136,0.00120990,
 0.00033046,0.00631305,0.00003733,0.00000762,0.00001818,0.00000135,0.00
 000050,0.00000313,0.00001682,-0.00000130,-0.00000224,-0.00001304,0.000
 00137,0.00000348,0.00020435,0.00017977,0.00016276,-0.00116660,-0.00023
 738,-0.00353580,-0.07287090,-0.03885569,0.04755957,0.00050773,0.001335
 44,-0.00035711,-0.00112263,-0.00102724,0.00052940,0.00080268,0.0011224
 0,-0.00112440,-0.00088338,0.00086090,0.00021354,0.00009518,-0.00018194
 ,-0.00002924,-0.00001695,-0.00000649,-0.00002771,-0.00145280,-0.000315
 31,0.00026346,0.00004873,-0.00400284,0.00209269,0.00024623,0.00002278,
 -0.00009280,0.00091210,-0.00092312,0.00186010,0.00669509,-0.00242652,0
 .00020148,-0.25690957,0.12790320,0.05224620,-0.01695026,0.01468598,0.0
 0459151,0.00034907,0.00009210,-0.00007513,0.00000807,-0.00001209,0.000
 00105,0.00001270,0.00001733,-0.00001319,0.00001128,0.00000485,0.000020
 20,-0.00005066,0.00009914,-0.00028085,0.00011070,-0.00024515,-0.000289
 16,0.00033742,0.00007894,-0.00122356,0.26703551,0.00067543,-0.00118659
 ,-0.00008163,-0.00099667,-0.00045620,0.00041392,0.00070239,0.00117044,
 -0.00041133,-0.00035556,0.00059577,0.00009829,0.00009891,-0.00023909,-
 0.00001387,-0.00000708,0.00000401,-0.00000954,-0.00100799,-0.00006378,
 0.00020515,-0.00214639,-0.00130729,0.00097734,-0.00084468,-0.00060475,
 0.00024903,-0.00095617,-0.00568992,0.00092962,0.02649484,-0.00934545,-
 0.00627126,0.12803892,-0.14262678,-0.02948317,-0.01404042,0.01289157,0
 .00322999,0.00011976,-0.00017358,0.00002043,0.00000719,-0.00000714,-0.
 00000094,0.00000768,0.00000778,-0.00000670,0.00000734,0.00000444,0.000
 00605,0.00007651,0.00011983,-0.00007430,0.00131744,-0.00051753,-0.0003
 7338,-0.00027157,0.00111887,-0.00017653,-0.13705936,0.14641222,-0.0007
 3565,-0.00037362,-0.00062584,0.00078941,0.00028859,0.00003120,-0.00112
 000,-0.00030343,-0.00262436,0.00036966,-0.00027447,-0.00007619,-0.0000
 7969,0.00003159,-0.00003238,-0.00001593,-0.00000110,-0.00010840,0.0003
 6632,0.00010816,-0.00044487,0.00170970,0.00149896,0.00622300,-0.000025
 97,-0.00000191,-0.00006963,0.00184478,0.00100852,0.00686693,-0.0015003
 0,0.00166328,0.00714277,0.05284375,-0.02985782,-0.05267904,0.00581887,
 -0.00454957,0.00135113,-0.00000223,0.00022614,0.00012336,-0.00000147,0
 .00000362,0.00000935,0.00001701,0.00002200,0.00002341,-0.00001653,-0.0
 0002806,0.00002744,-0.00026780,-0.00009562,-0.00097580,-0.00037828,0.0
 0004021,-0.00093729,-0.00115880,-0.00028208,-0.00371826,-0.05864341,0.
 03085059,0.03955504,-0.02567454,-0.01933805,0.00529125,-0.14121384,-0.
 14937968,0.02387529,0.01647798,0.01581318,-0.00474841,0.00299079,0.004
 91701,-0.00124596,0.00001395,-0.00246603,-0.00035232,-0.00129542,-0.00
 088740,0.00042436,-0.00081568,-0.00257963,0.00057445,0.00336861,0.0012
 1068,-0.00060926,-0.00050005,-0.00001999,-0.00008900,0.00055606,-0.000
 07157,-0.00011497,-0.00066074,0.00098691,-0.00020437,-0.00158138,-0.00
 118256,0.00052237,-0.00237577,0.00427853,0.00174386,-0.00136237,-0.002
 49382,0.00053934,-0.00015519,0.00004499,0.00006414,0.00032833,-0.00009
 070,-0.00009548,0.00029386,-0.00003865,-0.00009180,-0.00000692,0.00015
 355,-0.00005367,0.00001936,-0.00002387,0.00007618,0.00000084,0.0000734
 4,-0.00000333,0.00021374,0.00013948,0.00018657,0.15137835,0.00606404,0
 .01436121,-0.00127740,-0.14710118,-0.34101950,0.01950261,-0.01272846,-
 0.02891992,0.00141279,0.00043561,-0.00132667,0.00014084,-0.00124831,-0
 .00019231,0.00020192,0.00086167,0.00061549,-0.00012400,0.00012070,0.00
 042390,-0.00009735,-0.00037154,-0.00218227,0.00061248,0.00138491,0.000
 88631,-0.00049230,-0.00032012,-0.00002370,0.00009846,-0.00071150,0.000
 50902,0.00012643,-0.00115856,-0.00113166,0.00037341,0.00434944,0.00491
 035,-0.00153158,0.00002939,0.00149962,0.00008787,-0.00012247,-0.000033
 79,0.00003379,-0.00022164,0.00000354,0.00001776,-0.00015998,0.00001845
 ,0.00005884,-0.00004547,-0.00012445,-0.00002502,-0.00000763,-0.0000241
 5,0.00002620,0.00001987,-0.00001787,-0.00001076,-0.00002299,-0.0001068
 2,0.00002602,0.15095419,0.35187521,0.01181904,0.01048165,-0.00466255,0
 .02067429,0.00577166,-0.01992289,-0.00371344,0.00549053,-0.00255119,-0
 .00239432,-0.00232158,-0.00335016,-0.00001266,0.00149923,-0.00077972,0
 .00022465,0.00021754,-0.00022965,0.00025371,0.00119511,0.00127151,-0.0
 0133411,0.00061234,0.00140627,-0.00087858,-0.00070536,-0.00067013,0.00
 009473,0.00008920,0.00024117,0.00034860,-0.00084940,-0.00137024,0.0016
 8618,0.00117788,-0.00029643,0.00089667,-0.00356885,0.00804961,-0.00202
 623,0.00012259,0.00048637,0.00010567,-0.00000335,0.00009057,0.00002903
 ,-0.00005276,-0.00000746,-0.00019820,0.00009964,0.00002218,-0.00005844
 ,-0.00003115,-0.00025387,0.00005974,0.00004751,0.00021306,-0.00002403,
 -0.00003364,-0.00003603,0.00013694,-0.00007777,0.00093843,-0.02568924,
 -0.01916101,0.02141116\\0.00001774,0.00000018,-0.00001840,-0.00000640,
 -0.00002744,0.00003071,-0.00000229,0.00003230,-0.00001979,-0.00002735,
 -0.00006933,0.00000716,0.00001379,0.00003606,-0.00000133,-0.00000988,-
 0.00001044,0.00000151,0.00005072,0.00007688,-0.00001426,-0.00009638,-0
 .00005513,0.00002921,0.00002177,0.00002606,-0.00000947,-0.00003288,-0.
 00000140,0.00000767,0.00001605,-0.00002624,-0.00000390,0.00000328,0.00
 002669,-0.00001134,0.00005072,-0.00000448,0.00000461,0.00000647,0.0000
 0020,0.00000723,0.00000370,-0.00000162,-0.00000350,0.00000002,0.000003
 40,-0.00000244,0.00000121,0.00000413,0.00000277,-0.00000295,-0.0000045
 4,0.00000094,0.00000609,0.00000020,-0.00000139,-0.00000428,0.00000612,
 0.00000100,-0.00000273,-0.00000543,0.00000301,-0.00000642,-0.00000618,
 -0.00001001\\\@


 My opinions may have changed, but not the fact that I am right.
                       -- Ashleigh Brilliant
 Job cpu time:       0 days  0 hours 17 minutes 15.6 seconds.
 Elapsed time:       0 days  0 hours  0 minutes 43.8 seconds.
 File lengths (MBytes):  RWF=    123 Int=      0 D2E=      0 Chk=      5 Scr=      1
 Normal termination of Gaussian 16 at Mon Oct 14 01:43:48 2019.
real 157.25
user 3571.14
sys 24.18
Machine:
brown-a155
brown-a155
brown-a155
brown-a155
brown-a155
brown-a155
brown-a155
brown-a155
brown-a155
brown-a155
brown-a155
brown-a155
brown-a155
brown-a155
brown-a155
brown-a155
brown-a155
brown-a155
brown-a155
brown-a155
brown-a155
brown-a155
brown-a155
brown-a155
