Title Card Required                                                     
Freq      RB3LYP                                                      6-31G(d)            
Number of atoms                            I               22
Info1-9                                    I   N=           9
          54          54        1002           0           0         100
           6          18        -502
Full Title                                 C   N=           2
Title Card Required     
Route                                      C   N=           6
#P opt freq b3lyp/6-31g(d) geom=connectivity temperature=0.0
01          
Charge                                     I                1
Multiplicity                               I                1
Number of electrons                        I               92
Number of alpha electrons                  I               46
Number of beta electrons                   I               46
Number of basis functions                  I              213
Number of independent functions            I              213
Number of point charges in /Mol/           I                0
Number of translation vectors              I                0
Atomic numbers                             I   N=          22
           8           7           6           6           8           6
           7           6           6           6           6           6
           6           1           1           1           1           1
           1           1           1           1
Nuclear charges                            R   N=          22
  8.00000000E+00  7.00000000E+00  6.00000000E+00  6.00000000E+00  8.00000000E+00
  6.00000000E+00  7.00000000E+00  6.00000000E+00  6.00000000E+00  6.00000000E+00
  6.00000000E+00  6.00000000E+00  6.00000000E+00  1.00000000E+00  1.00000000E+00
  1.00000000E+00  1.00000000E+00  1.00000000E+00  1.00000000E+00  1.00000000E+00
  1.00000000E+00  1.00000000E+00
Current cartesian coordinates              R   N=          66
  5.65212746E-01  5.88131590E+00 -2.13133128E-01  2.01775731E+00  3.74580461E+00
  7.80962416E-02  9.88422318E-01  1.51145455E+00  2.63879034E-02  2.60096155E+00
 -8.64714680E-01  6.22976887E-03  5.06999110E+00 -5.73154717E-01 -7.39363132E-03
  6.58604133E+00 -2.87572695E+00 -2.38257807E-02  1.27177895E+00 -2.88974618E+00
  1.25388506E-02 -1.29692756E+00 -2.05849017E+00  1.51729471E-02 -3.41215067E+00
 -3.57103651E+00  1.10320334E-02 -5.79451214E+00 -2.36679031E+00 -1.08519109E-04
 -6.05496027E+00  2.68438924E-01 -1.14334113E-02 -3.92199602E+00  1.81474366E+00
 -9.16082265E-03 -1.54511689E+00  6.33027921E-01  1.45175758E-02  9.70433314E-01
  6.98679446E+00  1.21402223E+00  8.53788653E+00 -2.23039671E+00 -3.82319794E-02
  6.16730996E+00 -3.97727569E+00  1.66912598E+00  6.14047934E+00 -3.96980040E+00
 -1.71477890E+00 -3.24974647E+00 -5.61362834E+00  1.24714410E-02 -7.48439823E+00
 -3.53185521E+00 -6.34717936E-03 -7.92489987E+00  1.10661770E+00 -3.01794803E-02
 -4.09028312E+00  3.85634840E+00 -3.79147995E-02  3.92626407E+00  3.97005875E+00
 -1.11269049E-01
Number of symbols in /Mol/                 I                0
Force Field                                I                0
Atom Types                                 C   N=          22
                                                            
                                                            
                                                            
                                                            
                        
Int Atom Types                             I   N=          22
           0           0           0           0           0           0
           0           0           0           0           0           0
           0           0           0           0           0           0
           0           0           0           0
MM charges                                 R   N=          22
  0.00000000E+00  0.00000000E+00  0.00000000E+00  0.00000000E+00  0.00000000E+00
  0.00000000E+00  0.00000000E+00  0.00000000E+00  0.00000000E+00  0.00000000E+00
  0.00000000E+00  0.00000000E+00  0.00000000E+00  0.00000000E+00  0.00000000E+00
  0.00000000E+00  0.00000000E+00  0.00000000E+00  0.00000000E+00  0.00000000E+00
  0.00000000E+00  0.00000000E+00
Integer atomic weights                     I   N=          22
          16          14          12          12          16          12
          14          12          12          12          12          12
          12           1           1           1           1           1
           1           1           1           1
Real atomic weights                        R   N=          22
  1.59949146E+01  1.40030740E+01  1.20000000E+01  1.20000000E+01  1.59949146E+01
  1.20000000E+01  1.40030740E+01  1.20000000E+01  1.20000000E+01  1.20000000E+01
  1.20000000E+01  1.20000000E+01  1.20000000E+01  1.00782504E+00  1.00782504E+00
  1.00782504E+00  1.00782504E+00  1.00782504E+00  1.00782504E+00  1.00782504E+00
  1.00782504E+00  1.00782504E+00
Atom fragment info                         I   N=          22
           0           0           0           0           0           0
           0           0           0           0           0           0
           0           0           0           0           0           0
           0           0           0           0
Atom residue num                           I   N=          22
           0           0           0           0           0           0
           0           0           0           0           0           0
           0           0           0           0           0           0
           0           0           0           0
Nuclear spins                              I   N=          22
           0           2           0           0           0           0
           2           0           0           0           0           0
           0           1           1           1           1           1
           1           1           1           1
Nuclear ZEff                               R   N=          22
 -5.60000000E+00 -4.55000000E+00 -3.60000000E+00 -3.60000000E+00 -5.60000000E+00
 -3.60000000E+00 -4.55000000E+00 -3.60000000E+00 -3.60000000E+00 -3.60000000E+00
 -3.60000000E+00 -3.60000000E+00 -3.60000000E+00 -1.00000000E+00 -1.00000000E+00
 -1.00000000E+00 -1.00000000E+00 -1.00000000E+00 -1.00000000E+00 -1.00000000E+00
 -1.00000000E+00 -1.00000000E+00
Nuclear ZNuc                               R   N=          22
  8.00000000E+00  7.00000000E+00  6.00000000E+00  6.00000000E+00  8.00000000E+00
  6.00000000E+00  7.00000000E+00  6.00000000E+00  6.00000000E+00  6.00000000E+00
  6.00000000E+00  6.00000000E+00  6.00000000E+00  1.00000000E+00  1.00000000E+00
  1.00000000E+00  1.00000000E+00  1.00000000E+00  1.00000000E+00  1.00000000E+00
  1.00000000E+00  1.00000000E+00
Nuclear QMom                               R   N=          22
  0.00000000E+00  2.04400000E+00  0.00000000E+00  0.00000000E+00  0.00000000E+00
  0.00000000E+00  2.04400000E+00  0.00000000E+00  0.00000000E+00  0.00000000E+00
  0.00000000E+00  0.00000000E+00  0.00000000E+00  0.00000000E+00  0.00000000E+00
  0.00000000E+00  0.00000000E+00  0.00000000E+00  0.00000000E+00  0.00000000E+00
  0.00000000E+00  0.00000000E+00
Nuclear GFac                               R   N=          22
  0.00000000E+00  4.03761000E-01  0.00000000E+00  0.00000000E+00  0.00000000E+00
  0.00000000E+00  4.03761000E-01  0.00000000E+00  0.00000000E+00  0.00000000E+00
  0.00000000E+00  0.00000000E+00  0.00000000E+00  2.79284600E+00  2.79284600E+00
  2.79284600E+00  2.79284600E+00  2.79284600E+00  2.79284600E+00  2.79284600E+00
  2.79284600E+00  2.79284600E+00
MicOpt                                     I   N=          22
          -1          -1          -1          -1          -1          -1
          -1          -1          -1          -1          -1          -1
          -1          -1          -1          -1          -1          -1
          -1          -1          -1          -1
Number of residues                         I                0
Number of secondary structures             I                0
Redundant internal dimensions              I   N=           4
         106          23          36          47
Redundant internal coordinate indices      I   N=         424
           1           2           0           0           1          14
           0           0           2           3           0           0
           2          22           0           0           3           4
           0           0           3          13           0           0
           4           5           0           0           4           7
           0           0           5           6           0           0
           6          15           0           0           6          16
           0           0           6          17           0           0
           7           8           0           0           8           9
           0           0           8          13           0           0
           9          10           0           0           9          18
           0           0          10          11           0           0
          10          19           0           0          11          12
           0           0          11          20           0           0
          12          13           0           0          12          21
           0           0           2           1          14           0
           1           2           3           0           1           2
          22           0           3           2          22           0
           2           3           4           0           2           3
          13           0           4           3          13           0
           3           4           5           0           3           4
           7           0           5           4           7           0
           4           5           6           0           5           6
          15           0           5           6          16           0
           5           6          17           0          15           6
          16           0          15           6          17           0
          16           6          17           0           4           7
           8           0           7           8           9           0
           7           8          13           0           9           8
          13           0           8           9          10           0
           8           9          18           0          10           9
          18           0           9          10          11           0
           9          10          19           0          11          10
          19           0          10          11          12           0
          10          11          20           0          12          11
          20           0          11          12          13           0
          11          12          21           0          13          12
          21           0           3          13           8           0
           3          13          12           0           8          13
          12           0          14           1           2           3
          14           1           2          22           1           2
           3           4           1           2           3          13
          22           2           3           4          22           2
           3          13           2           3           4           5
           2           3           4           7          13           3
           4           5          13           3           4           7
           2           3          13           8           2           3
          13          12           4           3          13           8
           4           3          13          12           3           4
           5           6           7           4           5           6
           3           4           7           8           5           4
           7           8           4           5           6          15
           4           5           6          16           4           5
           6          17           4           7           8           9
           4           7           8          13           7           8
           9          10           7           8           9          18
          13           8           9          10          13           8
           9          18           7           8          13           3
           7           8          13          12           9           8
          13           3           9           8          13          12
           8           9          10          11           8           9
          10          19          18           9          10          11
          18           9          10          19           9          10
          11          12           9          10          11          20
          19          10          11          12          19          10
          11          20          10          11          12          13
          10          11          12          21          20          11
          12          13          20          11          12          21
          11          12          13           3          11          12
          13           8          21          12          13           3
          21          12          13           8
Redundant internal coordinates             R   N=         106
  2.59905921E+00  1.85015107E+00  2.46059433E+00  1.93094464E+00  2.87173629E+00
  2.68152851E+00  2.48622198E+00  2.42229618E+00  2.75690356E+00  2.05581086E+00
  2.06272423E+00  2.06272748E+00  2.69986049E+00  2.60038120E+00  2.70293692E+00
  2.66945297E+00  2.04903845E+00  2.64809264E+00  2.05259108E+00  2.63450185E+00
  2.04928504E+00  2.65453709E+00  2.04873064E+00  1.85678095E+00  2.10592629E+00
  2.03305014E+00  2.11398047E+00  2.11367251E+00  2.33615802E+00  1.83324495E+00
  2.04951566E+00  1.96447751E+00  2.26918664E+00  2.03554269E+00  1.83378524E+00
  1.90656670E+00  1.90614077E+00  1.94563057E+00  1.94532485E+00  1.92379567E+00
  1.83866941E+00  2.20784342E+00  1.97572056E+00  2.09961642E+00  2.05279664E+00
  2.11222505E+00  2.11816166E+00  2.13734477E+00  2.06997503E+00  2.07586002E+00
  2.09955242E+00  2.09071352E+00  2.09291024E+00  2.05291915E+00  2.11575852E+00
  2.11448392E+00  1.81259023E+00  2.34646831E+00  2.12410787E+00  2.23165250E+00
 -1.16872650E+00  3.00283345E+00 -1.57295001E-01  1.32101292E-01 -3.02802716E+00
 -2.28405713E-02  3.11554654E+00  3.13259242E+00 -1.22057707E-02 -3.11536006E+00
  3.30437120E-02  9.79922909E-03 -3.12498230E+00  3.14044815E+00  2.72077187E-03
  8.38608821E-03 -3.13692151E+00  3.13908152E+00 -1.05485617E+00  1.05040978E+00
  3.13645659E+00 -1.75116282E-03 -3.13532373E+00  4.16941277E-03  2.66554665E-03
 -3.14102662E+00 -5.78455141E-03  3.13009247E+00  3.13895955E+00 -8.34873186E-03
  2.02772012E-03  3.14002013E+00 -3.13745786E+00  5.34555533E-04 -1.27194656E-03
  3.13572599E+00 -3.13925271E+00 -2.25477320E-03 -4.15922726E-03  3.13011356E+00
 -3.14115137E+00 -6.87858269E-03 -3.14044611E+00  8.91932886E-03  8.46076673E-03
 -3.12535910E+00
ZRed-IntVec                                I   N=         106
           0           0           0           0           0           0
           0           0           0           0           0           0
           0           0           0           0           0           0
           0           0           0           0           0           0
           0           0           0           0           0           0
           0           0           0           0           0           0
           0           0           0           0           0           0
           0           0           0           0           0           0
           0           0           0           0           0           0
           0           0           0           0           0           0
           0           0           0           0           0           0
           0           0           0           0           0           0
           0           0           0           0           0           0
           0           0           0           0           0           0
           0           0           0           0           0           0
           0           0           0           0           0           0
           0           0           0           0           0           0
           0           0           0           0
ZRed-FPVec                                 R   N=         106
  0.00000000E+00  0.00000000E+00  0.00000000E+00  0.00000000E+00  0.00000000E+00
  0.00000000E+00  0.00000000E+00  0.00000000E+00  0.00000000E+00  0.00000000E+00
  0.00000000E+00  0.00000000E+00  0.00000000E+00  0.00000000E+00  0.00000000E+00
  0.00000000E+00  0.00000000E+00  0.00000000E+00  0.00000000E+00  0.00000000E+00
  0.00000000E+00  0.00000000E+00  0.00000000E+00  0.00000000E+00  0.00000000E+00
  0.00000000E+00  0.00000000E+00  0.00000000E+00  0.00000000E+00  0.00000000E+00
  0.00000000E+00  0.00000000E+00  0.00000000E+00  0.00000000E+00  0.00000000E+00
  0.00000000E+00  0.00000000E+00  0.00000000E+00  0.00000000E+00  0.00000000E+00
  0.00000000E+00  0.00000000E+00  0.00000000E+00  0.00000000E+00  0.00000000E+00
  0.00000000E+00  0.00000000E+00  0.00000000E+00  0.00000000E+00  0.00000000E+00
  0.00000000E+00  0.00000000E+00  0.00000000E+00  0.00000000E+00  0.00000000E+00
  0.00000000E+00  0.00000000E+00  0.00000000E+00  0.00000000E+00  0.00000000E+00
  0.00000000E+00  0.00000000E+00  0.00000000E+00  0.00000000E+00  0.00000000E+00
  0.00000000E+00  0.00000000E+00  0.00000000E+00  0.00000000E+00  0.00000000E+00
  0.00000000E+00  0.00000000E+00  0.00000000E+00  0.00000000E+00  0.00000000E+00
  0.00000000E+00  0.00000000E+00  0.00000000E+00  0.00000000E+00  0.00000000E+00
  0.00000000E+00  0.00000000E+00  0.00000000E+00  0.00000000E+00  0.00000000E+00
  0.00000000E+00  0.00000000E+00  0.00000000E+00  0.00000000E+00  0.00000000E+00
  0.00000000E+00  0.00000000E+00  0.00000000E+00  0.00000000E+00  0.00000000E+00
  0.00000000E+00  0.00000000E+00  0.00000000E+00  0.00000000E+00  0.00000000E+00
  0.00000000E+00  0.00000000E+00  0.00000000E+00  0.00000000E+00  0.00000000E+00
  0.00000000E+00
ZRed-Constraint1                           R   N=         106
  2.59905921E+00  1.85015107E+00  2.46059433E+00  1.93094464E+00  2.87173629E+00
  2.68152851E+00  2.48622198E+00  2.42229618E+00  2.75690356E+00  2.05581086E+00
  2.06272423E+00  2.06272748E+00  2.69986049E+00  2.60038120E+00  2.70293692E+00
  2.66945297E+00  2.04903845E+00  2.64809264E+00  2.05259108E+00  2.63450185E+00
  2.04928504E+00  2.65453709E+00  2.04873064E+00  1.85678095E+00  2.10592629E+00
  2.03305014E+00  2.11398047E+00  2.11367251E+00  2.33615802E+00  1.83324495E+00
  2.04951566E+00  1.96447751E+00  2.26918664E+00  2.03554269E+00  1.83378524E+00
  1.90656670E+00  1.90614077E+00  1.94563057E+00  1.94532485E+00  1.92379567E+00
  1.83866941E+00  2.20784342E+00  1.97572056E+00  2.09961642E+00  2.05279664E+00
  2.11222505E+00  2.11816166E+00  2.13734477E+00  2.06997503E+00  2.07586002E+00
  2.09955242E+00  2.09071352E+00  2.09291024E+00  2.05291915E+00  2.11575852E+00
  2.11448392E+00  1.81259023E+00  2.34646831E+00  2.12410787E+00  2.23165250E+00
 -1.16872650E+00  3.00283345E+00 -1.57295001E-01  1.32101292E-01 -3.02802716E+00
 -2.28405713E-02  3.11554654E+00  3.13259242E+00 -1.22057707E-02 -3.11536006E+00
  3.30437120E-02  9.79922909E-03 -3.12498230E+00  3.14044815E+00  2.72077187E-03
  8.38608821E-03 -3.13692151E+00  3.13908152E+00 -1.05485617E+00  1.05040978E+00
  3.13645659E+00 -1.75116282E-03 -3.13532373E+00  4.16941277E-03  2.66554665E-03
 -3.14102662E+00 -5.78455141E-03  3.13009247E+00  3.13895955E+00 -8.34873186E-03
  2.02772012E-03  3.14002013E+00 -3.13745786E+00  5.34555533E-04 -1.27194656E-03
  3.13572599E+00 -3.13925271E+00 -2.25477320E-03 -4.15922726E-03  3.13011356E+00
 -3.14115137E+00 -6.87858269E-03 -3.14044611E+00  8.91932886E-03  8.46076673E-03
 -3.12535910E+00
ZRed-Constraint2                           R   N=         106
  2.39717546E+00  1.81413609E+00  2.42413795E+00  1.88972613E+00  2.54739460E+00
  2.58159998E+00  2.53432727E+00  2.42807994E+00  2.72336334E+00  2.05984882E+00
  2.05979999E+00  2.05980052E+00  2.47221290E+00  2.65747542E+00  2.62932659E+00
  2.66678246E+00  2.05982051E+00  2.67198480E+00  2.05970687E+00  2.66952802E+00
  2.05979510E+00  2.66320607E+00  2.05975839E+00  1.91063665E+00  2.18580316E+00
  2.04869108E+00  2.04869107E+00  2.16920157E+00  2.26852159E+00  1.84544792E+00
  2.18491224E+00  1.94936808E+00  2.14886938E+00  1.96393191E+00  1.91057252E+00
  1.91063431E+00  1.91061693E+00  1.91067106E+00  1.91062250E+00  1.91068209E+00
  1.88973150E+00  2.26475056E+00  1.90055831E+00  2.11762711E+00  2.06678460E+00
  2.10526141E+00  2.11113930E+00  2.10160152E+00  2.08910402E+00  2.09247977E+00
  2.10367527E+00  2.09057420E+00  2.08893583E+00  2.06688066E+00  2.11006073E+00
  2.10624391E+00  1.83945909E+00  2.33374187E+00  2.10979080E+00  1.58493441E+00
 -1.55665824E+00  3.14074664E+00 -7.42308163E-03 -8.46023697E-04  3.13416957E+00
  4.89204633E-03 -3.12783783E+00 -3.13146432E+00  1.89911125E-02  3.13687135E+00
 -2.65546650E-02 -1.03671000E-02  3.10939219E+00  1.64241057E+00 -1.50901503E+00
 -1.99046979E-02  3.13033661E+00 -2.39770581E+00 -3.03300902E-01  1.79114471E+00
 -3.10486763E+00  1.25255561E-02  3.11644902E+00 -2.50335650E-02  1.66123087E-03
 -3.13982136E+00 -9.09050704E-04 -3.12411391E+00  3.11890551E+00 -4.29934767E-03
  2.33420282E-03 -3.13935524E+00 -3.13936890E+00  2.12696480E-03 -3.75929755E-03
  3.13769603E+00  3.13793033E+00 -3.79965257E-03  1.16713591E-03 -3.14033521E+00
 -3.14028832E+00  1.39464551E-03 -3.11424362E+00  2.82101198E-03  2.72589265E-02
 -3.13886175E+00
SymInf integers                            I   N=          26
           1           1           1           1           1           0
           0           0           0           0           0           0
           0           0           0           0           0           0
           0           0           0           0           0           0
           0           0
RotTr to input orientation                 R   N=          12
 -5.71856169E-01 -7.98412545E-01  1.88462012E-01  7.82101854E-01 -5.99942725E-01
 -1.68479722E-01  2.47582737E-01  5.10503202E-02  9.67520880E-01 -1.19961915E+00
  3.80162995E+00  5.44491918E-01
Number of contracted shells                I               70
Number of primitive shells                 I              179
Pure/Cartesian d shells                    I                1
Pure/Cartesian f shells                    I                0
Highest angular momentum                   I                2
Largest degree of contraction              I                6
Shell types                                I   N=          70
           0          -1          -1           2           0          -1
          -1           2           0          -1          -1           2
           0          -1          -1           2           0          -1
          -1           2           0          -1          -1           2
           0          -1          -1           2           0          -1
          -1           2           0          -1          -1           2
           0          -1          -1           2           0          -1
          -1           2           0          -1          -1           2
           0          -1          -1           2           0           0
           0           0           0           0           0           0
           0           0           0           0           0           0
           0           0           0           0
Number of primitives per shell             I   N=          70
           6           3           1           1           6           3
           1           1           6           3           1           1
           6           3           1           1           6           3
           1           1           6           3           1           1
           6           3           1           1           6           3
           1           1           6           3           1           1
           6           3           1           1           6           3
           1           1           6           3           1           1
           6           3           1           1           3           1
           3           1           3           1           3           1
           3           1           3           1           3           1
           3           1           3           1
Shell to atom map                          I   N=          70
           1           1           1           1           2           2
           2           2           3           3           3           3
           4           4           4           4           5           5
           5           5           6           6           6           6
           7           7           7           7           8           8
           8           8           9           9           9           9
          10          10          10          10          11          11
          11          11          12          12          12          12
          13          13          13          13          14          14
          15          15          16          16          17          17
          18          18          19          19          20          20
          21          21          22          22
Primitive exponents                        R   N=         179
  5.48467166E+03  8.25234946E+02  1.88046958E+02  5.29645000E+01  1.68975704E+01
  5.79963534E+00  1.55396162E+01  3.59993359E+00  1.01376175E+00  2.70005823E-01
  8.00000000E-01  4.17351146E+03  6.27457911E+02  1.42902093E+02  4.02343293E+01
  1.28202129E+01  4.39043701E+00  1.16263619E+01  2.71627981E+00  7.72218397E-01
  2.12031498E-01  8.00000000E-01  3.04752488E+03  4.57369518E+02  1.03948685E+02
  2.92101553E+01  9.28666296E+00  3.16392696E+00  7.86827235E+00  1.88128854E+00
  5.44249258E-01  1.68714478E-01  8.00000000E-01  3.04752488E+03  4.57369518E+02
  1.03948685E+02  2.92101553E+01  9.28666296E+00  3.16392696E+00  7.86827235E+00
  1.88128854E+00  5.44249258E-01  1.68714478E-01  8.00000000E-01  5.48467166E+03
  8.25234946E+02  1.88046958E+02  5.29645000E+01  1.68975704E+01  5.79963534E+00
  1.55396162E+01  3.59993359E+00  1.01376175E+00  2.70005823E-01  8.00000000E-01
  3.04752488E+03  4.57369518E+02  1.03948685E+02  2.92101553E+01  9.28666296E+00
  3.16392696E+00  7.86827235E+00  1.88128854E+00  5.44249258E-01  1.68714478E-01
  8.00000000E-01  4.17351146E+03  6.27457911E+02  1.42902093E+02  4.02343293E+01
  1.28202129E+01  4.39043701E+00  1.16263619E+01  2.71627981E+00  7.72218397E-01
  2.12031498E-01  8.00000000E-01  3.04752488E+03  4.57369518E+02  1.03948685E+02
  2.92101553E+01  9.28666296E+00  3.16392696E+00  7.86827235E+00  1.88128854E+00
  5.44249258E-01  1.68714478E-01  8.00000000E-01  3.04752488E+03  4.57369518E+02
  1.03948685E+02  2.92101553E+01  9.28666296E+00  3.16392696E+00  7.86827235E+00
  1.88128854E+00  5.44249258E-01  1.68714478E-01  8.00000000E-01  3.04752488E+03
  4.57369518E+02  1.03948685E+02  2.92101553E+01  9.28666296E+00  3.16392696E+00
  7.86827235E+00  1.88128854E+00  5.44249258E-01  1.68714478E-01  8.00000000E-01
  3.04752488E+03  4.57369518E+02  1.03948685E+02  2.92101553E+01  9.28666296E+00
  3.16392696E+00  7.86827235E+00  1.88128854E+00  5.44249258E-01  1.68714478E-01
  8.00000000E-01  3.04752488E+03  4.57369518E+02  1.03948685E+02  2.92101553E+01
  9.28666296E+00  3.16392696E+00  7.86827235E+00  1.88128854E+00  5.44249258E-01
  1.68714478E-01  8.00000000E-01  3.04752488E+03  4.57369518E+02  1.03948685E+02
  2.92101553E+01  9.28666296E+00  3.16392696E+00  7.86827235E+00  1.88128854E+00
  5.44249258E-01  1.68714478E-01  8.00000000E-01  1.87311370E+01  2.82539436E+00
  6.40121692E-01  1.61277759E-01  1.87311370E+01  2.82539436E+00  6.40121692E-01
  1.61277759E-01  1.87311370E+01  2.82539436E+00  6.40121692E-01  1.61277759E-01
  1.87311370E+01  2.82539436E+00  6.40121692E-01  1.61277759E-01  1.87311370E+01
  2.82539436E+00  6.40121692E-01  1.61277759E-01  1.87311370E+01  2.82539436E+00
  6.40121692E-01  1.61277759E-01  1.87311370E+01  2.82539436E+00  6.40121692E-01
  1.61277759E-01  1.87311370E+01  2.82539436E+00  6.40121692E-01  1.61277759E-01
  1.87311370E+01  2.82539436E+00  6.40121692E-01  1.61277759E-01
Contraction coefficients                   R   N=         179
  1.83107443E-03  1.39501722E-02  6.84450781E-02  2.32714336E-01  4.70192898E-01
  3.58520853E-01 -1.10777550E-01 -1.48026263E-01  1.13076702E+00  1.00000000E+00
  1.00000000E+00  1.83477216E-03  1.39946270E-02  6.85865518E-02  2.32240873E-01
  4.69069948E-01  3.60455199E-01 -1.14961182E-01 -1.69117479E-01  1.14585195E+00
  1.00000000E+00  1.00000000E+00  1.83473713E-03  1.40373228E-02  6.88426223E-02
  2.32184443E-01  4.67941348E-01  3.62311985E-01 -1.19332420E-01 -1.60854152E-01
  1.14345644E+00  1.00000000E+00  1.00000000E+00  1.83473713E-03  1.40373228E-02
  6.88426223E-02  2.32184443E-01  4.67941348E-01  3.62311985E-01 -1.19332420E-01
 -1.60854152E-01  1.14345644E+00  1.00000000E+00  1.00000000E+00  1.83107443E-03
  1.39501722E-02  6.84450781E-02  2.32714336E-01  4.70192898E-01  3.58520853E-01
 -1.10777550E-01 -1.48026263E-01  1.13076702E+00  1.00000000E+00  1.00000000E+00
  1.83473713E-03  1.40373228E-02  6.88426223E-02  2.32184443E-01  4.67941348E-01
  3.62311985E-01 -1.19332420E-01 -1.60854152E-01  1.14345644E+00  1.00000000E+00
  1.00000000E+00  1.83477216E-03  1.39946270E-02  6.85865518E-02  2.32240873E-01
  4.69069948E-01  3.60455199E-01 -1.14961182E-01 -1.69117479E-01  1.14585195E+00