Title Card Required                                                     
Freq      RB3LYP                                                      6-31G(d)            
Number of atoms                            I               12
Info1-9                                    I   N=           9
          34          34        1002           0           0         100
           6          18        -502
Full Title                                 C   N=           2
Title Card Required     
Route                                      C   N=           6
#P opt freq b3lyp/6-31g(d) geom=connectivity temperature=0.0
01          
Charge                                     I                0
Multiplicity                               I                1
Number of electrons                        I               50
Number of alpha electrons                  I               25
Number of beta electrons                   I               25
Number of basis functions                  I              115
Number of independent functions            I              115
Number of point charges in /Mol/           I                0
Number of translation vectors              I                0
Atomic numbers                             I   N=          12
           8           7           6           6           6           6
           6           1           1           1           1           1
Nuclear charges                            R   N=          12
  8.00000000E+00  7.00000000E+00  6.00000000E+00  6.00000000E+00  6.00000000E+00
  6.00000000E+00  6.00000000E+00  1.00000000E+00  1.00000000E+00  1.00000000E+00
  1.00000000E+00  1.00000000E+00
Current cartesian coordinates              R   N=          36
 -3.90213522E-05  4.27439391E+00  9.86076132E-32 -1.36389263E-16  1.86566191E+00
  0.00000000E+00  2.23026665E+00  5.35934206E-01 -2.46519033E-32  2.25718203E+00
 -2.07752984E+00 -4.93038066E-32  3.04590228E-05 -3.44394997E+00  2.46519033E-31
 -2.25716469E+00 -2.07754839E+00  1.47911420E-31 -2.23027868E+00  5.35894775E-01
 -1.23259516E-32  3.88979317E+00  1.72924983E+00 -2.46519033E-32  4.07496618E+00
 -3.02854722E+00  9.86076132E-32  2.29621913E-05 -5.49293713E+00 -9.86076132E-32
 -4.07491785E+00 -3.02862197E+00  1.47911420E-31 -3.88976688E+00  1.72926727E+00
 -2.46519033E-32
Number of symbols in /Mol/                 I                0
Force Field                                I                0
Atom Types                                 C   N=          12
                                                            
                                                            
                        
Int Atom Types                             I   N=          12
           0           0           0           0           0           0
           0           0           0           0           0           0
MM charges                                 R   N=          12
  0.00000000E+00  0.00000000E+00  0.00000000E+00  0.00000000E+00  0.00000000E+00
  0.00000000E+00  0.00000000E+00  0.00000000E+00  0.00000000E+00  0.00000000E+00
  0.00000000E+00  0.00000000E+00
Integer atomic weights                     I   N=          12
          16          14          12          12          12          12
          12           1           1           1           1           1
Real atomic weights                        R   N=          12
  1.59949146E+01  1.40030740E+01  1.20000000E+01  1.20000000E+01  1.20000000E+01
  1.20000000E+01  1.20000000E+01  1.00782504E+00  1.00782504E+00  1.00782504E+00
  1.00782504E+00  1.00782504E+00
Atom fragment info                         I   N=          12
           0           0           0           0           0           0
           0           0           0           0           0           0
Atom residue num                           I   N=          12
           0           0           0           0           0           0
           0           0           0           0           0           0
Nuclear spins                              I   N=          12
           0           2           0           0           0           0
           0           1           1           1           1           1
Nuclear ZEff                               R   N=          12
 -5.60000000E+00 -4.55000000E+00 -3.60000000E+00 -3.60000000E+00 -3.60000000E+00
 -3.60000000E+00 -3.60000000E+00 -1.00000000E+00 -1.00000000E+00 -1.00000000E+00
 -1.00000000E+00 -1.00000000E+00
Nuclear ZNuc                               R   N=          12
  8.00000000E+00  7.00000000E+00  6.00000000E+00  6.00000000E+00  6.00000000E+00
  6.00000000E+00  6.00000000E+00  1.00000000E+00  1.00000000E+00  1.00000000E+00
  1.00000000E+00  1.00000000E+00
Nuclear QMom                               R   N=          12
  0.00000000E+00  2.04400000E+00  0.00000000E+00  0.00000000E+00  0.00000000E+00
  0.00000000E+00  0.00000000E+00  0.00000000E+00  0.00000000E+00  0.00000000E+00
  0.00000000E+00  0.00000000E+00
Nuclear GFac                               R   N=          12
  0.00000000E+00  4.03761000E-01  0.00000000E+00  0.00000000E+00  0.00000000E+00
  0.00000000E+00  0.00000000E+00  2.79284600E+00  2.79284600E+00  2.79284600E+00
  2.79284600E+00  2.79284600E+00
MicOpt                                     I   N=          12
          -1          -1          -1          -1          -1          -1
          -1          -1          -1          -1          -1          -1
Number of residues                         I                0
Number of secondary structures             I                0
Redundant internal dimensions              I   N=           4
          54          12          18          24
Redundant internal coordinate indices      I   N=         216
           1           2           0           0           2           3
           0           0           2           7           0           0
           3           4           0           0           3           8
           0           0           4           5           0           0
           4           9           0           0           5           6
           0           0           5          10           0           0
           6           7           0           0           6          11
           0           0           7          12           0           0
           1           2           3           0           1           2
           7           0           3           2           7           0
           2           3           4           0           2           3
           8           0           4           3           8           0
           3           4           5           0           3           4
           9           0           5           4           9           0
           4           5           6           0           4           5
          10           0           6           5          10           0
           5           6           7           0           5           6
          11           0           7           6          11           0
           2           7           6           0           2           7
          12           0           6           7          12           0
           1           2           3           4           1           2
           3           8           7           2           3           4
           7           2           3           8           1           2
           7           6           1           2           7          12
           3           2           7           6           3           2
           7          12           2           3           4           5
           2           3           4           9           8           3
           4           5           8           3           4           9
           3           4           5           6           3           4
           5          10           9           4           5           6
           9           4           5          10           4           5
           6           7           4           5           6          11
          10           5           6           7          10           5
           6          11           5           6           7           2
           5           6           7          12          11           6
           7           2          11           6           7          12
Redundant internal coordinates             R   N=          54
  2.40873200E+00  2.59658720E+00  2.59661773E+00  2.61360264E+00  2.04402310E+00
  2.63852936E+00  2.05152950E+00  2.63855704E+00  2.04898716E+00  2.61358146E+00
  2.05152808E+00  2.04402519E+00  2.10844736E+00  2.10842563E+00  2.06631232E+00
  2.11872953E+00  1.98054757E+00  2.18390821E+00  2.10485932E+00  2.06310915E+00
  2.11521683E+00  2.05288450E+00  2.11516135E+00  2.11513946E+00  2.10485590E+00
  2.11520012E+00  2.06312928E+00  2.11872905E+00  1.98050337E+00  2.18395289E+00
  3.14159265E+00  0.00000000E+00  0.00000000E+00  3.14159265E+00  3.14159265E+00
  0.00000000E+00  0.00000000E+00  3.14159265E+00 -0.00000000E+00  3.14159265E+00
  3.14159265E+00  0.00000000E+00  0.00000000E+00  3.14159265E+00  3.14159265E+00
 -0.00000000E+00  0.00000000E+00  3.14159265E+00  3.14159265E+00  0.00000000E+00
 -0.00000000E+00  3.14159265E+00  3.14159265E+00  0.00000000E+00
ZRed-IntVec                                I   N=          54
           0           0           0           0           0           0
           0           0           0           0           0           0
           0           0           0           0           0           0
           0           0           0           0           0           0
           0           0           0           0           0           0
           0           0           0           0           0           0
           0           0           0           0           0           0
           0           0           0           0           0           0
           0           0           0           0           0           0
ZRed-FPVec                                 R   N=          54
  0.00000000E+00  0.00000000E+00  0.00000000E+00  0.00000000E+00  0.00000000E+00
  0.00000000E+00  0.00000000E+00  0.00000000E+00  0.00000000E+00  0.00000000E+00
  0.00000000E+00  0.00000000E+00  0.00000000E+00  0.00000000E+00  0.00000000E+00
  0.00000000E+00  0.00000000E+00  0.00000000E+00  0.00000000E+00  0.00000000E+00
  0.00000000E+00  0.00000000E+00  0.00000000E+00  0.00000000E+00  0.00000000E+00
  0.00000000E+00  0.00000000E+00  0.00000000E+00  0.00000000E+00  0.00000000E+00
  0.00000000E+00  0.00000000E+00  0.00000000E+00  0.00000000E+00  0.00000000E+00
  0.00000000E+00  0.00000000E+00  0.00000000E+00  0.00000000E+00  0.00000000E+00
  0.00000000E+00  0.00000000E+00  0.00000000E+00  0.00000000E+00  0.00000000E+00
  0.00000000E+00  0.00000000E+00  0.00000000E+00  0.00000000E+00  0.00000000E+00
  0.00000000E+00  0.00000000E+00  0.00000000E+00  0.00000000E+00
ZRed-Constraint1                           R   N=          54
  2.40873200E+00  2.59658720E+00  2.59661773E+00  2.61360264E+00  2.04402310E+00
  2.63852936E+00  2.05152950E+00  2.63855704E+00  2.04898716E+00  2.61358146E+00
  2.05152808E+00  2.04402519E+00  2.10844736E+00  2.10842563E+00  2.06631232E+00
  2.11872953E+00  1.98054757E+00  2.18390821E+00  2.10485932E+00  2.06310915E+00
  2.11521683E+00  2.05288450E+00  2.11516135E+00  2.11513946E+00  2.10485590E+00
  2.11520012E+00  2.06312928E+00  2.11872905E+00  1.98050337E+00  2.18395289E+00
  3.14159265E+00 -0.00000000E+00  0.00000000E+00  3.14159265E+00  3.14159265E+00
  0.00000000E+00 -0.00000000E+00  3.14159265E+00 -0.00000000E+00  3.14159265E+00
  3.14159265E+00  0.00000000E+00  0.00000000E+00  3.14159265E+00  3.14159265E+00
 -0.00000000E+00  0.00000000E+00  3.14159265E+00  3.14159265E+00 -0.00000000E+00
 -0.00000000E+00  3.14159265E+00  3.14159265E+00 -0.00000000E+00
ZRed-Constraint2                           R   N=          54
  2.46883386E+00  2.57499042E+00  2.57600865E+00  2.65971576E+00  2.05979562E+00
  2.65735941E+00  2.05978520E+00  2.65732963E+00  2.05988304E+00  2.65925771E+00
  2.05974198E+00  2.05983779E+00  2.07830893E+00  2.07789765E+00  2.12697872E+00
  2.09641920E+00  2.06526805E+00  2.12149806E+00  2.07738001E+00  2.10381328E+00
  2.10199202E+00  2.09180665E+00  2.09558653E+00  2.09579212E+00  2.07754189E+00
  2.10210549E+00  2.10353793E+00  2.09624415E+00  2.06587643E+00  2.12106473E+00
  3.14159265E+00  0.00000000E+00  0.00000000E+00  3.14159265E+00  3.14159265E+00
  0.00000000E+00  0.00000000E+00  3.14159265E+00  0.00000000E+00  3.14159265E+00
  3.14159265E+00  0.00000000E+00  0.00000000E+00  3.14159265E+00  3.14159265E+00
  0.00000000E+00  0.00000000E+00  3.14159265E+00  3.14159265E+00  0.00000000E+00
  0.00000000E+00  3.14159265E+00  3.14159265E+00  0.00000000E+00
SymInf integers                            I   N=          26
           1           2           1           1           1           1
           1          -1           0           0           0           0
           0           0           0           0           0           0
           0           0           0           0           0           0
           0           0
RotTr to input orientation                 R   N=          12
  8.94563881E-03 -9.99959987E-01 -1.04768225E-21 -9.99959987E-01 -8.94563881E-03
  1.22464680E-16 -1.22459789E-16 -1.09447715E-18 -1.00000000E+00  5.59709633E-01
  2.21394219E+00  6.38787160E-19
Number of contracted shells                I               38
Number of primitive shells                 I               97
Pure/Cartesian d shells                    I                1
Pure/Cartesian f shells                    I                0
Highest angular momentum                   I                2
Largest degree of contraction              I                6
Shell types                                I   N=          38
           0          -1          -1           2           0          -1
          -1           2           0          -1          -1           2
           0          -1          -1           2           0          -1
          -1           2           0          -1          -1           2
           0          -1          -1           2           0           0
           0           0           0           0           0           0
           0           0
Number of primitives per shell             I   N=          38
           6           3           1           1           6           3
           1           1           6           3           1           1
           6           3           1           1           6           3
           1           1           6           3           1           1
           6           3           1           1           3           1
           3           1           3           1           3           1
           3           1
Shell to atom map                          I   N=          38
           1           1           1           1           2           2
           2           2           3           3           3           3
           4           4           4           4           5           5
           5           5           6           6           6           6
           7           7           7           7           8           8
           9           9          10          10          11          11
          12          12
Primitive exponents                        R   N=          97
  5.48467166E+03  8.25234946E+02  1.88046958E+02  5.29645000E+01  1.68975704E+01
  5.79963534E+00  1.55396162E+01  3.59993359E+00  1.01376175E+00  2.70005823E-01
  8.00000000E-01  4.17351146E+03  6.27457911E+02  1.42902093E+02  4.02343293E+01
  1.28202129E+01  4.39043701E+00  1.16263619E+01  2.71627981E+00  7.72218397E-01
  2.12031498E-01  8.00000000E-01  3.04752488E+03  4.57369518E+02  1.03948685E+02
  2.92101553E+01  9.28666296E+00  3.16392696E+00  7.86827235E+00  1.88128854E+00
  5.44249258E-01  1.68714478E-01  8.00000000E-01  3.04752488E+03  4.57369518E+02
  1.03948685E+02  2.92101553E+01  9.28666296E+00  3.16392696E+00  7.86827235E+00
  1.88128854E+00  5.44249258E-01  1.68714478E-01  8.00000000E-01  3.04752488E+03
  4.57369518E+02  1.03948685E+02  2.92101553E+01  9.28666296E+00  3.16392696E+00
  7.86827235E+00  1.88128854E+00  5.44249258E-01  1.68714478E-01  8.00000000E-01
  3.04752488E+03  4.57369518E+02  1.03948685E+02  2.92101553E+01  9.28666296E+00
  3.16392696E+00  7.86827235E+00  1.88128854E+00  5.44249258E-01  1.68714478E-01
  8.00000000E-01  3.04752488E+03  4.57369518E+02  1.03948685E+02  2.92101553E+01
  9.28666296E+00  3.16392696E+00  7.86827235E+00  1.88128854E+00  5.44249258E-01
  1.68714478E-01  8.00000000E-01  1.87311370E+01  2.82539436E+00  6.40121692E-01
  1.61277759E-01  1.87311370E+01  2.82539436E+00  6.40121692E-01  1.61277759E-01
  1.87311370E+01  2.82539436E+00  6.40121692E-01  1.61277759E-01  1.87311370E+01
  2.82539436E+00  6.40121692E-01  1.61277759E-01  1.87311370E+01  2.82539436E+00
  6.40121692E-01  1.61277759E-01
Contraction coefficients                   R   N=          97
  1.83107443E-03  1.39501722E-02  6.84450781E-02  2.32714336E-01  4.70192898E-01
  3.58520853E-01 -1.10777550E-01 -1.48026263E-01  1.13076702E+00  1.00000000E+00
  1.00000000E+00  1.83477216E-03  1.39946270E-02  6.85865518E-02  2.32240873E-01
  4.69069948E-01  3.60455199E-01 -1.14961182E-01 -1.69117479E-01  1.14585195E+00
  1.00000000E+00  1.00000000E+00  1.83473713E-03  1.40373228E-02  6.88426223E-02
  2.32184443E-01  4.67941348E-01  3.62311985E-01 -1.19332420E-01 -1.60854152E-01
  1.14345644E+00  1.00000000E+00  1.00000000E+00  1.83473713E-03  1.40373228E-02
  6.88426223E-02  2.32184443E-01  4.67941348E-01  3.62311985E-01 -1.19332420E-01
 -1.60854152E-01  1.14345644E+00  1.00000000E+00  1.00000000E+00  1.83473713E-03
  1.40373228E-02  6.88426223E-02  2.32184443E-01  4.67941348E-01  3.62311985E-01
 -1.19332420E-01 -1.60854152E-01  1.14345644E+00  1.00000000E+00  1.00000000E+00
  1.83473713E-03  1.40373228E-02  6.88426223E-02  2.32184443E-01  4.67941348E-01
  3.62311985E-01 -1.19332420E-01 -1.60854152E-01  1.14345644E+00  1.00000000E+00
  1.00000000E+00  1.83473713E-03  1.40373228E-02  6.88426223E-02  2.32184443E-01
  4.67941348E-01  3.62311985E-01 -1.19332420E-01 -1.60854152E-01  1.14345644E+00
  1.00000000E+00  1.00000000E+00  3.34946043E-02  2.34726953E-01  8.13757326E-01
  1.00000000E+00  3.34946043E-02  2.34726953E-01  8.13757326E-01  1.00000000E+00
  3.34946043E-02  2.34726953E-01  8.13757326E-01  1.00000000E+00  3.34946043E-02
  2.34726953E-01  8.13757326E-01  1.00000000E+00  3.34946043E-02  2.34726953E-01
  8.13757326E-01  1.00000000E+00
P(S=P) Contraction coefficients            R   N=          97
  0.00000000E+00  0.00000000E+00  0.00000000E+00  0.00000000E+00  0.00000000E+00
  0.00000000E+00  7.08742682E-02  3.39752839E-01  7.27158577E-01  1.00000000E+00
  0.00000000E+00  0.00000000E+00  0.00000000E+00  0.00000000E+00  0.00000000E+00
  0.00000000E+00  0.00000000E+00  6.75797439E-02  3.23907296E-01  7.40895140E-01
  1.00000000E+00  0.00000000E+00  0.00000000E+00  0.00000000E+00  0.00000000E+00
  0.00000000E+00  0.00000000E+00  0.00000000E+00  6.89990666E-02  3.16423961E-01
  7.44308291E-01  1.00000000E+00  0.00000000E+00  0.00000000E+00  0.00000000E+00
  0.00000000E+00  0.00000000E+00  0.00000000E+00  0.00000000E+00  6.89990666E-02
  3.16423961E-01  7.44308291E-01  1.00000000E+00  0.00000000E+00  0.00000000E+00
  0.00000000E+00  0.00000000E+00  0.00000000E+00  0.00000000E+00  0.00000000E+00
  6.89990666E-02  3.16423961E-01  7.44308291E-01  1.00000000E+00  0.00000000E+00
  0.00000000E+00  0.00000000E+00  0.00000000E+00  0.00000000E+00  0.00000000E+00
  0.00000000E+00  6.89990666E-02  3.16423961E-01  7.44308291E-01  1.00000000E+00
  0.00000000E+00  0.00000000E+00  0.00000000E+00  0.00000000E+00  0.00000000E+00
  0.00000000E+00  0.00000000E+00  6.89990666E-02  3.16423961E-01  7.44308291E-01
  1.00000000E+00  0.00000000E+00  0.00000000E+00  0.00000000E+00  0.00000000E+00
  0.00000000E+00  0.00000000E+00  0.00000000E+00  0.00000000E+00  0.00000000E+00
  0.00000000E+00  0.00000000E+00  0.00000000E+00  0.00000000E+00  0.00000000E+00
  0.00000000E+00  0.00000000E+00  0.00000000E+00  0.00000000E+00  0.00000000E+00
  0.00000000E+00  0.00000000E+00
Coordinates of each shell                  R   N=         114
 -3.90213522E-05  4.27439391E+00  0.00000000E+00 -3.90213522E-05  4.27439391E+00
  0.00000000E+00 -3.90213522E-05  4.27439391E+00  0.00000000E+00 -3.90213522E-05
  4.27439391E+00  0.00000000E+00 -1.36389263E-16  1.86566191E+00 -4.93038066E-32
 -1.36389263E-16  1.86566191E+00 -4.93038066E-32 -1.36389263E-16  1.86566191E+00
 -4.93038066E-32 -1.36389263E-16  1.86566191E+00 -4.93038066E-32  2.23026665E+00
  5.35934206E-01 -2.46519033E-32  2.23026665E+00  5.35934206E-01 -2.46519033E-32
  2.23026665E+00  5.35934206E-01 -2.46519033E-32  2.23026665E+00  5.35934206E-01
 -2.46519033E-32  2.25718203E+00 -2.07752984E+00  0.00000000E+00  2.25718203E+00
 -2.07752984E+00  0.00000000E+00  2.25718203E+00 -2.07752984E+00  0.00000000E+00
  2.25718203E+00 -2.07752984E+00  0.00000000E+00  3.04590228E-05 -3.44394997E+00
  1.47911420E-31  3.04590228E-05 -3.44394997E+00  1.47911420E-31  3.04590228E-05
 -3.44394997E+00  1.47911420E-31  3.04590228E-05 -3.44394997E+00  1.47911420E-31
 -2.25716469E+00 -2.07754839E+00  9.86076132E-32 -2.25716469E+00 -2.07754839E+00
  9.86076132E-32 -2.25716469E+00 -2.07754839E+00  9.86076132E-32 -2.25716469E+00
 -2.07754839E+00  9.86076132E-32 -2.23027868E+00  5.35894775E-01 -1.23259516E-32
 -2.23027868E+00  5.35894775E-01 -1.23259516E-32 -2.23027868E+00  5.35894775E-01
 -1.23259516E-32 -2.23027868E+00  5.35894775E-01 -1.23259516E-32  3.88979317E+00
  1.72924983E+00 -2.46519033E-32  3.88979317E+00  1.72924983E+00 -2.46519033E-32
  4.07496618E+00 -3.02854722E+00  9.86076132E-32  4.07496618E+00 -3.02854722E+00
  9.86076132E-32  2.29621913E-05 -5.49293713E+00  0.00000000E+00  2.29621913E-05
 -5.49293713E+00  0.00000000E+00 -4.07491785E+00 -3.02862197E+00  9.86076132E-32
 -4.07491785E+00 -3.02862197E+00  9.86076132E-32 -3.88976688E+00  1.72926727E+00
 -4.93038066E-32 -3.88976688E+00  1.72926727E+00 -4.93038066E-32
Num ILSW                                   I              100
ILSW                                       I   N=         100
           0           1           0           0           2           0
           0           0           0           0         402          -1
           5           0           0           0           2           0
           0           0           0           0           1           0
           1           0           0           0           0           0
           0           0      100000           0          -1           0
           0           0           0           0           0           0
           0           0           0           1           0           0
           0 -2000000000           1           0           0           0
           0           0           4          52           0           0
           0           0           5           0           0           0
           0           0           0          12           0           1
           0           0           0           0           0           0
           0           0           0           0           0           0
           0           0           0           0           0           0
           0           0           0           0           0           0
           0           0           0           0
Num RLSW                                   I               52
RLSW                                       R   N=          52
  8.00000000E-01  7.20000000E-01  1.00000000E+00  8.10000000E-01  2.00000000E-01
  0.00000000E+00  0.00000000E+00  1.00000000E+00  0.00000000E+00  0.00000000E+00
  0.00000000E+00  0.00000000E+00  1.00000000E+00  0.00000000E+00  0.00000000E+00
  0.00000000E+00  0.00000000E+00  1.00000000E+00  0.00000000E+00  0.00000000E+00
  0.00000000E+00  0.00000000E+00  1.00000000E+00  0.00000000E+00  0.00000000E+00
  0.00000000E+00  0.00000000E+00  1.00000000E+00  0.00000000E+00  0.00000000E+00
  0.00000000E+00  0.00000000E+00  1.00000000E+00  0.00000000E+00  0.00000000E+00
  0.00000000E+00  0.00000000E+00  0.00000000E+00  1.00000000E+00  1.00000000E+00
  0.00000000E+00  1.00000000E+00  0.00000000E+00  0.00000000E+00  0.00000000E+00
  0.00000000E+00  0.00000000E+00  0.00000000E+00  0.00000000E+00  0.00000000E+00
  0.00000000E+00  0.00000000E+00
MxBond                                     I                3
NBond                                      I   N=          12
           1           3           3           3           3           3
           3           1           1           1           1           1
IBond                                      I   N=          36
           2           0           0           1           3           7
           2           4           8           3           5           9
           4           6          10           5           7          11
           2           6          12           3           0           0
           4           0           0           5           0           0
           6           0           0           7           0           0
RBond                                      R   N=          36
  1.00000000E+00  0.00000000E+00  0.00000000E+00  1.00000000E+00  2.00000000E+00
  1.00000000E+00  2.00000000E+00  1.00000000E+00  1.00000000E+00  1.00000000E+00
  2.00000000E+00  1.00000000E+00  2.00000000E+00  1.00000000E+00  1.00000000E+00
  1.00000000E+00  2.00000000E+00  1.00000000E+00  1.00000000E+00  2.00000000E+00
  1.00000000E+00  1.00000000E+00  0.00000000E+00  0.00000000E+00  1.00000000E+00
  0.00000000E+00  0.00000000E+00  1.00000000E+00  0.00000000E+00  0.00000000E+00
  1.00000000E+00  0.00000000E+00  0.00000000E+00  1.00000000E+00  0.00000000E+00
  0.00000000E+00
Virial Ratio                               R      2.009297165151748E+00
SCF Energy                                 R     -3.234471716708949E+02
Total Energy                               R     -3.234471716708949E+02
RMS Force                                  R      9.505994662811342E-05
RMS Density                                R      7.223273183807910E-10
NImag                                      I                0
Job Status                                 I                1
Nuclear derivative order                   I                2
External E-field                           R   N=          35
  0.00000000E+00  0.00000000E+00  0.00000000E+00  0.00000000E+00  0.00000000E+00
  0.00000000E+00  0.00000000E+00  0.00000000E+00  0.00000000E+00  0.00000000E+00
  0.00000000E+00  0.00000000E+00  0.00000000E+00  0.00000000E+00  0.00000000E+00
  0.00000000E+00  0.00000000E+00  0.00000000E+00  0.00000000E+00  0.00000000E+00
  0.00000000E+00  0.00000000E+00  0.00000000E+00  0.00000000E+00  0.00000000E+00
  0.00000000E+00  0.00000000E+00  0.00000000E+00  0.00000000E+00  0.00000000E+00
  0.00000000E+00  0.00000000E+00  0.00000000E+00  0.00000000E+00  0.00000000E+00
IOpCl                                      I                0
IROHF                                      I                0
Alpha Orbital Energies                     R   N=         115
 -1.91146775E+01 -1.44820397E+01 -1.02364503E+01 -1.02364423E+01 -1.02194961E+01
 -1.02194754E+01 -1.02121244E+01 -1.10400590E+00 -8.98764443E-01 -7.94052674E-01
 -7.89433772E-01 -6.67909757E-01 -6.40005390E-01 -5.38823556E-01 -5.12952230E-01
 -4.91998765E-01 -4.67927214E-01 -4.52346737E-01 -4.51717309E-01 -3.90546911E-01
 -3.87986344E-01 -3.44629739E-01 -2.83090333E-01 -2.43647093E-01 -2.12783743E-01
 -3.75304652E-02 -2.59645597E-02  7.73528580E-02  1.21262195E-01  1.25915141E-01
  1.41372332E-01  1.64071245E-01  1.72625453E-01  1.96640927E-01  2.54034733E-01
  2.62554806E-01  2.97038099E-01  3.28833922E-01  4.27966978E-01  4.51844266E-01
  4.99707561E-01  5.01439650E-01  5.45773264E-01  5.51957845E-01  5.70499657E-01
  5.83874044E-01  5.84844621E-01  5.91341104E-01  5.94020050E-01  6.40272779E-01
  6.58986342E-01  6.74410047E-01  8.04008334E-01  8.13615707E-01  8.16970592E-01
  8.31817158E-01  8.38106041E-01  8.48905885E-01  9.02387271E-01  9.14797935E-01
  9.49794044E-01  1.00366563E+00  1.00582688E+00  1.03644789E+00  1.07450987E+00
  1.10824070E+00  1.10972176E+00  1.18390359E+00  1.21313210E+00  1.25468805E+00
  1.35156048E+00  1.38618258E+00  1.42886096E+00  1.44206826E+00  1.45564788E+00
  1.45904581E+00  1.47115360E+00  1.48320974E+00  1.69149494E+00  1.81002024E+00
  1.83644338E+00  1.84770924E+00  1.89600853E+00  1.91271508E+00  1.93029966E+00
  2.01664887E+00  2.01839224E+00  2.03057301E+00  2.06393395E+00  2.11625617E+00
  2.11680388E+00  2.19040105E+00  2.23474613E+00  2.23744346E+00  2.29281980E+00
  2.29321518E+00  2.51860136E+00  2.54765363E+00  2.58449351E+00  2.63032855E+00
  2.65329206E+00  2.67835170E+00  2.71478891E+00  2.71614712E+00  2.82795717E+00
  2.99376872E+00  3.14485479E+00  3.38188899E+00  3.73049640E+00  4.00854860E+00
  4.09174159E+00  4.09986517E+00  4.24861345E+00  4.30207364E+00  4.59355332E+00
Alpha MO coefficients                      R   N=       13225
  9.92872248E-01  2.59696171E-02  2.29383725E-08 -1.25809904E-03  0.00000000E+00
  1.18123948E-02  1.39937527E-08 -1.32689237E-03  0.00000000E+00 -7.77358570E-03
 -7.36709662E-03 -7.80312497E-03 -6.29981859E-09  0.00000000E+00  0.00000000E+00
  4.51735096E-06  3.35207171E-04 -3.87871943E-09  3.07560835E-04  0.00000000E+00
 -8.98881186E-04  5.59542382E-08 -3.02434249E-03  0.00000000E+00  2.02539926E-04
 -6.21379600E-04  1.67198091E-05  1.62563780E-08  0.00000000E+00  0.00000000E+00
 -1.01620600E-05  6.48038083E-05  4.37436963E-05 -4.04300157E-06  0.00000000E+00
 -4.01980752E-04  9.55268300E-04  1.78757455E-05  0.00000000E+00 -1.08316575E-04
 -1.08046350E-04 -9.30668790E-06  7.24788285E-05  0.00000000E+00  0.00000000E+00