 Entering Gaussian System, Link 0=/apps/cent7/gaussian/g16-A.03/g16-haswell/g16/g16
 Initial command:
 /apps/cent7/gaussian/g16-A.03/g16-haswell/g16/l1.exe "/scratch/brown/finej/gaussian/Gau-205109.inp" -scrdir="/scratch/brown/finej/gaussian/"
 Entering Link 1 = /apps/cent7/gaussian/g16-A.03/g16-haswell/g16/l1.exe PID=    205110.
  
 Copyright (c) 1988,1990,1992,1993,1995,1998,2003,2009,2016,
            Gaussian, Inc.  All Rights Reserved.
  
 This is part of the Gaussian(R) 16 program.  It is based on
 the Gaussian(R) 09 system (copyright 2009, Gaussian, Inc.),
 the Gaussian(R) 03 system (copyright 2003, Gaussian, Inc.),
 the Gaussian(R) 98 system (copyright 1998, Gaussian, Inc.),
 the Gaussian(R) 94 system (copyright 1995, Gaussian, Inc.),
 the Gaussian 92(TM) system (copyright 1992, Gaussian, Inc.),
 the Gaussian 90(TM) system (copyright 1990, Gaussian, Inc.),
 the Gaussian 88(TM) system (copyright 1988, Gaussian, Inc.),
 the Gaussian 86(TM) system (copyright 1986, Carnegie Mellon
 University), and the Gaussian 82(TM) system (copyright 1983,
 Carnegie Mellon University). Gaussian is a federally registered
 trademark of Gaussian, Inc.
  
 This software contains proprietary and confidential information,
 including trade secrets, belonging to Gaussian, Inc.
  
 This software is provided under written license and may be
 used, copied, transmitted, or stored only in accord with that
 written license.
  
 The following legend is applicable only to US Government
 contracts under FAR:
  
                    RESTRICTED RIGHTS LEGEND
  
 Use, reproduction and disclosure by the US Government is
 subject to restrictions as set forth in subparagraphs (a)
 and (c) of the Commercial Computer Software - Restricted
 Rights clause in FAR 52.227-19.
  
 Gaussian, Inc.
 340 Quinnipiac St., Bldg. 40, Wallingford CT 06492
  
  
 ---------------------------------------------------------------
 Warning -- This program may not be used in any manner that
 competes with the business of Gaussian, Inc. or will provide
 assistance to any competitor of Gaussian, Inc.  The licensee
 of this program is prohibited from giving any competitor of
 Gaussian, Inc. access to this program.  By using this program,
 the user acknowledges that Gaussian, Inc. is engaged in the
 business of creating and licensing software in the field of
 computational chemistry and represents and warrants to the
 licensee that it is not a competitor of Gaussian, Inc. and that
 it will not use this program in any manner prohibited above.
 ---------------------------------------------------------------
  

 Cite this work as:
 Gaussian 16, Revision A.03,
 M. J. Frisch, G. W. Trucks, H. B. Schlegel, G. E. Scuseria, 
 M. A. Robb, J. R. Cheeseman, G. Scalmani, V. Barone, 
 G. A. Petersson, H. Nakatsuji, X. Li, M. Caricato, A. V. Marenich, 
 J. Bloino, B. G. Janesko, R. Gomperts, B. Mennucci, H. P. Hratchian, 
 J. V. Ortiz, A. F. Izmaylov, J. L. Sonnenberg, D. Williams-Young, 
 F. Ding, F. Lipparini, F. Egidi, J. Goings, B. Peng, A. Petrone, 
 T. Henderson, D. Ranasinghe, V. G. Zakrzewski, J. Gao, N. Rega, 
 G. Zheng, W. Liang, M. Hada, M. Ehara, K. Toyota, R. Fukuda, 
 J. Hasegawa, M. Ishida, T. Nakajima, Y. Honda, O. Kitao, H. Nakai, 
 T. Vreven, K. Throssell, J. A. Montgomery, Jr., J. E. Peralta, 
 F. Ogliaro, M. J. Bearpark, J. J. Heyd, E. N. Brothers, K. N. Kudin, 
 V. N. Staroverov, T. A. Keith, R. Kobayashi, J. Normand, 
 K. Raghavachari, A. P. Rendell, J. C. Burant, S. S. Iyengar, 
 J. Tomasi, M. Cossi, J. M. Millam, M. Klene, C. Adamo, R. Cammi, 
 J. W. Ochterski, R. L. Martin, K. Morokuma, O. Farkas, 
 J. B. Foresman, and D. J. Fox, Gaussian, Inc., Wallingford CT, 2016.
 
 ******************************************
 Gaussian 16:  ES64L-G16RevA.03 25-Dec-2016
                14-Oct-2019 
 ******************************************
 %chk=3.chk
 %nprocshared=24
 Will use up to   24 processors via shared memory.
 %mem=80GB
 --------------------------------------------------------------
 #P opt freq b3lyp/6-31g(d) geom=connectivity temperature=0.001
 --------------------------------------------------------------
 1/18=20,19=15,26=3,38=1,57=2,112=-1000/1,3;
 2/9=110,12=2,17=6,18=5,40=1/2;
 3/5=1,6=6,7=1,11=2,25=1,30=1,71=1,74=-5/1,2,3;
 4//1;
 5/5=2,38=5/2;
 6/7=2,8=2,9=2,10=2,28=1/1;
 7//1,2,3,16;
 1/18=20,19=15,26=3/3(2);
 2/9=110/2;
 99//99;
 2/9=110/2;
 3/5=1,6=6,7=1,11=2,25=1,30=1,71=1,74=-5/1,2,3;
 4/5=5,16=3,69=1/1;
 5/5=2,38=5/2;
 7//1,2,3,16;
 1/18=20,19=15,26=3/3(-5);
 2/9=110/2;
 6/7=2,8=2,9=2,10=2,19=2,28=1/1;
 99/9=1/99;
 Leave Link    1 at Mon Oct 14 02:09:34 2019, MaxMem= 10737418240 cpu:               1.4 elap:               0.1
 (Enter /apps/cent7/gaussian/g16-A.03/g16-haswell/g16/l101.exe)
 -------------------
 Title Card Required
 -------------------
 Symbolic Z-matrix:
 Charge =  0 Multiplicity = 1
 O                    -1.9826    1.1511    0. 
 N                    -0.6762    1.1626    0. 
 C                    -0.0035   -0.0224    0. 
 C                     1.4039   -0.0355    0. 
 C                     2.0976    1.1877    0. 
 C                     1.382     2.3982    0. 
 C                    -0.0247    2.36      0. 
 H                    -0.5825   -0.9459    0. 
 H                     1.949    -0.9794    0. 
 H                     3.1876    1.1974    0. 
 H                     1.9099    3.3518    0. 
 H                    -0.6197    3.2733    0. 
 
 ITRead=  0  0  0  0  0  0  0  0  0  0  0  0
 MicOpt= -1 -1 -1 -1 -1 -1 -1 -1 -1 -1 -1 -1
 NAtoms=     12 NQM=       12 NQMF=       0 NMMI=      0 NMMIF=      0
                NMic=       0 NMicF=      0.
                    Isotopes and Nuclear Properties:
 (Nuclear quadrupole moments (NQMom) in fm**2, nuclear magnetic moments (NMagM)
  in nuclear magnetons)

  Atom         1           2           3           4           5           6           7           8           9          10
 IAtWgt=          16          14          12          12          12          12          12           1           1           1
 AtmWgt=  15.9949146  14.0030740  12.0000000  12.0000000  12.0000000  12.0000000  12.0000000   1.0078250   1.0078250   1.0078250
 NucSpn=           0           2           0           0           0           0           0           1           1           1
 AtZEff=  -0.0000000  -0.0000000  -0.0000000  -0.0000000  -0.0000000  -0.0000000  -0.0000000  -0.0000000  -0.0000000  -0.0000000
 NQMom=    0.0000000   2.0440000   0.0000000   0.0000000   0.0000000   0.0000000   0.0000000   0.0000000   0.0000000   0.0000000
 NMagM=    0.0000000   0.4037610   0.0000000   0.0000000   0.0000000   0.0000000   0.0000000   2.7928460   2.7928460   2.7928460
 AtZNuc=   8.0000000   7.0000000   6.0000000   6.0000000   6.0000000   6.0000000   6.0000000   1.0000000   1.0000000   1.0000000

  Atom        11          12
 IAtWgt=           1           1
 AtmWgt=   1.0078250   1.0078250
 NucSpn=           1           1
 AtZEff=  -0.0000000  -0.0000000
 NQMom=    0.0000000   0.0000000
 NMagM=    2.7928460   2.7928460
 AtZNuc=   1.0000000   1.0000000
 Leave Link  101 at Mon Oct 14 02:09:34 2019, MaxMem= 10737418240 cpu:               8.1 elap:               0.4
 (Enter /apps/cent7/gaussian/g16-A.03/g16-haswell/g16/l103.exe)

 GradGradGradGradGradGradGradGradGradGradGradGradGradGradGradGradGradGrad
 Berny optimization.
 Initialization pass.
                           ----------------------------
                           !    Initial Parameters    !
                           ! (Angstroms and Degrees)  !
 --------------------------                            --------------------------
 ! Name  Definition              Value          Derivative Info.                !
 --------------------------------------------------------------------------------
 ! R1    R(1,2)                  1.3065         estimate D2E/DX2                !
 ! R2    R(2,3)                  1.3626         estimate D2E/DX2                !
 ! R3    R(2,7)                  1.3632         estimate D2E/DX2                !
 ! R4    R(3,4)                  1.4075         estimate D2E/DX2                !
 ! R5    R(3,8)                  1.09           estimate D2E/DX2                !
 ! R6    R(4,5)                  1.4062         estimate D2E/DX2                !
 ! R7    R(4,9)                  1.09           estimate D2E/DX2                !
 ! R8    R(5,6)                  1.4062         estimate D2E/DX2                !
 ! R9    R(5,10)                 1.09           estimate D2E/DX2                !
 ! R10   R(6,7)                  1.4072         estimate D2E/DX2                !
 ! R11   R(6,11)                 1.09           estimate D2E/DX2                !
 ! R12   R(7,12)                 1.09           estimate D2E/DX2                !
 ! A1    A(1,2,3)              119.0783         estimate D2E/DX2                !
 ! A2    A(1,2,7)              119.0548         estimate D2E/DX2                !
 ! A3    A(3,2,7)              121.8669         estimate D2E/DX2                !
 ! A4    A(2,3,4)              120.116          estimate D2E/DX2                !
 ! A5    A(2,3,8)              118.3311         estimate D2E/DX2                !
 ! A6    A(4,3,8)              121.5529         estimate D2E/DX2                !
 ! A7    A(3,4,5)              119.0251         estimate D2E/DX2                !
 ! A8    A(3,4,9)              120.5396         estimate D2E/DX2                !
 ! A9    A(5,4,9)              120.4353         estimate D2E/DX2                !
 ! A10   A(4,5,6)              119.8517         estimate D2E/DX2                !
 ! A11   A(4,5,10)             120.0683         estimate D2E/DX2                !
 ! A12   A(6,5,10)             120.08           estimate D2E/DX2                !
 ! A13   A(5,6,7)              119.0344         estimate D2E/DX2                !
 ! A14   A(5,6,11)             120.4418         estimate D2E/DX2                !
 ! A15   A(7,6,11)             120.5238         estimate D2E/DX2                !
 ! A16   A(2,7,6)              120.1059         estimate D2E/DX2                !
 ! A17   A(2,7,12)             118.366          estimate D2E/DX2                !
 ! A18   A(6,7,12)             121.5281         estimate D2E/DX2                !
 ! D1    D(1,2,3,4)            180.0            estimate D2E/DX2                !
 ! D2    D(1,2,3,8)              0.0            estimate D2E/DX2                !
 ! D3    D(7,2,3,4)              0.0            estimate D2E/DX2                !
 ! D4    D(7,2,3,8)            180.0            estimate D2E/DX2                !
 ! D5    D(1,2,7,6)            180.0            estimate D2E/DX2                !
 ! D6    D(1,2,7,12)             0.0            estimate D2E/DX2                !
 ! D7    D(3,2,7,6)              0.0            estimate D2E/DX2                !
 ! D8    D(3,2,7,12)           180.0            estimate D2E/DX2                !
 ! D9    D(2,3,4,5)              0.0            estimate D2E/DX2                !
 ! D10   D(2,3,4,9)            180.0            estimate D2E/DX2                !
 ! D11   D(8,3,4,5)            180.0            estimate D2E/DX2                !
 ! D12   D(8,3,4,9)              0.0            estimate D2E/DX2                !
 ! D13   D(3,4,5,6)              0.0            estimate D2E/DX2                !
 ! D14   D(3,4,5,10)           180.0            estimate D2E/DX2                !
 ! D15   D(9,4,5,6)            180.0            estimate D2E/DX2                !
 ! D16   D(9,4,5,10)             0.0            estimate D2E/DX2                !
 ! D17   D(4,5,6,7)              0.0            estimate D2E/DX2                !
 ! D18   D(4,5,6,11)           180.0            estimate D2E/DX2                !
 ! D19   D(10,5,6,7)           180.0            estimate D2E/DX2                !
 ! D20   D(10,5,6,11)            0.0            estimate D2E/DX2                !
 ! D21   D(5,6,7,2)              0.0            estimate D2E/DX2                !
 ! D22   D(5,6,7,12)           180.0            estimate D2E/DX2                !
 ! D23   D(11,6,7,2)           180.0            estimate D2E/DX2                !
 ! D24   D(11,6,7,12)            0.0            estimate D2E/DX2                !
 --------------------------------------------------------------------------------
 Trust Radius=3.00D-01 FncErr=1.00D-07 GrdErr=1.00D-06 EigMax=2.50D+02 EigMin=1.00D-04
 Number of steps in this run=     64 maximum allowed number of steps=    100.
 GradGradGradGradGradGradGradGradGradGradGradGradGradGradGradGradGradGrad

 Leave Link  103 at Mon Oct 14 02:09:34 2019, MaxMem= 10737418240 cpu:               0.3 elap:               0.0
 (Enter /apps/cent7/gaussian/g16-A.03/g16-haswell/g16/l202.exe)
                          Input orientation:                          
 ---------------------------------------------------------------------
 Center     Atomic      Atomic             Coordinates (Angstroms)
 Number     Number       Type             X           Y           Z
 ---------------------------------------------------------------------
      1          8           0       -1.982600    1.151100    0.000000
      2          7           0       -0.676200    1.162600    0.000000
      3          6           0       -0.003500   -0.022400    0.000000
      4          6           0        1.403900   -0.035500    0.000000
      5          6           0        2.097600    1.187700    0.000000
      6          6           0        1.382000    2.398200    0.000000
      7          6           0       -0.024700    2.360000    0.000000
      8          1           0       -0.582500   -0.945900    0.000000
      9          1           0        1.949000   -0.979400    0.000000
     10          1           0        3.187600    1.197400    0.000000
     11          1           0        1.909900    3.351800    0.000000
     12          1           0       -0.619700    3.273300    0.000000
 ---------------------------------------------------------------------
                    Distance matrix (angstroms):
                    1          2          3          4          5
     1  O    0.000000
     2  N    1.306451   0.000000
     3  C    2.300856   1.362626   0.000000
     4  C    3.588370   2.400471   1.407461   0.000000
     5  C    4.080364   2.773914   2.424657   1.406214   0.000000
     6  C    3.588285   2.400603   2.789071   2.433799   1.406198
     7  C    2.301046   1.363165   2.382494   2.789143   2.424550
     8  H    2.521446   2.110581   1.089997   2.185089   3.425666
     9  H    4.471746   3.388191   2.174421   1.089991   2.172189
    10  H    5.170407   3.863957   3.416289   2.168324   1.090043
    11  H    4.471536   3.388290   3.878959   3.424885   2.172225
    12  H    2.522148   2.111456   3.352811   3.878545   3.425412
                    6          7          8          9         10
     6  C    0.000000
     7  C    1.407219   0.000000
     8  H    3.878436   3.352628   0.000000
     9  H    3.424861   3.879057   2.531722   0.000000
    10  H    2.168435   3.416213   4.336749   2.504514   0.000000
    11  H    1.089969   2.174016   4.968127   4.331376   2.504787
    12  H    2.184629   1.090019   4.219364   4.968267   4.336461
                   11         12
    11  H    0.000000
    12  H    2.530818   0.000000
 Stoichiometry    C5H5NO
 Framework group  CS[SG(C5H5NO)]
 Deg. of freedom    21
 Full point group                 CS      NOp   2
 Largest Abelian subgroup         CS      NOp   2
 Largest concise Abelian subgroup C1      NOp   1
                         Standard orientation:                         
 ---------------------------------------------------------------------
 Center     Atomic      Atomic             Coordinates (Angstroms)
 Number     Number       Type             X           Y           Z
 ---------------------------------------------------------------------
      1          8           0       -0.000487    2.270329    0.000000
      2          7           0       -0.000000    0.963879    0.000000
      3          6           0        1.191122    0.302080    0.000000
      4          6           0        1.217135   -1.105141    0.000000
      5          6           0        0.000352   -1.810035   -0.000000
      6          6           0       -1.216663   -1.105572   -0.000000
      7          6           0       -1.191372    0.301419   -0.000000
      8          1           0        2.109271    0.889529    0.000000
      9          1           0        2.165997   -1.641557    0.000000
     10          1           0        0.000653   -2.900078   -0.000000
     11          1           0       -2.165379   -1.642199   -0.000000
     12          1           0       -2.110093    0.888014   -0.000000
 ---------------------------------------------------------------------
 Rotational constants (GHZ):           5.7414485           2.7832433           1.8745367
 Leave Link  202 at Mon Oct 14 02:09:34 2019, MaxMem= 10737418240 cpu:               0.4 elap:               0.0
 (Enter /apps/cent7/gaussian/g16-A.03/g16-haswell/g16/l301.exe)
 Standard basis: 6-31G(d) (6D, 7F)
 Ernie: Thresh=  0.10000D-02 Tol=  0.10000D-05 Strict=F.
 There are    87 symmetry adapted cartesian basis functions of A'  symmetry.
 There are    28 symmetry adapted cartesian basis functions of A"  symmetry.
 There are    87 symmetry adapted basis functions of A'  symmetry.
 There are    28 symmetry adapted basis functions of A"  symmetry.
   115 basis functions,   216 primitive gaussians,   115 cartesian basis functions
    25 alpha electrons       25 beta electrons
       nuclear repulsion energy       274.9016617050 Hartrees.
 IExCor=  402 DFT=T Ex+Corr=B3LYP ExCW=0 ScaHFX=  0.200000
 ScaDFX=  0.800000  0.720000  1.000000  0.810000 ScalE2=  1.000000  1.000000
 IRadAn=      5 IRanWt=     -1 IRanGd=            0 ICorTp=0 IEmpDi=  4
 NAtoms=   12 NActive=   12 NUniq=   12 SFac= 1.00D+00 NAtFMM=   60 NAOKFM=F Big=F
 Integral buffers will be    131072 words long.
 Raffenetti 2 integral format.
 Two-electron integral symmetry is turned on.
 Leave Link  301 at Mon Oct 14 02:09:35 2019, MaxMem= 10737418240 cpu:               1.3 elap:               0.1
 (Enter /apps/cent7/gaussian/g16-A.03/g16-haswell/g16/l302.exe)
 NPDir=0 NMtPBC=     1 NCelOv=     1 NCel=       1 NClECP=     1 NCelD=      1
         NCelK=      1 NCelE2=     1 NClLst=     1 CellRange=     0.0.
 One-electron integrals computed using PRISM.
 One-electron integral symmetry used in STVInt
 NBasis=   115 RedAO= T EigKep=  8.36D-04  NBF=    87    28
 NBsUse=   115 1.00D-06 EigRej= -1.00D+00 NBFU=    87    28
 Precomputing XC quadrature grid using
 IXCGrd= 4 IRadAn=           5 IRanWt=          -1 IRanGd=           0 AccXCQ= 0.00D+00.
 Generated NRdTot=       0 NPtTot=           0 NUsed=           0 NTot=          32
 NSgBfM=   115   115   115   115   115 MxSgAt=    12 MxSgA2=    12.
 Leave Link  302 at Mon Oct 14 02:09:35 2019, MaxMem= 10737418240 cpu:               2.9 elap:               0.1
 (Enter /apps/cent7/gaussian/g16-A.03/g16-haswell/g16/l303.exe)
 DipDrv:  MaxL=1.
 Leave Link  303 at Mon Oct 14 02:09:35 2019, MaxMem= 10737418240 cpu:               0.6 elap:               0.1
 (Enter /apps/cent7/gaussian/g16-A.03/g16-haswell/g16/l401.exe)
 ExpMin= 1.61D-01 ExpMax= 5.48D+03 ExpMxC= 8.25D+02 IAcc=3 IRadAn=         5 AccDes= 0.00D+00
 Harris functional with IExCor=  402 and IRadAn=       5 diagonalized for initial guess.
 HarFok:  IExCor=  402 AccDes= 0.00D+00 IRadAn=         5 IDoV= 1 UseB2=F ITyADJ=14
 ICtDFT=  3500011 ScaDFX=  1.000000  1.000000  1.000000  1.000000
 FoFCou: FMM=F IPFlag=           0 FMFlag=      100000 FMFlg1=           0
         NFxFlg=           0 DoJE=T BraDBF=F KetDBF=T FulRan=T
         wScrn=  0.000000 ICntrl=       500 IOpCl=  0 I1Cent=   200000004 NGrid=           0
         NMat0=    1 NMatS0=      1 NMatT0=    0 NMatD0=    1 NMtDS0=    0 NMtDT0=    0
 Petite list used in FoFCou.
 Harris En= -323.454936891586    
 JPrj=0 DoOrth=F DoCkMO=F.
 Initial guess orbital symmetries:
       Occupied  (A') (A') (A') (A') (A') (A') (A') (A') (A') (A')
                 (A') (A') (A') (A') (A') (A') (A') (A') (A") (A')
                 (A') (A") (A") (A') (A")
       Virtual   (A") (A") (A") (A') (A') (A') (A') (A') (A') (A')
                 (A') (A') (A') (A') (A') (A') (A") (A') (A') (A')
                 (A') (A') (A") (A") (A') (A") (A") (A') (A') (A')
                 (A') (A') (A") (A') (A') (A') (A") (A') (A') (A')
                 (A') (A') (A') (A") (A') (A") (A') (A") (A") (A")
                 (A') (A') (A") (A') (A') (A") (A') (A') (A') (A')
                 (A') (A") (A') (A') (A') (A") (A') (A') (A") (A")
                 (A") (A') (A') (A") (A') (A') (A") (A') (A') (A')
                 (A') (A') (A') (A') (A') (A') (A') (A') (A') (A')
 The electronic state of the initial guess is 1-A'.
 Leave Link  401 at Mon Oct 14 02:09:35 2019, MaxMem= 10737418240 cpu:               4.0 elap:               0.2
 (Enter /apps/cent7/gaussian/g16-A.03/g16-haswell/g16/l502.exe)
 Keep R1 ints in memory in symmetry-blocked form, NReq=44772027.
 FoFCou: FMM=F IPFlag=           0 FMFlag=           0 FMFlg1=           0
         NFxFlg=           0 DoJE=F BraDBF=F KetDBF=F FulRan=T
         wScrn=  0.000000 ICntrl=       600 IOpCl=  0 I1Cent=           0 NGrid=           0
         NMat0=    1 NMatS0=   6670 NMatT0=    0 NMatD0=    1 NMtDS0=    0 NMtDT0=    0
 Petite list used in FoFCou.
 Closed shell SCF:
 Using DIIS extrapolation, IDIIS=  1040.
 NGot= 10737418240 LenX= 10725438799 LenY= 10725425133
 Requested convergence on RMS density matrix=1.00D-08 within 128 cycles.
 Requested convergence on MAX density matrix=1.00D-06.
 Requested convergence on             energy=1.00D-06.
 No special actions if energy rises.
 Integral accuracy reduced to 1.0D-05 until final iterations.

 Cycle   1  Pass 0  IDiag  1:
 E= -323.269850515782    
 DIIS: error= 3.69D-02 at cycle   1 NSaved=   1.
 NSaved= 1 IEnMin= 1 EnMin= -323.269850515782     IErMin= 1 ErrMin= 3.69D-02
 ErrMax= 3.69D-02  0.00D+00 EMaxC= 1.00D-01 BMatC= 1.94D-01 BMatP= 1.94D-01
 IDIUse=3 WtCom= 6.31D-01 WtEn= 3.69D-01
 Coeff-Com:  0.100D+01
 Coeff-En:   0.100D+01
 Coeff:      0.100D+01
 Gap=     0.108 Goal=   None    Shift=    0.000
 GapD=    0.108 DampG=1.000 DampE=0.500 DampFc=0.5000 IDamp=-1.
 Damping current iteration by 5.00D-01
 RMSDP=9.22D-03 MaxDP=2.17D-01              OVMax= 2.68D-01

 Cycle   2  Pass 0  IDiag  1:
 E= -323.298549655557     Delta-E=       -0.028699139775 Rises=F Damp=T
 DIIS: error= 2.18D-02 at cycle   2 NSaved=   2.
 NSaved= 2 IEnMin= 2 EnMin= -323.298549655557     IErMin= 2 ErrMin= 2.18D-02
 ErrMax= 2.18D-02  0.00D+00 EMaxC= 1.00D-01 BMatC= 4.93D-02 BMatP= 1.94D-01
 IDIUse=3 WtCom= 7.82D-01 WtEn= 2.18D-01
 Coeff-Com:  0.283D+00 0.717D+00
 Coeff-En:   0.419D+00 0.581D+00
 Coeff:      0.313D+00 0.687D+00
 Gap=     0.158 Goal=   None    Shift=    0.000
 RMSDP=3.19D-03 MaxDP=7.27D-02 DE=-2.87D-02 OVMax= 2.39D-01

 Cycle   3  Pass 0  IDiag  1:
 E= -323.409581164865     Delta-E=       -0.111031509308 Rises=F Damp=F
 DIIS: error= 2.02D-02 at cycle   3 NSaved=   3.
 NSaved= 3 IEnMin= 3 EnMin= -323.409581164865     IErMin= 3 ErrMin= 2.02D-02
 ErrMax= 2.02D-02  0.00D+00 EMaxC= 1.00D-01 BMatC= 3.33D-02 BMatP= 4.93D-02
 IDIUse=3 WtCom= 7.98D-01 WtEn= 2.02D-01
 Coeff-Com:  0.110D+00 0.434D+00 0.457D+00
 Coeff-En:   0.000D+00 0.000D+00 0.100D+01
 Coeff:      0.875D-01 0.346D+00 0.566D+00
 Gap=     0.156 Goal=   None    Shift=    0.000
 RMSDP=2.92D-03 MaxDP=7.57D-02 DE=-1.11D-01 OVMax= 1.86D-01

 Cycle   4  Pass 0  IDiag  1:
 E= -323.420766120117     Delta-E=       -0.011184955253 Rises=F Damp=F
 DIIS: error= 1.73D-02 at cycle   4 NSaved=   4.
 NSaved= 4 IEnMin= 4 EnMin= -323.420766120117     IErMin= 4 ErrMin= 1.73D-02
 ErrMax= 1.73D-02  0.00D+00 EMaxC= 1.00D-01 BMatC= 2.25D-02 BMatP= 3.33D-02
 IDIUse=3 WtCom= 8.27D-01 WtEn= 1.73D-01
 Coeff-Com:  0.474D-01 0.150D+00 0.417D+00 0.386D+00
 Coeff-En:   0.000D+00 0.000D+00 0.422D+00 0.578D+00
 Coeff:      0.392D-01 0.124D+00 0.418D+00 0.419D+00
 Gap=     0.181 Goal=   None    Shift=    0.000
 RMSDP=1.68D-03 MaxDP=4.82D-02 DE=-1.12D-02 OVMax= 1.17D-01

 Cycle   5  Pass 0  IDiag  1:
 E= -323.441005431536     Delta-E=       -0.020239311419 Rises=F Damp=F
 DIIS: error= 4.00D-03 at cycle   5 NSaved=   5.
 NSaved= 5 IEnMin= 5 EnMin= -323.441005431536     IErMin= 5 ErrMin= 4.00D-03
 ErrMax= 4.00D-03  0.00D+00 EMaxC= 1.00D-01 BMatC= 1.50D-03 BMatP= 2.25D-02
 IDIUse=3 WtCom= 9.60D-01 WtEn= 4.00D-02
 Coeff-Com:  0.105D-01 0.677D-02 0.181D+00 0.283D+00 0.518D+00
 Coeff-En:   0.000D+00 0.000D+00 0.000D+00 0.648D-01 0.935D+00
 Coeff:      0.101D-01 0.650D-02 0.174D+00 0.275D+00 0.534D+00
 Gap=     0.170 Goal=   None    Shift=    0.000
 RMSDP=4.49D-04 MaxDP=8.76D-03 DE=-2.02D-02 OVMax= 2.51D-02

 Cycle   6  Pass 0  IDiag  1:
 E= -323.442616309971     Delta-E=       -0.001610878435 Rises=F Damp=F
 DIIS: error= 8.04D-04 at cycle   6 NSaved=   6.
 NSaved= 6 IEnMin= 6 EnMin= -323.442616309971     IErMin= 6 ErrMin= 8.04D-04
 ErrMax= 8.04D-04  0.00D+00 EMaxC= 1.00D-01 BMatC= 5.61D-05 BMatP= 1.50D-03
 IDIUse=3 WtCom= 9.92D-01 WtEn= 8.04D-03
 Coeff-Com: -0.520D-03-0.291D-02 0.333D-01 0.661D-01 0.232D+00 0.672D+00
 Coeff-En:   0.000D+00 0.000D+00 0.000D+00 0.000D+00 0.000D+00 0.100D+01
 Coeff:     -0.516D-03-0.289D-02 0.330D-01 0.656D-01 0.230D+00 0.674D+00
 Gap=     0.171 Goal=   None    Shift=    0.000
 RMSDP=8.12D-05 MaxDP=1.74D-03 DE=-1.61D-03 OVMax= 4.36D-03

 Cycle   7  Pass 0  IDiag  1:
 E= -323.442674132747     Delta-E=       -0.000057822776 Rises=F Damp=F
 DIIS: error= 2.21D-04 at cycle   7 NSaved=   7.
 NSaved= 7 IEnMin= 7 EnMin= -323.442674132747     IErMin= 7 ErrMin= 2.21D-04
 ErrMax= 2.21D-04  0.00D+00 EMaxC= 1.00D-01 BMatC= 7.84D-06 BMatP= 5.61D-05
 IDIUse=3 WtCom= 9.98D-01 WtEn= 2.21D-03
 Coeff-Com: -0.108D-02-0.984D-03 0.533D-02 0.154D-01 0.938D-01 0.404D+00
 Coeff-Com:  0.484D+00
 Coeff-En:   0.000D+00 0.000D+00 0.000D+00 0.000D+00 0.000D+00 0.337D-01
 Coeff-En:   0.966D+00
 Coeff:     -0.107D-02-0.981D-03 0.532D-02 0.153D-01 0.936D-01 0.403D+00
 Coeff:      0.485D+00
 Gap=     0.171 Goal=   None    Shift=    0.000
 RMSDP=2.30D-05 MaxDP=4.29D-04 DE=-5.78D-05 OVMax= 9.65D-04

 Cycle   8  Pass 0  IDiag  1:
 E= -323.442681370089     Delta-E=       -0.000007237343 Rises=F Damp=F
 DIIS: error= 2.29D-05 at cycle   8 NSaved=   8.
 NSaved= 8 IEnMin= 8 EnMin= -323.442681370089     IErMin= 8 ErrMin= 2.29D-05
 ErrMax= 2.29D-05  0.00D+00 EMaxC= 1.00D-01 BMatC= 7.86D-08 BMatP= 7.84D-06
 IDIUse=1 WtCom= 1.00D+00 WtEn= 0.00D+00
 Coeff-Com: -0.313D-03 0.338D-03-0.163D-02-0.168D-02 0.538D-02 0.521D-01
 Coeff-Com:  0.118D+00 0.828D+00
 Coeff:     -0.313D-03 0.338D-03-0.163D-02-0.168D-02 0.538D-02 0.521D-01
 Coeff:      0.118D+00 0.828D+00
 Gap=     0.171 Goal=   None    Shift=    0.000
 RMSDP=2.58D-06 MaxDP=4.05D-05 DE=-7.24D-06 OVMax= 8.58D-05

 Initial convergence to 1.0D-05 achieved.  Increase integral accuracy.
 Cycle   9  Pass 1  IDiag  1:
 E= -323.442664291900     Delta-E=        0.000017078189 Rises=F Damp=F
 DIIS: error= 6.11D-06 at cycle   1 NSaved=   1.
 NSaved= 1 IEnMin= 1 EnMin= -323.442664291900     IErMin= 1 ErrMin= 6.11D-06
 ErrMax= 6.11D-06  0.00D+00 EMaxC= 1.00D-01 BMatC= 4.82D-09 BMatP= 4.82D-09
 IDIUse=1 WtCom= 1.00D+00 WtEn= 0.00D+00
 Coeff-Com:  0.100D+01
 Coeff:      0.100D+01
 Gap=     0.171 Goal=   None    Shift=    0.000
 RMSDP=2.58D-06 MaxDP=4.05D-05 DE= 1.71D-05 OVMax= 1.03D-04

 Cycle  10  Pass 1  IDiag  1:
 E= -323.442664279296     Delta-E=        0.000000012604 Rises=F Damp=F
 DIIS: error= 1.67D-05 at cycle   2 NSaved=   2.
 NSaved= 2 IEnMin= 1 EnMin= -323.442664291900     IErMin= 1 ErrMin= 6.11D-06
 ErrMax= 1.67D-05  0.00D+00 EMaxC= 1.00D-01 BMatC= 1.95D-08 BMatP= 4.82D-09
 IDIUse=1 WtCom= 1.00D+00 WtEn= 0.00D+00
 Coeff-Com:  0.686D+00 0.314D+00
 Coeff:      0.686D+00 0.314D+00
 Gap=     0.171 Goal=   None    Shift=    0.000
 RMSDP=1.45D-06 MaxDP=4.55D-05 DE= 1.26D-08 OVMax= 9.43D-05

 Cycle  11  Pass 1  IDiag  1:
 E= -323.442664296121     Delta-E=       -0.000000016825 Rises=F Damp=F
 DIIS: error= 3.13D-06 at cycle   3 NSaved=   3.
 NSaved= 3 IEnMin= 3 EnMin= -323.442664296121     IErMin= 3 ErrMin= 3.13D-06
 ErrMax= 3.13D-06  0.00D+00 EMaxC= 1.00D-01 BMatC= 6.04D-10 BMatP= 4.82D-09
 IDIUse=1 WtCom= 1.00D+00 WtEn= 0.00D+00
 Coeff-Com:  0.790D-01 0.157D+00 0.764D+00
 Coeff:      0.790D-01 0.157D+00 0.764D+00
 Gap=     0.171 Goal=   None    Shift=    0.000
 RMSDP=2.61D-07 MaxDP=6.69D-06 DE=-1.68D-08 OVMax= 1.79D-05

 Cycle  12  Pass 1  IDiag  1:
 E= -323.442664296619     Delta-E=       -0.000000000499 Rises=F Damp=F
 DIIS: error= 1.08D-06 at cycle   4 NSaved=   4.
 NSaved= 4 IEnMin= 4 EnMin= -323.442664296619     IErMin= 4 ErrMin= 1.08D-06
 ErrMax= 1.08D-06  0.00D+00 EMaxC= 1.00D-01 BMatC= 8.20D-11 BMatP= 6.04D-10
 IDIUse=1 WtCom= 1.00D+00 WtEn= 0.00D+00
 Coeff-Com:  0.422D-02 0.752D-01 0.451D+00 0.470D+00
 Coeff:      0.422D-02 0.752D-01 0.451D+00 0.470D+00
 Gap=     0.171 Goal=   None    Shift=    0.000
 RMSDP=7.85D-08 MaxDP=2.74D-06 DE=-4.99D-10 OVMax= 4.39D-06

 Cycle  13  Pass 1  IDiag  1:
 E= -323.442664296684     Delta-E=       -0.000000000064 Rises=F Damp=F
 DIIS: error= 2.87D-07 at cycle   5 NSaved=   5.
 NSaved= 5 IEnMin= 5 EnMin= -323.442664296684     IErMin= 5 ErrMin= 2.87D-07
 ErrMax= 2.87D-07  0.00D+00 EMaxC= 1.00D-01 BMatC= 6.05D-12 BMatP= 8.20D-11
 IDIUse=1 WtCom= 1.00D+00 WtEn= 0.00D+00
 Coeff-Com: -0.833D-02 0.218D-01 0.140D+00 0.253D+00 0.594D+00
 Coeff:     -0.833D-02 0.218D-01 0.140D+00 0.253D+00 0.594D+00
 Gap=     0.171 Goal=   None    Shift=    0.000
 RMSDP=2.36D-08 MaxDP=6.17D-07 DE=-6.43D-11 OVMax= 9.37D-07

 Cycle  14  Pass 1  IDiag  1:
 E= -323.442664296688     Delta-E=       -0.000000000005 Rises=F Damp=F
 DIIS: error= 9.76D-08 at cycle   6 NSaved=   6.
 NSaved= 6 IEnMin= 6 EnMin= -323.442664296688     IErMin= 6 ErrMin= 9.76D-08
 ErrMax= 9.76D-08  0.00D+00 EMaxC= 1.00D-01 BMatC= 8.05D-13 BMatP= 6.05D-12
 IDIUse=1 WtCom= 1.00D+00 WtEn= 0.00D+00
 Coeff-Com: -0.522D-02 0.105D-01 0.635D-01 0.133D+00 0.373D+00 0.425D+00
 Coeff:     -0.522D-02 0.105D-01 0.635D-01 0.133D+00 0.373D+00 0.425D+00
 Gap=     0.171 Goal=   None    Shift=    0.000
 RMSDP=7.68D-09 MaxDP=1.74D-07 DE=-4.55D-12 OVMax= 5.35D-07

 SCF Done:  E(RB3LYP) =  -323.442664297     A.U. after   14 cycles
            NFock= 14  Conv=0.77D-08     -V/T= 2.0100
 KE= 3.202344275890D+02 PE=-1.302411479961D+03 EE= 3.838327263699D+02
 Leave Link  502 at Mon Oct 14 02:09:36 2019, MaxMem= 10737418240 cpu:              20.6 elap:               1.0
 (Enter /apps/cent7/gaussian/g16-A.03/g16-haswell/g16/l601.exe)
 Copying SCF densities to generalized density rwf, IOpCl= 0 IROHF=0.

 **********************************************************************

            Population analysis using the SCF density.

 **********************************************************************

 Orbital symmetries:
       Occupied  (A') (A') (A') (A') (A') (A') (A') (A') (A') (A')
                 (A') (A') (A') (A') (A') (A') (A") (A') (A') (A')
                 (A') (A") (A") (A') (A")
       Virtual   (A") (A") (A') (A") (A') (A') (A') (A') (A') (A')
                 (A') (A') (A') (A') (A') (A") (A') (A') (A') (A")
                 (A') (A") (A') (A') (A") (A') (A") (A') (A') (A')
                 (A") (A') (A') (A') (A') (A') (A') (A") (A') (A')
                 (A') (A') (A') (A") (A') (A") (A') (A") (A') (A")
                 (A') (A") (A") (A') (A') (A") (A') (A') (A') (A')
                 (A') (A") (A') (A') (A') (A") (A') (A') (A") (A")
                 (A") (A') (A') (A") (A') (A") (A') (A') (A') (A')
                 (A') (A') (A') (A') (A') (A') (A') (A') (A') (A')
 The electronic state is 1-A'.
 Alpha  occ. eigenvalues --  -19.10630 -14.48032 -10.24300 -10.24298 -10.22439
 Alpha  occ. eigenvalues --  -10.22436 -10.21545  -1.08746  -0.89156  -0.79083
 Alpha  occ. eigenvalues --   -0.78932  -0.66852  -0.63755  -0.53574  -0.51539
 Alpha  occ. eigenvalues --   -0.49455  -0.46358  -0.45365  -0.44437  -0.39223
 Alpha  occ. eigenvalues --   -0.38103  -0.33870  -0.28190  -0.23557  -0.20956
 Alpha virt. eigenvalues --   -0.03827  -0.03343   0.07471   0.11483   0.12311
 Alpha virt. eigenvalues --    0.12973   0.16317   0.16708   0.19474   0.24174
 Alpha virt. eigenvalues --    0.25971   0.29534   0.31358   0.42179   0.44208
 Alpha virt. eigenvalues --    0.49958   0.50278   0.53135   0.55704   0.57120
 Alpha virt. eigenvalues --    0.57294   0.58250   0.58724   0.58915   0.63699
 Alpha virt. eigenvalues --    0.66081   0.67190   0.78974   0.80803   0.81388
 Alpha virt. eigenvalues --    0.83307   0.83648   0.85759   0.89312   0.90928
 Alpha virt. eigenvalues --    0.94113   0.99986   1.00727   1.03894   1.06629
 Alpha virt. eigenvalues --    1.10738   1.11576   1.17947   1.21308   1.24413
 Alpha virt. eigenvalues --    1.35105   1.39112   1.43042   1.43102   1.43220
 Alpha virt. eigenvalues --    1.43787   1.46290   1.47571   1.68108   1.79860
 Alpha virt. eigenvalues --    1.84968   1.85143   1.88727   1.90574   1.91599
 Alpha virt. eigenvalues --    1.99586   2.01775   2.03531   2.06616   2.08879
 Alpha virt. eigenvalues --    2.11145   2.18248   2.22022   2.22152   2.25991
 Alpha virt. eigenvalues --    2.30275   2.49933   2.53488   2.55491   2.60712
 Alpha virt. eigenvalues --    2.63745   2.64687   2.67732   2.70751   2.80320
 Alpha virt. eigenvalues --    2.99761   3.13096   3.36059   3.70606   4.01639
 Alpha virt. eigenvalues --    4.08615   4.08927   4.23918   4.29514   4.58378
          Condensed to atoms (all electrons):
               1          2          3          4          5          6
     1  O    8.423565   0.159301  -0.040142   0.005623   0.000463   0.005629
     2  N    0.159301   6.254411   0.368186  -0.005278  -0.039892  -0.005280
     3  C   -0.040142   0.368186   4.924852   0.448791  -0.043650  -0.024755
     4  C    0.005623  -0.005278   0.448791   4.954306   0.532139  -0.026605
     5  C    0.000463  -0.039892  -0.043650   0.532139   4.880022   0.532016
     6  C    0.005629  -0.005280  -0.024755  -0.026605   0.532016   4.954276
     7  C   -0.040125   0.367888  -0.057369  -0.024755  -0.043668   0.448905
     8  H    0.003589  -0.039754   0.366636  -0.037930   0.003955  -0.000117
     9  H   -0.000073   0.003041  -0.030339   0.358932  -0.037864   0.004417
    10  H    0.000002   0.000039   0.004654  -0.041486   0.363749  -0.041480
    11  H   -0.000073   0.003043   0.000180   0.004416  -0.037869   0.358917
    12  H    0.003574  -0.039700   0.004391  -0.000116   0.003958  -0.037965
               7          8          9         10         11         12
     1  O   -0.040125   0.003589  -0.000073   0.000002  -0.000073   0.003574
     2  N    0.367888  -0.039754   0.003041   0.000039   0.003043  -0.039700
     3  C   -0.057369   0.366636  -0.030339   0.004654   0.000180   0.004391
     4  C   -0.024755  -0.037930   0.358932  -0.041486   0.004416  -0.000116
     5  C   -0.043668   0.003955  -0.037864   0.363749  -0.037869   0.003958
     6  C    0.448905  -0.000117   0.004417  -0.041480   0.358917  -0.037965
     7  C    4.925059   0.004400   0.000180   0.004656  -0.030344   0.366653
     8  H    0.004400   0.514724  -0.003462  -0.000133   0.000013  -0.000129
     9  H    0.000180  -0.003462   0.551961  -0.005092  -0.000164   0.000013
    10  H    0.004656  -0.000133  -0.005092   0.574030  -0.005091  -0.000133
    11  H   -0.030344   0.000013  -0.000164  -0.005091   0.552010  -0.003468
    12  H    0.366653  -0.000129   0.000013  -0.000133  -0.003468   0.514688
 Mulliken charges:
               1
     1  O   -0.521333
     2  N   -0.026005
     3  C    0.078564
     4  C   -0.168037
     5  C   -0.113360
     6  C   -0.167959
     7  C    0.078520
     8  H    0.188210
     9  H    0.158449
    10  H    0.146285
    11  H    0.158431
    12  H    0.188235
 Sum of Mulliken charges =  -0.00000
 Mulliken charges with hydrogens summed into heavy atoms:
               1
     1  O   -0.521333
     2  N   -0.026005
     3  C    0.266775
     4  C   -0.009588
     5  C    0.032925
     6  C   -0.009528
     7  C    0.266755
 Electronic spatial extent (au):  <R**2>=            630.7001
 Charge=             -0.0000 electrons
 Dipole moment (field-independent basis, Debye):
    X=              0.0007    Y=             -4.1898    Z=              0.0000  Tot=              4.1898
 Quadrupole moment (field-independent basis, Debye-Ang):
   XX=            -32.0637   YY=            -45.8259   ZZ=            -42.1952
   XY=              0.0031   XZ=             -0.0000   YZ=             -0.0000
 Traceless Quadrupole moment (field-independent basis, Debye-Ang):
   XX=              7.9646   YY=             -5.7976   ZZ=             -2.1669
   XY=              0.0031   XZ=             -0.0000   YZ=             -0.0000
 Octapole moment (field-independent basis, Debye-Ang**2):
  XXX=             -0.0071  YYY=            -24.8672  ZZZ=              0.0000  XYY=              0.0091
  XXY=              1.6267  XXZ=              0.0000  XZZ=             -0.0009  YZZ=              5.5637
  YYZ=              0.0000  XYZ=              0.0000
 Hexadecapole moment (field-independent basis, Debye-Ang**3):
 XXXX=           -245.5639 YYYY=           -509.1865 ZZZZ=            -40.4940 XXXY=              0.0127
 XXXZ=             -0.0000 YYYX=              0.0274 YYYZ=             -0.0000 ZZZX=             -0.0000
 ZZZY=             -0.0000 XXYY=           -114.2582 XXZZ=            -59.3101 YYZZ=            -91.6059
 XXYZ=             -0.0000 YYXZ=             -0.0000 ZZXY=              0.0061
 N-N= 2.749016617050D+02 E-N=-1.302411481610D+03  KE= 3.202344275890D+02
 Symmetry A'   KE= 3.087113267432D+02
 Symmetry A"   KE= 1.152310084578D+01
 No NMR shielding tensors so no spin-rotation constants.
 Leave Link  601 at Mon Oct 14 02:09:36 2019, MaxMem= 10737418240 cpu:               2.4 elap:               0.1
 (Enter /apps/cent7/gaussian/g16-A.03/g16-haswell/g16/l701.exe)
 ... and contract with generalized density number  0.
 Compute integral first derivatives.
 Leave Link  701 at Mon Oct 14 02:09:36 2019, MaxMem= 10737418240 cpu:               2.6 elap:               0.1
 (Enter /apps/cent7/gaussian/g16-A.03/g16-haswell/g16/l702.exe)
 L702 exits ... SP integral derivatives will be done elsewhere.
 Leave Link  702 at Mon Oct 14 02:09:36 2019, MaxMem= 10737418240 cpu:               0.5 elap:               0.0
 (Enter /apps/cent7/gaussian/g16-A.03/g16-haswell/g16/l703.exe)
 Integral derivatives from FoFJK, PRISM(SPDF).
 Compute integral first derivatives, UseDBF=F ICtDFT=           0.
 Calling FoFJK, ICntrl=      2127 FMM=F ISym2X=1 I1Cent= 0 IOpClX= 0 NMat=1 NMatS=1 NMatT=0.
 FoFJK:  IHMeth= 1 ICntrl=    2127 DoSepK=F KAlg= 0 I1Cent=           0 FoldK=F
 IRaf=         0 NMat=       1 IRICut=       1 DoRegI=T DoRafI=F ISym2E= 1 IDoP0=0 IntGTp=1.
 FoFCou: FMM=F IPFlag=           0 FMFlag=      100000 FMFlg1=         800
         NFxFlg=           0 DoJE=F BraDBF=F KetDBF=F FulRan=T
         wScrn=  0.000000 ICntrl=      2127 IOpCl=  0 I1Cent=           0 NGrid=           0
         NMat0=    1 NMatS0=      1 NMatT0=    0 NMatD0=    1 NMtDS0=    0 NMtDT0=    0
 Petite list used in FoFCou.
 Leave Link  703 at Mon Oct 14 02:09:37 2019, MaxMem= 10737418240 cpu:               8.1 elap:               0.4
 (Enter /apps/cent7/gaussian/g16-A.03/g16-haswell/g16/l716.exe)
 Dipole        = 2.67329760D-04-1.64841112D+00 1.36364940D-32
 ***** Axes restored to original set *****
 -------------------------------------------------------------------
 Center     Atomic                   Forces (Hartrees/Bohr)
 Number     Number              X              Y              Z
 -------------------------------------------------------------------
      1        8           0.020626940    0.000158096   -0.000000000
      2        7          -0.045383594   -0.000029131    0.000000000
      3        6           0.034209792   -0.009924043   -0.000000000
      4        6          -0.013463675    0.014174955    0.000000000
      5        6           0.002591280   -0.000065174   -0.000000000
      6        6          -0.013158546   -0.014336733   -0.000000000
      7        6           0.033851350    0.010240797    0.000000000
      8        1          -0.003910003    0.010525956    0.000000000
      9        1          -0.004287108    0.001985852    0.000000000
     10        1          -0.003077343   -0.000017079    0.000000000
     11        1          -0.004216628   -0.002056141   -0.000000000
     12        1          -0.003782465   -0.010657355   -0.000000000
 -------------------------------------------------------------------
 Cartesian Forces:  Max     0.045383594 RMS     0.012995865
 Leave Link  716 at Mon Oct 14 02:09:37 2019, MaxMem= 10737418240 cpu:               0.8 elap:               0.1
 (Enter /apps/cent7/gaussian/g16-A.03/g16-haswell/g16/l103.exe)

 GradGradGradGradGradGradGradGradGradGradGradGradGradGradGradGradGradGrad
 Berny optimization.
 FormGI is forming the generalized inverse of G from B-inverse, IUseBI=4.
 Internal  Forces:  Max     0.020627532 RMS     0.006382243
 Search for a local minimum.
 Step number   1 out of a maximum of   64
 All quantities printed in internal units (Hartrees-Bohrs-Radians)
 RMS Force = .63822D-02 SwitMx=.10000D-02 MixMth= 1
 Mixed Optimization -- RFO/linear search
 Second derivative matrix not updated -- first step.
 ITU=  0
     Eigenvalues ---    0.01997   0.02000   0.02003   0.02007   0.02035
     Eigenvalues ---    0.02075   0.02093   0.02147   0.02183   0.16000
     Eigenvalues ---    0.16000   0.16000   0.16000   0.16000   0.22000
     Eigenvalues ---    0.22000   0.23517   0.25000   0.34808   0.34810
     Eigenvalues ---    0.34813   0.34814   0.34816   0.40844   0.42036
     Eigenvalues ---    0.44425   0.44572   0.50373   0.51782   0.65433
 RFO step:  Lambda=-6.87821039D-03 EMin= 1.99740059D-02
 Linear search not attempted -- first point.
 Iteration  1 RMS(Cart)=  0.02426180 RMS(Int)=  0.00040422
 Iteration  2 RMS(Cart)=  0.00048361 RMS(Int)=  0.00002707
 Iteration  3 RMS(Cart)=  0.00000009 RMS(Int)=  0.00002707
 ITry= 1 IFail=0 DXMaxC= 9.19D-02 DCOld= 1.00D+10 DXMaxT= 3.00D-01 DXLimC= 3.00D+00 Rises=F
 ClnCor:  largest displacement from symmetrization is 3.99D-09 for atom     8.
 Variable       Old X    -DE/DX   Delta X   Delta X   Delta X     New X
                                 (Linear)    (Quad)   (Total)
    R1        2.46883  -0.02063   0.00000  -0.03120  -0.03120   2.43764
    R2        2.57499   0.00121   0.00000   0.00286   0.00290   2.57789
    R3        2.57601   0.00084   0.00000   0.00217   0.00221   2.57822
    R4        2.65972  -0.01796   0.00000  -0.03980  -0.03980   2.61991
    R5        2.05980  -0.00684   0.00000  -0.01927  -0.01927   2.04053
    R6        2.65736  -0.00976   0.00000  -0.02220  -0.02225   2.63511
    R7        2.05979  -0.00386   0.00000  -0.01088  -0.01088   2.04890
    R8        2.65733  -0.00967   0.00000  -0.02202  -0.02206   2.63527
    R9        2.05988  -0.00308   0.00000  -0.00867  -0.00867   2.05121
   R10        2.65926  -0.01784   0.00000  -0.03952  -0.03951   2.61974
   R11        2.05974  -0.00384   0.00000  -0.01082  -0.01082   2.04892
   R12        2.05984  -0.00686   0.00000  -0.01934  -0.01934   2.04050
    A1        2.07831   0.00635   0.00000   0.02401   0.02396   2.10227
    A2        2.07790   0.00641   0.00000   0.02423   0.02419   2.10209
    A3        2.12698  -0.01275   0.00000  -0.04824  -0.04815   2.07883
    A4        2.09642   0.00442   0.00000   0.01983   0.01987   2.11629
    A5        2.06527  -0.01138   0.00000  -0.06487  -0.06489   2.00038
    A6        2.12150   0.00696   0.00000   0.04504   0.04502   2.16652
    A7        2.07738   0.00508   0.00000   0.01998   0.01994   2.09732
    A8        2.10381  -0.00534   0.00000  -0.02677  -0.02675   2.07706
    A9        2.10199   0.00026   0.00000   0.00679   0.00681   2.10881
   A10        2.09181  -0.00625   0.00000  -0.03135  -0.03144   2.06037
   A11        2.09559   0.00314   0.00000   0.01574   0.01578   2.11137
   A12        2.09579   0.00312   0.00000   0.01561   0.01566   2.11145
   A13        2.07754   0.00506   0.00000   0.01987   0.01983   2.09738
   A14        2.10211   0.00024   0.00000   0.00668   0.00670   2.10881
   A15        2.10354  -0.00530   0.00000  -0.02656  -0.02654   2.07700
   A16        2.09624   0.00445   0.00000   0.01991   0.01995   2.11620
   A17        2.06588  -0.01148   0.00000  -0.06542  -0.06544   2.00044
   A18        2.12106   0.00703   0.00000   0.04551   0.04549   2.16655
    D1        3.14159   0.00000   0.00000  -0.00000   0.00000   3.14159
    D2        0.00000   0.00000   0.00000  -0.00000   0.00000   0.00000
    D3       -0.00000   0.00000   0.00000  -0.00000   0.00000   0.00000
    D4        3.14159  -0.00000   0.00000   0.00000   0.00000   3.14159
    D5        3.14159  -0.00000   0.00000   0.00000   0.00000   3.14159
    D6       -0.00000   0.00000   0.00000   0.00000   0.00000   0.00000
    D7       -0.00000   0.00000   0.00000  -0.00000   0.00000   0.00000
    D8        3.14159  -0.00000   0.00000   0.00000   0.00000   3.14159
    D9       -0.00000   0.00000   0.00000   0.00000   0.00000   0.00000
   D10        3.14159  -0.00000   0.00000   0.00000   0.00000   3.14159
   D11        3.14159  -0.00000   0.00000   0.00000   0.00000   3.14159
   D12       -0.00000  -0.00000   0.00000  -0.00000   0.00000   0.00000
   D13        0.00000  -0.00000   0.00000  -0.00000  -0.00000   0.00000
   D14        3.14159   0.00000   0.00000  -0.00000   0.00000   3.14159
   D15        3.14159  -0.00000   0.00000  -0.00000   0.00000   3.14159
   D16       -0.00000  -0.00000   0.00000   0.00000   0.00000   0.00000
   D17       -0.00000   0.00000   0.00000  -0.00000   0.00000   0.00000
   D18        3.14159  -0.00000   0.00000   0.00000   0.00000   3.14159
   D19        3.14159  -0.00000   0.00000  -0.00000   0.00000   3.14159
   D20        0.00000   0.00000   0.00000  -0.00000   0.00000   0.00000
   D21        0.00000   0.00000   0.00000   0.00000  -0.00000   0.00000
   D22        3.14159   0.00000   0.00000   0.00000   0.00000   3.14159
   D23        3.14159   0.00000   0.00000  -0.00000   0.00000   3.14159
   D24       -0.00000  -0.00000   0.00000  -0.00000   0.00000   0.00000
         Item               Value     Threshold  Converged?
 Maximum Force            0.020628     0.000450     NO 
 RMS     Force            0.006382     0.000300     NO 
 Maximum Displacement     0.091851     0.001800     NO 
 RMS     Displacement     0.024532     0.001200     NO 
 Predicted change in Energy=-3.531031D-03
 Lowest energy point so far.  Saving SCF results.
 GradGradGradGradGradGradGradGradGradGradGradGradGradGradGradGradGradGrad

 Leave Link  103 at Mon Oct 14 02:09:37 2019, MaxMem= 10737418240 cpu:               1.2 elap:               0.1
 (Enter /apps/cent7/gaussian/g16-A.03/g16-haswell/g16/l202.exe)
                          Input orientation:                          
 ---------------------------------------------------------------------
 Center     Atomic      Atomic             Coordinates (Angstroms)
 Number     Number       Type             X           Y           Z
 ---------------------------------------------------------------------
      1          8           0       -1.973860    1.151284    0.000000
      2          7           0       -0.683969    1.162735    0.000000
      3          6           0        0.017809   -0.007070   -0.000000
      4          6           0        1.404188   -0.014194   -0.000000
      5          6           0        2.111122    1.187768   -0.000000
      6          6           0        1.382741    2.376952    0.000000
      7          6           0       -0.003202    2.345091    0.000000
      8          1           0       -0.592656   -0.897744   -0.000000
      9          1           0        1.925068   -0.965111   -0.000000
     10          1           0        3.196534    1.197441   -0.000000
     11          1           0        1.886515    3.337054    0.000000
     12          1           0       -0.629488    3.224695    0.000000
 ---------------------------------------------------------------------
                    Distance matrix (angstroms):
                    1          2          3          4          5
     1  O    0.000000
     2  N    1.289942   0.000000
     3  C    2.304025   1.364161   0.000000
     4  C    3.573450   2.396990   1.386397   0.000000
     5  C    4.085145   2.795203   2.410311   1.394442   0.000000
     6  C    3.573378   2.397001   2.747108   2.391242   1.394524
     7  C    2.304055   1.364335   2.352255   2.747175   2.410344
     8  H    2.471081   2.062501   1.079799   2.183585   3.414641
     9  H    4.436301   3.366720   2.134357   1.084232   2.160904
    10  H    5.170600   3.880658   3.399286   2.163462   1.085455
    11  H    4.436224   3.366757   3.830826   3.385779   2.160990
    12  H    2.471107   2.062680   3.295951   3.824426   3.414676
                    6          7          8          9         10
     6  C    0.000000
     7  C    1.386308   0.000000
     8  H    3.824373   3.295972   0.000000
     9  H    3.385780   3.830883   2.518625   0.000000
    10  H    2.163583   3.399325   4.329869   2.508637   0.000000
    11  H    1.084243   2.134249   4.907117   4.302338   2.508803
    12  H    2.183513   1.079786   4.122603   4.907161   4.329919
                   11         12
    11  H    0.000000
    12  H    2.518510   0.000000
 Stoichiometry    C5H5NO
 Framework group  CS[SG(C5H5NO)]
 Deg. of freedom    21
 Full point group                 CS      NOp   2
 RotChk:  IX=0 Diff= 2.38D-04
 Largest Abelian subgroup         CS      NOp   2
 Largest concise Abelian subgroup C1      NOp   1
                         Standard orientation:                         
 ---------------------------------------------------------------------
 Center     Atomic      Atomic             Coordinates (Angstroms)
 Number     Number       Type             X           Y           Z
 ---------------------------------------------------------------------
      1          8           0       -0.000168    2.267616    0.000000
      2          7           0        0.000000    0.977674    0.000000
      3          6           0        1.176078    0.286461    0.000000
      4          6           0        1.195689   -1.099798   -0.000000
      5          6           0        0.000143   -1.817529   -0.000000
      6          6           0       -1.195553   -1.099889   -0.000000
      7          6           0       -1.176177    0.286284    0.000000
      8          1           0        2.061217    0.904923    0.000000
      9          1           0        2.151259   -1.612092   -0.000000
     10          1           0        0.000246   -2.902985   -0.000000
     11          1           0       -2.151079   -1.612290   -0.000000
     12          1           0       -2.061386    0.904623    0.000000
 ---------------------------------------------------------------------
 Rotational constants (GHZ):           5.9178729           2.7850286           1.8937874
 Leave Link  202 at Mon Oct 14 02:09:37 2019, MaxMem= 10737418240 cpu:               0.3 elap:               0.0
 (Enter /apps/cent7/gaussian/g16-A.03/g16-haswell/g16/l301.exe)
 Standard basis: 6-31G(d) (6D, 7F)
 Ernie: Thresh=  0.10000D-02 Tol=  0.10000D-05 Strict=F.
 There are    87 symmetry adapted cartesian basis functions of A'  symmetry.
 There are    28 symmetry adapted cartesian basis functions of A"  symmetry.
 There are    87 symmetry adapted basis functions of A'  symmetry.
 There are    28 symmetry adapted basis functions of A"  symmetry.
   115 basis functions,   216 primitive gaussians,   115 cartesian basis functions
    25 alpha electrons       25 beta electrons
       nuclear repulsion energy       276.8034170170 Hartrees.
 IExCor=  402 DFT=T Ex+Corr=B3LYP ExCW=0 ScaHFX=  0.200000
 ScaDFX=  0.800000  0.720000  1.000000  0.810000 ScalE2=  1.000000  1.000000
 IRadAn=      5 IRanWt=     -1 IRanGd=            0 ICorTp=0 IEmpDi=  4
 NAtoms=   12 NActive=   12 NUniq=   12 SFac= 1.00D+00 NAtFMM=   60 NAOKFM=F Big=F
 Integral buffers will be    131072 words long.
 Raffenetti 2 integral format.
 Two-electron integral symmetry is turned on.
 Leave Link  301 at Mon Oct 14 02:09:37 2019, MaxMem= 10737418240 cpu:               1.2 elap:               0.1
 (Enter /apps/cent7/gaussian/g16-A.03/g16-haswell/g16/l302.exe)
 NPDir=0 NMtPBC=     1 NCelOv=     1 NCel=       1 NClECP=     1 NCelD=      1
         NCelK=      1 NCelE2=     1 NClLst=     1 CellRange=     0.0.
 One-electron integrals computed using PRISM.
 One-electron integral symmetry used in STVInt
 NBasis=   115 RedAO= T EigKep=  7.59D-04  NBF=    87    28
 NBsUse=   115 1.00D-06 EigRej= -1.00D+00 NBFU=    87    28
 Precomputing XC quadrature grid using
 IXCGrd= 4 IRadAn=           5 IRanWt=          -1 IRanGd=           0 AccXCQ= 0.00D+00.
 Generated NRdTot=       0 NPtTot=           0 NUsed=           0 NTot=          32
 NSgBfM=   115   115   115   115   115 MxSgAt=    12 MxSgA2=    12.
 Leave Link  302 at Mon Oct 14 02:09:37 2019, MaxMem= 10737418240 cpu:               3.1 elap:               0.2
 (Enter /apps/cent7/gaussian/g16-A.03/g16-haswell/g16/l303.exe)
 DipDrv:  MaxL=1.
 Leave Link  303 at Mon Oct 14 02:09:37 2019, MaxMem= 10737418240 cpu:               0.6 elap:               0.0
 (Enter /apps/cent7/gaussian/g16-A.03/g16-haswell/g16/l401.exe)
 Initial guess from the checkpoint file:  "3.chk"
 B after Tr=     0.000000    0.000000   -0.000000
         Rot=    1.000000    0.000000   -0.000000    0.000074 Ang=   0.01 deg.
 Guess basis will be translated and rotated to current coordinates.
 JPrj=2 DoOrth=T DoCkMO=T.
 Initial guess orbital symmetries:
       Occupied  (A') (A') (A') (A') (A') (A') (A') (A') (A') (A')
                 (A') (A') (A') (A') (A') (A') (A") (A') (A') (A')
                 (A') (A") (A") (A') (A")
       Virtual   (A") (A") (A') (A") (A') (A') (A') (A') (A') (A')
                 (A') (A') (A') (A') (A') (A") (A') (A') (A') (A")
                 (A') (A") (A') (A') (A") (A') (A") (A') (A') (A')
                 (A") (A') (A') (A') (A') (A') (A') (A") (A') (A')
                 (A') (A') (A') (A") (A') (A") (A') (A") (A') (A")
                 (A') (A") (A") (A') (A') (A") (A') (A') (A') (A')
                 (A') (A") (A') (A') (A') (A") (A') (A') (A") (A")
                 (A") (A') (A') (A") (A') (A") (A') (A') (A') (A')
                 (A') (A') (A') (A') (A') (A') (A') (A') (A') (A')
 The electronic state of the initial guess is 1-A'.
 Generating alternative initial guess.
 ExpMin= 1.61D-01 ExpMax= 5.48D+03 ExpMxC= 8.25D+02 IAcc=2 IRadAn=         4 AccDes= 0.00D+00
 Harris functional with IExCor=  402 and IRadAn=       4 diagonalized for initial guess.
 HarFok:  IExCor=  402 AccDes= 0.00D+00 IRadAn=         4 IDoV= 1 UseB2=F ITyADJ=14
 ICtDFT=  3500011 ScaDFX=  1.000000  1.000000  1.000000  1.000000
 FoFCou: FMM=F IPFlag=           0 FMFlag=      100000 FMFlg1=           0
         NFxFlg=           0 DoJE=T BraDBF=F KetDBF=T FulRan=T
         wScrn=  0.000000 ICntrl=       500 IOpCl=  0 I1Cent=   200000004 NGrid=           0
         NMat0=    1 NMatS0=      1 NMatT0=    0 NMatD0=    1 NMtDS0=    0 NMtDT0=    0
 Petite list used in FoFCou.
 Harris En= -323.462752618249    
 Leave Link  401 at Mon Oct 14 02:09:38 2019, MaxMem= 10737418240 cpu:               5.5 elap:               0.3
 (Enter /apps/cent7/gaussian/g16-A.03/g16-haswell/g16/l502.exe)
 Keep R1 ints in memory in symmetry-blocked form, NReq=44772027.
 FoFCou: FMM=F IPFlag=           0 FMFlag=           0 FMFlg1=           0
         NFxFlg=           0 DoJE=F BraDBF=F KetDBF=F FulRan=T
         wScrn=  0.000000 ICntrl=       600 IOpCl=  0 I1Cent=           0 NGrid=           0
         NMat0=    1 NMatS0=   6670 NMatT0=    0 NMatD0=    1 NMtDS0=    0 NMtDT0=    0
 Petite list used in FoFCou.
 Closed shell SCF:
 Using DIIS extrapolation, IDIIS=  1040.
 NGot= 10737418240 LenX= 10725438799 LenY= 10725425133
 Requested convergence on RMS density matrix=1.00D-08 within 128 cycles.
 Requested convergence on MAX density matrix=1.00D-06.
 Requested convergence on             energy=1.00D-06.
 No special actions if energy rises.
 Integral accuracy reduced to 1.0D-05 until final iterations.

 Cycle   1  Pass 0  IDiag  1:
 E= -323.445667095662    
 DIIS: error= 1.63D-03 at cycle   1 NSaved=   1.
 NSaved= 1 IEnMin= 1 EnMin= -323.445667095662     IErMin= 1 ErrMin= 1.63D-03
 ErrMax= 1.63D-03  0.00D+00 EMaxC= 1.00D-01 BMatC= 7.21D-04 BMatP= 7.21D-04
 IDIUse=3 WtCom= 9.84D-01 WtEn= 1.63D-02
 Coeff-Com:  0.100D+01
 Coeff-En:   0.100D+01
 Coeff:      0.100D+01
 Gap=     0.174 Goal=   None    Shift=    0.000
 GapD=    0.174 DampG=1.000 DampE=1.000 DampFc=1.0000 IDamp=-1.
 RMSDP=5.77D-04 MaxDP=8.26D-03              OVMax= 1.16D-02

 Cycle   2  Pass 0  IDiag  1:
 E= -323.446594350548     Delta-E=       -0.000927254886 Rises=F Damp=F
 DIIS: error= 1.07D-03 at cycle   2 NSaved=   2.
 NSaved= 2 IEnMin= 2 EnMin= -323.446594350548     IErMin= 2 ErrMin= 1.07D-03
 ErrMax= 1.07D-03  0.00D+00 EMaxC= 1.00D-01 BMatC= 1.51D-04 BMatP= 7.21D-04
 IDIUse=3 WtCom= 9.89D-01 WtEn= 1.07D-02
 Coeff-Com:  0.211D+00 0.789D+00
 Coeff-En:   0.000D+00 0.100D+01
 Coeff:      0.209D+00 0.791D+00
 Gap=     0.176 Goal=   None    Shift=    0.000
 RMSDP=2.45D-04 MaxDP=4.36D-03 DE=-9.27D-04 OVMax= 1.44D-02

 Cycle   3  Pass 0  IDiag  1:
 E= -323.446470895201     Delta-E=        0.000123455347 Rises=F Damp=F
 DIIS: error= 1.79D-03 at cycle   3 NSaved=   3.
 NSaved= 3 IEnMin= 2 EnMin= -323.446594350548     IErMin= 2 ErrMin= 1.07D-03
 ErrMax= 1.79D-03  0.00D+00 EMaxC= 1.00D-01 BMatC= 2.63D-04 BMatP= 1.51D-04
 IDIUse=3 WtCom= 1.91D-01 WtEn= 8.09D-01
 Coeff-Com:  0.269D-01 0.563D+00 0.410D+00
 Coeff-En:   0.000D+00 0.617D+00 0.383D+00
 Coeff:      0.514D-02 0.607D+00 0.388D+00
 Gap=     0.174 Goal=   None    Shift=    0.000
 RMSDP=1.72D-04 MaxDP=4.35D-03 DE= 1.23D-04 OVMax= 1.18D-02

 Cycle   4  Pass 0  IDiag  1:
 E= -323.446731292372     Delta-E=       -0.000260397171 Rises=F Damp=F
 DIIS: error= 4.38D-04 at cycle   4 NSaved=   4.
 NSaved= 4 IEnMin= 4 EnMin= -323.446731292372     IErMin= 4 ErrMin= 4.38D-04
 ErrMax= 4.38D-04  0.00D+00 EMaxC= 1.00D-01 BMatC= 2.12D-05 BMatP= 1.51D-04
 IDIUse=3 WtCom= 9.96D-01 WtEn= 4.38D-03
 Coeff-Com: -0.143D-01 0.314D+00 0.248D+00 0.453D+00
 Coeff-En:   0.000D+00 0.000D+00 0.000D+00 0.100D+01
 Coeff:     -0.143D-01 0.312D+00 0.247D+00 0.455D+00
 Gap=     0.175 Goal=   None    Shift=    0.000
 RMSDP=4.44D-05 MaxDP=1.33D-03 DE=-2.60D-04 OVMax= 2.10D-03

 Cycle   5  Pass 0  IDiag  1:
 E= -323.446748243195     Delta-E=       -0.000016950823 Rises=F Damp=F
 DIIS: error= 1.33D-04 at cycle   5 NSaved=   5.
 NSaved= 5 IEnMin= 5 EnMin= -323.446748243195     IErMin= 5 ErrMin= 1.33D-04
 ErrMax= 1.33D-04  0.00D+00 EMaxC= 1.00D-01 BMatC= 1.49D-06 BMatP= 2.12D-05
 IDIUse=3 WtCom= 9.99D-01 WtEn= 1.33D-03
 Coeff-Com: -0.106D-01 0.150D+00 0.125D+00 0.278D+00 0.458D+00
 Coeff-En:   0.000D+00 0.000D+00 0.000D+00 0.000D+00 0.100D+01
 Coeff:     -0.105D-01 0.150D+00 0.125D+00 0.277D+00 0.458D+00
 Gap=     0.175 Goal=   None    Shift=    0.000
 RMSDP=1.06D-05 MaxDP=2.65D-04 DE=-1.70D-05 OVMax= 3.36D-04

 Cycle   6  Pass 0  IDiag  1:
 E= -323.446749304159     Delta-E=       -0.000001060964 Rises=F Damp=F
 DIIS: error= 3.47D-05 at cycle   6 NSaved=   6.
 NSaved= 6 IEnMin= 6 EnMin= -323.446749304159     IErMin= 6 ErrMin= 3.47D-05
 ErrMax= 3.47D-05  0.00D+00 EMaxC= 1.00D-01 BMatC= 1.24D-07 BMatP= 1.49D-06
 IDIUse=1 WtCom= 1.00D+00 WtEn= 0.00D+00
 Coeff-Com: -0.301D-02 0.275D-01 0.276D-01 0.689D-01 0.253D+00 0.626D+00
 Coeff:     -0.301D-02 0.275D-01 0.276D-01 0.689D-01 0.253D+00 0.626D+00
 Gap=     0.175 Goal=   None    Shift=    0.000
 RMSDP=3.30D-06 MaxDP=5.04D-05 DE=-1.06D-06 OVMax= 1.20D-04

 Initial convergence to 1.0D-05 achieved.  Increase integral accuracy.
 Cycle   7  Pass 1  IDiag  1:
 E= -323.446730922525     Delta-E=        0.000018381633 Rises=F Damp=F
 DIIS: error= 1.16D-05 at cycle   1 NSaved=   1.
 NSaved= 1 IEnMin= 1 EnMin= -323.446730922525     IErMin= 1 ErrMin= 1.16D-05
 ErrMax= 1.16D-05  0.00D+00 EMaxC= 1.00D-01 BMatC= 1.42D-08 BMatP= 1.42D-08
 IDIUse=1 WtCom= 1.00D+00 WtEn= 0.00D+00
 Coeff-Com:  0.100D+01
 Coeff:      0.100D+01
 Gap=     0.175 Goal=   None    Shift=    0.000
 RMSDP=3.30D-06 MaxDP=5.04D-05 DE= 1.84D-05 OVMax= 1.43D-04

 Cycle   8  Pass 1  IDiag  1:
 E= -323.446730883357     Delta-E=        0.000000039169 Rises=F Damp=F
 DIIS: error= 2.20D-05 at cycle   2 NSaved=   2.
 NSaved= 2 IEnMin= 1 EnMin= -323.446730922525     IErMin= 1 ErrMin= 1.16D-05
 ErrMax= 2.20D-05  0.00D+00 EMaxC= 1.00D-01 BMatC= 4.77D-08 BMatP= 1.42D-08
 IDIUse=1 WtCom= 1.00D+00 WtEn= 0.00D+00
 Coeff-Com:  0.653D+00 0.347D+00
 Coeff:      0.653D+00 0.347D+00
 Gap=     0.175 Goal=   None    Shift=    0.000
 RMSDP=2.25D-06 MaxDP=5.73D-05 DE= 3.92D-08 OVMax= 1.32D-04

 Cycle   9  Pass 1  IDiag  1:
 E= -323.446730936882     Delta-E=       -0.000000053526 Rises=F Damp=F
 DIIS: error= 4.64D-06 at cycle   3 NSaved=   3.
 NSaved= 3 IEnMin= 3 EnMin= -323.446730936882     IErMin= 3 ErrMin= 4.64D-06
 ErrMax= 4.64D-06  0.00D+00 EMaxC= 1.00D-01 BMatC= 1.86D-09 BMatP= 1.42D-08
 IDIUse=1 WtCom= 1.00D+00 WtEn= 0.00D+00
 Coeff-Com:  0.371D+00 0.226D+00 0.403D+00
 Coeff:      0.371D+00 0.226D+00 0.403D+00
 Gap=     0.175 Goal=   None    Shift=    0.000
 RMSDP=5.07D-07 MaxDP=1.40D-05 DE=-5.35D-08 OVMax= 3.15D-05

 Cycle  10  Pass 1  IDiag  1:
 E= -323.446730938483     Delta-E=       -0.000000001600 Rises=F Damp=F
 DIIS: error= 1.64D-06 at cycle   4 NSaved=   4.
 NSaved= 4 IEnMin= 4 EnMin= -323.446730938483     IErMin= 4 ErrMin= 1.64D-06
 ErrMax= 1.64D-06  0.00D+00 EMaxC= 1.00D-01 BMatC= 2.06D-10 BMatP= 1.86D-09
 IDIUse=1 WtCom= 1.00D+00 WtEn= 0.00D+00
 Coeff-Com:  0.413D-01 0.474D-01 0.249D+00 0.662D+00
 Coeff:      0.413D-01 0.474D-01 0.249D+00 0.662D+00
 Gap=     0.175 Goal=   None    Shift=    0.000
 RMSDP=1.67D-07 MaxDP=5.29D-06 DE=-1.60D-09 OVMax= 9.38D-06

 Cycle  11  Pass 1  IDiag  1:
 E= -323.446730938619     Delta-E=       -0.000000000136 Rises=F Damp=F
 DIIS: error= 9.30D-07 at cycle   5 NSaved=   5.
 NSaved= 5 IEnMin= 5 EnMin= -323.446730938619     IErMin= 5 ErrMin= 9.30D-07
 ErrMax= 9.30D-07  0.00D+00 EMaxC= 1.00D-01 BMatC= 6.94D-11 BMatP= 2.06D-10
 IDIUse=1 WtCom= 1.00D+00 WtEn= 0.00D+00
 Coeff-Com: -0.616D-02 0.123D-01 0.128D+00 0.467D+00 0.400D+00
 Coeff:     -0.616D-02 0.123D-01 0.128D+00 0.467D+00 0.400D+00
 Gap=     0.175 Goal=   None    Shift=    0.000
 RMSDP=5.89D-08 MaxDP=1.35D-06 DE=-1.36D-10 OVMax= 1.90D-06

 Cycle  12  Pass 1  IDiag  1:
 E= -323.446730938672     Delta-E=       -0.000000000053 Rises=F Damp=F
 DIIS: error= 1.18D-07 at cycle   6 NSaved=   6.
 NSaved= 6 IEnMin= 6 EnMin= -323.446730938672     IErMin= 6 ErrMin= 1.18D-07
 ErrMax= 1.18D-07  0.00D+00 EMaxC= 1.00D-01 BMatC= 1.21D-12 BMatP= 6.94D-11
 IDIUse=1 WtCom= 1.00D+00 WtEn= 0.00D+00
 Coeff-Com: -0.592D-02 0.202D-02 0.290D-01 0.156D+00 0.155D+00 0.664D+00
 Coeff:     -0.592D-02 0.202D-02 0.290D-01 0.156D+00 0.155D+00 0.664D+00
 Gap=     0.175 Goal=   None    Shift=    0.000
 RMSDP=9.52D-09 MaxDP=2.49D-07 DE=-5.32D-11 OVMax= 2.94D-07

 SCF Done:  E(RB3LYP) =  -323.446730939     A.U. after   12 cycles
            NFock= 12  Conv=0.95D-08     -V/T= 2.0093
 KE= 3.204774829019D+02 PE=-1.306359378052D+03 EE= 3.856317471946D+02
 Leave Link  502 at Mon Oct 14 02:09:38 2019, MaxMem= 10737418240 cpu:              18.8 elap:               0.9
 (Enter /apps/cent7/gaussian/g16-A.03/g16-haswell/g16/l701.exe)
 ... and contract with generalized density number  0.
 Compute integral first derivatives.
 Leave Link  701 at Mon Oct 14 02:09:39 2019, MaxMem= 10737418240 cpu:               2.2 elap:               0.1
 (Enter /apps/cent7/gaussian/g16-A.03/g16-haswell/g16/l702.exe)
 L702 exits ... SP integral derivatives will be done elsewhere.
 Leave Link  702 at Mon Oct 14 02:09:39 2019, MaxMem= 10737418240 cpu:               1.0 elap:               0.1
 (Enter /apps/cent7/gaussian/g16-A.03/g16-haswell/g16/l703.exe)
 Integral derivatives from FoFJK, PRISM(SPDF).
 Compute integral first derivatives, UseDBF=F ICtDFT=           0.
 Calling FoFJK, ICntrl=      2127 FMM=F ISym2X=1 I1Cent= 0 IOpClX= 0 NMat=1 NMatS=1 NMatT=0.
 FoFJK:  IHMeth= 1 ICntrl=    2127 DoSepK=F KAlg= 0 I1Cent=           0 FoldK=F
 IRaf=         0 NMat=       1 IRICut=       1 DoRegI=T DoRafI=F ISym2E= 1 IDoP0=0 IntGTp=1.
 FoFCou: FMM=F IPFlag=           0 FMFlag=      100000 FMFlg1=         800
         NFxFlg=           0 DoJE=F BraDBF=F KetDBF=F FulRan=T
         wScrn=  0.000000 ICntrl=      2127 IOpCl=  0 I1Cent=           0 NGrid=           0
         NMat0=    1 NMatS0=      1 NMatT0=    0 NMatD0=    1 NMtDS0=    0 NMtDT0=    0
 Petite list used in FoFCou.
 Leave Link  703 at Mon Oct 14 02:09:39 2019, MaxMem= 10737418240 cpu:               7.9 elap:               0.4
 (Enter /apps/cent7/gaussian/g16-A.03/g16-haswell/g16/l716.exe)
 Dipole        = 9.35710337D-05-1.60309732D+00-8.43488505D-32
 ***** Axes restored to original set *****
 -------------------------------------------------------------------
 Center     Atomic                   Forces (Hartrees/Bohr)
 Number     Number              X              Y              Z
 -------------------------------------------------------------------
      1        8           0.011699989    0.000092210    0.000000000
      2        7          -0.020998805   -0.000078310   -0.000000000
      3        6           0.008891863   -0.006002508    0.000000000
      4        6          -0.002767677    0.001647732   -0.000000000
      5        6           0.003547877    0.000053186    0.000000000
      6        6          -0.002676623   -0.001698491   -0.000000000
      7        6           0.008730745    0.006046386    0.000000000
      8        1          -0.002259946    0.000106585   -0.000000000
      9        1          -0.000685859   -0.001255795   -0.000000000
     10        1          -0.000508391    0.000002478   -0.000000000
     11        1          -0.000703708    0.001234455   -0.000000000
     12        1          -0.002269464   -0.000147927   -0.000000000
 -------------------------------------------------------------------
 Cartesian Forces:  Max     0.020998805 RMS     0.004868735
 Leave Link  716 at Mon Oct 14 02:09:39 2019, MaxMem= 10737418240 cpu:               0.5 elap:               0.0
 (Enter /apps/cent7/gaussian/g16-A.03/g16-haswell/g16/l103.exe)

 GradGradGradGradGradGradGradGradGradGradGradGradGradGradGradGradGradGrad
 Berny optimization.
 Using GEDIIS/GDIIS optimizer.
 FormGI is forming the generalized inverse of G from B-inverse, IUseBI=4.
 Internal  Forces:  Max     0.011700347 RMS     0.002181008
 Search for a local minimum.
 Step number   2 out of a maximum of   64
 All quantities printed in internal units (Hartrees-Bohrs-Radians)
 RMS Force = .21810D-02 SwitMx=.10000D-02 MixMth= 1
 Mixed Optimization -- RFO/linear search
 Update second derivatives using D2CorX and points    1    2
 DE= -4.07D-03 DEPred=-3.53D-03 R= 1.15D+00
 TightC=F SS=  1.41D+00  RLast= 1.64D-01 DXNew= 5.0454D-01 4.9125D-01
 Trust test= 1.15D+00 RLast= 1.64D-01 DXMaxT set to 4.91D-01
 ITU=  1  0
 Use linear search instead of GDIIS.
     Eigenvalues ---    0.01998   0.02000   0.02002   0.02007   0.02035
     Eigenvalues ---    0.02070   0.02087   0.02145   0.02183   0.13951
     Eigenvalues ---    0.16000   0.16000   0.16000   0.16070   0.21607
     Eigenvalues ---    0.22000   0.23211   0.25000   0.34765   0.34812
     Eigenvalues ---    0.34813   0.34816   0.35621   0.40699   0.41505
     Eigenvalues ---    0.42854   0.44570   0.51723   0.54653   0.62363
 RFO step:  Lambda=-5.10479006D-04 EMin= 1.99757333D-02
 Quartic linear search produced a step of  0.19282.
 Iteration  1 RMS(Cart)=  0.00616752 RMS(Int)=  0.00004585
 Iteration  2 RMS(Cart)=  0.00005774 RMS(Int)=  0.00000694
 Iteration  3 RMS(Cart)=  0.00000000 RMS(Int)=  0.00000694
 ITry= 1 IFail=0 DXMaxC= 1.53D-02 DCOld= 1.00D+10 DXMaxT= 4.91D-01 DXLimC= 3.00D+00 Rises=F
 ClnCor:  largest displacement from symmetrization is 2.48D-13 for atom     9.
 Variable       Old X    -DE/DX   Delta X   Delta X   Delta X     New X
                                 (Linear)    (Quad)   (Total)
    R1        2.43764  -0.01170  -0.00602  -0.01746  -0.02347   2.41417
    R2        2.57789   0.00587   0.00056   0.01343   0.01400   2.59189
    R3        2.57822   0.00577   0.00043   0.01332   0.01376   2.59197
    R4        2.61991  -0.00194  -0.00768  -0.00018  -0.00786   2.61206
    R5        2.04053   0.00119  -0.00372   0.00654   0.00283   2.04335
    R6        2.63511   0.00205  -0.00429   0.00775   0.00345   2.63856
    R7        2.04890   0.00077  -0.00210   0.00404   0.00194   2.05084
    R8        2.63527   0.00201  -0.00425   0.00762   0.00335   2.63862
    R9        2.05121  -0.00051  -0.00167  -0.00063  -0.00230   2.04892
   R10        2.61974  -0.00190  -0.00762  -0.00011  -0.00773   2.61201
   R11        2.04892   0.00077  -0.00209   0.00401   0.00192   2.05085
   R12        2.04050   0.00120  -0.00373   0.00657   0.00284   2.04334
    A1        2.10227   0.00098   0.00462   0.00061   0.00522   2.10749
    A2        2.10209   0.00101   0.00466   0.00071   0.00537   2.10745
    A3        2.07883  -0.00199  -0.00928  -0.00132  -0.01058   2.06824
    A4        2.11629   0.00008   0.00383  -0.00129   0.00255   2.11884
    A5        2.00038  -0.00200  -0.01251  -0.00622  -0.01874   1.98164
    A6        2.16652   0.00192   0.00868   0.00751   0.01618   2.18270
    A7        2.09732   0.00120   0.00384   0.00261   0.00644   2.10376
    A8        2.07706  -0.00184  -0.00516  -0.00812  -0.01327   2.06379
    A9        2.10881   0.00063   0.00131   0.00551   0.00683   2.11563
   A10        2.06037  -0.00060  -0.00606  -0.00135  -0.00743   2.05294
   A11        2.11137   0.00031   0.00304   0.00072   0.00377   2.11514
   A12        2.11145   0.00029   0.00302   0.00063   0.00366   2.11511
   A13        2.09738   0.00119   0.00382   0.00255   0.00636   2.10374
   A14        2.10881   0.00063   0.00129   0.00550   0.00680   2.11561
   A15        2.07700  -0.00182  -0.00512  -0.00805  -0.01316   2.06384
   A16        2.11620   0.00010   0.00385  -0.00120   0.00265   2.11885
   A17        2.00044  -0.00203  -0.01262  -0.00627  -0.01889   1.98155
   A18        2.16655   0.00192   0.00877   0.00747   0.01624   2.18279
    D1        3.14159  -0.00000   0.00000  -0.00000   0.00000   3.14159
    D2       -0.00000  -0.00000   0.00000  -0.00000   0.00000   0.00000
    D3        0.00000   0.00000   0.00000  -0.00000   0.00000   0.00000
    D4        3.14159  -0.00000   0.00000  -0.00000   0.00000   3.14159
    D5        3.14159   0.00000   0.00000   0.00000   0.00000   3.14159
    D6        0.00000  -0.00000   0.00000   0.00000   0.00000   0.00000
    D7       -0.00000   0.00000   0.00000   0.00000   0.00000   0.00000
    D8        3.14159   0.00000   0.00000   0.00000   0.00000   3.14159
    D9       -0.00000   0.00000   0.00000  -0.00000   0.00000   0.00000
   D10        3.14159  -0.00000   0.00000   0.00000   0.00000   3.14159
   D11        3.14159  -0.00000   0.00000  -0.00000   0.00000   3.14159
   D12       -0.00000  -0.00000   0.00000   0.00000   0.00000   0.00000
   D13       -0.00000   0.00000   0.00000   0.00000   0.00000   0.00000
   D14        3.14159   0.00000   0.00000   0.00000   0.00000   3.14159
   D15        3.14159  -0.00000   0.00000   0.00000   0.00000   3.14159
   D16        0.00000  -0.00000   0.00000  -0.00000  -0.00000   0.00000
   D17       -0.00000  -0.00000   0.00000  -0.00000   0.00000   0.00000
   D18        3.14159  -0.00000   0.00000  -0.00000   0.00000   3.14159
   D19        3.14159  -0.00000   0.00000  -0.00000   0.00000   3.14159
   D20        0.00000   0.00000   0.00000  -0.00000   0.00000   0.00000
   D21        0.00000   0.00000   0.00000   0.00000   0.00000   0.00000
   D22        3.14159   0.00000   0.00000   0.00000   0.00000   3.14159
   D23        3.14159   0.00000   0.00000  -0.00000   0.00000   3.14159
   D24       -0.00000  -0.00000   0.00000   0.00000   0.00000   0.00000
         Item               Value     Threshold  Converged?
 Maximum Force            0.011700     0.000450     NO 
 RMS     Force            0.002181     0.000300     NO 
 Maximum Displacement     0.015319     0.001800     NO 
 RMS     Displacement     0.006173     0.001200     NO 
 Predicted change in Energy=-3.789706D-04
 Lowest energy point so far.  Saving SCF results.
 GradGradGradGradGradGradGradGradGradGradGradGradGradGradGradGradGradGrad

 Leave Link  103 at Mon Oct 14 02:09:39 2019, MaxMem= 10737418240 cpu:               0.4 elap:               0.0
 (Enter /apps/cent7/gaussian/g16-A.03/g16-haswell/g16/l202.exe)
                          Input orientation:                          
 ---------------------------------------------------------------------
 Center     Atomic      Atomic             Coordinates (Angstroms)
 Number     Number       Type             X           Y           Z
 ---------------------------------------------------------------------
      1          8           0       -1.965803    1.151356   -0.000000
      2          7           0       -0.688332    1.162753   -0.000000
      3          6           0        0.023434   -0.009675   -0.000000
      4          6           0        1.405671   -0.013036    0.000000
      5          6           0        2.118019    1.187846    0.000000
      6          6           0        1.384315    2.375840    0.000000
      7          6           0        0.002383    2.347758   -0.000000
      8          1           0       -0.599841   -0.893263   -0.000000
      9          1           0        1.916961   -0.970306    0.000000
     10          1           0        3.202215    1.197550    0.000000
     11          1           0        1.878451    3.342081    0.000000
     12          1           0       -0.636672    3.219996   -0.000000
 ---------------------------------------------------------------------
                    Distance matrix (angstroms):
                    1          2          3          4          5
     1  O    0.000000
     2  N    1.277522   0.000000
     3  C    2.303271   1.371568   0.000000
     4  C    3.566882   2.401526   1.382240   0.000000
     5  C    4.083985   2.806463   2.412745   1.396265   0.000000
     6  C    3.566883   2.401551   2.746393   2.388971   1.396299
     7  C    2.303288   1.371614   2.357527   2.746372   2.412739
     8  H    2.458927   2.057919   1.081296   2.190178   3.423124
     9  H    4.424626   3.367120   2.123266   1.085258   2.167498
    10  H    5.168225   3.890703   3.400299   2.166353   1.084239
    11  H    4.424654   3.367172   3.830842   3.388263   2.167515
    12  H    2.458833   2.057891   3.296439   3.824089   3.423150
                    6          7          8          9         10
     6  C    0.000000
     7  C    1.382217   0.000000
     8  H    3.824122   3.296497   0.000000
     9  H    3.388275   3.830817   2.517982   0.000000
    10  H    2.166363   3.400280   4.339024   2.520213   0.000000
    11  H    1.085261   2.123278   4.907145   4.312559   2.520191
    12  H    2.190202   1.081291   4.113424   4.907105   4.339048
                   11         12
    11  H    0.000000
    12  H    2.518084   0.000000
 Stoichiometry    C5H5NO
 Framework group  CS[SG(C5H5NO)]
 Deg. of freedom    21
 Full point group                 CS      NOp   2
 RotChk:  IX=0 Diff= 7.35D-05
 Largest Abelian subgroup         CS      NOp   2
 Largest concise Abelian subgroup C1      NOp   1
                         Standard orientation:                         
 ---------------------------------------------------------------------
 Center     Atomic      Atomic             Coordinates (Angstroms)
 Number     Number       Type             X           Y           Z
 ---------------------------------------------------------------------
      1          8           0       -0.000044    2.262280    0.000000
      2          7           0       -0.000000    0.984758    0.000000
      3          6           0        1.178755    0.283519    0.000000
      4          6           0        1.194493   -1.098632    0.000000
      5          6           0        0.000039   -1.821706    0.000000
      6          6           0       -1.194477   -1.098670    0.000000
      7          6           0       -1.178772    0.283458    0.000000
      8          1           0        2.056726    0.914682    0.000000
      9          1           0        2.156304   -1.601330    0.000000
     10          1           0        0.000045   -2.905945    0.000000
     11          1           0       -2.156255   -1.601439    0.000000
     12          1           0       -2.056698    0.914676    0.000000
 ---------------------------------------------------------------------
 Rotational constants (GHZ):           5.9116361           2.7869460           1.8940340
 Leave Link  202 at Mon Oct 14 02:09:39 2019, MaxMem= 10737418240 cpu:               0.9 elap:               0.1
 (Enter /apps/cent7/gaussian/g16-A.03/g16-haswell/g16/l301.exe)
 Standard basis: 6-31G(d) (6D, 7F)
 Ernie: Thresh=  0.10000D-02 Tol=  0.10000D-05 Strict=F.
 There are    87 symmetry adapted cartesian basis functions of A'  symmetry.
 There are    28 symmetry adapted cartesian basis functions of A"  symmetry.
 There are    87 symmetry adapted basis functions of A'  symmetry.
 There are    28 symmetry adapted basis functions of A"  symmetry.
   115 basis functions,   216 primitive gaussians,   115 cartesian basis functions
    25 alpha electrons       25 beta electrons
       nuclear repulsion energy       276.8470241499 Hartrees.
 IExCor=  402 DFT=T Ex+Corr=B3LYP ExCW=0 ScaHFX=  0.200000
 ScaDFX=  0.800000  0.720000  1.000000  0.810000 ScalE2=  1.000000  1.000000
 IRadAn=      5 IRanWt=     -1 IRanGd=            0 ICorTp=0 IEmpDi=  4
 NAtoms=   12 NActive=   12 NUniq=   12 SFac= 1.00D+00 NAtFMM=   60 NAOKFM=F Big=F
 Integral buffers will be    131072 words long.
 Raffenetti 2 integral format.
 Two-electron integral symmetry is turned on.
 Leave Link  301 at Mon Oct 14 02:09:39 2019, MaxMem= 10737418240 cpu:               1.8 elap:               0.1
 (Enter /apps/cent7/gaussian/g16-A.03/g16-haswell/g16/l302.exe)
 NPDir=0 NMtPBC=     1 NCelOv=     1 NCel=       1 NClECP=     1 NCelD=      1
         NCelK=      1 NCelE2=     1 NClLst=     1 CellRange=     0.0.
 One-electron integrals computed using PRISM.
 One-electron integral symmetry used in STVInt
 NBasis=   115 RedAO= T EigKep=  7.55D-04  NBF=    87    28
 NBsUse=   115 1.00D-06 EigRej= -1.00D+00 NBFU=    87    28
 Precomputing XC quadrature grid using
 IXCGrd= 4 IRadAn=           5 IRanWt=          -1 IRanGd=           0 AccXCQ= 0.00D+00.
 Generated NRdTot=       0 NPtTot=           0 NUsed=           0 NTot=          32
 NSgBfM=   115   115   115   115   115 MxSgAt=    12 MxSgA2=    12.
 Leave Link  302 at Mon Oct 14 02:09:39 2019, MaxMem= 10737418240 cpu:               2.7 elap:               0.1
 (Enter /apps/cent7/gaussian/g16-A.03/g16-haswell/g16/l303.exe)
 DipDrv:  MaxL=1.
 Leave Link  303 at Mon Oct 14 02:09:39 2019, MaxMem= 10737418240 cpu:               0.5 elap:               0.0
 (Enter /apps/cent7/gaussian/g16-A.03/g16-haswell/g16/l401.exe)
 Initial guess from the checkpoint file:  "3.chk"
 B after Tr=    -0.000000   -0.000000    0.000000
         Rot=    1.000000    0.000000   -0.000000    0.000024 Ang=   0.00 deg.
 Guess basis will be translated and rotated to current coordinates.
 JPrj=2 DoOrth=T DoCkMO=T.
 Initial guess orbital symmetries:
       Occupied  (A') (A') (A') (A') (A') (A') (A') (A') (A') (A')
                 (A') (A') (A') (A') (A') (A') (A") (A') (A') (A')
                 (A') (A") (A") (A') (A")
[...]
   R12        2.04403   0.00004   0.00000   0.00007   0.00007   2.04410
    A1        2.10845  -0.00002   0.00000  -0.00005  -0.00005   2.10839
    A2        2.10843  -0.00002   0.00000  -0.00003  -0.00003   2.10839
    A3        2.06631   0.00004   0.00000   0.00009   0.00009   2.06640
    A4        2.11873  -0.00005   0.00000  -0.00009  -0.00009   2.11864
    A5        1.98055   0.00014   0.00000   0.00074   0.00074   1.98129
    A6        2.18391  -0.00008   0.00000  -0.00065  -0.00065   2.18326
    A7        2.10486  -0.00004   0.00000  -0.00024  -0.00024   2.10462
    A8        2.06311   0.00006   0.00000   0.00044   0.00044   2.06355
    A9        2.11522  -0.00001   0.00000  -0.00021  -0.00021   2.11501
   A10        2.05288   0.00015   0.00000   0.00057   0.00057   2.05345
   A11        2.11516  -0.00008   0.00000  -0.00029  -0.00029   2.11487
   A12        2.11514  -0.00008   0.00000  -0.00027  -0.00027   2.11487
   A13        2.10486  -0.00004   0.00000  -0.00023  -0.00023   2.10462
   A14        2.11520  -0.00001   0.00000  -0.00019  -0.00019   2.11501
   A15        2.06313   0.00005   0.00000   0.00042   0.00042   2.06355
   A16        2.11873  -0.00005   0.00000  -0.00009  -0.00009   2.11864
   A17        1.98050   0.00014   0.00000   0.00079   0.00079   1.98129
   A18        2.18395  -0.00009   0.00000  -0.00070  -0.00070   2.18326
    D1        3.14159   0.00000   0.00000  -0.00000   0.00000   3.14159
    D2        0.00000   0.00000   0.00000  -0.00000  -0.00000   0.00000
    D3        0.00000   0.00000   0.00000  -0.00000  -0.00000   0.00000
    D4        3.14159   0.00000   0.00000  -0.00000   0.00000   3.14159
    D5        3.14159  -0.00000   0.00000   0.00000   0.00000   3.14159
    D6        0.00000   0.00000   0.00000   0.00000   0.00000   0.00000
    D7        0.00000  -0.00000   0.00000   0.00000   0.00000   0.00000
    D8        3.14159  -0.00000   0.00000   0.00000   0.00000   3.14159
    D9       -0.00000   0.00000   0.00000   0.00000   0.00000   0.00000
   D10        3.14159   0.00000   0.00000   0.00000   0.00000   3.14159
   D11        3.14159   0.00000   0.00000   0.00000   0.00000   3.14159
   D12        0.00000   0.00000   0.00000   0.00000  -0.00000   0.00000
   D13        0.00000  -0.00000   0.00000  -0.00000   0.00000   0.00000
   D14        3.14159  -0.00000   0.00000  -0.00000   0.00000   3.14159
   D15        3.14159   0.00000   0.00000  -0.00000   0.00000   3.14159
   D16       -0.00000   0.00000   0.00000  -0.00000   0.00000   0.00000
   D17        0.00000   0.00000   0.00000   0.00000  -0.00000   0.00000
   D18        3.14159  -0.00000   0.00000   0.00000   0.00000   3.14159
   D19        3.14159   0.00000   0.00000   0.00000   0.00000   3.14159
   D20        0.00000   0.00000   0.00000   0.00000   0.00000   0.00000
   D21       -0.00000   0.00000   0.00000  -0.00000   0.00000   0.00000
   D22        3.14159  -0.00000   0.00000  -0.00000   0.00000   3.14159
   D23        3.14159  -0.00000   0.00000  -0.00000   0.00000   3.14159
   D24        0.00000   0.00000   0.00000  -0.00000   0.00000   0.00000
         Item               Value     Threshold  Converged?
 Maximum Force            0.000263     0.000450     YES
 RMS     Force            0.000075     0.000300     YES
 Maximum Displacement     0.001487     0.001800     YES
 RMS     Displacement     0.000414     0.001200     YES
 Predicted change in Energy=-4.980353D-07
 Optimization completed.
    -- Stationary point found.
                           ----------------------------
                           !   Optimized Parameters   !
                           ! (Angstroms and Degrees)  !
 --------------------------                            --------------------------
 ! Name  Definition              Value          Derivative Info.                !
 --------------------------------------------------------------------------------
 ! R1    R(1,2)                  1.2746         -DE/DX =   -0.0003              !
 ! R2    R(2,3)                  1.3741         -DE/DX =    0.0002              !
 ! R3    R(2,7)                  1.3741         -DE/DX =    0.0002              !
 ! R4    R(3,4)                  1.3831         -DE/DX =    0.0                 !
 ! R5    R(3,8)                  1.0817         -DE/DX =    0.0                 !
 ! R6    R(4,5)                  1.3962         -DE/DX =    0.0001              !
 ! R7    R(4,9)                  1.0856         -DE/DX =    0.0                 !
 ! R8    R(5,6)                  1.3963         -DE/DX =    0.0                 !
 ! R9    R(5,10)                 1.0843         -DE/DX =    0.0001              !
 ! R10   R(6,7)                  1.383          -DE/DX =    0.0                 !
 ! R11   R(6,11)                 1.0856         -DE/DX =    0.0                 !
 ! R12   R(7,12)                 1.0817         -DE/DX =    0.0                 !
 ! A1    A(1,2,3)              120.8051         -DE/DX =    0.0                 !
 ! A2    A(1,2,7)              120.8039         -DE/DX =    0.0                 !
 ! A3    A(3,2,7)              118.391          -DE/DX =    0.0                 !
 ! A4    A(2,3,4)              121.3943         -DE/DX =   -0.0001              !
 ! A5    A(2,3,8)              113.477          -DE/DX =    0.0001              !
 ! A6    A(4,3,8)              125.1287         -DE/DX =   -0.0001              !
 ! A7    A(3,4,5)              120.5996         -DE/DX =    0.0                 !
 ! A8    A(3,4,9)              118.2074         -DE/DX =    0.0001              !
 ! A9    A(5,4,9)              121.193          -DE/DX =    0.0                 !
 ! A10   A(4,5,6)              117.6216         -DE/DX =    0.0002              !
 ! A11   A(4,5,10)             121.1898         -DE/DX =   -0.0001              !
 ! A12   A(6,5,10)             121.1886         -DE/DX =   -0.0001              !
 ! A13   A(5,6,7)              120.5994         -DE/DX =    0.0                 !
 ! A14   A(5,6,11)             121.192          -DE/DX =    0.0                 !
 ! A15   A(7,6,11)             118.2086         -DE/DX =    0.0001              !
 ! A16   A(2,7,6)              121.3942         -DE/DX =   -0.0001              !
 ! A17   A(2,7,12)             113.4745         -DE/DX =    0.0001              !
 ! A18   A(6,7,12)             125.1313         -DE/DX =   -0.0001              !
 ! D1    D(1,2,3,4)            180.0            -DE/DX =    0.0                 !
 ! D2    D(1,2,3,8)              0.0            -DE/DX =    0.0                 !
 ! D3    D(7,2,3,4)              0.0            -DE/DX =    0.0                 !
 ! D4    D(7,2,3,8)            180.0            -DE/DX =    0.0                 !
 ! D5    D(1,2,7,6)            180.0            -DE/DX =    0.0                 !
 ! D6    D(1,2,7,12)             0.0            -DE/DX =    0.0                 !
 ! D7    D(3,2,7,6)              0.0            -DE/DX =    0.0                 !
 ! D8    D(3,2,7,12)           180.0            -DE/DX =    0.0                 !
 ! D9    D(2,3,4,5)              0.0            -DE/DX =    0.0                 !
 ! D10   D(2,3,4,9)            180.0            -DE/DX =    0.0                 !
 ! D11   D(8,3,4,5)            180.0            -DE/DX =    0.0                 !
 ! D12   D(8,3,4,9)              0.0            -DE/DX =    0.0                 !
 ! D13   D(3,4,5,6)              0.0            -DE/DX =    0.0                 !
 ! D14   D(3,4,5,10)           180.0            -DE/DX =    0.0                 !
 ! D15   D(9,4,5,6)            180.0            -DE/DX =    0.0                 !
 ! D16   D(9,4,5,10)             0.0            -DE/DX =    0.0                 !
 ! D17   D(4,5,6,7)              0.0            -DE/DX =    0.0                 !
 ! D18   D(4,5,6,11)           180.0            -DE/DX =    0.0                 !
 ! D19   D(10,5,6,7)           180.0            -DE/DX =    0.0                 !
 ! D20   D(10,5,6,11)            0.0            -DE/DX =    0.0                 !
 ! D21   D(5,6,7,2)              0.0            -DE/DX =    0.0                 !
 ! D22   D(5,6,7,12)           180.0            -DE/DX =    0.0                 !
 ! D23   D(11,6,7,2)           180.0            -DE/DX =    0.0                 !
 ! D24   D(11,6,7,12)            0.0            -DE/DX =    0.0                 !
 --------------------------------------------------------------------------------
 GradGradGradGradGradGradGradGradGradGradGradGradGradGradGradGradGradGrad

 Leave Link  103 at Mon Oct 14 02:09:51 2019, MaxMem= 10737418240 cpu:               1.4 elap:               0.1
 (Enter /apps/cent7/gaussian/g16-A.03/g16-haswell/g16/l9999.exe)

 ----------------------------------------------------------------------

 Electric dipole moment (input orientation):
 (Debye = 10**-18 statcoulomb cm , SI units = C m)
                  (au)            (Debye)         (10**-30 SI)
   Tot        0.154752D+01      0.393340D+01      0.131204D+02
   x          0.154746D+01      0.393325D+01      0.131199D+02
   y          0.138276D-01      0.351462D-01      0.117235D+00
   z          0.000000D+00      0.000000D+00      0.000000D+00

 Dipole polarizability, Alpha (input orientation).
 (esu units = cm**3 , SI units = C**2 m**2 J**-1)
 Alpha(0;0):
               (au)            (10**-24 esu)      (10**-40 SI)
   iso        0.592726D+02      0.878329D+01      0.977273D+01
   aniso      0.581098D+02      0.861098D+01      0.958101D+01
   xx         0.876922D+02      0.129946D+02      0.144585D+02
   yx         0.177151D+00      0.262511D-01      0.292083D-01
   yy         0.678618D+02      0.100561D+02      0.111889D+02
   zx         0.000000D+00      0.000000D+00      0.000000D+00
   zy         0.000000D+00      0.000000D+00      0.000000D+00
   zz         0.222637D+02      0.329915D+01      0.367080D+01

 ----------------------------------------------------------------------

 Dipole orientation:
     8         -0.01973672          2.20875930         -3.69492437
     7         -0.01973660          2.20874517         -1.28619237
     6          0.00019139         -0.02141870          0.04355838
     6          0.00043165         -0.04830599          2.65702271
     6         -0.01973681          2.20876959          4.02341951
     6         -0.03990541          4.46586052          2.65699460
     6         -0.03966493          4.43894856          0.04355171
     1          0.01501987         -1.68089130         -1.14974010
     1          0.01667401         -1.86600775          3.60805887
     1         -0.01973707          2.20879827          6.07240667
     1         -0.05614767          6.28355093          3.60804939
     1         -0.05449285          6.09835818         -1.14983794

 Electric dipole moment (dipole orientation):
 (Debye = 10**-18 statcoulomb cm , SI units = C m)
                  (au)            (Debye)         (10**-30 SI)
   Tot        0.154752D+01      0.393340D+01      0.131204D+02
   x          0.000000D+00      0.000000D+00      0.000000D+00
   y          0.000000D+00      0.000000D+00      0.000000D+00
   z          0.154752D+01      0.393340D+01      0.131204D+02

 Dipole polarizability, Alpha (dipole orientation).
 (esu units = cm**3 , SI units = C**2 m**2 J**-1)
 Alpha(0;0):
               (au)            (10**-24 esu)      (10**-40 SI)
   iso        0.592726D+02      0.878329D+01      0.977273D+01
   aniso      0.581098D+02      0.861098D+01      0.958101D+01
   xx         0.222674D+02      0.329969D+01      0.367140D+01
   yx        -0.407402D+00     -0.603708D-01     -0.671715D-01
   yy         0.678566D+02      0.100553D+02      0.111880D+02
   zx         0.000000D+00      0.000000D+00      0.000000D+00
   zy        -0.604003D-04     -0.895039D-05     -0.995866D-05
   zz         0.876938D+02      0.129949D+02      0.144587D+02

 ----------------------------------------------------------------------
 1\1\GINC-BROWN-A428\Freq\RB3LYP\6-31G(d)\C5H5N1O1\FINEJ\14-Oct-2019\0\
 \#P Geom=AllCheck Guess=TCheck SCRF=Check GenChk RB3LYP/6-31G(d) Freq\
 \Title Card Required\\0,1\O,-1.9656359414,1.1513541563,0.\N,-0.6910406
 788,1.1627360314,0.\C,0.0231504613,-0.0111283294,0.\C,1.4062081526,-0.
 0129990727,0.\C,2.1185726458,1.1878547042,0.\C,1.3848478279,2.37579483
 58,0.\C,0.002055871,2.3491963487,0.\H,-0.6004437942,-0.8949257537,0.\H
 ,1.9180498156,-0.9703885804,0.\H,3.2028065362,1.1975582244,0.\H,1.8795
 092226,3.3421721087,0.\H,-0.6372801185,3.2216753266,0.\\Version=ES64L-
 G16RevA.03\State=1-A'\HF=-323.4471717\RMSD=7.223e-10\RMSF=9.506e-05\Ze
 roPoint=0.0932607\Thermal=0.0932607\Dipole=1.5474585,0.0138276,0.\Dipo
 leDeriv=-1.4734881,-0.0100419,0.,-0.0100456,-0.3489889,0.,0.,0.,-0.377
 9445,1.469455,0.0127078,0.,0.0126954,0.0468092,0.,0.,0.,0.2005721,-0.1
 738782,0.0150841,0.,0.4045793,0.0772589,0.,0.,0.,-0.1064478,0.1489405,
 0.0492454,0.,-0.0852854,0.1507613,0.,0.,0.,-0.0572849,-0.0485123,0.001
 5421,0.,0.0015406,-0.2213365,0.,0.,0.,-0.1447564,0.1482841,-0.0492891,
 0.,0.08524,0.1514024,0.,0.,0.,-0.0572845,-0.1662788,-0.019436,0.,-0.40
 89029,0.0696883,0.,0.,0.,-0.1064428,0.0285877,-0.044803,0.,-0.0019304,
 0.0468546,0.,0.,0.,0.1427859,0.0533335,0.0583275,0.,0.0638417,-0.04156
 9,0.,0.,0.,0.1170789,-0.0696873,-0.0012057,0.,-0.0012076,0.0651459,0.,
 0.,0.,0.1298604,0.0554849,-0.0565956,0.,-0.0621051,-0.0437179,0.,0.,0.
 ,0.1170791,0.0277592,0.0444645,0.,0.0015801,0.0476919,0.,0.,0.,0.14278
 45\Polar=87.6921698,0.1771512,67.8618004,0.,0.,22.2637431\Quadrupole=-
 3.8874323,5.3983592,-1.5109269,-0.0829797,0.,0.\PG=CS [SG(C5H5N1O1)]\N
 Imag=0\\0.54104859,0.00399495,0.09390450,0.,0.,0.03062434,-0.42190711,
 -0.00284764,0.,0.77215093,-0.00284772,-0.10310787,0.,0.00087640,0.6718
 8364,0.,0.,-0.06276874,0.,0.,0.18862715,-0.06062919,0.05852636,0.,-0.1
 5902650,0.00018613,0.,0.77670743,0.03082464,0.00568463,0.,0.06283394,-
 0.25510898,0.,0.08918537,0.68227395,0.,0.,0.01537443,0.,0.,-0.07081967
 ,0.,0.,0.11730780,0.00294977,-0.01100899,0.,-0.02703139,0.08975868,0.,
 -0.36860414,-0.03561688,0.,0.70497993,-0.00281493,-0.01131662,0.,0.041
 06863,0.04276388,0.,0.02232372,-0.13427813,0.,-0.03075987,0.73670002,0
 .,0.,0.00622880,0.,0.,-0.00161308,0.,0.,-0.05254207,0.,0.,0.12890586,-
 0.00753878,-0.00018733,0.,0.00870260,0.00082421,0.,-0.03008712,-0.0299
 1822,0.,-0.18442556,-0.12549498,0.,0.76277295,-0.00018725,0.01343899,0
 .,0.00082535,-0.08356163,0.,-0.07640516,0.03361671,0.,-0.05812849,-0.2
 8280998,0.,0.00097777,0.65552314,0.,0.,-0.00066649,0.,0.,-0.00657841,0
 .,0.,0.00726689,0.,0.,-0.05786074,0.,0.,0.11932129,0.00269797,0.011259
 18,0.,-0.02466915,-0.09096363,0.,-0.04878946,0.02593640,0.,0.06571261,
 0.02511824,0.,-0.18773037,0.05981213,0.,0.70391353,0.00306443,-0.01106
 514,0.,-0.04227373,0.04040325,0.,0.02722178,-0.01778872,0.,-0.02286740
 ,-0.06015592,0.,0.12717946,-0.27947185,0.,0.03019467,0.73776099,0.,0.,
 0.00622824,0.,0.,-0.00161283,0.,0.,-0.00172449,0.,0.,0.00614689,0.,0.,
 -0.05786321,0.,0.,0.12890602,-0.05901272,-0.05968253,0.,-0.15791920,0.
 00156837,0.,0.06064564,-0.02031148,0.,-0.04782905,-0.02775896,0.,-0.03
 196666,0.07523182,0.,-0.36879588,-0.02651662,0.,0.77989474,-0.03198038
 ,0.00406650,0.,-0.06108123,-0.25617661,0.,0.02240751,-0.05655625,0.,-0
 .02647322,-0.01874891,0.,0.02874574,0.03549659,0.,0.03142154,-0.134114
 86,0.,-0.08745948,0.67907217,0.,0.,0.01537452,0.,0.,-0.07082250,0.,0.,
 0.00462097,0.,0.,-0.00172430,0.,0.,0.00726674,0.,0.,-0.05253975,0.,0.,
 0.11730892,0.00198494,-0.00010134,0.,0.01006683,0.02072509,0.,-0.15842
 195,-0.14916597,0.,-0.00878781,-0.02429930,0.,-0.00469491,0.00224074,0
 .,-0.00015177,0.00060113,0.,-0.00255823,0.00209111,0.,0.16157065,-0.00
 179947,0.00387182,0.,-0.01849598,-0.03007984,0.,-0.13651683,-0.2543305
 0,0.,0.00218076,0.00731928,0.,0.00158613,0.00140312,0.,0.00080333,-0.0
 0005657,0.,0.00510730,-0.00184616,0.,0.14818594,0.27391219,0.,0.,-0.00
 422094,0.,0.,0.00403114,0.,0.,-0.03177590,0.,0.,0.00189785,0.,0.,0.007
 11698,0.,0.,-0.00058656,0.,0.,0.00469512,0.,0.,0.02289077,-0.00086757,
 0.00138066,0.,-0.00542791,-0.00241384,0.,-0.00941101,0.03032822,0.,-0.
 12456364,0.11786027,0.,0.01337388,-0.01498141,0.,-0.00133309,-0.003220
 02,0.,-0.00068701,-0.00084571,0.,0.00070682,-0.00040653,0.,0.12676086,
 0.00041659,-0.00001499,0.,-0.00197049,0.00224044,0.,-0.00108300,0.0030
 5717,0.,0.11874421,-0.28056310,0.,0.01543043,-0.01758796,0.,-0.0040937
 3,-0.00352445,0.,-0.00098573,0.00036097,0.,0.00025802,0.00053880,0.,-0
 .12760360,0.29531695,0.,0.,-0.00051707,0.,0.,0.00911993,0.,0.,0.001006
 37,0.,0.,-0.03629796,0.,0.,0.00306394,0.,0.,0.00630220,0.,0.,-0.000263
 79,0.,0.,-0.00388159,0.,0.,0.02589084,0.00015803,-0.00000467,0.,0.0004
 7111,0.00001730,0.,0.00076509,-0.00282090,0.,-0.01080956,0.00210262,0.
 ,-0.34715369,-0.00257175,0.,-0.01128858,-0.00238616,0.,0.00068237,0.00
 292239,0.,-0.00047943,0.00028727,0.,0.00074809,-0.00011166,0.,0.366645
 60,-0.00000472,0.00068021,0.,0.00001731,-0.00146339,0.,-0.00169442,-0.
 00498783,0.,-0.02915475,0.00456438,0.,-0.00257204,-0.05979369,0.,0.028
 87147,0.00504278,0.,0.00179592,-0.00490544,0.,-0.00127899,0.00031521,0
 .,0.00065086,0.00111305,0.,0.00276209,0.05799871,0.,0.,-0.00091927,0.,
 0.,-0.00071497,0.,0.,0.00685468,0.,0.,0.00114363,0.,0.,-0.03124827,0.,
 0.,0.00114363,0.,0.,0.00685422,0.,0.,0.00041199,0.,0.,-0.00366940,0.,0
 .,0.02340086,-0.00083533,-0.00139529,0.,-0.00550337,0.00227551,0.,-0.0
 0071942,0.00082628,0.,-0.00146462,0.00325688,0.,0.01337188,0.01553497,
 0.,-0.12038851,-0.11500046,0.,-0.00888407,-0.03054150,0.,0.00007627,-0
 .00010299,0.,0.00062827,0.00088124,0.,0.00075786,-0.00065716,0.,0.1222
 5689,-0.00043127,-0.00004736,0.,0.00183216,0.00231637,0.,0.00096642,0.
 00039340,0.,0.00413058,-0.00339322,0.,-0.01487709,-0.01758616,0.,-0.11
 588370,-0.28473979,0.,0.00086943,0.00253085,0.,-0.00011698,0.00003127,
 0.,-0.00085262,-0.00097209,0.,0.00010529,0.00110330,0.,0.12451292,0.29
 982206,0.,0.,-0.00051715,0.,0.,0.00912053,0.,0.,-0.00026378,0.,0.,0.00
 630174,0.,0.,0.00306386,0.,0.,-0.03629774,0.,0.,0.00100635,0.,0.,-0.00
 088979,0.,0.,0.00013631,0.,0.,-0.00366908,0.,0.,0.02589060,0.00195140,
 0.00006664,0.,0.01009316,-0.02000648,0.,-0.00242938,-0.00210140,0.,-0.
 00012654,-0.00060231,0.,-0.00462422,-0.00234872,0.,-0.00917730,0.02400
 293,0.,-0.16356994,0.15079322,0.,0.00068859,-0.00082892,0.,0.00007232,
 0.00011773,0.,-0.00049688,0.00126443,0.,0.00070412,-0.00025513,0.,0.16
 691465,0.00176512,0.00390532,0.,0.01921529,-0.03010927,0.,-0.00511788,
 -0.00197545,0.,-0.00080461,-0.00008168,0.,-0.00169407,0.00133270,0.,-0
 .00247590,0.00771026,0.,0.13814195,-0.24917884,0.,0.00086056,-0.001078
 62,0.,0.00010372,0.00003522,0.,-0.00030181,0.00033273,0.,0.00040960,0.
 00054138,0.,-0.15010196,0.26856624,0.,0.,-0.00422067,0.,0.,0.00403144,
 0.,0.,0.00469478,0.,0.,-0.00058662,0.,0.,0.00711743,0.,0.,0.00189761,0
 .,0.,-0.03177650,0.,0.,0.00031094,0.,0.,-0.00088977,0.,0.,0.00041198,0
 .,0.,-0.00388185,0.,0.,0.02289121\\-0.00026251,-0.00000119,0.,0.000349
 08,-0.00000255,0.,0.00005758,0.00011803,0.,-0.00005164,0.00013000,0.,0
 .00016859,-0.00000519,0.,-0.00005742,-0.00012478,0.,0.00007063,-0.0001
 0972,0.,-0.00006599,0.00009180,0.,-0.00004576,0.00001291,0.,-0.0000500
 6,0.00000040,0.,-0.00004439,-0.00001481,0.,-0.00006812,-0.00009487,0.\
 \\@


 DEFINE YOUR TERMS, YOU WILL PERMIT ME AGAIN TO SAY, 
 OR WE SHALL NEVER UNDERSTAND ONE ANOTHER.

                                    -- VOLTAIRE
 Job cpu time:       0 days  0 hours  2 minutes 52.3 seconds.
 Elapsed time:       0 days  0 hours  0 minutes  7.7 seconds.
 File lengths (MBytes):  RWF=     24 Int=      0 D2E=      0 Chk=      2 Scr=      1
 Normal termination of Gaussian 16 at Mon Oct 14 02:09:51 2019.
real 17.41
user 346.02
sys 6.95
Machine:
brown-a428
brown-a428
brown-a428
brown-a428
brown-a428
brown-a428
brown-a428
brown-a428
brown-a428
brown-a428
brown-a428
brown-a428
brown-a428
brown-a428
brown-a428
brown-a428
brown-a428
brown-a428
brown-a428
brown-a428
brown-a428
brown-a428
brown-a428
brown-a428
