Title Card Required                                                     
Freq      RB3LYP                                                      6-31G(d)            
Number of atoms                            I               29
Info1-9                                    I   N=           9
          68          68        1002           0           0         100
           6          18        -502
Full Title                                 C   N=           2
Title Card Required     
Route                                      C   N=           6
#P opt freq b3lyp/6-31g(d) geom=connectivity temperature=0.0
01          
Charge                                     I                0
Multiplicity                               I                1
Number of electrons                        I               98
Number of alpha electrons                  I               49
Number of beta electrons                   I               49
Number of basis functions                  I              205
Number of independent functions            I              205
Number of point charges in /Mol/           I                0
Number of translation vectors              I                0
Atomic numbers                             I   N=          29
           8          16           6           6           6           6
           6           6           6           6           8           1
           1           1           1           1           1           1
           1           1           1           1           1           1
           1           1           1           1           1
Nuclear charges                            R   N=          29
  8.00000000E+00  1.60000000E+01  6.00000000E+00  6.00000000E+00  6.00000000E+00
  6.00000000E+00  6.00000000E+00  6.00000000E+00  6.00000000E+00  6.00000000E+00
  8.00000000E+00  1.00000000E+00  1.00000000E+00  1.00000000E+00  1.00000000E+00
  1.00000000E+00  1.00000000E+00  1.00000000E+00  1.00000000E+00  1.00000000E+00
  1.00000000E+00  1.00000000E+00  1.00000000E+00  1.00000000E+00  1.00000000E+00
  1.00000000E+00  1.00000000E+00  1.00000000E+00  1.00000000E+00
Current cartesian coordinates              R   N=          87
  9.69256984E-02  2.03707605E+00  2.95932067E+00 -7.39620269E-02  2.04588619E+00
  1.77207065E-01  3.06177278E+00  1.37936993E+00 -1.08971240E+00  4.45626356E+00
 -7.95228606E-01  2.02625187E-01  7.18311236E+00 -1.06088809E+00 -7.58988566E-01
  8.60750606E+00 -3.23288125E+00  5.19184048E-01 -1.99991031E+00 -6.48800852E-01
 -7.78671933E-01 -4.72194400E+00 -3.30791619E-01  1.50589213E-01 -6.40333279E+00
 -2.56511951E+00 -6.23446484E-01 -9.13208588E+00 -2.26751588E+00  2.96980567E-01
 -1.03119083E+00  4.29141579E+00 -1.16557876E+00  2.82494447E+00  1.08992191E+00
 -3.12595531E+00  4.05135442E+00  3.17992010E+00 -8.25098193E-01  4.45452714E+00
 -4.65998613E-01  2.24745048E+00  3.44577923E+00 -2.58030805E+00 -1.16740612E-01
  7.16855373E+00 -1.35265590E+00 -2.81504063E+00  8.19632949E+00  7.21717614E-01
 -4.33876575E-01  7.67487522E+00 -5.05071416E+00  1.70431695E-01  1.05472023E+01
 -3.37418640E+00 -1.90145151E-01  8.70271157E+00 -2.95961710E+00  2.57082709E+00
 -1.90345039E+00 -7.43225086E-01 -2.84430819E+00 -1.11708361E+00 -2.34126716E+00
  1.98096358E-02 -4.70756324E+00 -1.36444702E-01  2.21344470E+00 -5.49100722E+00
  1.43364868E+00 -6.16164651E-01 -6.38543533E+00 -2.75941855E+00 -2.69114363E+00
 -5.60360670E+00 -4.32633120E+00  1.33035059E-01 -1.02954625E+01 -3.88126958E+00
 -2.76532035E-01 -9.21341815E+00 -2.13097074E+00  2.36288249E+00 -1.00000276E+01
 -5.53779423E-01 -4.79482207E-01
Number of symbols in /Mol/                 I                0
Force Field                                I                0
Atom Types                                 C   N=          29
                                                            
                                                            
                                                            
                                                            
                                                            
                                                
Int Atom Types                             I   N=          29
           0           0           0           0           0           0
           0           0           0           0           0           0
           0           0           0           0           0           0
           0           0           0           0           0           0
           0           0           0           0           0
MM charges                                 R   N=          29
  0.00000000E+00  0.00000000E+00  0.00000000E+00  0.00000000E+00  0.00000000E+00
  0.00000000E+00  0.00000000E+00  0.00000000E+00  0.00000000E+00  0.00000000E+00
  0.00000000E+00  0.00000000E+00  0.00000000E+00  0.00000000E+00  0.00000000E+00
  0.00000000E+00  0.00000000E+00  0.00000000E+00  0.00000000E+00  0.00000000E+00
  0.00000000E+00  0.00000000E+00  0.00000000E+00  0.00000000E+00  0.00000000E+00
  0.00000000E+00  0.00000000E+00  0.00000000E+00  0.00000000E+00
Integer atomic weights                     I   N=          29
          16          32          12          12          12          12
          12          12          12          12          16           1
           1           1           1           1           1           1
           1           1           1           1           1           1
           1           1           1           1           1
Real atomic weights                        R   N=          29
  1.59949146E+01  3.19720718E+01  1.20000000E+01  1.20000000E+01  1.20000000E+01
  1.20000000E+01  1.20000000E+01  1.20000000E+01  1.20000000E+01  1.20000000E+01
  1.59949146E+01  1.00782504E+00  1.00782504E+00  1.00782504E+00  1.00782504E+00
  1.00782504E+00  1.00782504E+00  1.00782504E+00  1.00782504E+00  1.00782504E+00
  1.00782504E+00  1.00782504E+00  1.00782504E+00  1.00782504E+00  1.00782504E+00
  1.00782504E+00  1.00782504E+00  1.00782504E+00  1.00782504E+00
Atom fragment info                         I   N=          29
           0           0           0           0           0           0
           0           0           0           0           0           0
           0           0           0           0           0           0
           0           0           0           0           0           0
           0           0           0           0           0
Atom residue num                           I   N=          29
           0           0           0           0           0           0
           0           0           0           0           0           0
           0           0           0           0           0           0
           0           0           0           0           0           0
           0           0           0           0           0
Nuclear spins                              I   N=          29
           0           0           0           0           0           0
           0           0           0           0           0           1
           1           1           1           1           1           1
           1           1           1           1           1           1
           1           1           1           1           1
Nuclear ZEff                               R   N=          29
 -5.60000000E+00 -1.36000000E+01 -3.60000000E+00 -3.60000000E+00 -3.60000000E+00
 -3.60000000E+00 -3.60000000E+00 -3.60000000E+00 -3.60000000E+00 -3.60000000E+00
 -5.60000000E+00 -1.00000000E+00 -1.00000000E+00 -1.00000000E+00 -1.00000000E+00
 -1.00000000E+00 -1.00000000E+00 -1.00000000E+00 -1.00000000E+00 -1.00000000E+00
 -1.00000000E+00 -1.00000000E+00 -1.00000000E+00 -1.00000000E+00 -1.00000000E+00
 -1.00000000E+00 -1.00000000E+00 -1.00000000E+00 -1.00000000E+00
Nuclear ZNuc                               R   N=          29
  8.00000000E+00  1.60000000E+01  6.00000000E+00  6.00000000E+00  6.00000000E+00
  6.00000000E+00  6.00000000E+00  6.00000000E+00  6.00000000E+00  6.00000000E+00
  8.00000000E+00  1.00000000E+00  1.00000000E+00  1.00000000E+00  1.00000000E+00
  1.00000000E+00  1.00000000E+00  1.00000000E+00  1.00000000E+00  1.00000000E+00
  1.00000000E+00  1.00000000E+00  1.00000000E+00  1.00000000E+00  1.00000000E+00
  1.00000000E+00  1.00000000E+00  1.00000000E+00  1.00000000E+00
Nuclear QMom                               R   N=          29
  0.00000000E+00  0.00000000E+00  0.00000000E+00  0.00000000E+00  0.00000000E+00
  0.00000000E+00  0.00000000E+00  0.00000000E+00  0.00000000E+00  0.00000000E+00
  0.00000000E+00  0.00000000E+00  0.00000000E+00  0.00000000E+00  0.00000000E+00
  0.00000000E+00  0.00000000E+00  0.00000000E+00  0.00000000E+00  0.00000000E+00
  0.00000000E+00  0.00000000E+00  0.00000000E+00  0.00000000E+00  0.00000000E+00
  0.00000000E+00  0.00000000E+00  0.00000000E+00  0.00000000E+00
Nuclear GFac                               R   N=          29
  0.00000000E+00  0.00000000E+00  0.00000000E+00  0.00000000E+00  0.00000000E+00
  0.00000000E+00  0.00000000E+00  0.00000000E+00  0.00000000E+00  0.00000000E+00
  0.00000000E+00  2.79284600E+00  2.79284600E+00  2.79284600E+00  2.79284600E+00
  2.79284600E+00  2.79284600E+00  2.79284600E+00  2.79284600E+00  2.79284600E+00
  2.79284600E+00  2.79284600E+00  2.79284600E+00  2.79284600E+00  2.79284600E+00
  2.79284600E+00  2.79284600E+00  2.79284600E+00  2.79284600E+00
MicOpt                                     I   N=          29
          -1          -1          -1          -1          -1          -1
          -1          -1          -1          -1          -1          -1
          -1          -1          -1          -1          -1          -1
          -1          -1          -1          -1          -1          -1
          -1          -1          -1          -1          -1
Number of residues                         I                0
Number of secondary structures             I                0
Redundant internal dimensions              I   N=           4
         154          28          54          72
Redundant internal coordinate indices      I   N=         616
           1           2           0           0           2           3
           0           0           2           7           0           0
           2          11           0           0           3           4
           0           0           3          12           0           0
           3          13           0           0           4           5
           0           0           4          14           0           0
           4          15           0           0           5           6
           0           0           5          16           0           0
           5          17           0           0           6          18
           0           0           6          19           0           0
           6          20           0           0           7           8
           0           0           7          21           0           0
           7          22           0           0           8           9
           0           0           8          23           0           0
           8          24           0           0           9          10
           0           0           9          25           0           0
           9          26           0           0          10          27
           0           0          10          28           0           0
          10          29           0           0           1           2
           3           0           1           2           7           0
           1           2          11           0           3           2
           7           0           3           2          11           0
           7           2          11           0           2           3
           4           0           2           3          12           0
           2           3          13           0           4           3
          12           0           4           3          13           0
          12           3          13           0           3           4
           5           0           3           4          14           0
           3           4          15           0           5           4
          14           0           5           4          15           0
          14           4          15           0           4           5
           6           0           4           5          16           0
           4           5          17           0           6           5
          16           0           6           5          17           0
          16           5          17           0           5           6
          18           0           5           6          19           0
           5           6          20           0          18           6
          19           0          18           6          20           0
          19           6          20           0           2           7
           8           0           2           7          21           0
           2           7          22           0           8           7
          21           0           8           7          22           0
          21           7          22           0           7           8
           9           0           7           8          23           0
           7           8          24           0           9           8
          23           0           9           8          24           0
          23           8          24           0           8           9
          10           0           8           9          25           0
           8           9          26           0          10           9
          25           0          10           9          26           0
          25           9          26           0           9          10
          27           0           9          10          28           0
           9          10          29           0          27          10
          28           0          27          10          29           0
          28          10          29           0           1           2
           3           4           1           2           3          12
           1           2           3          13           7           2
           3           4           7           2           3          12
           7           2           3          13          11           2
           3           4          11           2           3          12
          11           2           3          13           1           2
           7           8           1           2           7          21
           1           2           7          22           3           2
           7           8           3           2           7          21
           3           2           7          22          11           2
           7           8          11           2           7          21
          11           2           7          22           2           3
           4           5           2           3           4          14
           2           3           4          15          12           3
           4           5          12           3           4          14
          12           3           4          15          13           3
           4           5          13           3           4          14
          13           3           4          15           3           4
           5           6           3           4           5          16
           3           4           5          17          14           4
           5           6          14           4           5          16
          14           4           5          17          15           4
           5           6          15           4           5          16
          15           4           5          17           4           5
           6          18           4           5           6          19
           4           5           6          20          16           5
           6          18          16           5           6          19
          16           5           6          20          17           5
           6          18          17           5           6          19
          17           5           6          20           2           7
           8           9           2           7           8          23
           2           7           8          24          21           7
           8           9          21           7           8          23
          21           7           8          24          22           7
           8           9          22           7           8          23
          22           7           8          24           7           8
           9          10           7           8           9          25
           7           8           9          26          23           8
           9          10          23           8           9          25
          23           8           9          26          24           8
           9          10          24           8           9          25
          24           8           9          26           8           9
          10          27           8           9          10          28
           8           9          10          29          25           9
          10          27          25           9          10          28
          25           9          10          29          26           9
          10          27          26           9          10          28
          26           9          10          29
Redundant internal coordinates             R   N=         154
  2.78737086E+00  3.44705115E+00  3.44736417E+00  2.78599425E+00  2.88853246E+00
  2.07030263E+00  2.07153891E+00  2.90361505E+00  2.07116052E+00  2.07595321E+00
  2.89485353E+00  2.07670183E+00  2.07605151E+00  2.07266615E+00  2.07015380E+00
  2.07194994E+00  2.89380780E+00  2.07004193E+00  2.06915394E+00  2.90145147E+00
  2.07204013E+00  2.07186372E+00  2.89514202E+00  2.07688322E+00  2.07694313E+00
  2.07040163E+00  2.07200634E+00  2.07198212E+00  1.88647524E+00  1.88444950E+00
  2.09980791E+00  1.82881481E+00  1.86633903E+00  1.88014038E+00  2.00456978E+00
  1.85924168E+00  1.79214721E+00  1.97144276E+00  1.94613270E+00  1.87737940E+00
  1.95420859E+00  1.89825593E+00  1.92147444E+00  1.92015794E+00  1.90445519E+00
  1.86310408E+00  1.96547253E+00  1.91150561E+00  1.90489240E+00  1.91259109E+00
  1.91235445E+00  1.85365553E+00  1.94158396E+00  1.94009371E+00  1.93998636E+00
  1.87977956E+00  1.87859483E+00  1.88098236E+00  1.92897705E+00  1.86117017E+00
  1.86920504E+00  1.94903248E+00  1.94690282E+00  1.90485943E+00  1.95498596E+00
  1.90019715E+00  1.90065270E+00  1.91967439E+00  1.91981350E+00  1.86621190E+00
  1.96299587E+00  1.90990251E+00  1.90996688E+00  1.91160988E+00  1.91165007E+00
  1.85455682E+00  1.94059424E+00  1.93987432E+00  1.93981656E+00  1.88125761E+00
  1.88124748E+00  1.87831141E+00  7.86858733E-01  2.98350097E+00 -1.32884851E+00
 -1.21945157E+00  9.77190665E-01  2.94802649E+00  3.07106109E+00 -1.01548198E+00
  9.55353845E-01  1.14166658E+00 -3.01989716E+00 -9.82393307E-01 -3.13379406E+00
 -1.01217249E+00  1.02533136E+00 -1.15084215E+00  9.70779423E-01  3.00828327E+00
 -3.03236706E+00 -9.06701271E-01  1.12897305E+00  1.11356402E+00 -3.04395549E+00
 -1.00828117E+00 -1.00311173E+00  1.12255406E+00 -3.12495692E+00  3.14126916E+00
 -1.00908144E+00  1.01343979E+00  1.02821708E+00 -3.12213352E+00 -1.09961229E+00
 -1.01031386E+00  1.12252085E+00 -3.13814323E+00  1.05290814E+00 -3.13550809E+00
 -1.04028957E+00 -1.07931404E+00  1.01545503E+00  3.11067356E+00 -3.10667656E+00
 -1.01190748E+00  1.08331104E+00  3.14006148E+00 -1.01622750E+00  1.01267587E+00
  1.07121879E+00 -3.08507019E+00 -1.05616682E+00 -1.06557814E+00  1.06131819E+00
  3.09022156E+00  3.14139447E+00 -1.01302846E+00  1.01253530E+00  1.02569257E+00
 -3.12873036E+00 -1.10316660E+00 -1.02541384E+00  1.10334854E+00  3.12891230E+00
  3.14144267E+00 -1.04591514E+00  1.04566682E+00  1.01364892E+00  3.10947641E+00
 -1.08212693E+00 -1.01383830E+00  1.08198919E+00 -3.10961415E+00
ZRed-IntVec                                I   N=         154
           0           0           0           0           0           0
           0           0           0           0           0           0
           0           0           0           0           0           0
           0           0           0           0           0           0
           0           0           0           0           0           0
           0           0           0           0           0           0
           0           0           0           0           0           0
           0           0           0           0           0           0
           0           0           0           0           0           0
           0           0           0           0           0           0
           0           0           0           0           0           0
           0           0           0           0           0           0
           0           0           0           0           0           0
           0           0           0           0           0           0
           0           0           0           0           0           0
           0           0           0           0           0           0
           0           0           0           0           0           0
           0           0           0           0           0           0
           0           0           0           0           0           0
           0           0           0           0           0           0
           0           0           0           0           0           0
           0           0           0           0           0           0
           0           0           0           0           0           0
           0           0           0           0           0           0
           0           0           0           0           0           0
           0           0           0           0
ZRed-FPVec                                 R   N=         154
  0.00000000E+00  0.00000000E+00  0.00000000E+00  0.00000000E+00  0.00000000E+00
  0.00000000E+00  0.00000000E+00  0.00000000E+00  0.00000000E+00  0.00000000E+00
  0.00000000E+00  0.00000000E+00  0.00000000E+00  0.00000000E+00  0.00000000E+00
  0.00000000E+00  0.00000000E+00  0.00000000E+00  0.00000000E+00  0.00000000E+00
  0.00000000E+00  0.00000000E+00  0.00000000E+00  0.00000000E+00  0.00000000E+00
  0.00000000E+00  0.00000000E+00  0.00000000E+00  0.00000000E+00  0.00000000E+00
  0.00000000E+00  0.00000000E+00  0.00000000E+00  0.00000000E+00  0.00000000E+00
  0.00000000E+00  0.00000000E+00  0.00000000E+00  0.00000000E+00  0.00000000E+00
  0.00000000E+00  0.00000000E+00  0.00000000E+00  0.00000000E+00  0.00000000E+00
  0.00000000E+00  0.00000000E+00  0.00000000E+00  0.00000000E+00  0.00000000E+00
  0.00000000E+00  0.00000000E+00  0.00000000E+00  0.00000000E+00  0.00000000E+00
  0.00000000E+00  0.00000000E+00  0.00000000E+00  0.00000000E+00  0.00000000E+00
  0.00000000E+00  0.00000000E+00  0.00000000E+00  0.00000000E+00  0.00000000E+00
  0.00000000E+00  0.00000000E+00  0.00000000E+00  0.00000000E+00  0.00000000E+00
  0.00000000E+00  0.00000000E+00  0.00000000E+00  0.00000000E+00  0.00000000E+00
  0.00000000E+00  0.00000000E+00  0.00000000E+00  0.00000000E+00  0.00000000E+00
  0.00000000E+00  0.00000000E+00  0.00000000E+00  0.00000000E+00  0.00000000E+00
  0.00000000E+00  0.00000000E+00  0.00000000E+00  0.00000000E+00  0.00000000E+00
  0.00000000E+00  0.00000000E+00  0.00000000E+00  0.00000000E+00  0.00000000E+00
  0.00000000E+00  0.00000000E+00  0.00000000E+00  0.00000000E+00  0.00000000E+00
  0.00000000E+00  0.00000000E+00  0.00000000E+00  0.00000000E+00  0.00000000E+00
  0.00000000E+00  0.00000000E+00  0.00000000E+00  0.00000000E+00  0.00000000E+00
  0.00000000E+00  0.00000000E+00  0.00000000E+00  0.00000000E+00  0.00000000E+00
  0.00000000E+00  0.00000000E+00  0.00000000E+00  0.00000000E+00  0.00000000E+00
  0.00000000E+00  0.00000000E+00  0.00000000E+00  0.00000000E+00  0.00000000E+00
  0.00000000E+00  0.00000000E+00  0.00000000E+00  0.00000000E+00  0.00000000E+00
  0.00000000E+00  0.00000000E+00  0.00000000E+00  0.00000000E+00  0.00000000E+00
  0.00000000E+00  0.00000000E+00  0.00000000E+00  0.00000000E+00  0.00000000E+00
  0.00000000E+00  0.00000000E+00  0.00000000E+00  0.00000000E+00  0.00000000E+00
  0.00000000E+00  0.00000000E+00  0.00000000E+00  0.00000000E+00  0.00000000E+00
  0.00000000E+00  0.00000000E+00  0.00000000E+00  0.00000000E+00
ZRed-Constraint1                           R   N=         154
  2.78737086E+00  3.44705115E+00  3.44736417E+00  2.78599425E+00  2.88853246E+00
  2.07030263E+00  2.07153891E+00  2.90361505E+00  2.07116052E+00  2.07595321E+00
  2.89485353E+00  2.07670183E+00  2.07605151E+00  2.07266615E+00  2.07015380E+00
  2.07194994E+00  2.89380780E+00  2.07004193E+00  2.06915394E+00  2.90145147E+00
  2.07204013E+00  2.07186372E+00  2.89514202E+00  2.07688322E+00  2.07694313E+00
  2.07040163E+00  2.07200634E+00  2.07198212E+00  1.88647524E+00  1.88444950E+00
  2.09980791E+00  1.82881481E+00  1.86633903E+00  1.88014038E+00  2.00456978E+00
  1.85924168E+00  1.79214721E+00  1.97144276E+00  1.94613270E+00  1.87737940E+00
  1.95420859E+00  1.89825593E+00  1.92147444E+00  1.92015794E+00  1.90445519E+00
  1.86310408E+00  1.96547253E+00  1.91150561E+00  1.90489240E+00  1.91259109E+00
  1.91235445E+00  1.85365553E+00  1.94158396E+00  1.94009371E+00  1.93998636E+00
  1.87977956E+00  1.87859483E+00  1.88098236E+00  1.92897705E+00  1.86117017E+00
  1.86920504E+00  1.94903248E+00  1.94690282E+00  1.90485943E+00  1.95498596E+00
  1.90019715E+00  1.90065270E+00  1.91967439E+00  1.91981350E+00  1.86621190E+00
  1.96299587E+00  1.90990251E+00  1.90996688E+00  1.91160988E+00  1.91165007E+00
  1.85455682E+00  1.94059424E+00  1.93987432E+00  1.93981656E+00  1.88125761E+00
  1.88124748E+00  1.87831141E+00  7.86858733E-01  2.98350097E+00 -1.32884851E+00
 -1.21945157E+00  9.77190665E-01  2.94802649E+00  3.07106109E+00 -1.01548198E+00
  9.55353845E-01  1.14166658E+00 -3.01989716E+00 -9.82393307E-01 -3.13379406E+00
 -1.01217249E+00  1.02533136E+00 -1.15084215E+00  9.70779423E-01  3.00828327E+00
 -3.03236706E+00 -9.06701271E-01  1.12897305E+00  1.11356402E+00 -3.04395549E+00
 -1.00828117E+00 -1.00311173E+00  1.12255406E+00 -3.12495692E+00  3.14126916E+00
 -1.00908144E+00  1.01343979E+00  1.02821708E+00 -3.12213352E+00 -1.09961229E+00
 -1.01031386E+00  1.12252085E+00 -3.13814323E+00  1.05290814E+00 -3.13550809E+00
 -1.04028957E+00 -1.07931404E+00  1.01545503E+00  3.11067356E+00 -3.10667656E+00
 -1.01190748E+00  1.08331104E+00  3.14006148E+00 -1.01622750E+00  1.01267587E+00
  1.07121879E+00 -3.08507019E+00 -1.05616682E+00 -1.06557814E+00  1.06131819E+00
  3.09022156E+00  3.14139447E+00 -1.01302846E+00  1.01253530E+00  1.02569257E+00
 -3.12873036E+00 -1.10316660E+00 -1.02541384E+00  1.10334854E+00  3.12891230E+00
  3.14144267E+00 -1.04591514E+00  1.04566682E+00  1.01364892E+00  3.10947641E+00
 -1.08212693E+00 -1.01383830E+00  1.08198919E+00 -3.10961415E+00
ZRed-Constraint2                           R   N=         154
  3.03166781E+00  3.46879617E+00  3.46848455E+00  3.03137700E+00  2.92720091E+00
  2.05974864E+00  2.05984562E+00  2.93056410E+00  2.05976515E+00  2.05984874E+00
  2.92111008E+00  2.05981293E+00  2.05993328E+00  2.05976778E+00  2.05974770E+00
  2.05969836E+00  2.92458115E+00  2.05986923E+00  2.05973566E+00  2.93626436E+00
  2.05984812E+00  2.05993956E+00  2.91717084E+00  2.05990540E+00  2.05974041E+00
  2.05974061E+00  2.05993224E+00  2.05985311E+00  1.90652150E+00  1.91231372E+00
  1.89758237E+00  1.93337057E+00  1.90396361E+00  1.90970031E+00  1.94660804E+00
  1.90734087E+00  1.90733412E+00  1.80090355E+00  1.80083736E+00  2.09436311E+00
  1.98181662E+00  1.84797328E+00  1.84793950E+00  1.84870686E+00  1.84866163E+00
  2.09435225E+00  1.95387963E+00  1.85542977E+00  1.85534730E+00  1.85340612E+00
  1.85331535E+00  2.09434249E+00  1.91058040E+00  1.91065716E+00  1.91071488E+00
  1.91061298E+00  1.91057419E+00  1.91065981E+00  1.96513951E+00  1.90483918E+00
  1.90485713E+00  1.79524183E+00  1.79522234E+00  2.09437932E+00  1.95855564E+00
  1.85206331E+00  1.85209769E+00  1.85462529E+00  1.85462356E+00  2.09439002E+00
  1.96200987E+00  1.85463631E+00  1.85463489E+00  1.85048321E+00  1.85062537E+00
  2.09442643E+00  1.91063808E+00  1.91062330E+00  1.91066376E+00  1.91053987E+00
  1.91067296E+00  1.91066145E+00  1.06979467E+00  3.04971565E+00 -9.10042392E-01
 -1.03822466E+00  9.41696322E-01 -3.01806172E+00 -3.14134755E+00 -1.16142656E+00
  1.16200070E+00  1.03121369E+00  3.01308375E+00 -9.50643477E-01  3.13579492E+00
 -1.16552033E+00  1.15393775E+00 -1.04768248E+00  9.34187583E-01 -3.02953964E+00
  3.13943500E+00 -1.12275333E+00  1.11851380E+00  1.09397100E+00  3.11496798E+00
 -9.26950193E-01 -1.09833155E+00  9.22665435E-01 -3.11925274E+00 -3.13289014E+00
 -1.11630909E+00  1.13387101E+00  1.12973086E+00 -3.13687340E+00 -8.86693297E-01
 -1.11239488E+00  9.04186166E-01 -3.12881904E+00  5.19315202E-01  2.61366779E+00
 -1.57502522E+00 -1.49849823E+00  5.95854357E-01  2.69034666E+00  2.53697690E+00
 -1.65185582E+00  4.42636478E-01 -3.13416288E+00 -1.11569013E+00  1.13053141E+00
  1.10106528E+00  3.11953802E+00 -9.17425745E-01 -1.08619594E+00  9.32276804E-01
 -3.10468696E+00  3.13327129E+00 -1.13308688E+00  1.11627435E+00  1.11635055E+00
  3.13317768E+00 -9.00646391E-01 -1.13295310E+00  8.83874028E-01  3.13323526E+00
  2.86931732E+00 -1.31959035E+00  7.74851910E-01  8.49984139E-01  2.94426177E+00
 -1.24448127E+00 -1.39445178E+00  6.99825849E-01  2.79426811E+00
SymInf integers                            I   N=          26
           1           1           1           1           1           0
           0           0           0           0           0           0