 Entering Gaussian System, Link 0=/apps/cent7/gaussian/g16-A.03/g16-haswell/g16/g16
 Initial command:
 /apps/cent7/gaussian/g16-A.03/g16-haswell/g16/l1.exe "/scratch/brown/finej/gaussian/Gau-425183.inp" -scrdir="/scratch/brown/finej/gaussian/"
 Entering Link 1 = /apps/cent7/gaussian/g16-A.03/g16-haswell/g16/l1.exe PID=    425184.
  
 Copyright (c) 1988,1990,1992,1993,1995,1998,2003,2009,2016,
            Gaussian, Inc.  All Rights Reserved.
  
 This is part of the Gaussian(R) 16 program.  It is based on
 the Gaussian(R) 09 system (copyright 2009, Gaussian, Inc.),
 the Gaussian(R) 03 system (copyright 2003, Gaussian, Inc.),
 the Gaussian(R) 98 system (copyright 1998, Gaussian, Inc.),
 the Gaussian(R) 94 system (copyright 1995, Gaussian, Inc.),
 the Gaussian 92(TM) system (copyright 1992, Gaussian, Inc.),
 the Gaussian 90(TM) system (copyright 1990, Gaussian, Inc.),
 the Gaussian 88(TM) system (copyright 1988, Gaussian, Inc.),
 the Gaussian 86(TM) system (copyright 1986, Carnegie Mellon
 University), and the Gaussian 82(TM) system (copyright 1983,
 Carnegie Mellon University). Gaussian is a federally registered
 trademark of Gaussian, Inc.
  
 This software contains proprietary and confidential information,
 including trade secrets, belonging to Gaussian, Inc.
  
 This software is provided under written license and may be
 used, copied, transmitted, or stored only in accord with that
 written license.
  
 The following legend is applicable only to US Government
 contracts under FAR:
  
                    RESTRICTED RIGHTS LEGEND
  
 Use, reproduction and disclosure by the US Government is
 subject to restrictions as set forth in subparagraphs (a)
 and (c) of the Commercial Computer Software - Restricted
 Rights clause in FAR 52.227-19.
  
 Gaussian, Inc.
 340 Quinnipiac St., Bldg. 40, Wallingford CT 06492
  
  
 ---------------------------------------------------------------
 Warning -- This program may not be used in any manner that
 competes with the business of Gaussian, Inc. or will provide
 assistance to any competitor of Gaussian, Inc.  The licensee
 of this program is prohibited from giving any competitor of
 Gaussian, Inc. access to this program.  By using this program,
 the user acknowledges that Gaussian, Inc. is engaged in the
 business of creating and licensing software in the field of
 computational chemistry and represents and warrants to the
 licensee that it is not a competitor of Gaussian, Inc. and that
 it will not use this program in any manner prohibited above.
 ---------------------------------------------------------------
  

 Cite this work as:
 Gaussian 16, Revision A.03,
 M. J. Frisch, G. W. Trucks, H. B. Schlegel, G. E. Scuseria, 
 M. A. Robb, J. R. Cheeseman, G. Scalmani, V. Barone, 
 G. A. Petersson, H. Nakatsuji, X. Li, M. Caricato, A. V. Marenich, 
 J. Bloino, B. G. Janesko, R. Gomperts, B. Mennucci, H. P. Hratchian, 
 J. V. Ortiz, A. F. Izmaylov, J. L. Sonnenberg, D. Williams-Young, 
 F. Ding, F. Lipparini, F. Egidi, J. Goings, B. Peng, A. Petrone, 
 T. Henderson, D. Ranasinghe, V. G. Zakrzewski, J. Gao, N. Rega, 
 G. Zheng, W. Liang, M. Hada, M. Ehara, K. Toyota, R. Fukuda, 
 J. Hasegawa, M. Ishida, T. Nakajima, Y. Honda, O. Kitao, H. Nakai, 
 T. Vreven, K. Throssell, J. A. Montgomery, Jr., J. E. Peralta, 
 F. Ogliaro, M. J. Bearpark, J. J. Heyd, E. N. Brothers, K. N. Kudin, 
 V. N. Staroverov, T. A. Keith, R. Kobayashi, J. Normand, 
 K. Raghavachari, A. P. Rendell, J. C. Burant, S. S. Iyengar, 
 J. Tomasi, M. Cossi, J. M. Millam, M. Klene, C. Adamo, R. Cammi, 
 J. W. Ochterski, R. L. Martin, K. Morokuma, O. Farkas, 
 J. B. Foresman, and D. J. Fox, Gaussian, Inc., Wallingford CT, 2016.
 
 ******************************************
 Gaussian 16:  ES64L-G16RevA.03 25-Dec-2016
                14-Oct-2019 
 ******************************************
 %chk=30.chk
 %nprocshared=24
 Will use up to   24 processors via shared memory.
 %mem=80GB
 --------------------------------------------------------------
 #P opt freq b3lyp/6-31g(d) geom=connectivity temperature=0.001
 --------------------------------------------------------------
 1/18=20,19=15,26=3,38=1,57=2,112=-1000/1,3;
 2/9=110,12=2,17=6,18=5,40=1/2;
 3/5=1,6=6,7=1,11=2,25=1,30=1,71=1,74=-5/1,2,3;
 4//1;
 5/5=2,38=5/2;
 6/7=2,8=2,9=2,10=2,28=1/1;
 7//1,2,3,16;
 1/18=20,19=15,26=3/3(2);
 2/9=110/2;
 99//99;
 2/9=110/2;
 3/5=1,6=6,7=1,11=2,25=1,30=1,71=1,74=-5/1,2,3;
 4/5=5,16=3,69=1/1;
 5/5=2,38=5/2;
 7//1,2,3,16;
 1/18=20,19=15,26=3/3(-5);
 2/9=110/2;
 6/7=2,8=2,9=2,10=2,19=2,28=1/1;
 99/9=1/99;
 Leave Link    1 at Mon Oct 14 01:44:38 2019, MaxMem= 10737418240 cpu:               1.0 elap:               0.0
 (Enter /apps/cent7/gaussian/g16-A.03/g16-haswell/g16/l101.exe)
 -------------------
 Title Card Required
 -------------------
 Symbolic Z-matrix:
 Charge =  0 Multiplicity = 1
 O                     0.6932    3.9776   -2.7631 
 S                    -0.3548    2.763    -2.7494 
 C                    -0.1029    1.73     -4.2457 
 C                     1.3196    1.1179   -4.2811 
 C                     1.5822    0.2322   -5.5267 
 C                     3.0063   -0.3689   -5.5184 
 C                    -0.1226    1.7679   -1.2247 
 C                    -0.3176    2.6013    0.0647 
 C                    -0.1087    1.7531    1.3497 
 C                    -0.2906    2.5828    2.6387 
 O                    -1.8414    3.3653   -2.7719 
 H                    -0.7492    0.854    -4.1913 
 H                    -0.1215    2.3669   -5.1301 
 H                     2.0052    1.9612   -4.3639 
 H                     1.3784    0.4501   -3.4216 
 H                     0.8958   -0.6113   -5.4527 
 H                     1.5379    0.8968   -6.3896 
 H                     3.3359   -0.508    -4.4888 
 H                     2.9975   -1.3312   -6.0302 
 H                     3.6897    0.3086   -6.0302 
 H                    -0.9188    1.0265   -1.1571 
 H                     0.9196    1.4561   -1.1567 
 H                     0.473     3.3517    0.0624 
 H                    -1.3628    2.9108    0.0698 
 H                    -0.9045    1.0082    1.3565 
 H                     0.9342    1.4364    1.3402 
 H                    -0.4105    1.9115    3.489 
 H                     0.5865    3.2114    2.793 
 H                    -1.1761    3.2114    2.5443 
 
 ITRead=  0  0  0  0  0  0  0  0  0  0  0  0  0  0  0  0  0  0  0  0
 ITRead=  0  0  0  0  0  0  0  0  0
 MicOpt= -1 -1 -1 -1 -1 -1 -1 -1 -1 -1 -1 -1 -1 -1 -1 -1 -1 -1 -1 -1
 MicOpt= -1 -1 -1 -1 -1 -1 -1 -1 -1
 NAtoms=     29 NQM=       29 NQMF=       0 NMMI=      0 NMMIF=      0
                NMic=       0 NMicF=      0.
                    Isotopes and Nuclear Properties:
 (Nuclear quadrupole moments (NQMom) in fm**2, nuclear magnetic moments (NMagM)
  in nuclear magnetons)

  Atom         1           2           3           4           5           6           7           8           9          10
 IAtWgt=          16          32          12          12          12          12          12          12          12          12
 AtmWgt=  15.9949146  31.9720718  12.0000000  12.0000000  12.0000000  12.0000000  12.0000000  12.0000000  12.0000000  12.0000000
 NucSpn=           0           0           0           0           0           0           0           0           0           0
 AtZEff=  -0.0000000  -0.0000000  -0.0000000  -0.0000000  -0.0000000  -0.0000000  -0.0000000  -0.0000000  -0.0000000  -0.0000000
 NQMom=    0.0000000   0.0000000   0.0000000   0.0000000   0.0000000   0.0000000   0.0000000   0.0000000   0.0000000   0.0000000
 NMagM=    0.0000000   0.0000000   0.0000000   0.0000000   0.0000000   0.0000000   0.0000000   0.0000000   0.0000000   0.0000000
 AtZNuc=   8.0000000  16.0000000   6.0000000   6.0000000   6.0000000   6.0000000   6.0000000   6.0000000   6.0000000   6.0000000

  Atom        11          12          13          14          15          16          17          18          19          20
 IAtWgt=          16           1           1           1           1           1           1           1           1           1
 AtmWgt=  15.9949146   1.0078250   1.0078250   1.0078250   1.0078250   1.0078250   1.0078250   1.0078250   1.0078250   1.0078250
 NucSpn=           0           1           1           1           1           1           1           1           1           1
 AtZEff=  -0.0000000  -0.0000000  -0.0000000  -0.0000000  -0.0000000  -0.0000000  -0.0000000  -0.0000000  -0.0000000  -0.0000000
 NQMom=    0.0000000   0.0000000   0.0000000   0.0000000   0.0000000   0.0000000   0.0000000   0.0000000   0.0000000   0.0000000
 NMagM=    0.0000000   2.7928460   2.7928460   2.7928460   2.7928460   2.7928460   2.7928460   2.7928460   2.7928460   2.7928460
 AtZNuc=   8.0000000   1.0000000   1.0000000   1.0000000   1.0000000   1.0000000   1.0000000   1.0000000   1.0000000   1.0000000

  Atom        21          22          23          24          25          26          27          28          29
 IAtWgt=           1           1           1           1           1           1           1           1           1
 AtmWgt=   1.0078250   1.0078250   1.0078250   1.0078250   1.0078250   1.0078250   1.0078250   1.0078250   1.0078250
 NucSpn=           1           1           1           1           1           1           1           1           1
 AtZEff=  -0.0000000  -0.0000000  -0.0000000  -0.0000000  -0.0000000  -0.0000000  -0.0000000  -0.0000000  -0.0000000
 NQMom=    0.0000000   0.0000000   0.0000000   0.0000000   0.0000000   0.0000000   0.0000000   0.0000000   0.0000000
 NMagM=    2.7928460   2.7928460   2.7928460   2.7928460   2.7928460   2.7928460   2.7928460   2.7928460   2.7928460
 AtZNuc=   1.0000000   1.0000000   1.0000000   1.0000000   1.0000000   1.0000000   1.0000000   1.0000000   1.0000000
 Leave Link  101 at Mon Oct 14 01:44:38 2019, MaxMem= 10737418240 cpu:               8.4 elap:               0.4
 (Enter /apps/cent7/gaussian/g16-A.03/g16-haswell/g16/l103.exe)

 GradGradGradGradGradGradGradGradGradGradGradGradGradGradGradGradGradGrad
 Berny optimization.
 Initialization pass.
                           ----------------------------
                           !    Initial Parameters    !
                           ! (Angstroms and Degrees)  !
 --------------------------                            --------------------------
 ! Name  Definition              Value          Derivative Info.                !
 --------------------------------------------------------------------------------
 ! R1    R(1,2)                  1.6043         estimate D2E/DX2                !
 ! R2    R(2,3)                  1.8356         estimate D2E/DX2                !
 ! R3    R(2,7)                  1.8354         estimate D2E/DX2                !
 ! R4    R(2,11)                 1.6041         estimate D2E/DX2                !
 ! R5    R(3,4)                  1.549          estimate D2E/DX2                !
 ! R6    R(3,12)                 1.09           estimate D2E/DX2                !
 ! R7    R(3,13)                 1.09           estimate D2E/DX2                !
 ! R8    R(4,5)                  1.5508         estimate D2E/DX2                !
 ! R9    R(4,14)                 1.09           estimate D2E/DX2                !
 ! R10   R(4,15)                 1.09           estimate D2E/DX2                !
 ! R11   R(5,6)                  1.5458         estimate D2E/DX2                !
 ! R12   R(5,16)                 1.09           estimate D2E/DX2                !
 ! R13   R(5,17)                 1.0901         estimate D2E/DX2                !
 ! R14   R(6,18)                 1.09           estimate D2E/DX2                !
 ! R15   R(6,19)                 1.09           estimate D2E/DX2                !
 ! R16   R(6,20)                 1.0899         estimate D2E/DX2                !
 ! R17   R(7,8)                  1.5476         estimate D2E/DX2                !
 ! R18   R(7,21)                 1.09           estimate D2E/DX2                !
 ! R19   R(7,22)                 1.09           estimate D2E/DX2                !
 ! R20   R(8,9)                  1.5538         estimate D2E/DX2                !
 ! R21   R(8,23)                 1.09           estimate D2E/DX2                !
 ! R22   R(8,24)                 1.0901         estimate D2E/DX2                !
 ! R23   R(9,10)                 1.5437         estimate D2E/DX2                !
 ! R24   R(9,25)                 1.0901         estimate D2E/DX2                !
 ! R25   R(9,26)                 1.09           estimate D2E/DX2                !
 ! R26   R(10,27)                1.09           estimate D2E/DX2                !
 ! R27   R(10,28)                1.0901         estimate D2E/DX2                !
 ! R28   R(10,29)                1.09           estimate D2E/DX2                !
 ! A1    A(1,2,3)              109.2356         estimate D2E/DX2                !
 ! A2    A(1,2,7)              109.5675         estimate D2E/DX2                !
 ! A3    A(1,2,11)             108.7235         estimate D2E/DX2                !
 ! A4    A(3,2,7)              110.774          estimate D2E/DX2                !
 ! A5    A(3,2,11)             109.0891         estimate D2E/DX2                !
 ! A6    A(7,2,11)             109.4178         estimate D2E/DX2                !
 ! A7    A(2,3,4)              111.5324         estimate D2E/DX2                !
 ! A8    A(2,3,12)             109.2826         estimate D2E/DX2                !
 ! A9    A(2,3,13)             109.2822         estimate D2E/DX2                !
 ! A10   A(4,3,12)             103.1842         estimate D2E/DX2                !
 ! A11   A(4,3,13)             103.1804         estimate D2E/DX2                !
 ! A12   A(12,3,13)            119.9982         estimate D2E/DX2                !
 ! A13   A(3,4,5)              113.5497         estimate D2E/DX2                !
 ! A14   A(3,4,14)             105.8811         estimate D2E/DX2                !
 ! A15   A(3,4,15)             105.8791         estimate D2E/DX2                !
 ! A16   A(5,4,14)             105.9231         estimate D2E/DX2                !
 ! A17   A(5,4,15)             105.9205         estimate D2E/DX2                !
 ! A18   A(14,4,15)            119.9975         estimate D2E/DX2                !
 ! A19   A(4,5,6)              111.9491         estimate D2E/DX2                !
 ! A20   A(4,5,16)             106.3083         estimate D2E/DX2                !
 ! A21   A(4,5,17)             106.3036         estimate D2E/DX2                !
 ! A22   A(6,5,16)             106.1923         estimate D2E/DX2                !
 ! A23   A(6,5,17)             106.1871         estimate D2E/DX2                !
 ! A24   A(16,5,17)            119.997          estimate D2E/DX2                !
 ! A25   A(5,6,18)             109.4682         estimate D2E/DX2                !
 ! A26   A(5,6,19)             109.4726         estimate D2E/DX2                !
 ! A27   A(5,6,20)             109.4759         estimate D2E/DX2                !
 ! A28   A(18,6,19)            109.4701         estimate D2E/DX2                !
 ! A29   A(18,6,20)            109.4678         estimate D2E/DX2                !
 ! A30   A(19,6,20)            109.4727         estimate D2E/DX2                !
 ! A31   A(2,7,8)              112.5942         estimate D2E/DX2                !
 ! A32   A(2,7,21)             109.1392         estimate D2E/DX2                !
 ! A33   A(2,7,22)             109.1403         estimate D2E/DX2                !
 ! A34   A(8,7,21)             102.8598         estimate D2E/DX2                !
 ! A35   A(8,7,22)             102.8587         estimate D2E/DX2                !
 ! A36   A(21,7,22)            119.9991         estimate D2E/DX2                !
 ! A37   A(7,8,9)              112.217          estimate D2E/DX2                !
 ! A38   A(7,8,23)             106.1154         estimate D2E/DX2                !
 ! A39   A(7,8,24)             106.1174         estimate D2E/DX2                !
 ! A40   A(9,8,23)             106.2622         estimate D2E/DX2                !
 ! A41   A(9,8,24)             106.2621         estimate D2E/DX2                !
 ! A42   A(23,8,24)            119.9997         estimate D2E/DX2                !
 ! A43   A(8,9,10)             112.4149         estimate D2E/DX2                !
 ! A44   A(8,9,25)             106.2628         estimate D2E/DX2                !
 ! A45   A(8,9,26)             106.2628         estimate D2E/DX2                !
 ! A46   A(10,9,25)            106.0249         estimate D2E/DX2                !
 ! A47   A(10,9,26)            106.033          estimate D2E/DX2                !
 ! A48   A(25,9,26)            120.0018         estimate D2E/DX2                !
 ! A49   A(9,10,27)            109.4715         estimate D2E/DX2                !
 ! A50   A(9,10,28)            109.4707         estimate D2E/DX2                !
 ! A51   A(9,10,29)            109.473          estimate D2E/DX2                !
 ! A52   A(27,10,28)           109.4659         estimate D2E/DX2                !
 ! A53   A(27,10,29)           109.4735         estimate D2E/DX2                !
 ! A54   A(28,10,29)           109.4728         estimate D2E/DX2                !
 ! D1    D(1,2,3,4)             61.2947         estimate D2E/DX2                !
 ! D2    D(1,2,3,12)           174.7358         estimate D2E/DX2                !
 ! D3    D(1,2,3,13)           -52.1416         estimate D2E/DX2                !
 ! D4    D(7,2,3,4)            -59.4859         estimate D2E/DX2                !
 ! D5    D(7,2,3,12)            53.9552         estimate D2E/DX2                !
 ! D6    D(7,2,3,13)          -172.9222         estimate D2E/DX2                !
 ! D7    D(11,2,3,4)          -179.986          estimate D2E/DX2                !
 ! D8    D(11,2,3,12)          -66.5448         estimate D2E/DX2                !
 ! D9    D(11,2,3,13)           66.5777         estimate D2E/DX2                !
 ! D10   D(1,2,7,8)             59.0842         estimate D2E/DX2                !
 ! D11   D(1,2,7,21)           172.637          estimate D2E/DX2                !
 ! D12   D(1,2,7,22)           -54.4679         estimate D2E/DX2                !
 ! D13   D(3,2,7,8)            179.6678         estimate D2E/DX2                !
 ! D14   D(3,2,7,21)           -66.7794         estimate D2E/DX2                !
 ! D15   D(3,2,7,22)            66.1158         estimate D2E/DX2                !
 ! D16   D(11,2,7,8)           -60.0278         estimate D2E/DX2                !
 ! D17   D(11,2,7,21)           53.525          estimate D2E/DX2                !
 ! D18   D(11,2,7,22)         -173.5798         estimate D2E/DX2                !
 ! D19   D(2,3,4,5)            179.8764         estimate D2E/DX2                !
 ! D20   D(2,3,4,14)           -64.329          estimate D2E/DX2                !
 ! D21   D(2,3,4,15)            64.0861         estimate D2E/DX2                !
 ! D22   D(12,3,4,5)            62.6799         estimate D2E/DX2                !
 ! D23   D(12,3,4,14)          178.4745         estimate D2E/DX2                !
 ! D24   D(12,3,4,15)          -53.1103         estimate D2E/DX2                !
 ! D25   D(13,3,4,5)           -62.9298         estimate D2E/DX2                !
 ! D26   D(13,3,4,14)           52.8648         estimate D2E/DX2                !
 ! D27   D(13,3,4,15)         -178.72           estimate D2E/DX2                !
 ! D28   D(3,4,5,6)           -179.5014         estimate D2E/DX2                !
 ! D29   D(3,4,5,16)           -63.9598         estimate D2E/DX2                !
 ! D30   D(3,4,5,17)            64.966          estimate D2E/DX2                !
 ! D31   D(14,4,5,6)            64.7288         estimate D2E/DX2                !
 ! D32   D(14,4,5,16)         -179.7296         estimate D2E/DX2                !
 ! D33   D(14,4,5,17)          -50.8038         estimate D2E/DX2                !
 ! D34   D(15,4,5,6)           -63.7355         estimate D2E/DX2                !
 ! D35   D(15,4,5,16)           51.8061         estimate D2E/DX2                !
 ! D36   D(15,4,5,17)         -179.2681         estimate D2E/DX2                !
 ! D37   D(4,5,6,18)            29.7546         estimate D2E/DX2                !
 ! D38   D(4,5,6,19)           149.7521         estimate D2E/DX2                !
 ! D39   D(4,5,6,20)           -90.2423         estimate D2E/DX2                !
 ! D40   D(16,5,6,18)          -85.8576         estimate D2E/DX2                !
 ! D41   D(16,5,6,19)           34.1399         estimate D2E/DX2                !
 ! D42   D(16,5,6,20)          154.1455         estimate D2E/DX2                !
 ! D43   D(17,5,6,18)          145.3581         estimate D2E/DX2                !
 ! D44   D(17,5,6,19)          -94.6444         estimate D2E/DX2                !
 ! D45   D(17,5,6,20)           25.3612         estimate D2E/DX2                !
 ! D46   D(2,7,8,9)           -179.5743         estimate D2E/DX2                !
 ! D47   D(2,7,8,23)           -63.9243         estimate D2E/DX2                !
 ! D48   D(2,7,8,24)            64.7747         estimate D2E/DX2                !
 ! D49   D(21,7,8,9)            63.0864         estimate D2E/DX2                !
 ! D50   D(21,7,8,23)          178.7364         estimate D2E/DX2                !
 ! D51   D(21,7,8,24)          -52.5646         estimate D2E/DX2                !
 ! D52   D(22,7,8,9)           -62.2344         estimate D2E/DX2                !
 ! D53   D(22,7,8,23)           53.4155         estimate D2E/DX2                !
 ! D54   D(22,7,8,24)         -177.8855         estimate D2E/DX2                !
 ! D55   D(7,8,9,10)           179.5232         estimate D2E/DX2                !
 ! D56   D(7,8,9,25)           -64.9211         estimate D2E/DX2                !
 ! D57   D(7,8,9,26)            63.9578         estimate D2E/DX2                !
 ! D58   D(23,8,9,10)           63.9622         estimate D2E/DX2                !
 ! D59   D(23,8,9,25)          179.5179         estimate D2E/DX2                !
 ! D60   D(23,8,9,26)          -51.6032         estimate D2E/DX2                !
 ! D61   D(24,8,9,10)          -64.9134         estimate D2E/DX2                !
 ! D62   D(24,8,9,25)           50.6423         estimate D2E/DX2                !
 ! D63   D(24,8,9,26)          179.5212         estimate D2E/DX2                !
 ! D64   D(8,9,10,27)          164.3998         estimate D2E/DX2                !
 ! D65   D(8,9,10,28)          -75.607          estimate D2E/DX2                !
 ! D66   D(8,9,10,29)           44.3957         estimate D2E/DX2                !
 ! D67   D(25,9,10,27)          48.7005         estimate D2E/DX2                !
 ! D68   D(25,9,10,28)         168.6938         estimate D2E/DX2                !
 ! D69   D(25,9,10,29)         -71.3035         estimate D2E/DX2                !
 ! D70   D(26,9,10,27)         -79.8962         estimate D2E/DX2                !
 ! D71   D(26,9,10,28)          40.0971         estimate D2E/DX2                !
 ! D72   D(26,9,10,29)         160.0998         estimate D2E/DX2                !
 --------------------------------------------------------------------------------
 Trust Radius=3.00D-01 FncErr=1.00D-07 GrdErr=1.00D-06 EigMax=2.50D+02 EigMin=1.00D-04
 Number of steps in this run=    164 maximum allowed number of steps=    174.
 GradGradGradGradGradGradGradGradGradGradGradGradGradGradGradGradGradGrad

 Leave Link  103 at Mon Oct 14 01:44:38 2019, MaxMem= 10737418240 cpu:               0.3 elap:               0.0
 (Enter /apps/cent7/gaussian/g16-A.03/g16-haswell/g16/l202.exe)
                          Input orientation:                          
 ---------------------------------------------------------------------
 Center     Atomic      Atomic             Coordinates (Angstroms)
 Number     Number       Type             X           Y           Z
 ---------------------------------------------------------------------
      1          8           0        0.693200    3.977600   -2.763100
      2         16           0       -0.354800    2.763000   -2.749400
      3          6           0       -0.102900    1.730000   -4.245700
      4          6           0        1.319600    1.117900   -4.281100
      5          6           0        1.582200    0.232200   -5.526700
      6          6           0        3.006300   -0.368900   -5.518400
      7          6           0       -0.122600    1.767900   -1.224700
      8          6           0       -0.317600    2.601300    0.064700
      9          6           0       -0.108700    1.753100    1.349700
     10          6           0       -0.290600    2.582800    2.638700
     11          8           0       -1.841400    3.365300   -2.771900
     12          1           0       -0.749200    0.854000   -4.191300
     13          1           0       -0.121500    2.366900   -5.130100
     14          1           0        2.005200    1.961200   -4.363900
     15          1           0        1.378400    0.450100   -3.421600
     16          1           0        0.895800   -0.611300   -5.452700
     17          1           0        1.537900    0.896800   -6.389600
     18          1           0        3.335900   -0.508000   -4.488800
     19          1           0        2.997500   -1.331200   -6.030200
     20          1           0        3.689700    0.308600   -6.030200
     21          1           0       -0.918800    1.026500   -1.157100
     22          1           0        0.919600    1.456100   -1.156700
     23          1           0        0.473000    3.351700    0.062400
     24          1           0       -1.362800    2.910800    0.069800
     25          1           0       -0.904500    1.008200    1.356500
     26          1           0        0.934200    1.436400    1.340200
     27          1           0       -0.410500    1.911500    3.489000
     28          1           0        0.586500    3.211400    2.793000
     29          1           0       -1.176100    3.211400    2.544300
 ---------------------------------------------------------------------
                    Distance matrix (angstroms):
                    1          2          3          4          5
     1  O    0.000000
     2  S    1.604290   0.000000
     3  C    2.807772   1.835608   0.000000
     4  C    3.297664   2.802869   1.549008   0.000000
     5  C    4.738758   4.227329   2.593054   1.550788   0.000000
     6  C    5.642178   5.364061   3.961347   2.566407   1.545785
     7  C    2.813357   1.835443   3.021302   3.441514   4.875646
     8  C    3.303388   2.818987   4.402818   4.875128   6.362832
     9  C    4.744109   4.228840   5.595451   5.843751   7.242731
    10  C    5.665048   5.391495   6.939558   7.254124   8.700946
    11  O    2.607525   1.604136   2.805116   4.161780   5.396876
    12  H    3.725205   2.424646   1.089972   2.087496   2.757781
    13  H    2.976706   2.424677   1.090023   2.087480   2.759860
    14  H    2.889597   2.969696   2.124032   1.089981   2.126141
    15  H    3.653269   2.967380   2.124037   1.090025   2.126138
    16  H    5.322875   4.500859   2.817079   2.131287   1.090006
    17  H    4.832841   4.507335   2.825377   2.131270   1.090070
    18  H    5.484753   5.229361   4.110120   2.598491   2.168086
    19  H    6.645833   6.226077   4.708276   3.445692   2.168134
    20  H    5.754521   5.757231   4.425905   3.054782   2.168157
    21  H    3.726496   2.422591   3.271094   3.844238   5.096991
    22  H    2.998290   2.422556   3.265340   3.168005   4.586270
    23  H    2.902359   2.989655   4.639105   4.957074   6.496125
    24  H    3.659306   2.997632   4.648137   5.416649   6.867950
    25  H    5.323635   4.498879   5.705103   6.061451   7.359640
    26  H    4.832479   4.488454   5.688942   5.643491   7.001737
    27  H    6.676502   6.296490   7.742942   7.999844   9.384761
    28  H    5.609696   5.639619   7.225864   7.413708   8.892944
    29  H    5.678894   5.375766   7.032098   7.562893   9.034650
                    6          7          8          9         10
     6  C    0.000000
     7  C    5.726412   0.000000
     8  C    7.144327   1.547622   0.000000
     9  C    7.834341   2.574480   1.553804   0.000000
    10  C    9.280106   3.951980   2.574208   1.543700   0.000000
    11  O    6.707288   2.810656   3.309375   4.752791   5.682594
    12  H    4.166588   3.166790   4.620917   5.649894   7.060309
    13  H    4.173549   3.951070   5.203782   6.508819   7.773639
    14  H    2.786474   3.797298   5.041590   6.095663   7.395505
    15  H    2.778019   2.969169   4.433775   5.164744   6.637862
    16  H    2.125390   4.957188   6.498834   7.271317   8.779554
    17  H    2.125367   5.494749   6.928650   7.958725   9.364625
    18  H    1.089982   5.272124   6.614391   7.146043   8.573553
    19  H    1.089972   6.514006   7.975102   8.580461  10.063837
    20  H    1.089945   6.305237   7.646093   8.424805   9.806355
    21  H    6.031127   1.090036   2.081882   2.732811   4.150277
    22  H    5.168111   1.089965   2.081818   2.725372   4.139939
    23  H    7.169784   2.125979   1.090025   2.133316   2.794926
    24  H    7.814950   2.126040   1.090073   2.133350   2.802935
    25  H    8.028388   2.801982   2.133346   1.090055   2.121385
    26  H    7.388714   2.793820   2.133283   1.089968   2.121431
    27  H    9.899899   4.724667   3.494322   2.166282   1.089968
    28  H    9.367676   4.327635   2.938238   2.166346   1.090069
    29  H    9.763101   4.171201   2.694005   2.166345   1.090027
                   11         12         13         14         15
    11  O    0.000000
    12  H    3.084514   0.000000
    13  H    3.084796   1.887914   0.000000
    14  H    4.393437   2.973618   2.296630   0.000000
    15  H    4.391767   2.298316   2.973684   1.887917   0.000000
    16  H    5.521983   2.538555   3.163644   3.005663   2.341974
    17  H    5.531809   3.172567   2.549734   2.335546   3.005662
    18  H    6.689890   4.316433   4.542018   2.807723   2.426660
    19  H    7.489231   4.711095   4.920801   3.821140   3.549550
    20  H    7.110063   4.835581   4.424028   2.888803   3.488112
    21  H    2.988102   3.043828   4.268148   4.439257   3.276786
    22  H    3.725189   3.515141   4.207298   3.423417   2.520378
    23  H    3.659220   5.081953   5.318394   4.886027   4.623558
    24  H    2.917342   4.771153   5.373603   5.648262   5.075342
    25  H    4.845347   5.552115   6.673465   6.488262   5.324786
    26  H    5.322967   5.811241   6.621564   5.827453   4.883118
    27  H    6.584822   7.760157   8.635959   8.216211   7.286443
    28  H    6.073425   7.491454   7.999372   7.402495   6.846396
    29  H    5.359878   7.148978   7.792418   7.707587   7.052816
                   16         17         18         19         20
    16  H    0.000000
    17  H    1.887972   0.000000
    18  H    2.625617   2.969732   0.000000
    19  H    2.295410   2.687673   1.779912   0.000000
    20  H    2.997599   2.259511   1.779866   1.779911   0.000000
    21  H    4.942402   5.781977   5.617596   6.681561   6.745425
    22  H    4.767633   5.298901   4.560601   5.986461   5.721994
    23  H    6.804444   6.984902   6.618678   8.088413   7.531759
    24  H    6.928526   7.361665   7.385581   8.614916   8.337218
    25  H    7.226968   8.122795   7.378847   8.675352   8.726938
    26  H    7.094931   7.772093   6.597431   8.138772   7.949057
    27  H    9.382161  10.119912   9.139737  10.618132  10.487902
    28  H    9.093969   9.517493   8.626572  10.212590   9.793108
    29  H    9.102627   9.619654   9.146397  10.562964  10.277369
                   21         22         23         24         25
    21  H    0.000000
    22  H    1.887928   0.000000
    23  H    2.971673   2.297598   0.000000
    24  H    2.291944   2.971499   1.888017   0.000000
    25  H    2.513707   3.137536   3.010680   2.342119   0.000000
    26  H    3.136580   2.497020   2.348159   3.010645   1.887972
    27  H    4.756873   4.853770   3.820515   3.687330   2.368025
    28  H    4.758467   4.334993   2.736557   3.362432   3.023360
    29  H    4.305851   4.601134   2.983126   2.499673   2.517683
                   26         27         28         29
    26  H    0.000000
    27  H    2.579007   0.000000
    28  H    2.319946   1.779934   0.000000
    29  H    3.008961   1.779984   1.780059   0.000000
 Stoichiometry    C8H18O2S
 Framework group  C1[X(C8H18O2S)]
 Deg. of freedom    81
 Full point group                 C1      NOp   1
 Largest Abelian subgroup         C1      NOp   1
 Largest concise Abelian subgroup C1      NOp   1
                         Standard orientation:                         
 ---------------------------------------------------------------------
 Center     Atomic      Atomic             Coordinates (Angstroms)
 Number     Number       Type             X           Y           Z
 ---------------------------------------------------------------------
      1          8           0       -0.008065    1.300967    1.621483
      2         16           0       -0.001684    1.099439    0.029915
      3          6           0        1.726522    0.866527   -0.543246
      4          6           0        2.370235   -0.392749    0.088643
      5          6           0        3.832479   -0.636071   -0.366966
      6          6           0        4.433886   -1.906997    0.275300
      7          6           0       -1.034724   -0.352505   -0.410014
      8          6           0       -2.501155   -0.203757    0.061777
      9          6           0       -3.365024   -1.441894   -0.305718
     10          6           0       -4.826006   -1.303392    0.173198
     11          8           0       -0.609819    2.414748   -0.658115
     12          1           0        1.724491    0.636657   -1.608701
     13          1           0        2.344743    1.679437   -0.162286
     14          1           0        2.419412   -0.197017    1.159778
     15          1           0        1.795751   -1.240569   -0.284617
     16          1           0        3.791106   -0.827796   -1.439180
     17          1           0        4.415429    0.202248    0.014666
     18          1           0        3.639458   -2.628639    0.465506
     19          1           0        5.167315   -2.344222   -0.402161
     20          1           0        4.918842   -1.644406    1.215431
     21          1           0       -1.132945   -0.405870   -1.494303
     22          1           0       -0.686955   -1.221116    0.149089
     23          1           0       -2.466520   -0.168052    1.150667
     24          1           0       -2.915610    0.634686   -0.498132
     25          1           0       -3.406902   -1.472591   -1.394536
     26          1           0       -2.945252   -2.282024    0.247456
     27          1           0       -5.446302   -2.042098   -0.334323
     28          1           0       -4.872615   -1.467910    1.249772
     29          1           0       -5.190705   -0.302439   -0.057556
 ---------------------------------------------------------------------
 Rotational constants (GHZ):           1.3458535           0.3790700           0.3239277
 Leave Link  202 at Mon Oct 14 01:44:39 2019, MaxMem= 10737418240 cpu:               0.4 elap:               0.0
 (Enter /apps/cent7/gaussian/g16-A.03/g16-haswell/g16/l301.exe)
 Standard basis: 6-31G(d) (6D, 7F)
 Ernie: Thresh=  0.10000D-02 Tol=  0.10000D-05 Strict=F.
 There are   205 symmetry adapted cartesian basis functions of A   symmetry.
 There are   205 symmetry adapted basis functions of A   symmetry.
   205 basis functions,   404 primitive gaussians,   205 cartesian basis functions
    49 alpha electrons       49 beta electrons
       nuclear repulsion energy       756.8984186898 Hartrees.
 IExCor=  402 DFT=T Ex+Corr=B3LYP ExCW=0 ScaHFX=  0.200000
 ScaDFX=  0.800000  0.720000  1.000000  0.810000 ScalE2=  1.000000  1.000000
 IRadAn=      5 IRanWt=     -1 IRanGd=            0 ICorTp=0 IEmpDi=  4
 NAtoms=   29 NActive=   29 NUniq=   29 SFac= 1.00D+00 NAtFMM=   60 NAOKFM=F Big=F
 Integral buffers will be    131072 words long.
 Raffenetti 2 integral format.
 Two-electron integral symmetry is turned on.
 Leave Link  301 at Mon Oct 14 01:44:39 2019, MaxMem= 10737418240 cpu:               1.3 elap:               0.1
 (Enter /apps/cent7/gaussian/g16-A.03/g16-haswell/g16/l302.exe)
 NPDir=0 NMtPBC=     1 NCelOv=     1 NCel=       1 NClECP=     1 NCelD=      1
         NCelK=      1 NCelE2=     1 NClLst=     1 CellRange=     0.0.
 One-electron integrals computed using PRISM.
 One-electron integral symmetry used in STVInt
 NBasis=   205 RedAO= T EigKep=  3.15D-03  NBF=   205
 NBsUse=   205 1.00D-06 EigRej= -1.00D+00 NBFU=   205
 Precomputing XC quadrature grid using
 IXCGrd= 4 IRadAn=           5 IRanWt=          -1 IRanGd=           0 AccXCQ= 0.00D+00.
 Generated NRdTot=       0 NPtTot=           0 NUsed=           0 NTot=          32
 NSgBfM=   204   204   204   204   204 MxSgAt=    29 MxSgA2=    29.
 Leave Link  302 at Mon Oct 14 01:44:39 2019, MaxMem= 10737418240 cpu:               5.4 elap:               0.3
 (Enter /apps/cent7/gaussian/g16-A.03/g16-haswell/g16/l303.exe)
 DipDrv:  MaxL=1.
 Leave Link  303 at Mon Oct 14 01:44:39 2019, MaxMem= 10737418240 cpu:               1.4 elap:               0.1
 (Enter /apps/cent7/gaussian/g16-A.03/g16-haswell/g16/l401.exe)
 ExpMin= 1.17D-01 ExpMax= 2.19D+04 ExpMxC= 3.30D+03 IAcc=3 IRadAn=         5 AccDes= 0.00D+00
 Harris functional with IExCor=  402 and IRadAn=       5 diagonalized for initial guess.
 HarFok:  IExCor=  402 AccDes= 0.00D+00 IRadAn=         5 IDoV= 1 UseB2=F ITyADJ=14
 ICtDFT=  3500011 ScaDFX=  1.000000  1.000000  1.000000  1.000000
 FoFCou: FMM=F IPFlag=           0 FMFlag=      100000 FMFlg1=           0
         NFxFlg=           0 DoJE=T BraDBF=F KetDBF=T FulRan=T
         wScrn=  0.000000 ICntrl=       500 IOpCl=  0 I1Cent=   200000004 NGrid=           0
         NMat0=    1 NMatS0=      1 NMatT0=    0 NMatD0=    1 NMtDS0=    0 NMtDT0=    0
 Petite list used in FoFCou.
 Harris En= -864.368088565965    
 JPrj=0 DoOrth=F DoCkMO=F.
 Leave Link  401 at Mon Oct 14 01:44:39 2019, MaxMem= 10737418240 cpu:              10.5 elap:               0.5
 (Enter /apps/cent7/gaussian/g16-A.03/g16-haswell/g16/l502.exe)
 Integral symmetry usage will be decided dynamically.
 Closed shell SCF:
 Using DIIS extrapolation, IDIIS=  1040.
 NGot= 10737418240 LenX= 10737326683 LenY= 10737284217
 Requested convergence on RMS density matrix=1.00D-08 within 128 cycles.
 Requested convergence on MAX density matrix=1.00D-06.
 Requested convergence on             energy=1.00D-06.
 No special actions if energy rises.
 Fock matrices will be formed incrementally for  20 cycles.
 Integral accuracy reduced to 1.0D-05 until final iterations.

 Cycle   1  Pass 0  IDiag  1:
 FoFJK:  IHMeth= 1 ICntrl=       0 DoSepK=F KAlg= 0 I1Cent=           0 FoldK=F
 IRaf= 840000000 NMat=       1 IRICut=       1 DoRegI=T DoRafI=F ISym2E= 0 IDoP0=0 IntGTp=1.
 FoFCou: FMM=F IPFlag=           0 FMFlag=      100000 FMFlg1=           0
         NFxFlg=           0 DoJE=F BraDBF=F KetDBF=F FulRan=T
         wScrn=  0.000000 ICntrl=         0 IOpCl=  0 I1Cent=           0 NGrid=           0
         NMat0=    1 NMatS0=      1 NMatT0=    0 NMatD0=    1 NMtDS0=    0 NMtDT0=    0
 Symmetry not used in FoFCou.
 E= -863.587846280611    
 DIIS: error= 3.57D-02 at cycle   1 NSaved=   1.
 NSaved= 1 IEnMin= 1 EnMin= -863.587846280611     IErMin= 1 ErrMin= 3.57D-02
 ErrMax= 3.57D-02  0.00D+00 EMaxC= 1.00D-01 BMatC= 6.65D-01 BMatP= 6.65D-01
 IDIUse=3 WtCom= 6.43D-01 WtEn= 3.57D-01
 Coeff-Com:  0.100D+01
 Coeff-En:   0.100D+01
 Coeff:      0.100D+01
 Gap=     0.093 Goal=   None    Shift=    0.000
 GapD=    0.093 DampG=0.500 DampE=0.500 DampFc=0.2500 IDamp=-1.
 Damping current iteration by 2.50D-01
 RMSDP=1.31D-02 MaxDP=6.54D-01              OVMax= 3.46D-01

 Cycle   2  Pass 0  IDiag  1:
 RMSU=  3.27D-03    CP:  9.99D-01
 E= -863.792622288402     Delta-E=       -0.204776007791 Rises=F Damp=T
 DIIS: error= 1.89D-02 at cycle   2 NSaved=   2.
 NSaved= 2 IEnMin= 2 EnMin= -863.792622288402     IErMin= 2 ErrMin= 1.89D-02
 ErrMax= 1.89D-02  0.00D+00 EMaxC= 1.00D-01 BMatC= 9.45D-02 BMatP= 6.65D-01
 IDIUse=3 WtCom= 8.11D-01 WtEn= 1.89D-01
 Coeff-Com: -0.349D+00 0.135D+01
 Coeff-En:   0.157D-02 0.998D+00
 Coeff:     -0.282D+00 0.128D+01
 Gap=     0.296 Goal=   None    Shift=    0.000
 RMSDP=3.06D-03 MaxDP=6.92D-02 DE=-2.05D-01 OVMax= 3.19D-01

 Cycle   3  Pass 0  IDiag  1:
 RMSU=  3.03D-03    CP:  9.85D-01  9.16D-01
 E= -864.104138753903     Delta-E=       -0.311516465501 Rises=F Damp=F
 DIIS: error= 1.89D-02 at cycle   3 NSaved=   3.
 NSaved= 3 IEnMin= 3 EnMin= -864.104138753903     IErMin= 2 ErrMin= 1.89D-02
 ErrMax= 1.89D-02  0.00D+00 EMaxC= 1.00D-01 BMatC= 1.12D-01 BMatP= 9.45D-02
 IDIUse=2 WtCom= 0.00D+00 WtEn= 1.00D+00
 Coeff-En:   0.000D+00 0.000D+00 0.100D+01
 Coeff:      0.000D+00 0.000D+00 0.100D+01
 Gap=     0.296 Goal=   None    Shift=    0.000
 RMSDP=6.60D-03 MaxDP=1.90D-01 DE=-3.12D-01 OVMax= 2.69D-01

 Cycle   4  Pass 0  IDiag  1:
 RMSU=  2.52D-03    CP:  1.01D+00  2.13D+00 -5.09D-01
 E= -863.645962569858     Delta-E=        0.458176184045 Rises=F Damp=F
 DIIS: error= 5.45D-02 at cycle   4 NSaved=   4.
 NSaved= 4 IEnMin= 3 EnMin= -864.104138753903     IErMin= 2 ErrMin= 1.89D-02
 ErrMax= 5.45D-02  0.00D+00 EMaxC= 1.00D-01 BMatC= 6.56D-01 BMatP= 9.45D-02
 IDIUse=2 WtCom= 0.00D+00 WtEn= 1.00D+00
 Coeff-En:   0.000D+00 0.000D+00 0.792D+00 0.208D+00
 Coeff:      0.000D+00 0.000D+00 0.792D+00 0.208D+00
 Gap=     0.217 Goal=   None    Shift=    0.000
 RMSDP=4.10D-03 MaxDP=1.23D-01 DE= 4.58D-01 OVMax= 1.80D-01

 Cycle   5  Pass 0  IDiag  1:
 RMSU=  6.98D-04    CP:  1.00D+00  1.22D+00  2.63D-01  4.45D-01
 E= -864.181713059637     Delta-E=       -0.535750489779 Rises=F Damp=F
 DIIS: error= 8.98D-03 at cycle   5 NSaved=   5.
 NSaved= 5 IEnMin= 5 EnMin= -864.181713059637     IErMin= 5 ErrMin= 8.98D-03
 ErrMax= 8.98D-03  0.00D+00 EMaxC= 1.00D-01 BMatC= 3.36D-02 BMatP= 9.45D-02
 IDIUse=3 WtCom= 9.10D-01 WtEn= 8.98D-02
 Coeff-Com: -0.773D-01 0.121D+00 0.305D+00-0.611D-01 0.713D+00
 Coeff-En:   0.000D+00 0.000D+00 0.261D+00 0.000D+00 0.739D+00
 Coeff:     -0.703D-01 0.110D+00 0.301D+00-0.556D-01 0.715D+00
 Gap=     0.267 Goal=   None    Shift=    0.000
 RMSDP=1.03D-03 MaxDP=2.47D-02 DE=-5.36D-01 OVMax= 3.96D-02

 Cycle   6  Pass 0  IDiag  1:
 RMSU=  1.84D-04    CP:  9.95D-01  1.12D+00  5.41D-01  2.81D-01  7.89D-01
 E= -864.213766864731     Delta-E=       -0.032053805094 Rises=F Damp=F
 DIIS: error= 1.82D-03 at cycle   6 NSaved=   6.
 NSaved= 6 IEnMin= 6 EnMin= -864.213766864731     IErMin= 6 ErrMin= 1.82D-03
 ErrMax= 1.82D-03  0.00D+00 EMaxC= 1.00D-01 BMatC= 5.60D-04 BMatP= 3.36D-02
 IDIUse=3 WtCom= 9.82D-01 WtEn= 1.82D-02
 Coeff-Com: -0.561D-01 0.829D-01 0.183D+00-0.486D-01 0.485D+00 0.354D+00
 Coeff-En:   0.000D+00 0.000D+00 0.000D+00 0.000D+00 0.000D+00 0.100D+01
 Coeff:     -0.551D-01 0.814D-01 0.180D+00-0.478D-01 0.476D+00 0.366D+00
 Gap=     0.265 Goal=   None    Shift=    0.000
 RMSDP=1.46D-04 MaxDP=4.75D-03 DE=-3.21D-02 OVMax= 7.39D-03

 Cycle   7  Pass 0  IDiag  1:
 RMSU=  6.34D-05    CP:  9.96D-01  1.13D+00  5.31D-01  2.85D-01  8.34D-01
                    CP:  3.40D-01
 E= -864.214193511929     Delta-E=       -0.000426647198 Rises=F Damp=F
 DIIS: error= 4.79D-04 at cycle   7 NSaved=   7.
 NSaved= 7 IEnMin= 7 EnMin= -864.214193511929     IErMin= 7 ErrMin= 4.79D-04
 ErrMax= 4.79D-04  0.00D+00 EMaxC= 1.00D-01 BMatC= 4.24D-05 BMatP= 5.60D-04
 IDIUse=3 WtCom= 9.95D-01 WtEn= 4.79D-03
 Coeff-Com: -0.111D-01 0.140D-01 0.175D-01-0.840D-02 0.691D-01 0.225D+00
 Coeff-Com:  0.693D+00
 Coeff-En:   0.000D+00 0.000D+00 0.000D+00 0.000D+00 0.000D+00 0.614D-01
 Coeff-En:   0.939D+00
 Coeff:     -0.111D-01 0.140D-01 0.174D-01-0.836D-02 0.688D-01 0.225D+00
 Coeff:      0.695D+00
 Gap=     0.266 Goal=   None    Shift=    0.000
 RMSDP=3.52D-05 MaxDP=1.13D-03 DE=-4.27D-04 OVMax= 1.73D-03

 Cycle   8  Pass 0  IDiag  1:
 RMSU=  1.69D-05    CP:  9.96D-01  1.13D+00  5.33D-01  2.83D-01  8.35D-01
                    CP:  4.80D-01  7.57D-01
 E= -864.214225998186     Delta-E=       -0.000032486257 Rises=F Damp=F
 DIIS: error= 6.59D-05 at cycle   8 NSaved=   8.
 NSaved= 8 IEnMin= 8 EnMin= -864.214225998186     IErMin= 8 ErrMin= 6.59D-05
 ErrMax= 6.59D-05  0.00D+00 EMaxC= 1.00D-01 BMatC= 2.62D-06 BMatP= 4.24D-05
 IDIUse=1 WtCom= 1.00D+00 WtEn= 0.00D+00
 Coeff-Com: -0.257D-02 0.235D-02-0.149D-02-0.964D-03 0.724D-02 0.903D-01
 Coeff-Com:  0.333D+00 0.572D+00
 Coeff:     -0.257D-02 0.235D-02-0.149D-02-0.964D-03 0.724D-02 0.903D-01
 Coeff:      0.333D+00 0.572D+00
 Gap=     0.265 Goal=   None    Shift=    0.000
 RMSDP=8.32D-06 MaxDP=2.25D-04 DE=-3.25D-05 OVMax= 2.59D-04

 Initial convergence to 1.0D-05 achieved.  Increase integral accuracy.
 Cycle   9  Pass 1  IDiag  1:
 E= -864.214208304395     Delta-E=        0.000017693790 Rises=F Damp=F
 DIIS: error= 2.30D-05 at cycle   1 NSaved=   1.
 NSaved= 1 IEnMin= 1 EnMin= -864.214208304395     IErMin= 1 ErrMin= 2.30D-05
 ErrMax= 2.30D-05  0.00D+00 EMaxC= 1.00D-01 BMatC= 2.12D-07 BMatP= 2.12D-07
 IDIUse=1 WtCom= 1.00D+00 WtEn= 0.00D+00
 Coeff-Com:  0.100D+01
 Coeff:      0.100D+01
 Gap=     0.265 Goal=   None    Shift=    0.000
 RMSDP=8.32D-06 MaxDP=2.25D-04 DE= 1.77D-05 OVMax= 2.06D-04

 Cycle  10  Pass 1  IDiag  1:
 RMSU=  8.20D-06    CP:  1.00D+00
 E= -864.214207933810     Delta-E=        0.000000370585 Rises=F Damp=F
 DIIS: error= 5.37D-05 at cycle   2 NSaved=   2.
 NSaved= 2 IEnMin= 1 EnMin= -864.214208304395     IErMin= 1 ErrMin= 2.30D-05
 ErrMax= 5.37D-05  0.00D+00 EMaxC= 1.00D-01 BMatC= 6.85D-07 BMatP= 2.12D-07
 IDIUse=1 WtCom= 1.00D+00 WtEn= 0.00D+00
 Coeff-Com:  0.653D+00 0.347D+00
 Coeff:      0.653D+00 0.347D+00
 Gap=     0.265 Goal=   None    Shift=    0.000
 RMSDP=4.80D-06 MaxDP=1.87D-04 DE= 3.71D-07 OVMax= 1.89D-04

 Cycle  11  Pass 1  IDiag  1:
 RMSU=  2.92D-06    CP:  1.00D+00  5.48D-01
 E= -864.214208489409     Delta-E=       -0.000000555599 Rises=F Damp=F
 DIIS: error= 9.07D-06 at cycle   3 NSaved=   3.
 NSaved= 3 IEnMin= 3 EnMin= -864.214208489409     IErMin= 3 ErrMin= 9.07D-06
 ErrMax= 9.07D-06  0.00D+00 EMaxC= 1.00D-01 BMatC= 2.18D-08 BMatP= 2.12D-07
 IDIUse=1 WtCom= 1.00D+00 WtEn= 0.00D+00
 Coeff-Com:  0.235D+00 0.185D+00 0.580D+00
 Coeff:      0.235D+00 0.185D+00 0.580D+00
 Gap=     0.265 Goal=   None    Shift=    0.000
 RMSDP=8.98D-07 MaxDP=2.48D-05 DE=-5.56D-07 OVMax= 3.73D-05

 Cycle  12  Pass 1  IDiag  1:
 RMSU=  6.83D-07    CP:  1.00D+00  5.94D-01  8.53D-01
 E= -864.214208504723     Delta-E=       -0.000000015314 Rises=F Damp=F
 DIIS: error= 2.13D-06 at cycle   4 NSaved=   4.
 NSaved= 4 IEnMin= 4 EnMin= -864.214208504723     IErMin= 4 ErrMin= 2.13D-06
 ErrMax= 2.13D-06  0.00D+00 EMaxC= 1.00D-01 BMatC= 2.78D-09 BMatP= 2.18D-08
 IDIUse=1 WtCom= 1.00D+00 WtEn= 0.00D+00
 Coeff-Com:  0.872D-02 0.399D-01 0.305D+00 0.646D+00
 Coeff:      0.872D-02 0.399D-01 0.305D+00 0.646D+00
 Gap=     0.265 Goal=   None    Shift=    0.000
 RMSDP=3.23D-07 MaxDP=8.58D-06 DE=-1.53D-08 OVMax= 1.27D-05

 Cycle  13  Pass 1  IDiag  1:
 RMSU=  1.82D-07    CP:  1.00D+00  5.92D-01  8.93D-01  6.49D-01
 E= -864.214208507149     Delta-E=       -0.000000002426 Rises=F Damp=F
 DIIS: error= 1.45D-06 at cycle   5 NSaved=   5.
 NSaved= 5 IEnMin= 5 EnMin= -864.214208507149     IErMin= 5 ErrMin= 1.45D-06
 ErrMax= 1.45D-06  0.00D+00 EMaxC= 1.00D-01 BMatC= 3.84D-10 BMatP= 2.78D-09
 IDIUse=1 WtCom= 1.00D+00 WtEn= 0.00D+00
 Coeff-Com: -0.257D-02 0.196D-01 0.166D+00 0.407D+00 0.410D+00
 Coeff:     -0.257D-02 0.196D-01 0.166D+00 0.407D+00 0.410D+00
 Gap=     0.265 Goal=   None    Shift=    0.000
 RMSDP=1.33D-07 MaxDP=4.41D-06 DE=-2.43D-09 OVMax= 7.11D-06

 Cycle  14  Pass 1  IDiag  1:
 RMSU=  8.87D-08    CP:  1.00D+00  5.94D-01  8.95D-01  6.93D-01  4.89D-01
 E= -864.214208507406     Delta-E=       -0.000000000257 Rises=F Damp=F
 DIIS: error= 6.13D-07 at cycle   6 NSaved=   6.
 NSaved= 6 IEnMin= 6 EnMin= -864.214208507406     IErMin= 6 ErrMin= 6.13D-07
 ErrMax= 6.13D-07  0.00D+00 EMaxC= 1.00D-01 BMatC= 7.10D-11 BMatP= 3.84D-10
 IDIUse=1 WtCom= 1.00D+00 WtEn= 0.00D+00
 Coeff-Com: -0.404D-02 0.579D-02 0.489D-01 0.151D+00 0.301D+00 0.497D+00
 Coeff:     -0.404D-02 0.579D-02 0.489D-01 0.151D+00 0.301D+00 0.497D+00
 Gap=     0.265 Goal=   None    Shift=    0.000
 RMSDP=4.74D-08 MaxDP=1.52D-06 DE=-2.57D-10 OVMax= 2.12D-06

 Cycle  15  Pass 1  IDiag  1:
 RMSU=  2.44D-08    CP:  1.00D+00  5.95D-01  8.93D-01  6.95D-01  6.09D-01
                    CP:  6.45D-01
 E= -864.214208507468     Delta-E=       -0.000000000062 Rises=F Damp=F
 DIIS: error= 4.80D-08 at cycle   7 NSaved=   7.
 NSaved= 7 IEnMin= 7 EnMin= -864.214208507468     IErMin= 7 ErrMin= 4.80D-08
 ErrMax= 4.80D-08  0.00D+00 EMaxC= 1.00D-01 BMatC= 1.31D-12 BMatP= 7.10D-11
 IDIUse=1 WtCom= 1.00D+00 WtEn= 0.00D+00
 Coeff-Com: -0.129D-02 0.706D-03 0.355D-02 0.225D-01 0.767D-01 0.175D+00
 Coeff-Com:  0.723D+00
 Coeff:     -0.129D-02 0.706D-03 0.355D-02 0.225D-01 0.767D-01 0.175D+00
 Coeff:      0.723D+00
 Gap=     0.265 Goal=   None    Shift=    0.000
 RMSDP=9.52D-09 MaxDP=2.49D-07 DE=-6.16D-11 OVMax= 4.26D-07

 SCF Done:  E(RB3LYP) =  -864.214208507     A.U. after   15 cycles
            NFock= 15  Conv=0.95D-08     -V/T= 2.0074
 KE= 8.578953339839D+02 PE=-3.541446976290D+03 EE= 1.062439015109D+03
 Leave Link  502 at Mon Oct 14 01:44:44 2019, MaxMem= 10737418240 cpu:             114.6 elap:               4.8
 (Enter /apps/cent7/gaussian/g16-A.03/g16-haswell/g16/l601.exe)
 Copying SCF densities to generalized density rwf, IOpCl= 0 IROHF=0.

 **********************************************************************

            Population analysis using the SCF density.

 **********************************************************************

 Orbital symmetries:
       Occupied  (A) (A) (A) (A) (A) (A) (A) (A) (A) (A) (A) (A)
                 (A) (A) (A) (A) (A) (A) (A) (A) (A) (A) (A) (A)
                 (A) (A) (A) (A) (A) (A) (A) (A) (A) (A) (A) (A)
                 (A) (A) (A) (A) (A) (A) (A) (A) (A) (A) (A) (A)
                 (A)
       Virtual   (A) (A) (A) (A) (A) (A) (A) (A) (A) (A) (A) (A)
                 (A) (A) (A) (A) (A) (A) (A) (A) (A) (A) (A) (A)
                 (A) (A) (A) (A) (A) (A) (A) (A) (A) (A) (A) (A)
                 (A) (A) (A) (A) (A) (A) (A) (A) (A) (A) (A) (A)
                 (A) (A) (A) (A) (A) (A) (A) (A) (A) (A) (A) (A)
                 (A) (A) (A) (A) (A) (A) (A) (A) (A) (A) (A) (A)
                 (A) (A) (A) (A) (A) (A) (A) (A) (A) (A) (A) (A)
                 (A) (A) (A) (A) (A) (A) (A) (A) (A) (A) (A) (A)
                 (A) (A) (A) (A) (A) (A) (A) (A) (A) (A) (A) (A)
                 (A) (A) (A) (A) (A) (A) (A) (A) (A) (A) (A) (A)
                 (A) (A) (A) (A) (A) (A) (A) (A) (A) (A) (A) (A)
                 (A) (A) (A) (A) (A) (A) (A) (A) (A) (A) (A) (A)
                 (A) (A) (A) (A) (A) (A) (A) (A) (A) (A) (A) (A)
 The electronic state is 1-A.
 Alpha  occ. eigenvalues --  -89.07921 -19.11991 -19.11762 -10.24175 -10.24128
 Alpha  occ. eigenvalues --  -10.20876 -10.20225 -10.20150 -10.19786 -10.18699
 Alpha  occ. eigenvalues --  -10.18176  -8.10947  -6.07299  -6.07292  -6.07287
 Alpha  occ. eigenvalues --   -1.01337  -0.91175  -0.83331  -0.82266  -0.77550
 Alpha  occ. eigenvalues --   -0.75490  -0.69120  -0.65634  -0.60367  -0.59158
 Alpha  occ. eigenvalues --   -0.57934  -0.52571  -0.52028  -0.48703  -0.46832
 Alpha  occ. eigenvalues --   -0.46469  -0.44793  -0.43512  -0.42831  -0.40942
 Alpha  occ. eigenvalues --   -0.39584  -0.38887  -0.38171  -0.38057  -0.36021
 Alpha  occ. eigenvalues --   -0.35658  -0.35517  -0.35106  -0.33363  -0.32728
 Alpha  occ. eigenvalues --   -0.28324  -0.26688  -0.26319  -0.24665
 Alpha virt. eigenvalues --    0.01868   0.03206   0.04385   0.06046   0.07240
 Alpha virt. eigenvalues --    0.08741   0.09309   0.10303   0.11233   0.11940
 Alpha virt. eigenvalues --    0.13183   0.14261   0.14921   0.15170   0.16287
 Alpha virt. eigenvalues --    0.16879   0.17293   0.17456   0.18022   0.18710
 Alpha virt. eigenvalues --    0.20498   0.21043   0.21167   0.22030   0.22760
 Alpha virt. eigenvalues --    0.23158   0.24315   0.25289   0.38159   0.40676
 Alpha virt. eigenvalues --    0.41576   0.43040   0.45760   0.47172   0.49013
 Alpha virt. eigenvalues --    0.50936   0.54569   0.54884   0.56849   0.57552
 Alpha virt. eigenvalues --    0.59179   0.59901   0.60930   0.61260   0.63353
 Alpha virt. eigenvalues --    0.63832   0.66272   0.67342   0.71190   0.74566
 Alpha virt. eigenvalues --    0.75884   0.76432   0.78071   0.79329   0.81172
 Alpha virt. eigenvalues --    0.82181   0.83182   0.83758   0.83917   0.84533
 Alpha virt. eigenvalues --    0.85538   0.87497   0.87720   0.88015   0.88698
 Alpha virt. eigenvalues --    0.89179   0.90587   0.91125   0.91395   0.92831
 Alpha virt. eigenvalues --    0.93473   0.94540   0.94807   0.95856   0.96578
 Alpha virt. eigenvalues --    0.97868   0.98356   1.00792   1.05089   1.06736
 Alpha virt. eigenvalues --    1.08484   1.09696   1.09893   1.13441   1.16486
 Alpha virt. eigenvalues --    1.22134   1.24493   1.33371   1.34626   1.37707
 Alpha virt. eigenvalues --    1.38892   1.39233   1.43052   1.46255   1.49282
 Alpha virt. eigenvalues --    1.60321   1.61086   1.64355   1.69603   1.75361
 Alpha virt. eigenvalues --    1.80381   1.82609   1.83511   1.86366   1.86952
 Alpha virt. eigenvalues --    1.87675   1.88030   1.88602   1.89692   1.89885
 Alpha virt. eigenvalues --    1.94348   1.95421   1.96877   1.97996   1.98867
 Alpha virt. eigenvalues --    2.01151   2.01905   2.02891   2.03879   2.08033
 Alpha virt. eigenvalues --    2.09096   2.10045   2.10855   2.12118   2.15888
 Alpha virt. eigenvalues --    2.17200   2.20543   2.22691   2.23288   2.26986
 Alpha virt. eigenvalues --    2.28358   2.30381   2.30973   2.32864   2.33568
 Alpha virt. eigenvalues --    2.37376   2.37572   2.55740   2.56583   2.57812
 Alpha virt. eigenvalues --    2.63196   2.64928   2.68931   2.73043   2.75655
 Alpha virt. eigenvalues --    3.80472   3.92563   3.96416   4.11646   4.14440
 Alpha virt. eigenvalues --    4.22972   4.23732   4.35430   4.35712   4.48106
 Alpha virt. eigenvalues --    4.48939
          Condensed to atoms (all electrons):
               1          2          3          4          5          6
     1  O    8.365906   0.339925  -0.039796  -0.003423   0.000031   0.000000
     2  S    0.339925  14.101362   0.081600  -0.003744   0.000909  -0.000017
     3  C   -0.039796   0.081600   5.648535   0.277224  -0.028050   0.003627
     4  C   -0.003423  -0.003744   0.277224   5.152067   0.354708  -0.037115
     5  C    0.000031   0.000909  -0.028050   0.354708   5.001179   0.361581
     6  C    0.000000  -0.000017   0.003627  -0.037115   0.361581   5.074595
     7  C   -0.039265   0.078913  -0.039032  -0.002683  -0.000038   0.000002
     8  C   -0.004470  -0.028037   0.001813   0.000042   0.000000  -0.000000
     9  C    0.000013   0.002307  -0.000030  -0.000001  -0.000000   0.000000
    10  C    0.000000  -0.000056   0.000000   0.000000   0.000000  -0.000000
    11  O   -0.050781   0.358086  -0.039938   0.001285  -0.000014   0.000000
    12  H    0.001351  -0.006211   0.332592  -0.049443  -0.004199  -0.000057
    13  H   -0.000683  -0.016405   0.366186  -0.039845  -0.003563  -0.000067
    14  H    0.007569   0.004112  -0.049969   0.372987  -0.042481  -0.002272
    15  H   -0.000320  -0.007946  -0.049372   0.375727  -0.042837  -0.005652
    16  H   -0.000001  -0.000024  -0.004839  -0.045066   0.379761  -0.045525
    17  H    0.000001   0.000048  -0.004237  -0.045560   0.382113  -0.042538
    18  H    0.000000   0.000015   0.000144  -0.008477  -0.042579   0.378519
    19  H   -0.000000   0.000001  -0.000134   0.003804  -0.030137   0.378184
    20  H   -0.000000  -0.000003  -0.000089  -0.000974  -0.031965   0.381809
    21  H    0.001332  -0.007559  -0.000287   0.000217  -0.000007   0.000000
    22  H    0.000042  -0.008350  -0.000658  -0.000096  -0.000001  -0.000002
    23  H    0.007782   0.000895   0.000058   0.000004  -0.000000   0.000000
    24  H   -0.000426   0.001097   0.000046  -0.000005   0.000000  -0.000000
    25  H   -0.000001  -0.000037   0.000000  -0.000000   0.000000   0.000000
    26  H    0.000002  -0.000033   0.000000  -0.000001   0.000000   0.000000
    27  H   -0.000000   0.000002  -0.000000  -0.000000  -0.000000   0.000000
    28  H   -0.000000  -0.000004  -0.000000  -0.000000   0.000000   0.000000
    29  H    0.000000  -0.000009  -0.000000   0.000000  -0.000000   0.000000
               7          8          9         10         11         12
     1  O   -0.039265  -0.004470   0.000013   0.000000  -0.050781   0.001351
     2  S    0.078913  -0.028037   0.002307  -0.000056   0.358086  -0.006211
     3  C   -0.039032   0.001813  -0.000030   0.000000  -0.039938   0.332592
     4  C   -0.002683   0.000042  -0.000001   0.000000   0.001285  -0.049443
     5  C   -0.000038   0.000000  -0.000000   0.000000  -0.000014  -0.004199
     6  C    0.000002  -0.000000   0.000000  -0.000000   0.000000  -0.000057
     7  C    5.658482   0.332577  -0.033875   0.003714  -0.040182  -0.000334
     8  C    0.332577   5.062584   0.367467  -0.040536  -0.004267  -0.000056
     9  C   -0.033875   0.367467   4.999063   0.375154   0.000007  -0.000001
    10  C    0.003714  -0.040536   0.375154   5.060107   0.000001  -0.000000
    11  O   -0.040182  -0.004267   0.000007   0.000001   8.345232   0.000078
    12  H   -0.000334  -0.000056  -0.000001  -0.000000   0.000078   0.541943
    13  H    0.001953  -0.000013   0.000000  -0.000000  -0.000495  -0.014550
    14  H   -0.000586  -0.000004  -0.000000  -0.000000   0.000025   0.006795
    15  H    0.004371   0.000005   0.000004  -0.000000  -0.000019  -0.004029
    16  H    0.000000  -0.000000   0.000000  -0.000000  -0.000000   0.005661
    17  H   -0.000001   0.000000   0.000000  -0.000000   0.000000  -0.000273
    18  H   -0.000005   0.000000   0.000000  -0.000000   0.000000   0.000013
    19  H   -0.000000   0.000000  -0.000000   0.000000  -0.000000  -0.000000
    20  H    0.000000   0.000000   0.000000   0.000000  -0.000000   0.000006
    21  H    0.330575  -0.038800  -0.005266  -0.000025  -0.000139   0.000421
    22  H    0.330032  -0.038827  -0.005093  -0.000029   0.001349   0.000324
    23  H   -0.049823   0.379488  -0.045265  -0.002136  -0.000441  -0.000005
    24  H   -0.048863   0.377942  -0.043165  -0.004052   0.007448   0.000009
    25  H   -0.005053  -0.044617   0.376326  -0.044527   0.000002   0.000000
    26  H   -0.004840  -0.045533   0.375255  -0.043228  -0.000001  -0.000000
    27  H   -0.000152   0.004185  -0.030360   0.376526  -0.000000  -0.000000
    28  H   -0.000050  -0.002778  -0.033808   0.380420   0.000000   0.000000
    29  H    0.000089  -0.006129  -0.039086   0.379176  -0.000001  -0.000000
              13         14         15         16         17         18
     1  O   -0.000683   0.007569  -0.000320  -0.000001   0.000001   0.000000
     2  S   -0.016405   0.004112  -0.007946  -0.000024   0.000048   0.000015
     3  C    0.366186  -0.049969  -0.049372  -0.004839  -0.004237   0.000144
     4  C   -0.039845   0.372987   0.375727  -0.045066  -0.045560  -0.008477
     5  C   -0.003563  -0.042481  -0.042837   0.379761   0.382113  -0.042579
     6  C   -0.000067  -0.002272  -0.005652  -0.045525  -0.042538   0.378519
     7  C    0.001953  -0.000586   0.004371   0.000000  -0.000001  -0.000005
     8  C   -0.000013  -0.000004   0.000005  -0.000000   0.000000   0.000000
     9  C    0.000000  -0.000000   0.000004   0.000000   0.000000   0.000000
    10  C   -0.000000  -0.000000  -0.000000  -0.000000  -0.000000  -0.000000
    11  O   -0.000495   0.000025  -0.000019  -0.000000   0.000000   0.000000
    12  H   -0.014550   0.006795  -0.004029   0.005661  -0.000273   0.000013
    13  H    0.476774  -0.004204   0.005954  -0.000295   0.005240   0.000021
    14  H   -0.004204   0.540841  -0.019393   0.005780  -0.004438   0.000371
    15  H    0.005954  -0.019393   0.591111  -0.004220   0.006046   0.006343
    16  H   -0.000295   0.005780  -0.004220   0.593678  -0.021153   0.001551
    17  H    0.005240  -0.004438   0.006046  -0.021153   0.578690   0.005544
    18  H    0.000021   0.000371   0.006343   0.001551   0.005544   0.567208
    19  H    0.000002  -0.000033   0.000153  -0.008064   0.001207  -0.029006
    20  H   -0.000005   0.002196  -0.000219   0.004923  -0.008829  -0.027639
    21  H   -0.000024  -0.000004   0.000119   0.000000   0.000000  -0.000000
    22  H   -0.000018   0.000369   0.002575   0.000004   0.000001   0.000003
    23  H    0.000000  -0.000006   0.000006  -0.000000  -0.000000  -0.000000
    24  H   -0.000001   0.000000   0.000001  -0.000000  -0.000000  -0.000000
    25  H   -0.000000   0.000000   0.000001  -0.000000  -0.000000  -0.000000
    26  H   -0.000000  -0.000000  -0.000002  -0.000000  -0.000000  -0.000000
    27  H    0.000000  -0.000000   0.000000   0.000000   0.000000  -0.000000
    28  H    0.000000   0.000000   0.000000   0.000000  -0.000000  -0.000000
    29  H   -0.000000  -0.000000  -0.000000  -0.000000  -0.000000  -0.000000
              19         20         21         22         23         24
     1  O   -0.000000  -0.000000   0.001332   0.000042   0.007782  -0.000426
     2  S    0.000001  -0.000003  -0.007559  -0.008350   0.000895   0.001097
     3  C   -0.000134  -0.000089  -0.000287  -0.000658   0.000058   0.000046
     4  C    0.003804  -0.000974   0.000217  -0.000096   0.000004  -0.000005
     5  C   -0.030137  -0.031965  -0.000007  -0.000001  -0.000000   0.000000
     6  C    0.378184   0.381809   0.000000  -0.000002   0.000000  -0.000000
     7  C   -0.000000   0.000000   0.330575   0.330032  -0.049823  -0.048863
     8  C    0.000000   0.000000  -0.038800  -0.038827   0.379488   0.377942
     9  C   -0.000000   0.000000  -0.005266  -0.005093  -0.045265  -0.043165
    10  C    0.000000   0.000000  -0.000025  -0.000029  -0.002136  -0.004052
    11  O   -0.000000  -0.000000  -0.000139   0.001349  -0.000441   0.007448
    12  H   -0.000000   0.000006   0.000421   0.000324  -0.000005   0.000009
    13  H    0.000002  -0.000005  -0.000024  -0.000018   0.000000  -0.000001
    14  H   -0.000033   0.002196  -0.000004   0.000369  -0.000006   0.000000
    15  H    0.000153  -0.000219   0.000119   0.002575   0.000006   0.000001
    16  H   -0.008064   0.004923   0.000000   0.000004  -0.000000  -0.000000
    17  H    0.001207  -0.008829   0.000000   0.000001  -0.000000  -0.000000
    18  H   -0.029006  -0.027639  -0.000000   0.000003  -0.000000  -0.000000
    19  H    0.559012  -0.028410   0.000000  -0.000000   0.000000   0.000000
    20  H   -0.028410   0.554587   0.000000   0.000000   0.000000   0.000000
    21  H    0.000000   0.000000   0.538526  -0.019552   0.006642  -0.004811
    22  H   -0.000000   0.000000  -0.019552   0.533580  -0.004872   0.006497
    23  H    0.000000   0.000000   0.006642  -0.004872   0.541348  -0.016982
    24  H    0.000000   0.000000  -0.004811   0.006497  -0.016982   0.540668
    25  H   -0.000000  -0.000000   0.005811  -0.000240   0.005742  -0.004041
    26  H    0.000000  -0.000000  -0.000197   0.005921  -0.003915   0.005674
    27  H   -0.000000   0.000000  -0.000001   0.000001  -0.000032   0.000027
    28  H   -0.000000  -0.000000   0.000009  -0.000005   0.003352  -0.000263
    29  H   -0.000000  -0.000000   0.000009   0.000018  -0.000089   0.005467
              25         26         27         28         29
     1  O   -0.000001   0.000002  -0.000000  -0.000000   0.000000
     2  S   -0.000037  -0.000033   0.000002  -0.000004  -0.000009
     3  C    0.000000   0.000000  -0.000000  -0.000000  -0.000000
     4  C   -0.000000  -0.000001  -0.000000  -0.000000   0.000000
     5  C    0.000000   0.000000  -0.000000   0.000000  -0.000000
     6  C    0.000000   0.000000   0.000000   0.000000   0.000000
     7  C   -0.005053  -0.004840  -0.000152  -0.000050   0.000089
     8  C   -0.044617  -0.045533   0.004185  -0.002778  -0.006129
     9  C    0.376326   0.375255  -0.030360  -0.033808  -0.039086
    10  C   -0.044527  -0.043228   0.376526   0.380420   0.379176
    11  O    0.000002  -0.000001  -0.000000   0.000000  -0.000001
    12  H    0.000000  -0.000000  -0.000000   0.000000  -0.000000
    13  H   -0.000000  -0.000000   0.000000   0.000000  -0.000000
    14  H    0.000000  -0.000000  -0.000000   0.000000  -0.000000
    15  H    0.000001  -0.000002   0.000000   0.000000  -0.000000
    16  H   -0.000000  -0.000000   0.000000   0.000000  -0.000000
    17  H   -0.000000  -0.000000   0.000000  -0.000000  -0.000000
    18  H   -0.000000  -0.000000  -0.000000  -0.000000  -0.000000
    19  H   -0.000000   0.000000  -0.000000  -0.000000  -0.000000
    20  H   -0.000000  -0.000000   0.000000  -0.000000  -0.000000
    21  H    0.005811  -0.000197  -0.000001   0.000009   0.000009
    22  H   -0.000240   0.005921   0.000001  -0.000005   0.000018
    23  H    0.005742  -0.003915  -0.000032   0.003352  -0.000089
    24  H   -0.004041   0.005674   0.000027  -0.000263   0.005467
    25  H    0.597004  -0.022355  -0.005875   0.005390  -0.000981
    26  H   -0.022355   0.596735  -0.000658  -0.006890   0.005741
    27  H   -0.005875  -0.000658   0.563787  -0.029284  -0.029024
    28  H    0.005390  -0.006890  -0.029284   0.560626  -0.027829
    29  H   -0.000981   0.005741  -0.029024  -0.027829   0.558819
 Mulliken charges:
               1
     1  O   -0.584790
     2  S    1.109165
     3  C   -0.455396
     4  C   -0.301630
     5  C   -0.254410
     6  C   -0.445073
     7  C   -0.475925
     8  C   -0.272039
     9  C   -0.259646
    10  C   -0.440510
    11  O   -0.577237
    12  H    0.189963
    13  H    0.224036
    14  H    0.182343
    15  H    0.141590
    16  H    0.137827
    17  H    0.148138
    18  H    0.147975
    19  H    0.153420
    20  H    0.154611
    21  H    0.193010
    22  H    0.197025
    23  H    0.178248
    24  H    0.177731
    25  H    0.137450
    26  H    0.138323
    27  H    0.150857
    28  H    0.151115
    29  H    0.153829
 Sum of Mulliken charges =  -0.00000
 Mulliken charges with hydrogens summed into heavy atoms:
               1
     1  O   -0.584790
     2  S    1.109165
     3  C   -0.041397
     4  C    0.022303
     5  C    0.031555
     6  C    0.010933
     7  C   -0.085890
     8  C    0.083940
     9  C    0.016127
    10  C    0.015291
    11  O   -0.577237
 Electronic spatial extent (au):  <R**2>=           3599.1721
 Charge=             -0.0000 electrons
 Dipole moment (field-independent basis, Debye):
    X=              1.7651    Y=             -5.3978    Z=             -2.4579  Tot=              6.1881
 Quadrupole moment (field-independent basis, Debye-Ang):
   XX=            -64.9578   YY=            -88.6789   ZZ=            -80.8421
   XY=              5.4903   XZ=             -0.0100   YZ=             -0.8689
 Traceless Quadrupole moment (field-independent basis, Debye-Ang):
   XX=             13.2018   YY=            -10.5193   ZZ=             -2.6825
   XY=              5.4903   XZ=             -0.0100   YZ=             -0.8689
 Octapole moment (field-independent basis, Debye-Ang**2):
  XXX=              6.9125  YYY=            -13.9707  ZZZ=             -7.4592  XYY=              8.3018
  XXY=              2.0812  XXZ=              0.7500  XZZ=             -0.6949  YZZ=             -5.9640
  YYZ=              4.2788  XYZ=              2.5547
 Hexadecapole moment (field-independent basis, Debye-Ang**3):
 XXXX=          -3613.8723 YYYY=           -928.1319 ZZZZ=           -274.9434 XXXY=             12.2121
 XXXZ=             33.3885 YYYX=             23.9993 YYYZ=             12.8098 ZZZX=             -0.3151
 ZZZY=             -5.7001 XXYY=           -752.5938 XXZZ=           -647.5806 YYZZ=           -203.6180
 XXYZ=             12.2845 YYXZ=             -9.6719 ZZXY=              1.1808
 N-N= 7.568984186898D+02 E-N=-3.541446969875D+03  KE= 8.578953339839D+02
 No NMR shielding tensors so no spin-rotation constants.
 Leave Link  601 at Mon Oct 14 01:44:44 2019, MaxMem= 10737418240 cpu:               2.6 elap:               0.1
 (Enter /apps/cent7/gaussian/g16-A.03/g16-haswell/g16/l701.exe)
 ... and contract with generalized density number  0.
 Compute integral first derivatives.
 Leave Link  701 at Mon Oct 14 01:44:45 2019, MaxMem= 10737418240 cpu:               3.4 elap:               0.2
 (Enter /apps/cent7/gaussian/g16-A.03/g16-haswell/g16/l702.exe)
 L702 exits ... SP integral derivatives will be done elsewhere.
 Leave Link  702 at Mon Oct 14 01:44:45 2019, MaxMem= 10737418240 cpu:               0.4 elap:               0.0
 (Enter /apps/cent7/gaussian/g16-A.03/g16-haswell/g16/l703.exe)
 Integral derivatives from FoFJK, PRISM(SPDF).
 Compute integral first derivatives, UseDBF=F ICtDFT=           0.
 Calling FoFJK, ICntrl=      2127 FMM=F ISym2X=0 I1Cent= 0 IOpClX= 0 NMat=1 NMatS=1 NMatT=0.
 FoFJK:  IHMeth= 1 ICntrl=    2127 DoSepK=F KAlg= 0 I1Cent=           0 FoldK=F
 IRaf=         0 NMat=       1 IRICut=       1 DoRegI=T DoRafI=F ISym2E= 0 IDoP0=0 IntGTp=1.
 FoFCou: FMM=F IPFlag=           0 FMFlag=      100000 FMFlg1=         800
         NFxFlg=           0 DoJE=F BraDBF=F KetDBF=F FulRan=T
         wScrn=  0.000000 ICntrl=      2127 IOpCl=  0 I1Cent=           0 NGrid=           0
         NMat0=    1 NMatS0=      1 NMatT0=    0 NMatD0=    1 NMtDS0=    0 NMtDT0=    0
 Symmetry not used in FoFCou.
 Leave Link  703 at Mon Oct 14 01:44:46 2019, MaxMem= 10737418240 cpu:              28.1 elap:               1.2
 (Enter /apps/cent7/gaussian/g16-A.03/g16-haswell/g16/l716.exe)
 Dipole        = 6.94437286D-01-2.12364081D+00-9.67025165D-01
 ***** Axes restored to original set *****
 -------------------------------------------------------------------
 Center     Atomic                   Forces (Hartrees/Bohr)
 Number     Number              X              Y              Z
 -------------------------------------------------------------------
      1        8          -0.040565010   -0.081390044    0.001113290
      2       16          -0.038551930    0.139711320   -0.005799067
      3        6           0.034384562   -0.021931026    0.007148747
      4        6          -0.007110507   -0.000245707   -0.011891361
      5        6           0.010679126    0.005776106    0.020413989
      6        6          -0.009127564    0.007116850    0.002286486
      7        6          -0.001121548    0.008831443    0.019668362
      8        6           0.002787906   -0.007939757    0.000847069
      9        6          -0.005993608    0.022126640   -0.006326277
     10        6           0.001316314   -0.001811930   -0.013546091
     11        8           0.074624495   -0.053109777    0.002779867
     12        1          -0.017676835    0.009947117   -0.006792301
     13        1          -0.021954760    0.004655964    0.003694318
     14        1           0.009856421   -0.002455768    0.018061655
     15        1           0.016432462    0.006615606    0.008652201
     16        1          -0.010757452    0.002865919   -0.016105851
     17        1          -0.016368350   -0.009473527   -0.010054839
     18        1           0.005401023   -0.003690658    0.001881599
     19        1           0.004116945   -0.001960954   -0.001682835
     20        1           0.005993973   -0.000903603    0.000938452
     21        1           0.008221246   -0.013295338   -0.013077951
     22        1          -0.001880452   -0.015553019   -0.012627338
     23        1          -0.011810164    0.016095033   -0.000857959
     24        1           0.003474414    0.019482088   -0.000632959
     25        1           0.010301091   -0.016647360   -0.000549766
     26        1          -0.002446762   -0.021026074    0.000356961
     27        1           0.000413992    0.000479566    0.004013248
     28        1           0.000172302    0.004459605    0.003757266
     29        1          -0.002811330    0.003271284    0.004331086
 -------------------------------------------------------------------
 Cartesian Forces:  Max     0.139711320 RMS     0.023213818
 Leave Link  716 at Mon Oct 14 01:44:46 2019, MaxMem= 10737418240 cpu:               0.6 elap:               0.0
 (Enter /apps/cent7/gaussian/g16-A.03/g16-haswell/g16/l103.exe)

 GradGradGradGradGradGradGradGradGradGradGradGradGradGradGradGradGradGrad
 Berny optimization.
 FormGI is forming the generalized inverse of G from B-inverse, IUseBI=4.
 Internal  Forces:  Max     0.089136982 RMS     0.012397539
 Search for a local minimum.
 Step number   1 out of a maximum of  164
 All quantities printed in internal units (Hartrees-Bohrs-Radians)
 RMS Force = .12398D-01 SwitMx=.10000D-02 MixMth= 1
 Mixed Optimization -- RFO/linear search
 Second derivative matrix not updated -- first step.
 ITU=  0
     Eigenvalues ---    0.00230   0.00230   0.00230   0.00230   0.00230
     Eigenvalues ---    0.00230   0.00230   0.00230   0.03847   0.03960
     Eigenvalues ---    0.03961   0.03981   0.04009   0.04068   0.04942
     Eigenvalues ---    0.04973   0.05110   0.05145   0.05151   0.05159
     Eigenvalues ---    0.05651   0.05715   0.05715   0.05715   0.05715
     Eigenvalues ---    0.07001   0.07694   0.07736   0.07768   0.07785
     Eigenvalues ---    0.07944   0.07947   0.11651   0.11733   0.11766
     Eigenvalues ---    0.11781   0.11791   0.11930   0.12255   0.16000
     Eigenvalues ---    0.16000   0.16000   0.16000   0.16000   0.16000
     Eigenvalues ---    0.18533   0.22478   0.22497   0.22501   0.22503
     Eigenvalues ---    0.22508   0.22534   0.23501   0.23512   0.25000
     Eigenvalues ---    0.27330   0.27584   0.27736   0.27854   0.28013
     Eigenvalues ---    0.28194   0.34804   0.34805   0.34805   0.34806
     Eigenvalues ---    0.34808   0.34809   0.34810   0.34810   0.34810
     Eigenvalues ---    0.34812   0.34815   0.34815   0.34816   0.34816
     Eigenvalues ---    0.34816   0.34816   0.34817   0.34819   0.50397
     Eigenvalues ---    0.50426
 RFO step:  Lambda=-7.14786557D-02 EMin= 2.30000000D-03
 Linear search not attempted -- first point.
 Maximum step size (   0.300) exceeded in Quadratic search.
    -- Step size scaled by   0.714
 Iteration  1 RMS(Cart)=  0.05071816 RMS(Int)=  0.00097382
 Iteration  2 RMS(Cart)=  0.00165280 RMS(Int)=  0.00056270
 Iteration  3 RMS(Cart)=  0.00000194 RMS(Int)=  0.00056270
 Iteration  4 RMS(Cart)=  0.00000000 RMS(Int)=  0.00056270
 ITry= 1 IFail=0 DXMaxC= 1.68D-01 DCOld= 1.00D+10 DXMaxT= 3.00D-01 DXLimC= 3.00D+00 Rises=F
 Variable       Old X    -DE/DX   Delta X   Delta X   Delta X     New X
                                 (Linear)    (Quad)   (Total)
    R1        3.03167  -0.08813   0.00000  -0.10932  -0.10932   2.92235
    R2        3.46880  -0.01089   0.00000  -0.02535  -0.02535   3.44344
    R3        3.46848  -0.01126   0.00000  -0.02621  -0.02621   3.44228
    R4        3.03138  -0.08914   0.00000  -0.11052  -0.11052   2.92086
    R5        2.92720   0.00664   0.00000   0.01359   0.01359   2.94079
    R6        2.05975   0.00215   0.00000   0.00365   0.00365   2.06340
    R7        2.05985   0.00010   0.00000   0.00017   0.00017   2.06001
    R8        2.93056   0.00032   0.00000   0.00065   0.00065   2.93122
    R9        2.05977   0.00293   0.00000   0.00498   0.00498   2.06475
   R10        2.05985   0.00366   0.00000   0.00622   0.00622   2.06607
   R11        2.92111   0.00568   0.00000   0.01153   0.01153   2.93264
   R12        2.05981   0.00346   0.00000   0.00589   0.00589   2.06570
   R13        2.05993   0.00285   0.00000   0.00485   0.00485   2.06478
   R14        2.05977   0.00388   0.00000   0.00660   0.00660   2.06637
   R15        2.05975   0.00249   0.00000   0.00423   0.00423   2.06398
   R16        2.05970   0.00276   0.00000   0.00469   0.00469   2.06438
   R17        2.92458   0.00336   0.00000   0.00686   0.00686   2.93144
   R18        2.05987   0.00223   0.00000   0.00379   0.00379   2.06366
   R19        2.05974   0.00186   0.00000   0.00317   0.00317   2.06291
   R20        2.93626  -0.00146   0.00000  -0.00303  -0.00303   2.93324
   R21        2.05985   0.00252   0.00000   0.00428   0.00428   2.06413
   R22        2.05994   0.00220   0.00000   0.00374   0.00374   2.06368
   R23        2.91717   0.00234   0.00000   0.00473   0.00473   2.92190
   R24        2.05991   0.00385   0.00000   0.00655   0.00655   2.06646
   R25        2.05974   0.00377   0.00000   0.00640   0.00640   2.06615
   R26        2.05974   0.00279   0.00000   0.00475   0.00475   2.06449
   R27        2.05993   0.00324   0.00000   0.00552   0.00552   2.06545
   R28        2.05985   0.00379   0.00000   0.00646   0.00646   2.06631
    A1        1.90652  -0.00218   0.00000  -0.01112  -0.01202   1.89451
    A2        1.91231  -0.00161   0.00000  -0.01030  -0.01114   1.90117
    A3        1.89758   0.01603   0.00000   0.08175   0.08195   1.97953
    A4        1.93337  -0.00897   0.00000  -0.04245  -0.04350   1.88987
    A5        1.90396   0.00012   0.00000  -0.00314  -0.00393   1.90003
    A6        1.90970  -0.00288   0.00000  -0.01226  -0.01282   1.89688
    A7        1.94661  -0.00581   0.00000  -0.00424  -0.00366   1.94295
    A8        1.90734  -0.00217   0.00000  -0.01516  -0.01605   1.89129
    A9        1.90733  -0.00904   0.00000  -0.04690  -0.04749   1.85985
   A10        1.80090   0.01180   0.00000   0.05788   0.05745   1.85836
   A11        1.80084   0.01407   0.00000   0.06064   0.06036   1.86120
   A12        2.09436  -0.00697   0.00000  -0.03933  -0.04340   2.05096
   A13        1.98182  -0.02014   0.00000  -0.04038  -0.03997   1.94184
   A14        1.84797   0.00672   0.00000   0.02068   0.02099   1.86896
   A15        1.84794   0.00967   0.00000   0.03180   0.03202   1.87996
   A16        1.84871   0.00875   0.00000   0.02740   0.02768   1.87639
   A17        1.84866   0.00588   0.00000   0.01678   0.01716   1.86583
   A18        2.09435  -0.01368   0.00000  -0.06236  -0.06250   2.03185
   A19        1.95388  -0.01144   0.00000  -0.01842  -0.01833   1.93555
   A20        1.85543   0.00576   0.00000   0.02022   0.02030   1.87573
   A21        1.85535   0.00483   0.00000   0.01576   0.01586   1.87120
   A22        1.85341   0.00603   0.00000   0.02211   0.02218   1.87559
   A23        1.85332   0.00623   0.00000   0.02187   0.02195   1.87526
   A24        2.09434  -0.01285   0.00000  -0.06345  -0.06341   2.03094
   A25        1.91058   0.00600   0.00000   0.01866   0.01851   1.92909
   A26        1.91066   0.00338   0.00000   0.01016   0.01007   1.92072
   A27        1.91071   0.00570   0.00000   0.01768   0.01754   1.92825
   A28        1.91061  -0.00480   0.00000  -0.01502  -0.01512   1.89550
   A29        1.91057  -0.00559   0.00000  -0.01675  -0.01693   1.89364
   A30        1.91066  -0.00468   0.00000  -0.01473  -0.01481   1.89585
   A31        1.96514  -0.02373   0.00000  -0.04918  -0.04828   1.91686
   A32        1.90484  -0.00039   0.00000  -0.01486  -0.01405   1.89079
   A33        1.90486   0.00016   0.00000  -0.01238  -0.01158   1.89328
   A34        1.79524   0.01657   0.00000   0.06186   0.06103   1.85627
   A35        1.79522   0.01634   0.00000   0.06141   0.06062   1.85584
   A36        2.09438  -0.00997   0.00000  -0.04307  -0.04617   2.04821
   A37        1.95856  -0.01932   0.00000  -0.03834  -0.03797   1.92059
   A38        1.85206   0.00699   0.00000   0.02117   0.02148   1.87355
   A39        1.85210   0.00728   0.00000   0.02212   0.02242   1.87452
   A40        1.85463   0.00825   0.00000   0.02690   0.02714   1.88176
   A41        1.85462   0.00786   0.00000   0.02527   0.02551   1.88014
   A42        2.09439  -0.01361   0.00000  -0.06198  -0.06210   2.03229
   A43        1.96201  -0.01491   0.00000  -0.02720  -0.02699   1.93502
[...]
 476,0.00080310,0.00148907,0.00080755,0.00013562,-0.00068148,0.18771882
 ,0.00093955,0.00063837,0.00117362,-0.00132950,-0.00176333,0.00073880,-
 0.00011929,-0.00001392,-0.00015707,-0.00003309,0.00001533,0.00000876,0
 .00001997,0.00000476,0.00000502,-0.00000740,-0.00000430,-0.00000738,-0
 .01285311,-0.01399503,-0.00253507,-0.12792713,-0.18489448,-0.00120486,
 -0.01294432,-0.01435402,0.00148895,0.00028350,0.00079104,-0.00116237,-
 0.00004470,0.00030018,-0.00006486,0.00006893,0.00007417,0.00002582,0.0
 0004746,0.00001071,-0.00006262,0.00003300,0.00001324,-0.00003548,-0.00
 002814,-0.00001299,0.00000425,0.00000517,0.00001245,0.00001108,0.00000
 036,0.00000005,0.00000135,-0.00000176,-0.00000524,0.00000122,0.0000064
 7,-0.00000207,-0.00000012,0.00000670,0.00000495,-0.00000534,0.00083813
 ,-0.00121386,-0.00296956,-0.00002463,0.00036557,0.00056498,0.14177366,
 0.20190022,0.00167021,0.00162985,0.00058505,-0.00346780,-0.00419642,0.
 00035547,0.00028176,0.00013927,-0.00020810,0.00009805,-0.00003346,0.00
 009839,-0.00002498,0.00001659,-0.00003773,0.00000664,-0.00000145,0.000
 01327,-0.02050898,-0.02107628,-0.00257981,0.00130536,0.00092716,-0.048
 09825,0.02066916,0.02116960,-0.00141212,0.00085080,0.00084007,0.001761
 83,0.00006822,0.00085483,-0.00030670,0.00004473,0.00020412,0.00025108,
 0.00003595,0.00006943,-0.00005951,0.00005993,-0.00001672,-0.00004744,-
 0.00006046,0.00002454,-0.00002327,0.00000444,0.00001209,0.00001440,0.0
 0000108,-0.00000295,-0.00001242,-0.00000455,0.00000231,-0.00000327,-0.
 00000550,0.00000437,0.00000215,0.00000389,0.00000087,-0.00000376,0.001
 13359,-0.00312552,-0.00495665,0.00031460,0.00075992,0.00102211,0.00026
 452,0.00126263,0.05778283,0.00040668,-0.00034939,0.00029706,-0.0021746
 4,0.00198677,-0.00040004,0.00008793,-0.00017033,0.00013458,-0.00000481
 ,0.00000166,-0.00002276,0.00000492,-0.00002237,0.00000343,0.00000148,0
 .00000401,-0.00000031,-0.00264833,0.00100517,0.00201772,-0.26380509,0.
 09870729,-0.00899581,-0.00144763,0.00075660,-0.00049742,0.00027712,-0.
 00030296,0.00031054,0.00085579,-0.00074380,-0.00122156,-0.00000642,-0.
 00000886,-0.00002599,-0.00000516,0.00002483,0.00008153,-0.00000627,0.0
 0000485,0.00000031,0.00003179,-0.00003124,0.00000571,0.00000039,0.0000
 0278,-0.00000149,-0.00000165,0.00000400,0.00001109,0.00000078,-0.00000
 492,0.00000010,-0.00000103,0.00000271,0.00000418,-0.00000035,-0.000000
 20,-0.00000282,0.00079709,-0.00000861,0.00042931,0.00144001,0.00037901
 ,0.00000203,-0.01976566,0.00990605,-0.00101760,0.28297506,0.00008381,0
 .00019731,0.00004984,0.00118549,-0.00055844,0.00070776,0.00009184,0.00
 001139,-0.00002909,0.00003942,-0.00011726,0.00003382,-0.00000676,0.000
 06520,-0.00001451,-0.00000958,-0.00000880,-0.00000351,0.01748986,-0.00
 883279,-0.00116353,0.09807488,-0.09933861,0.00378919,0.01741213,-0.009
 02948,0.00221844,-0.00042280,0.00058159,-0.00111923,-0.00094408,-0.000
 00174,0.00073982,0.00000723,-0.00001095,0.00001746,-0.00003926,0.00001
 477,-0.00003479,-0.00000064,0.00000771,-0.00001589,-0.00007061,0.00008
 413,-0.00004187,-0.00000078,-0.00000965,0.00000072,0.00000356,-0.00001
 408,-0.00002882,-0.00000212,0.00000551,0.00000262,0.00000609,-0.000003
 89,-0.00000657,0.00000055,0.00000231,0.00000149,0.00014678,0.00036761,
 0.00077707,0.00035229,-0.00138114,-0.00325049,-0.02197468,0.01214826,-
 0.00102304,-0.11103288,0.10640143,-0.00034366,0.00075303,-0.00028410,0
 .00452984,-0.00260656,0.00057505,-0.00033909,-0.00001249,-0.00015271,0
 .00018201,-0.00010546,0.00026062,-0.00011678,0.00009705,-0.00006522,0.
 00000139,0.00000639,0.00002770,0.02683017,-0.01248415,-0.00138028,-0.0
 1172953,0.00510292,-0.04858892,-0.02666944,0.01247374,-0.00264562,-0.0
 0116605,0.00045973,0.00169600,-0.00217624,0.00089296,0.00044336,0.0000
 1131,0.00001854,0.00005604,-0.00004173,0.00003636,-0.00004931,0.000015
 92,-0.00000160,-0.00002281,-0.00011531,0.00016631,-0.00008225,0.000002
 99,-0.00000987,-0.00000162,0.00000884,-0.00002741,-0.00004957,-0.00000
 528,0.00000924,0.00000030,-0.00000832,0.00000292,-0.00000321,-0.000000
 27,0.00000031,0.00000173,-0.00059074,0.00058623,0.00101389,0.00036147,
 -0.00326614,-0.00495918,0.00011301,0.00003202,-0.00029906,0.00984918,-
 0.00422839,0.05827710,0.00009290,0.00011810,-0.00009786,0.00014817,0.0
 0005222,0.00019806,-0.00001972,-0.00007662,0.00005072,0.00001551,0.000
 00173,0.00002280,-0.00001390,-0.00000864,-0.00000538,0.00000132,0.0000
 0017,0.00000790,0.00004183,0.00009561,-0.00011164,0.00225906,0.0025990
 7,0.00002885,-0.17202650,-0.12476131,-0.00222937,0.00376279,0.00424218
 ,0.00011815,-0.00005674,0.00003144,0.00005861,0.00001075,0.00000084,0.
 00000454,-0.00000314,0.00002690,0.00002043,0.00000278,0.00000806,-0.00
 001300,-0.00001373,-0.00001046,-0.00000736,0.00000753,0.00000714,0.000
 00616,0.00000116,0.00000291,-0.00000198,-0.00000476,-0.00000181,-0.000
 00278,-0.00000169,0.00000158,0.00000243,0.00000356,0.00000411,-0.00000
 402,0.00013567,0.00008110,0.00057190,-0.00007919,-0.00011082,-0.000070
 05,0.00144387,0.00074084,-0.00062017,0.00084162,0.00006307,0.00053629,
 0.18231155,0.00022852,0.00031920,0.00016705,-0.00020339,-0.00034949,-0
 .00021067,0.00000877,-0.00004554,0.00005388,0.00001873,0.00000646,0.00
 001804,-0.00001377,-0.00000901,-0.00001134,0.00000401,0.00000194,0.000
 00903,0.00021917,0.00045795,-0.00115822,-0.01336918,-0.01481897,0.0011
 9069,-0.12411535,-0.18171684,-0.00180424,-0.01302103,-0.01412858,-0.00
 127806,0.00015547,0.00007848,0.00007280,-0.00000263,0.00001358,0.00000
 478,-0.00000879,0.00002134,0.00002117,0.00000848,-0.00000004,-0.000007
 78,-0.00000187,-0.00000442,-0.00000264,0.00000418,0.00000690,0.0000038
 6,-0.00000019,0.00000162,0.00000096,-0.00000213,-0.00000043,-0.0000026
 9,-0.00000444,0.00000334,0.00000358,0.00000208,0.00000109,-0.00000240,
 0.00005615,0.00065438,0.00070068,0.00006584,0.00005050,0.00008494,0.00
 080340,-0.00113301,0.00326410,0.00016016,0.00031061,-0.00064045,0.1380
 3406,0.19859481,-0.00029097,-0.00045060,-0.00037210,0.00022843,0.00081
 920,0.00039053,0.00000993,-0.00006954,0.00004689,-0.00000646,-0.000001
 65,-0.00001540,0.00000257,0.00000139,0.00000546,-0.00000164,-0.0000002
 4,-0.00000425,0.00092481,0.00107792,0.00170523,0.02099819,0.02162242,-
 0.00208848,-0.00239485,-0.00183964,-0.04831790,-0.02049990,-0.02178156
 ,-0.00162860,-0.00002048,-0.00015932,-0.00004240,-0.00000711,-0.000023
 15,-0.00002280,-0.00000199,0.00000677,0.00002032,-0.00001086,0.0000005
 0,0.00001012,0.00000505,0.00000214,0.00000259,-0.00000150,-0.00000440,
 -0.00000421,0.00000015,-0.00000095,-0.00000048,0.00000109,-0.00000002,
 0.00000117,0.00000146,-0.00000148,-0.00000112,-0.00000132,-0.00000024,
 0.00000146,-0.00036980,-0.00058880,-0.00038479,0.00000471,-0.00004922,
 -0.00008198,-0.00084501,0.00303037,-0.00482328,-0.00030095,-0.00084571
 ,0.00113620,0.00205715,0.00214092,0.05747126,0.00002493,-0.00004448,-0
 .00008356,0.00006323,0.00006233,-0.00011741,-0.00003853,0.00007173,-0.
 00006068,-0.00004103,0.00003461,-0.00005492,0.00001993,-0.00000677,0.0
 0001351,-0.00000815,0.00000574,-0.00001876,0.00024557,-0.00023728,0.00
 043023,-0.00202919,0.00104971,-0.00041403,-0.25528291,0.09671881,-0.00
 697543,-0.00278282,0.00124904,0.00029095,0.00022134,-0.00013712,0.0000
 5897,0.00000052,0.00000264,-0.00000116,0.00001682,-0.00003553,-0.00002
 778,0.00000126,0.00000009,0.00000512,0.00000955,-0.00001979,0.00001291
 ,-0.00000290,0.00000179,-0.00000415,0.00000155,-0.00000265,0.00001165,
 0.00000555,-0.00000950,0.00000535,0.00000603,-0.00000244,0.00000271,0.
 00000100,-0.00000043,-0.00000061,-0.00007691,0.00006296,0.00003749,0.0
 0025990,-0.00021127,-0.00076723,0.00083875,0.00017834,-0.00028651,0.00
 166024,0.00015191,-0.00024606,-0.02107171,0.00967401,-0.00072230,0.275
 35016,-0.00017730,0.00000069,0.00004353,0.00036874,-0.00024786,-0.0002
 6398,-0.00001582,-0.00001456,0.00003006,0.00002433,0.00000479,0.000021
 28,-0.00001440,-0.00000160,-0.00000859,0.00000718,0.00000257,0.0000087
 8,-0.00025996,0.00031619,-0.00107068,0.01785113,-0.00925687,0.00195121
 ,0.09608878,-0.09815902,0.00355822,0.01762747,-0.00885294,-0.00039994,
 -0.00028024,0.00018124,0.00018314,-0.00000898,-0.00000093,-0.00000244,
 -0.00000918,0.00001382,0.00000969,0.00000039,-0.00000850,0.00000792,0.
 00000699,0.00001116,-0.00000339,-0.00000195,-0.00000238,-0.00000117,-0
 .00000090,0.00000122,-0.00000242,0.00000003,0.00000515,-0.00000227,-0.
 00000568,0.00000193,-0.00000016,-0.00000272,-0.00000341,0.00000287,-0.
 00011910,0.00005150,0.00009706,-0.00024018,0.00055124,0.00046222,0.000
 07622,0.00031735,-0.00079812,0.00006791,-0.00138395,0.00331326,-0.0220
 3403,0.01168642,-0.00082414,-0.10878234,0.10519160,0.00007926,-0.00014
 507,-0.00004976,-0.00052939,0.00068193,0.00036622,0.00003246,-0.000069
 06,0.00003567,-0.00002544,0.00002436,-0.00004041,0.00001450,-0.0000122
 6,0.00000811,-0.00000237,0.00000141,-0.00000772,-0.00132225,0.00064855
 ,0.00163871,-0.02714440,0.01283036,-0.00333995,-0.00681014,0.00361678,
 -0.04849410,0.02698729,-0.01314547,-0.00036000,0.00046544,-0.00031748,
 -0.00034658,0.00000190,-0.00000116,-0.00000587,0.00000734,0.00000401,0
 .00002193,-0.00000124,0.00000159,0.00000230,0.00000650,-0.00001979,0.0
 0001052,-0.00000075,0.00000140,-0.00000115,-0.00000016,0.00000158,0.00
 000733,0.00000208,-0.00000412,0.00000098,0.00000267,-0.00000113,0.0000
 0151,0.00000045,0.,-0.00000062,0.00001111,-0.00004388,-0.00007841,0.00
 059231,-0.00042783,-0.00036660,0.00056901,-0.00068250,0.00113802,0.000
 05715,0.00317657,-0.00478529,-0.00029152,0.00008863,-0.00039760,0.0074
 6709,-0.00387096,0.05764281,0.00000277,-0.00001683,0.00001579,-0.00005
 536,0.00012773,0.00001635,0.00001543,-0.00003664,0.00003180,0.00000598
 ,-0.00000400,0.00000455,-0.00000246,0.00000093,-0.00000339,0.00000168,
 -0.00000022,0.00000294,0.00057475,-0.00008142,0.00022282,0.00008930,0.
 00060110,0.00058502,-0.00096805,-0.00295461,0.00381277,-0.05161203,0.0
 1216355,-0.01795709,0.00004461,-0.00003067,-0.00001308,-0.00000160,-0.
 00000105,-0.00000163,-0.00000555,0.00001154,0.00001478,-0.00000034,-0.
 00000062,-0.00000056,-0.00000024,0.00000225,-0.00000184,-0.00000035,-0
 .00000055,0.00000028,-0.00000024,0.00000007,-0.00000119,-0.00000020,0.
 00000143,-0.00000086,-0.00000121,0.00000070,-0.00000010,-0.00000058,-0
 .00000069,0.00000025,-0.00001881,0.00003926,0.00004986,-0.00001152,-0.
 00006564,-0.00007464,0.00012572,0.00035043,-0.00031712,0.00031114,-0.0
 0025117,0.00035311,0.00004311,0.00018255,-0.00036325,0.00011897,-0.000
 48325,0.00001492,0.05002355,0.00005709,0.00014015,0.00003296,0.0001129
 5,-0.00057784,-0.00017078,-0.00003190,0.00016611,-0.00013603,-0.000022
 46,0.00000416,-0.00001164,0.00001228,0.00000048,0.00000648,-0.00000339
 ,-0.00000259,-0.00000469,-0.00001658,0.00082163,-0.00094961,0.00053979
 ,-0.00232697,-0.00273171,-0.00204517,0.01238194,-0.01791674,0.01214236
 ,-0.13432890,0.12388949,-0.00009696,0.00010286,0.00002264,-0.00000066,
 0.00000369,0.00000899,0.00001144,-0.00005082,-0.00005825,0.00000242,-0
 .00000073,-0.00000021,0.00000283,-0.00000203,0.00000522,-0.00000117,-0
 .00000009,-0.00000044,-0.00000074,-0.00000036,0.00000279,0.00000141,-0
 .00000107,0.00000078,0.00000278,-0.00000116,-0.00000036,0.00000077,0.0
 0000029,0.,-0.00005034,0.00005231,0.00007844,0.00002030,0.00004936,0.0
 0006013,0.00027461,0.00007875,-0.00016601,-0.00017814,-0.00011802,-0.0
 0005841,-0.00019152,0.00091853,0.00078484,-0.00014857,0.00080164,0.000
 85447,-0.01388878,0.14337018,0.00015127,0.00025088,-0.00019198,0.00018
 977,-0.00106638,0.00046147,-0.00006189,0.00031314,-0.00024617,-0.00007
 275,-0.00002014,-0.00004762,0.00004533,0.00002426,0.00004407,-0.000021
 55,-0.00001160,-0.00002982,-0.00020152,0.00137584,-0.00126002,0.001031
 83,-0.00513666,-0.00308444,-0.00246446,0.01641265,-0.02162794,-0.01779
 819,0.12302305,-0.22641733,-0.00020711,0.00017185,-0.00020501,0.000015
 35,0.00000165,0.00002129,0.00003192,-0.00009560,-0.00011249,-0.0000005
 0,0.00000588,0.00000677,-0.00000726,0.00001470,0.00000733,-0.00000421,
 -0.00000658,-0.00000405,-0.00000043,-0.00000414,-0.00000503,0.00000351
 ,-0.00000038,0.00000867,0.00001791,-0.00001357,-0.00001334,0.00000291,
 0.00000403,0.00000450,-0.00006754,-0.00000860,-0.00003030,0.00006542,0
 .00001830,-0.00001748,0.00011118,-0.00013247,0.00032395,-0.00005937,-0
 .00017973,0.00033364,-0.00061117,-0.00001115,0.00093993,0.00053255,0.0
 0017889,0.00097920,0.01906743,-0.13323322,0.24700410,0.00005361,0.0000
 9016,0.00002264,-0.00007530,-0.00021733,-0.00001884,0.00000226,0.00003
 605,-0.00002362,-0.00000094,-0.00000514,0.00000363,0.00000029,0.000000
 08,0.00000127,-0.00000084,-0.00000220,0.00000106,0.00019190,0.00028682
 ,-0.00013583,0.00004726,0.00004935,-0.00003043,0.00397402,0.00430144,-
 0.00000303,-0.17636740,-0.13032645,-0.00766220,0.00000586,0.00006159,-
 0.00001428,-0.00000069,0.00000480,0.00000631,0.00000004,-0.00000853,-0
 .00001084,0.00000273,-0.00000021,-0.00000119,-0.00000114,0.00000251,-0
 .00000169,0.00000119,0.00000127,0.00000081,-0.00000073,0.00000037,-0.0
 0000160,-0.00000066,0.00000106,-0.00000075,0.00000025,-0.00000051,-0.0
 0000070,0.00000120,0.00000103,0.00000008,-0.00004956,0.00004036,0.0001
 1538,-0.00001332,0.00001520,0.00001932,0.00012579,0.00004393,-0.000495
 67,-0.00006375,-0.00012369,0.00002250,0.00132384,0.00092910,0.00122840
 ,0.00082774,-0.00000540,-0.00064039,0.00252426,0.00345410,0.00087394,0
 .18745664,0.00010757,0.00010596,-0.00006520,-0.00004142,-0.00017020,0.
 00018475,-0.00000859,0.00003920,-0.00003327,-0.00001348,-0.00001027,-0
 .00000681,0.00000694,0.00000311,0.00000948,-0.00000613,-0.00000397,-0.
 00000519,0.00025255,0.00023199,0.00005161,0.00020090,0.00054586,0.0011
 2096,-0.01324747,-0.01470847,-0.00106281,-0.13003794,-0.18481468,-0.00
 699191,-0.00001590,0.00004989,-0.00007426,0.00000714,0.00000095,0.0000
 0623,0.00000431,-0.00001411,-0.00001641,0.00000115,0.00000522,-0.00000
 365,-0.00000694,0.00000079,-0.00000061,0.00000274,0.00000202,0.0000013
 7,0.00000021,-0.00000029,-0.00000215,-0.00000120,-0.00000133,0.0000013
 1,0.00000442,-0.00000285,-0.00000222,0.00000293,0.00000365,-0.00000101
 ,0.00001847,0.00008401,0.00022015,-0.00000320,-0.00004187,-0.00000865,
 0.00008688,0.00065134,-0.00067735,0.00005962,0.00006004,-0.00005543,0.
 00115238,-0.00113963,-0.00361290,0.00025932,0.00024566,0.00059060,-0.0
 1286919,-0.01323899,-0.00121459,0.14382454,0.19990948,0.00009073,0.000
 11671,0.00005213,-0.00005362,-0.00006968,-0.00004636,0.00000214,-0.000
 01360,0.00001439,0.00000907,-0.00000163,0.00001090,-0.00000550,-0.0000
 0295,-0.00000558,0.00000200,0.00000015,0.00000472,0.00017651,0.0000074
 2,0.00010084,-0.00113952,-0.00102251,0.00174305,-0.02084127,-0.0208140
 4,-0.00189353,-0.00717177,-0.00646001,-0.04994096,0.00001075,0.0000408
 1,0.00001410,0.00000039,0.00000302,0.00000375,-0.00000425,0.00000565,0
 .00000668,0.00000288,0.00000051,-0.00000479,-0.00000220,-0.00000181,-0
 .00000219,0.00000183,0.00000262,0.00000221,-0.00000012,0.00000090,-0.0
 0000018,-0.00000126,0.00000010,-0.00000153,-0.00000186,0.00000179,0.00
 000164,0.00000081,0.00000041,-0.00000139,0.00009412,0.00021334,0.00013
 089,-0.00001905,-0.00001700,0.00002373,0.00049446,0.00059816,-0.000382
 52,0.00000111,0.00007149,-0.00009380,0.00089962,-0.00342191,-0.0046788
 3,0.00021326,0.00085698,0.00112527,0.02045387,0.01911705,0.00221283,0.
 00735255,0.01092089,0.05254880,0.00002490,-0.00007542,0.00003653,-0.00
 017877,0.00022013,-0.00004646,0.00002194,-0.00004406,0.00003678,-0.000
 00178,0.00000435,-0.00001066,0.00000003,-0.00000256,-0.00000376,-0.000
 00048,0.00000287,-0.00000232,0.00037732,-0.00023139,0.00011706,0.00013
 661,-0.00014477,-0.00044736,-0.00272553,0.00138601,0.00035028,-0.26402
 717,0.10058000,-0.00041541,0.00013274,-0.00008544,0.00000469,-0.000001
 62,0.00000120,-0.00000400,-0.00000265,0.00001127,0.00001728,-0.0000003
 1,0.00000147,-0.00000229,0.00000047,-0.00000649,0.00000353,0.00000028,
 0.00000166,-0.00000041,0.00000114,-0.00000142,0.00000403,0.00000079,-0
 .00000378,0.00000121,-0.00000011,0.00000156,0.00000297,0.00000017,0.00
 000007,-0.00000182,-0.00001347,-0.00000261,-0.00001449,0.00000527,-0.0
 0008475,-0.00019371,-0.00006768,0.00007056,-0.00000359,0.00023878,-0.0
 0022988,0.00073045,0.00084403,0.00018808,0.00037643,0.00166109,0.00032
 224,0.00045658,-0.00120275,0.00004126,-0.00056237,-0.01996454,0.010259
 39,-0.00056566,0.28474132,0.00001244,0.00003328,-0.00006120,0.00003457
 ,-0.00007539,0.00017738,-0.00000296,0.00002797,-0.00002699,-0.00000465
 ,-0.00001563,0.00000226,0.00000582,0.00000791,0.00000711,-0.00000245,-
 0.00000454,-0.00000163,-0.00020224,0.00004874,0.00008605,-0.00039853,0
 .00039475,0.00102526,0.01808671,-0.00929534,-0.00013573,0.10031995,-0.
 09761498,0.00086771,-0.00009506,0.00003247,-0.00007374,0.00000431,-0.0
 0000388,0.00000194,0.00000268,-0.00000877,-0.00001262,-0.00000201,0.00
 000119,0.00000129,-0.00000287,0.00000814,-0.00000331,-0.00000052,-0.00
 000280,0.00000007,-0.00000067,0.00000022,-0.00000462,-0.00000065,0.000
 00292,0.00000040,0.00000256,-0.00000257,-0.00000413,0.,0.00000082,0.00
 000140,0.00001439,-0.00004263,-0.00001723,-0.00006280,0.00004611,0.000
 16308,-0.00010501,0.00006549,-0.00006442,-0.00021972,0.00055094,-0.000
 45465,-0.00006831,0.00021881,0.00076709,0.00011513,-0.00145216,-0.0037
 8150,0.01720378,-0.00824252,-0.00066033,-0.02245432,0.01220751,-0.0001
 3286,-0.11217956,0.10311394,-0.00002545,0.00003009,0.00001569,0.000071
 49,-0.00003523,-0.00004417,-0.00000134,-0.00001511,0.00001533,0.000015
 17,-0.00000526,0.00001756,-0.00000793,-0.00000034,-0.00000576,0.000003
 15,-0.00000026,0.00000568,-0.00015750,-0.00006619,0.00009608,0.0013447
 4,-0.00057768,0.00179254,0.02700953,-0.01215072,-0.00060284,-0.0010823
 5,0.00122482,-0.04950388,-0.00012654,0.00007288,0.00004538,-0.00000083
 ,-0.00000075,-0.00000009,-0.00000429,0.00000756,0.00000579,0.00000023,
 -0.00000109,-0.00000111,-0.00000070,0.00000333,-0.00000381,0.00000104,
 0.00000035,0.00000111,-0.00000029,0.00000090,-0.00000183,-0.00000142,0
 .00000183,-0.00000148,-0.00000260,0.00000163,0.00000057,-0.00000029,-0
 .00000013,-0.00000027,0.00002158,-0.00000947,0.00002406,-0.00017152,0.
 00016283,0.00011422,-0.00002438,0.00007268,-0.00009465,-0.00065891,0.0
 0039890,-0.00035867,-0.00051732,0.00072641,0.00113305,0.00069882,-0.00
 347682,-0.00470453,-0.02591178,0.01057384,0.00094530,-0.00060681,0.000
 72710,-0.00094428,0.00013650,0.00233391,0.05205500\\0.00000051,0.00000
 059,0.00001429,-0.00000033,0.00000734,-0.00003015,0.00000004,-0.000004
 57,0.00000576,0.00000042,0.00000054,-0.00000039,0.00000842,-0.00000179
 ,0.00000114,-0.00000684,0.00000059,0.00000020,-0.00000121,0.00000115,0
 .00000319,-0.00000347,0.00000070,-0.00000073,-0.00000047,0.00000158,0.
 00000105,0.00000036,-0.00000154,-0.00000067,0.00000728,-0.00000294,0.0
 0001149,0.00000084,-0.00000103,-0.00000241,0.00000157,0.00000262,0.000
 00400,-0.00000138,0.00000055,-0.00000138,-0.00000230,-0.00000072,0.000
 00085,0.00000073,-0.00000245,0.00000170,0.00000026,-0.00000034,-0.0000
 0277,-0.00000401,-0.00000290,0.00000004,-0.00000063,0.00000201,-0.0000
 0440,-0.00000039,0.00000148,0.00000274,-0.00000068,-0.00000020,0.00000
 098,-0.00000057,0.00000302,-0.00000545,0.00000153,-0.00000009,0.000001
 37,0.00000146,0.00000031,-0.00000070,-0.00000166,0.00000023,0.00000055
 ,-0.00000026,-0.00000053,0.00000024,0.00000070,-0.00000139,0.00000091,
 0.00000020,-0.00000107,-0.00000046,-0.00000013,-0.00000113,-0.00000098
 \\\@


 ABALONE: AN EXPRESSION OF DISBELIEF.
 Job cpu time:       0 days  0 hours 16 minutes 42.5 seconds.
 Elapsed time:       0 days  0 hours  0 minutes 42.4 seconds.
 File lengths (MBytes):  RWF=    154 Int=      0 D2E=      0 Chk=      5 Scr=      1
 Normal termination of Gaussian 16 at Mon Oct 14 01:46:24 2019.
real 106.03
user 2414.22
sys 15.07
Machine:
brown-a070
brown-a070
brown-a070
brown-a070
brown-a070
brown-a070
brown-a070
brown-a070
brown-a070
brown-a070
brown-a070
brown-a070
brown-a070
brown-a070
brown-a070
brown-a070
brown-a070
brown-a070
brown-a070
brown-a070
brown-a070
brown-a070
brown-a070
brown-a070
