 Entering Gaussian System, Link 0=/apps/cent7/gaussian/g16-A.03/g16-haswell/g16/g16
 Initial command:
 /apps/cent7/gaussian/g16-A.03/g16-haswell/g16/l1.exe "/scratch/brown/finej/gaussian/Gau-197620.inp" -scrdir="/scratch/brown/finej/gaussian/"
 Entering Link 1 = /apps/cent7/gaussian/g16-A.03/g16-haswell/g16/l1.exe PID=    197621.
  
 Copyright (c) 1988,1990,1992,1993,1995,1998,2003,2009,2016,
            Gaussian, Inc.  All Rights Reserved.
  
 This is part of the Gaussian(R) 16 program.  It is based on
 the Gaussian(R) 09 system (copyright 2009, Gaussian, Inc.),
 the Gaussian(R) 03 system (copyright 2003, Gaussian, Inc.),
 the Gaussian(R) 98 system (copyright 1998, Gaussian, Inc.),
 the Gaussian(R) 94 system (copyright 1995, Gaussian, Inc.),
 the Gaussian 92(TM) system (copyright 1992, Gaussian, Inc.),
 the Gaussian 90(TM) system (copyright 1990, Gaussian, Inc.),
 the Gaussian 88(TM) system (copyright 1988, Gaussian, Inc.),
 the Gaussian 86(TM) system (copyright 1986, Carnegie Mellon
 University), and the Gaussian 82(TM) system (copyright 1983,
 Carnegie Mellon University). Gaussian is a federally registered
 trademark of Gaussian, Inc.
  
 This software contains proprietary and confidential information,
 including trade secrets, belonging to Gaussian, Inc.
  
 This software is provided under written license and may be
 used, copied, transmitted, or stored only in accord with that
 written license.
  
 The following legend is applicable only to US Government
 contracts under FAR:
  
                    RESTRICTED RIGHTS LEGEND
  
 Use, reproduction and disclosure by the US Government is
 subject to restrictions as set forth in subparagraphs (a)
 and (c) of the Commercial Computer Software - Restricted
 Rights clause in FAR 52.227-19.
  
 Gaussian, Inc.
 340 Quinnipiac St., Bldg. 40, Wallingford CT 06492
  
  
 ---------------------------------------------------------------
 Warning -- This program may not be used in any manner that
 competes with the business of Gaussian, Inc. or will provide
 assistance to any competitor of Gaussian, Inc.  The licensee
 of this program is prohibited from giving any competitor of
 Gaussian, Inc. access to this program.  By using this program,
 the user acknowledges that Gaussian, Inc. is engaged in the
 business of creating and licensing software in the field of
 computational chemistry and represents and warrants to the
 licensee that it is not a competitor of Gaussian, Inc. and that
 it will not use this program in any manner prohibited above.
 ---------------------------------------------------------------
  

 Cite this work as:
 Gaussian 16, Revision A.03,
 M. J. Frisch, G. W. Trucks, H. B. Schlegel, G. E. Scuseria, 
 M. A. Robb, J. R. Cheeseman, G. Scalmani, V. Barone, 
 G. A. Petersson, H. Nakatsuji, X. Li, M. Caricato, A. V. Marenich, 
 J. Bloino, B. G. Janesko, R. Gomperts, B. Mennucci, H. P. Hratchian, 
 J. V. Ortiz, A. F. Izmaylov, J. L. Sonnenberg, D. Williams-Young, 
 F. Ding, F. Lipparini, F. Egidi, J. Goings, B. Peng, A. Petrone, 
 T. Henderson, D. Ranasinghe, V. G. Zakrzewski, J. Gao, N. Rega, 
 G. Zheng, W. Liang, M. Hada, M. Ehara, K. Toyota, R. Fukuda, 
 J. Hasegawa, M. Ishida, T. Nakajima, Y. Honda, O. Kitao, H. Nakai, 
 T. Vreven, K. Throssell, J. A. Montgomery, Jr., J. E. Peralta, 
 F. Ogliaro, M. J. Bearpark, J. J. Heyd, E. N. Brothers, K. N. Kudin, 
 V. N. Staroverov, T. A. Keith, R. Kobayashi, J. Normand, 
 K. Raghavachari, A. P. Rendell, J. C. Burant, S. S. Iyengar, 
 J. Tomasi, M. Cossi, J. M. Millam, M. Klene, C. Adamo, R. Cammi, 
 J. W. Ochterski, R. L. Martin, K. Morokuma, O. Farkas, 
 J. B. Foresman, and D. J. Fox, Gaussian, Inc., Wallingford CT, 2016.
 
 ******************************************
 Gaussian 16:  ES64L-G16RevA.03 25-Dec-2016
                14-Oct-2019 
 ******************************************
 %chk=30_p.chk
 %nprocshared=24
 Will use up to   24 processors via shared memory.
 %mem=80GB
 --------------------------------------------------------------
 #P opt freq b3lyp/6-31g(d) geom=connectivity temperature=0.001
 --------------------------------------------------------------
 1/18=20,19=15,26=3,38=1,57=2,112=-1000/1,3;
 2/9=110,12=2,17=6,18=5,40=1/2;
 3/5=1,6=6,7=1,11=2,25=1,30=1,71=1,74=-5/1,2,3;
 4//1;
 5/5=2,38=5/2;
 6/7=2,8=2,9=2,10=2,28=1/1;
 7//1,2,3,16;
 1/18=20,19=15,26=3/3(2);
 2/9=110/2;
 99//99;
 2/9=110/2;
 3/5=1,6=6,7=1,11=2,25=1,30=1,71=1,74=-5/1,2,3;
 4/5=5,16=3,69=1/1;
 5/5=2,38=5/2;
 7//1,2,3,16;
 1/18=20,19=15,26=3/3(-5);
 2/9=110/2;
 6/7=2,8=2,9=2,10=2,19=2,28=1/1;
 99/9=1/99;
 Leave Link    1 at Mon Oct 14 01:44:47 2019, MaxMem= 10737418240 cpu:               1.1 elap:               0.1
 (Enter /apps/cent7/gaussian/g16-A.03/g16-haswell/g16/l101.exe)
 -------------------
 Title Card Required
 -------------------
 Symbolic Z-matrix:
 Charge =  1 Multiplicity = 1
 O                     0.6932    3.9776   -2.7631 
 S                    -0.3548    2.763    -2.7494 
 C                    -0.1029    1.73     -4.2457 
 C                     1.3196    1.1179   -4.2811 
 C                     1.5822    0.2322   -5.5267 
 C                     3.0063   -0.3689   -5.5184 
 C                    -0.1226    1.7679   -1.2247 
 C                    -0.3176    2.6013    0.0647 
 C                    -0.1087    1.7531    1.3497 
 C                    -0.2906    2.5828    2.6387 
 O                    -1.8414    3.3653   -2.7719 
 H                    -0.7492    0.854    -4.1913 
 H                    -0.1215    2.3669   -5.1301 
 H                     2.0052    1.9612   -4.3639 
 H                     1.3784    0.4501   -3.4216 
 H                     0.8958   -0.6113   -5.4527 
 H                     1.5379    0.8968   -6.3896 
 H                     3.3359   -0.508    -4.4888 
 H                     2.9975   -1.3312   -6.0302 
 H                     3.6897    0.3086   -6.0302 
 H                    -0.9188    1.0265   -1.1571 
 H                     0.9196    1.4561   -1.1567 
 H                     0.473     3.3517    0.0624 
 H                    -1.3628    2.9108    0.0698 
 H                    -0.9045    1.0082    1.3565 
 H                     0.9342    1.4364    1.3402 
 H                    -0.4105    1.9115    3.489 
 H                     0.5865    3.2114    2.793 
 H                    -1.1761    3.2114    2.5443 
 H                     1.63624   3.79794  -2.76107 
 
 ITRead=  0  0  0  0  0  0  0  0  0  0  0  0  0  0  0  0  0  0  0  0
 ITRead=  0  0  0  0  0  0  0  0  0  0
 MicOpt= -1 -1 -1 -1 -1 -1 -1 -1 -1 -1 -1 -1 -1 -1 -1 -1 -1 -1 -1 -1
 MicOpt= -1 -1 -1 -1 -1 -1 -1 -1 -1 -1
 NAtoms=     30 NQM=       30 NQMF=       0 NMMI=      0 NMMIF=      0
                NMic=       0 NMicF=      0.
                    Isotopes and Nuclear Properties:
 (Nuclear quadrupole moments (NQMom) in fm**2, nuclear magnetic moments (NMagM)
  in nuclear magnetons)

  Atom         1           2           3           4           5           6           7           8           9          10
 IAtWgt=          16          32          12          12          12          12          12          12          12          12
 AtmWgt=  15.9949146  31.9720718  12.0000000  12.0000000  12.0000000  12.0000000  12.0000000  12.0000000  12.0000000  12.0000000
 NucSpn=           0           0           0           0           0           0           0           0           0           0
 AtZEff=  -0.0000000  -0.0000000  -0.0000000  -0.0000000  -0.0000000  -0.0000000  -0.0000000  -0.0000000  -0.0000000  -0.0000000
 NQMom=    0.0000000   0.0000000   0.0000000   0.0000000   0.0000000   0.0000000   0.0000000   0.0000000   0.0000000   0.0000000
 NMagM=    0.0000000   0.0000000   0.0000000   0.0000000   0.0000000   0.0000000   0.0000000   0.0000000   0.0000000   0.0000000
 AtZNuc=   8.0000000  16.0000000   6.0000000   6.0000000   6.0000000   6.0000000   6.0000000   6.0000000   6.0000000   6.0000000

  Atom        11          12          13          14          15          16          17          18          19          20
 IAtWgt=          16           1           1           1           1           1           1           1           1           1
 AtmWgt=  15.9949146   1.0078250   1.0078250   1.0078250   1.0078250   1.0078250   1.0078250   1.0078250   1.0078250   1.0078250
 NucSpn=           0           1           1           1           1           1           1           1           1           1
 AtZEff=  -0.0000000  -0.0000000  -0.0000000  -0.0000000  -0.0000000  -0.0000000  -0.0000000  -0.0000000  -0.0000000  -0.0000000
 NQMom=    0.0000000   0.0000000   0.0000000   0.0000000   0.0000000   0.0000000   0.0000000   0.0000000   0.0000000   0.0000000
 NMagM=    0.0000000   2.7928460   2.7928460   2.7928460   2.7928460   2.7928460   2.7928460   2.7928460   2.7928460   2.7928460
 AtZNuc=   8.0000000   1.0000000   1.0000000   1.0000000   1.0000000   1.0000000   1.0000000   1.0000000   1.0000000   1.0000000

  Atom        21          22          23          24          25          26          27          28          29          30
 IAtWgt=           1           1           1           1           1           1           1           1           1           1
 AtmWgt=   1.0078250   1.0078250   1.0078250   1.0078250   1.0078250   1.0078250   1.0078250   1.0078250   1.0078250   1.0078250
 NucSpn=           1           1           1           1           1           1           1           1           1           1
 AtZEff=  -0.0000000  -0.0000000  -0.0000000  -0.0000000  -0.0000000  -0.0000000  -0.0000000  -0.0000000  -0.0000000  -0.0000000
 NQMom=    0.0000000   0.0000000   0.0000000   0.0000000   0.0000000   0.0000000   0.0000000   0.0000000   0.0000000   0.0000000
 NMagM=    2.7928460   2.7928460   2.7928460   2.7928460   2.7928460   2.7928460   2.7928460   2.7928460   2.7928460   2.7928460
 AtZNuc=   1.0000000   1.0000000   1.0000000   1.0000000   1.0000000   1.0000000   1.0000000   1.0000000   1.0000000   1.0000000
 Leave Link  101 at Mon Oct 14 01:44:48 2019, MaxMem= 10737418240 cpu:              12.2 elap:               0.5
 (Enter /apps/cent7/gaussian/g16-A.03/g16-haswell/g16/l103.exe)

 GradGradGradGradGradGradGradGradGradGradGradGradGradGradGradGradGradGrad
 Berny optimization.
 Initialization pass.
                           ----------------------------
                           !    Initial Parameters    !
                           ! (Angstroms and Degrees)  !
 --------------------------                            --------------------------
 ! Name  Definition              Value          Derivative Info.                !
 --------------------------------------------------------------------------------
 ! R1    R(1,2)                  1.6043         estimate D2E/DX2                !
 ! R2    R(1,30)                 0.96           estimate D2E/DX2                !
 ! R3    R(2,3)                  1.8356         estimate D2E/DX2                !
 ! R4    R(2,7)                  1.8354         estimate D2E/DX2                !
 ! R5    R(2,11)                 1.6041         estimate D2E/DX2                !
 ! R6    R(3,4)                  1.549          estimate D2E/DX2                !
 ! R7    R(3,12)                 1.09           estimate D2E/DX2                !
 ! R8    R(3,13)                 1.09           estimate D2E/DX2                !
 ! R9    R(4,5)                  1.5508         estimate D2E/DX2                !
 ! R10   R(4,14)                 1.09           estimate D2E/DX2                !
 ! R11   R(4,15)                 1.09           estimate D2E/DX2                !
 ! R12   R(5,6)                  1.5458         estimate D2E/DX2                !
 ! R13   R(5,16)                 1.09           estimate D2E/DX2                !
 ! R14   R(5,17)                 1.0901         estimate D2E/DX2                !
 ! R15   R(6,18)                 1.09           estimate D2E/DX2                !
 ! R16   R(6,19)                 1.09           estimate D2E/DX2                !
 ! R17   R(6,20)                 1.0899         estimate D2E/DX2                !
 ! R18   R(7,8)                  1.5476         estimate D2E/DX2                !
 ! R19   R(7,21)                 1.09           estimate D2E/DX2                !
 ! R20   R(7,22)                 1.09           estimate D2E/DX2                !
 ! R21   R(8,9)                  1.5538         estimate D2E/DX2                !
 ! R22   R(8,23)                 1.09           estimate D2E/DX2                !
 ! R23   R(8,24)                 1.0901         estimate D2E/DX2                !
 ! R24   R(9,10)                 1.5437         estimate D2E/DX2                !
 ! R25   R(9,25)                 1.0901         estimate D2E/DX2                !
 ! R26   R(9,26)                 1.09           estimate D2E/DX2                !
 ! R27   R(10,27)                1.09           estimate D2E/DX2                !
 ! R28   R(10,28)                1.0901         estimate D2E/DX2                !
 ! R29   R(10,29)                1.09           estimate D2E/DX2                !
 ! A1    A(2,1,30)             120.0            estimate D2E/DX2                !
 ! A2    A(1,2,3)              109.2356         estimate D2E/DX2                !
 ! A3    A(1,2,7)              109.5675         estimate D2E/DX2                !
 ! A4    A(1,2,11)             108.7235         estimate D2E/DX2                !
 ! A5    A(3,2,7)              110.774          estimate D2E/DX2                !
 ! A6    A(3,2,11)             109.0891         estimate D2E/DX2                !
 ! A7    A(7,2,11)             109.4178         estimate D2E/DX2                !
 ! A8    A(2,3,4)              111.5324         estimate D2E/DX2                !
 ! A9    A(2,3,12)             109.2826         estimate D2E/DX2                !
 ! A10   A(2,3,13)             109.2822         estimate D2E/DX2                !
 ! A11   A(4,3,12)             103.1842         estimate D2E/DX2                !
 ! A12   A(4,3,13)             103.1804         estimate D2E/DX2                !
 ! A13   A(12,3,13)            119.9982         estimate D2E/DX2                !
 ! A14   A(3,4,5)              113.5497         estimate D2E/DX2                !
 ! A15   A(3,4,14)             105.8811         estimate D2E/DX2                !
 ! A16   A(3,4,15)             105.8791         estimate D2E/DX2                !
 ! A17   A(5,4,14)             105.9231         estimate D2E/DX2                !
 ! A18   A(5,4,15)             105.9205         estimate D2E/DX2                !
 ! A19   A(14,4,15)            119.9975         estimate D2E/DX2                !
 ! A20   A(4,5,6)              111.9491         estimate D2E/DX2                !
 ! A21   A(4,5,16)             106.3083         estimate D2E/DX2                !
 ! A22   A(4,5,17)             106.3036         estimate D2E/DX2                !
 ! A23   A(6,5,16)             106.1923         estimate D2E/DX2                !
 ! A24   A(6,5,17)             106.1871         estimate D2E/DX2                !
 ! A25   A(16,5,17)            119.997          estimate D2E/DX2                !
 ! A26   A(5,6,18)             109.4682         estimate D2E/DX2                !
 ! A27   A(5,6,19)             109.4726         estimate D2E/DX2                !
 ! A28   A(5,6,20)             109.4759         estimate D2E/DX2                !
 ! A29   A(18,6,19)            109.4701         estimate D2E/DX2                !
 ! A30   A(18,6,20)            109.4678         estimate D2E/DX2                !
 ! A31   A(19,6,20)            109.4727         estimate D2E/DX2                !
 ! A32   A(2,7,8)              112.5942         estimate D2E/DX2                !
 ! A33   A(2,7,21)             109.1392         estimate D2E/DX2                !
 ! A34   A(2,7,22)             109.1403         estimate D2E/DX2                !
 ! A35   A(8,7,21)             102.8598         estimate D2E/DX2                !
 ! A36   A(8,7,22)             102.8587         estimate D2E/DX2                !
 ! A37   A(21,7,22)            119.9991         estimate D2E/DX2                !
 ! A38   A(7,8,9)              112.217          estimate D2E/DX2                !
 ! A39   A(7,8,23)             106.1154         estimate D2E/DX2                !
 ! A40   A(7,8,24)             106.1174         estimate D2E/DX2                !
 ! A41   A(9,8,23)             106.2622         estimate D2E/DX2                !
 ! A42   A(9,8,24)             106.2621         estimate D2E/DX2                !
 ! A43   A(23,8,24)            119.9997         estimate D2E/DX2                !
 ! A44   A(8,9,10)             112.4149         estimate D2E/DX2                !
 ! A45   A(8,9,25)             106.2628         estimate D2E/DX2                !
 ! A46   A(8,9,26)             106.2628         estimate D2E/DX2                !
 ! A47   A(10,9,25)            106.0249         estimate D2E/DX2                !
 ! A48   A(10,9,26)            106.033          estimate D2E/DX2                !
 ! A49   A(25,9,26)            120.0018         estimate D2E/DX2                !
 ! A50   A(9,10,27)            109.4715         estimate D2E/DX2                !
 ! A51   A(9,10,28)            109.4707         estimate D2E/DX2                !
 ! A52   A(9,10,29)            109.473          estimate D2E/DX2                !
 ! A53   A(27,10,28)           109.4659         estimate D2E/DX2                !
 ! A54   A(27,10,29)           109.4735         estimate D2E/DX2                !
 ! A55   A(28,10,29)           109.4728         estimate D2E/DX2                !
 ! D1    D(30,1,2,3)           -60.4609         estimate D2E/DX2                !
 ! D2    D(30,1,2,7)            61.0531         estimate D2E/DX2                !
 ! D3    D(30,1,2,11)         -179.4077         estimate D2E/DX2                !
 ! D4    D(1,2,3,4)             61.2947         estimate D2E/DX2                !
 ! D5    D(1,2,3,12)           174.7358         estimate D2E/DX2                !
 ! D6    D(1,2,3,13)           -52.1416         estimate D2E/DX2                !
 ! D7    D(7,2,3,4)            -59.4859         estimate D2E/DX2                !
 ! D8    D(7,2,3,12)            53.9552         estimate D2E/DX2                !
 ! D9    D(7,2,3,13)          -172.9222         estimate D2E/DX2                !
 ! D10   D(11,2,3,4)          -179.986          estimate D2E/DX2                !
 ! D11   D(11,2,3,12)          -66.5448         estimate D2E/DX2                !
 ! D12   D(11,2,3,13)           66.5777         estimate D2E/DX2                !
 ! D13   D(1,2,7,8)             59.0842         estimate D2E/DX2                !
 ! D14   D(1,2,7,21)           172.637          estimate D2E/DX2                !
 ! D15   D(1,2,7,22)           -54.4679         estimate D2E/DX2                !
 ! D16   D(3,2,7,8)            179.6678         estimate D2E/DX2                !
 ! D17   D(3,2,7,21)           -66.7794         estimate D2E/DX2                !
 ! D18   D(3,2,7,22)            66.1158         estimate D2E/DX2                !
 ! D19   D(11,2,7,8)           -60.0278         estimate D2E/DX2                !
 ! D20   D(11,2,7,21)           53.525          estimate D2E/DX2                !
 ! D21   D(11,2,7,22)         -173.5798         estimate D2E/DX2                !
 ! D22   D(2,3,4,5)            179.8764         estimate D2E/DX2                !
 ! D23   D(2,3,4,14)           -64.329          estimate D2E/DX2                !
 ! D24   D(2,3,4,15)            64.0861         estimate D2E/DX2                !
 ! D25   D(12,3,4,5)            62.6799         estimate D2E/DX2                !
 ! D26   D(12,3,4,14)          178.4745         estimate D2E/DX2                !
 ! D27   D(12,3,4,15)          -53.1103         estimate D2E/DX2                !
 ! D28   D(13,3,4,5)           -62.9298         estimate D2E/DX2                !
 ! D29   D(13,3,4,14)           52.8648         estimate D2E/DX2                !
 ! D30   D(13,3,4,15)         -178.72           estimate D2E/DX2                !
 ! D31   D(3,4,5,6)           -179.5014         estimate D2E/DX2                !
 ! D32   D(3,4,5,16)           -63.9598         estimate D2E/DX2                !
 ! D33   D(3,4,5,17)            64.966          estimate D2E/DX2                !
 ! D34   D(14,4,5,6)            64.7288         estimate D2E/DX2                !
 ! D35   D(14,4,5,16)         -179.7296         estimate D2E/DX2                !
 ! D36   D(14,4,5,17)          -50.8038         estimate D2E/DX2                !
 ! D37   D(15,4,5,6)           -63.7355         estimate D2E/DX2                !
 ! D38   D(15,4,5,16)           51.8061         estimate D2E/DX2                !
 ! D39   D(15,4,5,17)         -179.2681         estimate D2E/DX2                !
 ! D40   D(4,5,6,18)            29.7546         estimate D2E/DX2                !
 ! D41   D(4,5,6,19)           149.7521         estimate D2E/DX2                !
 ! D42   D(4,5,6,20)           -90.2423         estimate D2E/DX2                !
 ! D43   D(16,5,6,18)          -85.8576         estimate D2E/DX2                !
 ! D44   D(16,5,6,19)           34.1399         estimate D2E/DX2                !
 ! D45   D(16,5,6,20)          154.1455         estimate D2E/DX2                !
 ! D46   D(17,5,6,18)          145.3581         estimate D2E/DX2                !
 ! D47   D(17,5,6,19)          -94.6444         estimate D2E/DX2                !
 ! D48   D(17,5,6,20)           25.3612         estimate D2E/DX2                !
 ! D49   D(2,7,8,9)           -179.5743         estimate D2E/DX2                !
 ! D50   D(2,7,8,23)           -63.9243         estimate D2E/DX2                !
 ! D51   D(2,7,8,24)            64.7747         estimate D2E/DX2                !
 ! D52   D(21,7,8,9)            63.0864         estimate D2E/DX2                !
 ! D53   D(21,7,8,23)          178.7364         estimate D2E/DX2                !
 ! D54   D(21,7,8,24)          -52.5646         estimate D2E/DX2                !
 ! D55   D(22,7,8,9)           -62.2344         estimate D2E/DX2                !
 ! D56   D(22,7,8,23)           53.4155         estimate D2E/DX2                !
 ! D57   D(22,7,8,24)         -177.8855         estimate D2E/DX2                !
 ! D58   D(7,8,9,10)           179.5232         estimate D2E/DX2                !
 ! D59   D(7,8,9,25)           -64.9211         estimate D2E/DX2                !
 ! D60   D(7,8,9,26)            63.9578         estimate D2E/DX2                !
 ! D61   D(23,8,9,10)           63.9622         estimate D2E/DX2                !
 ! D62   D(23,8,9,25)          179.5179         estimate D2E/DX2                !
 ! D63   D(23,8,9,26)          -51.6032         estimate D2E/DX2                !
 ! D64   D(24,8,9,10)          -64.9134         estimate D2E/DX2                !
 ! D65   D(24,8,9,25)           50.6423         estimate D2E/DX2                !
 ! D66   D(24,8,9,26)          179.5212         estimate D2E/DX2                !
 ! D67   D(8,9,10,27)          164.3998         estimate D2E/DX2                !
 ! D68   D(8,9,10,28)          -75.607          estimate D2E/DX2                !
 ! D69   D(8,9,10,29)           44.3957         estimate D2E/DX2                !
 ! D70   D(25,9,10,27)          48.7005         estimate D2E/DX2                !
 ! D71   D(25,9,10,28)         168.6938         estimate D2E/DX2                !
 ! D72   D(25,9,10,29)         -71.3035         estimate D2E/DX2                !
 ! D73   D(26,9,10,27)         -79.8962         estimate D2E/DX2                !
 ! D74   D(26,9,10,28)          40.0971         estimate D2E/DX2                !
 ! D75   D(26,9,10,29)         160.0998         estimate D2E/DX2                !
 --------------------------------------------------------------------------------
 Trust Radius=3.00D-01 FncErr=1.00D-07 GrdErr=1.00D-06 EigMax=2.50D+02 EigMin=1.00D-04
 Number of steps in this run=    169 maximum allowed number of steps=    180.
 GradGradGradGradGradGradGradGradGradGradGradGradGradGradGradGradGradGrad

 Leave Link  103 at Mon Oct 14 01:44:48 2019, MaxMem= 10737418240 cpu:               0.3 elap:               0.0
 (Enter /apps/cent7/gaussian/g16-A.03/g16-haswell/g16/l202.exe)
                          Input orientation:                          
 ---------------------------------------------------------------------
 Center     Atomic      Atomic             Coordinates (Angstroms)
 Number     Number       Type             X           Y           Z
 ---------------------------------------------------------------------
      1          8           0        0.693200    3.977600   -2.763100
      2         16           0       -0.354800    2.763000   -2.749400
      3          6           0       -0.102900    1.730000   -4.245700
      4          6           0        1.319600    1.117900   -4.281100
      5          6           0        1.582200    0.232200   -5.526700
      6          6           0        3.006300   -0.368900   -5.518400
      7          6           0       -0.122600    1.767900   -1.224700
      8          6           0       -0.317600    2.601300    0.064700
      9          6           0       -0.108700    1.753100    1.349700
     10          6           0       -0.290600    2.582800    2.638700
     11          8           0       -1.841400    3.365300   -2.771900
     12          1           0       -0.749200    0.854000   -4.191300
     13          1           0       -0.121500    2.366900   -5.130100
     14          1           0        2.005200    1.961200   -4.363900
     15          1           0        1.378400    0.450100   -3.421600
     16          1           0        0.895800   -0.611300   -5.452700
     17          1           0        1.537900    0.896800   -6.389600
     18          1           0        3.335900   -0.508000   -4.488800
     19          1           0        2.997500   -1.331200   -6.030200
     20          1           0        3.689700    0.308600   -6.030200
     21          1           0       -0.918800    1.026500   -1.157100
     22          1           0        0.919600    1.456100   -1.156700
     23          1           0        0.473000    3.351700    0.062400
     24          1           0       -1.362800    2.910800    0.069800
     25          1           0       -0.904500    1.008200    1.356500
     26          1           0        0.934200    1.436400    1.340200
     27          1           0       -0.410500    1.911500    3.489000
     28          1           0        0.586500    3.211400    2.793000
     29          1           0       -1.176100    3.211400    2.544300
     30          1           0        1.636237    3.797940   -2.761074
 ---------------------------------------------------------------------
                    Distance matrix (angstroms):
                    1          2          3          4          5
     1  O    0.000000
     2  S    1.604290   0.000000
     3  C    2.807772   1.835608   0.000000
     4  C    3.297664   2.802869   1.549008   0.000000
     5  C    4.738758   4.227329   2.593054   1.550788   0.000000
     6  C    5.642178   5.364061   3.961347   2.566407   1.545785
     7  C    2.813357   1.835443   3.021302   3.441514   4.875646
     8  C    3.303388   2.818987   4.402818   4.875128   6.362832
     9  C    4.744109   4.228840   5.595451   5.843751   7.242731
    10  C    5.665048   5.391495   6.939558   7.254124   8.700946
    11  O    2.607525   1.604136   2.805116   4.161780   5.396876
    12  H    3.725205   2.424646   1.089972   2.087496   2.757781
    13  H    2.976706   2.424677   1.090023   2.087480   2.759860
    14  H    2.889597   2.969696   2.124032   1.089981   2.126141
    15  H    3.653269   2.967380   2.124037   1.090025   2.126138
    16  H    5.322875   4.500859   2.817079   2.131287   1.090006
    17  H    4.832841   4.507335   2.825377   2.131270   1.090070
    18  H    5.484753   5.229361   4.110120   2.598491   2.168086
    19  H    6.645833   6.226077   4.708276   3.445692   2.168134
    20  H    5.754521   5.757231   4.425905   3.054782   2.168157
    21  H    3.726496   2.422591   3.271094   3.844238   5.096991
    22  H    2.998290   2.422556   3.265340   3.168005   4.586270
    23  H    2.902359   2.989655   4.639105   4.957074   6.496125
    24  H    3.659306   2.997632   4.648137   5.416649   6.867950
    25  H    5.323635   4.498879   5.705103   6.061451   7.359640
    26  H    4.832479   4.488454   5.688942   5.643491   7.001737
    27  H    6.676502   6.296490   7.742942   7.999844   9.384761
    28  H    5.609696   5.639619   7.225864   7.413708   8.892944
    29  H    5.678894   5.375766   7.032098   7.562893   9.034650
    30  H    0.960000   2.243984   3.083032   3.097314   4.512882
                    6          7          8          9         10
     6  C    0.000000
     7  C    5.726412   0.000000
     8  C    7.144327   1.547622   0.000000
     9  C    7.834341   2.574480   1.553804   0.000000
    10  C    9.280106   3.951980   2.574208   1.543700   0.000000
    11  O    6.707288   2.810656   3.309375   4.752791   5.682594
    12  H    4.166588   3.166790   4.620917   5.649894   7.060309
    13  H    4.173549   3.951070   5.203782   6.508819   7.773639
    14  H    2.786474   3.797298   5.041590   6.095663   7.395505
    15  H    2.778019   2.969169   4.433775   5.164744   6.637862
    16  H    2.125390   4.957188   6.498834   7.271317   8.779554
    17  H    2.125367   5.494749   6.928650   7.958725   9.364625
    18  H    1.089982   5.272124   6.614391   7.146043   8.573553
    19  H    1.089972   6.514006   7.975102   8.580461  10.063837
    20  H    1.089945   6.305237   7.646093   8.424805   9.806355
    21  H    6.031127   1.090036   2.081882   2.732811   4.150277
    22  H    5.168111   1.089965   2.081818   2.725372   4.139939
    23  H    7.169784   2.125979   1.090025   2.133316   2.794926
    24  H    7.814950   2.126040   1.090073   2.133350   2.802935
    25  H    8.028388   2.801982   2.133346   1.090055   2.121385
    26  H    7.388714   2.793820   2.133283   1.089968   2.121431
    27  H    9.899899   4.724667   3.494322   2.166282   1.089968
    28  H    9.367676   4.327635   2.938238   2.166346   1.090069
    29  H    9.763101   4.171201   2.694005   2.166345   1.090027
    30  H    5.180972   3.094351   3.637914   4.911683   5.860616
                   11         12         13         14         15
    11  O    0.000000
    12  H    3.084514   0.000000
    13  H    3.084796   1.887914   0.000000
    14  H    4.393437   2.973618   2.296630   0.000000
    15  H    4.391767   2.298316   2.973684   1.887917   0.000000
    16  H    5.521983   2.538555   3.163644   3.005663   2.341974
    17  H    5.531809   3.172567   2.549734   2.335546   3.005662
    18  H    6.689890   4.316433   4.542018   2.807723   2.426660
    19  H    7.489231   4.711095   4.920801   3.821140   3.549550
    20  H    7.110063   4.835581   4.424028   2.888803   3.488112
    21  H    2.988102   3.043828   4.268148   4.439257   3.276786
    22  H    3.725189   3.515141   4.207298   3.423417   2.520378
    23  H    3.659220   5.081953   5.318394   4.886027   4.623558
    24  H    2.917342   4.771153   5.373603   5.648262   5.075342
    25  H    4.845347   5.552115   6.673465   6.488262   5.324786
    26  H    5.322967   5.811241   6.621564   5.827453   4.883118
    27  H    6.584822   7.760157   8.635959   8.216211   7.286443
    28  H    6.073425   7.491454   7.999372   7.402495   6.846396
    29  H    5.359878   7.148978   7.792418   7.707587   7.052816
    30  H    3.504462   4.050017   3.278689   2.465522   3.422105
                   16         17         18         19         20
    16  H    0.000000
    17  H    1.887972   0.000000
    18  H    2.625617   2.969732   0.000000
    19  H    2.295410   2.687673   1.779912   0.000000
    20  H    2.997599   2.259511   1.779866   1.779911   0.000000
    21  H    4.942402   5.781977   5.617596   6.681561   6.745425
    22  H    4.767633   5.298901   4.560601   5.986461   5.721994
    23  H    6.804444   6.984902   6.618678   8.088413   7.531759
    24  H    6.928526   7.361665   7.385581   8.614916   8.337218
    25  H    7.226968   8.122795   7.378847   8.675352   8.726938
    26  H    7.094931   7.772093   6.597431   8.138772   7.949057
    27  H    9.382161  10.119912   9.139737  10.618132  10.487902
    28  H    9.093969   9.517493   8.626572  10.212590   9.793108
    29  H    9.102627   9.619654   9.146397  10.562964  10.277369
    30  H    5.218668   4.646771   4.941155   6.232840   5.203786
                   21         22         23         24         25
    21  H    0.000000
    22  H    1.887928   0.000000
    23  H    2.971673   2.297598   0.000000
    24  H    2.291944   2.971499   1.888017   0.000000
    25  H    2.513707   3.137536   3.010680   2.342119   0.000000
    26  H    3.136580   2.497020   2.348159   3.010645   1.887972
    27  H    4.756873   4.853770   3.820515   3.687330   2.368025
    28  H    4.758467   4.334993   2.736557   3.362432   3.023360
    29  H    4.305851   4.601134   2.983126   2.499673   2.517683
    30  H    4.096562   2.927763   3.086139   4.218422   5.585016
                   26         27         28         29         30
    26  H    0.000000
    27  H    2.579007   0.000000
    28  H    2.319946   1.779934   0.000000
    29  H    3.008961   1.779984   1.780059   0.000000
    30  H    4.784367   6.841871   5.682755   6.033262   0.000000
 Stoichiometry    C8H19O2S(1+)
 Framework group  C1[X(C8H19O2S)]
 Deg. of freedom    84
 Full point group                 C1      NOp   1
 Largest Abelian subgroup         C1      NOp   1
 Largest concise Abelian subgroup C1      NOp   1
                         Standard orientation:                         
 ---------------------------------------------------------------------
 Center     Atomic      Atomic             Coordinates (Angstroms)
 Number     Number       Type             X           Y           Z
 ---------------------------------------------------------------------
      1          8           0       -0.009304    1.312353    1.584970
      2         16           0       -0.004644    1.093303   -0.004288
      3          6           0        1.722885    0.853465   -0.576634
      4          6           0        2.366811   -0.399006    0.068424
      5          6           0        3.828496   -0.647861   -0.385988
      6          6           0        4.430124   -1.911853    0.269619
      7          6           0       -1.038648   -0.363026   -0.427128
      8          6           0       -2.504537   -0.208559    0.044511
      9          6           0       -3.369221   -1.450356   -0.308430
     10          6           0       -4.829657   -1.306058    0.170441
     11          8           0       -0.613032    2.401173   -0.706137
     12          1           0        1.719668    0.611874   -1.639489
     13          1           0        2.341785    1.670299   -0.205291
     14          1           0        2.417168   -0.191504    1.137286
     15          1           0        1.791643   -1.250679   -0.294880
     16          1           0        3.785944   -0.851371   -1.455982
     17          1           0        4.412136    0.194400   -0.014216
     18          1           0        3.635641   -2.631068    0.468584
     19          1           0        5.162696   -2.356779   -0.403743
     20          1           0        4.916147   -1.639097    1.206298
     21          1           0       -1.138013   -0.428296   -1.510661
     22          1           0       -0.690604   -1.225551    0.141150
     23          1           0       -2.468761   -0.160874    1.132905
     24          1           0       -2.919279    0.623816   -0.524173
     25          1           0       -3.412239   -1.493030   -1.396800
     26          1           0       -2.949170   -2.284494    0.253531
     27          1           0       -5.450738   -2.050085   -0.328270
     28          1           0       -4.875207   -1.458690    1.248810
     29          1           0       -5.194244   -0.307576   -0.070949
     30          1           0        0.330905    0.627165    2.164948
 ---------------------------------------------------------------------
 Rotational constants (GHZ):           1.3279858           0.3776918           0.3238411
 Leave Link  202 at Mon Oct 14 01:44:48 2019, MaxMem= 10737418240 cpu:               1.5 elap:               0.1
 (Enter /apps/cent7/gaussian/g16-A.03/g16-haswell/g16/l301.exe)
 Standard basis: 6-31G(d) (6D, 7F)
 Ernie: Thresh=  0.10000D-02 Tol=  0.10000D-05 Strict=F.
 There are   207 symmetry adapted cartesian basis functions of A   symmetry.
 There are   207 symmetry adapted basis functions of A   symmetry.
   207 basis functions,   408 primitive gaussians,   207 cartesian basis functions
    49 alpha electrons       49 beta electrons
       nuclear repulsion energy       774.9884090458 Hartrees.
 IExCor=  402 DFT=T Ex+Corr=B3LYP ExCW=0 ScaHFX=  0.200000
 ScaDFX=  0.800000  0.720000  1.000000  0.810000 ScalE2=  1.000000  1.000000
 IRadAn=      5 IRanWt=     -1 IRanGd=            0 ICorTp=0 IEmpDi=  4
 NAtoms=   30 NActive=   30 NUniq=   30 SFac= 1.00D+00 NAtFMM=   60 NAOKFM=F Big=F
 Integral buffers will be    131072 words long.
 Raffenetti 2 integral format.
 Two-electron integral symmetry is turned on.
 Leave Link  301 at Mon Oct 14 01:44:48 2019, MaxMem= 10737418240 cpu:               1.4 elap:               0.1
 (Enter /apps/cent7/gaussian/g16-A.03/g16-haswell/g16/l302.exe)
 NPDir=0 NMtPBC=     1 NCelOv=     1 NCel=       1 NClECP=     1 NCelD=      1
         NCelK=      1 NCelE2=     1 NClLst=     1 CellRange=     0.0.
 One-electron integrals computed using PRISM.
 One-electron integral symmetry used in STVInt
 NBasis=   207 RedAO= T EigKep=  3.12D-03  NBF=   207
 NBsUse=   207 1.00D-06 EigRej= -1.00D+00 NBFU=   207
 Precomputing XC quadrature grid using
 IXCGrd= 4 IRadAn=           5 IRanWt=          -1 IRanGd=           0 AccXCQ= 0.00D+00.
 Generated NRdTot=       0 NPtTot=           0 NUsed=           0 NTot=          32
 NSgBfM=   206   206   206   206   206 MxSgAt=    30 MxSgA2=    30.
 Leave Link  302 at Mon Oct 14 01:44:48 2019, MaxMem= 10737418240 cpu:               5.4 elap:               0.3
 (Enter /apps/cent7/gaussian/g16-A.03/g16-haswell/g16/l303.exe)
 DipDrv:  MaxL=1.
 Leave Link  303 at Mon Oct 14 01:44:48 2019, MaxMem= 10737418240 cpu:               0.8 elap:               0.1
 (Enter /apps/cent7/gaussian/g16-A.03/g16-haswell/g16/l401.exe)
 ExpMin= 1.17D-01 ExpMax= 2.19D+04 ExpMxC= 3.30D+03 IAcc=3 IRadAn=         5 AccDes= 0.00D+00
 Harris functional with IExCor=  402 and IRadAn=       5 diagonalized for initial guess.
 HarFok:  IExCor=  402 AccDes= 0.00D+00 IRadAn=         5 IDoV= 1 UseB2=F ITyADJ=14
 ICtDFT=  3500011 ScaDFX=  1.000000  1.000000  1.000000  1.000000
 FoFCou: FMM=F IPFlag=           0 FMFlag=      100000 FMFlg1=           0
         NFxFlg=           0 DoJE=T BraDBF=F KetDBF=T FulRan=T
         wScrn=  0.000000 ICntrl=       500 IOpCl=  0 I1Cent=   200000004 NGrid=           0
         NMat0=    1 NMatS0=      1 NMatT0=    0 NMatD0=    1 NMtDS0=    0 NMtDT0=    0
 Petite list used in FoFCou.
 Harris En= -864.741573018811    
 JPrj=0 DoOrth=F DoCkMO=F.
 Leave Link  401 at Mon Oct 14 01:44:49 2019, MaxMem= 10737418240 cpu:              10.8 elap:               0.5
 (Enter /apps/cent7/gaussian/g16-A.03/g16-haswell/g16/l502.exe)
 Integral symmetry usage will be decided dynamically.
 Closed shell SCF:
 Using DIIS extrapolation, IDIIS=  1040.
 NGot= 10737418240 LenX= 10737324940 LenY= 10737281650
 Requested convergence on RMS density matrix=1.00D-08 within 128 cycles.
 Requested convergence on MAX density matrix=1.00D-06.
 Requested convergence on             energy=1.00D-06.
 No special actions if energy rises.
 Fock matrices will be formed incrementally for  20 cycles.
 Integral accuracy reduced to 1.0D-05 until final iterations.

 Cycle   1  Pass 0  IDiag  1:
 FoFJK:  IHMeth= 1 ICntrl=       0 DoSepK=F KAlg= 0 I1Cent=           0 FoldK=F
 IRaf= 850000000 NMat=       1 IRICut=       1 DoRegI=T DoRafI=F ISym2E= 0 IDoP0=0 IntGTp=1.
 FoFCou: FMM=F IPFlag=           0 FMFlag=      100000 FMFlg1=           0
         NFxFlg=           0 DoJE=F BraDBF=F KetDBF=F FulRan=T
         wScrn=  0.000000 ICntrl=         0 IOpCl=  0 I1Cent=           0 NGrid=           0
         NMat0=    1 NMatS0=      1 NMatT0=    0 NMatD0=    1 NMtDS0=    0 NMtDT0=    0
 Symmetry not used in FoFCou.
 E= -863.925323749693    
 DIIS: error= 3.34D-02 at cycle   1 NSaved=   1.
 NSaved= 1 IEnMin= 1 EnMin= -863.925323749693     IErMin= 1 ErrMin= 3.34D-02
 ErrMax= 3.34D-02  0.00D+00 EMaxC= 1.00D-01 BMatC= 6.37D-01 BMatP= 6.37D-01
 IDIUse=3 WtCom= 6.66D-01 WtEn= 3.34D-01
 Coeff-Com:  0.100D+01
 Coeff-En:   0.100D+01
 Coeff:      0.100D+01
 Gap=     0.114 Goal=   None    Shift=    0.000
 GapD=    0.114 DampG=1.000 DampE=0.500 DampFc=0.5000 IDamp=-1.
 Damping current iteration by 5.00D-01
 RMSDP=1.36D-02 MaxDP=8.12D-01              OVMax= 4.08D-01

 Cycle   2  Pass 0  IDiag  1:
 RMSU=  6.79D-03    CP:  9.96D-01
 E= -863.761434031514     Delta-E=        0.163889718179 Rises=F Damp=T
 DIIS: error= 4.55D-02 at cycle   2 NSaved=   2.
 NSaved= 2 IEnMin= 1 EnMin= -863.925323749693     IErMin= 1 ErrMin= 3.34D-02
 ErrMax= 4.55D-02  0.00D+00 EMaxC= 1.00D-01 BMatC= 2.96D-01 BMatP= 6.37D-01
 IDIUse=3 WtCom= 5.45D-01 WtEn= 4.55D-01
 Coeff-Com:  0.380D+00 0.620D+00
 Coeff-En:   0.581D+00 0.419D+00
 Coeff:      0.472D+00 0.528D+00
 Gap=     0.165 Goal=   None    Shift=    0.000
 RMSDP=5.00D-03 MaxDP=1.68D-01 DE= 1.64D-01 OVMax= 4.19D-01

 Cycle   3  Pass 0  IDiag  1:
 RMSU=  3.52D-03    CP:  9.84D-01  4.79D-01
 E= -864.375363736661     Delta-E=       -0.613929705147 Rises=F Damp=F
 DIIS: error= 2.58D-02 at cycle   3 NSaved=   3.
 NSaved= 3 IEnMin= 3 EnMin= -864.375363736661     IErMin= 3 ErrMin= 2.58D-02
 ErrMax= 2.58D-02  0.00D+00 EMaxC= 1.00D-01 BMatC= 1.88D-01 BMatP= 2.96D-01
 IDIUse=3 WtCom= 7.42D-01 WtEn= 2.58D-01
 Coeff-Com:  0.227D+00 0.379D+00 0.394D+00
 Coeff-En:   0.900D-01 0.000D+00 0.910D+00
 Coeff:      0.192D+00 0.281D+00 0.527D+00
 Gap=     0.309 Goal=   None    Shift=    0.000
 RMSDP=3.26D-03 MaxDP=9.72D-02 DE=-6.14D-01 OVMax= 1.74D-01

 Cycle   4  Pass 0  IDiag  1:
 RMSU=  1.88D-03    CP:  9.98D-01  5.53D-01  2.64D-01
 E= -864.501784892663     Delta-E=       -0.126421156002 Rises=F Damp=F
 DIIS: error= 2.06D-02 at cycle   4 NSaved=   4.
 NSaved= 4 IEnMin= 4 EnMin= -864.501784892663     IErMin= 4 ErrMin= 2.06D-02
 ErrMax= 2.06D-02  0.00D+00 EMaxC= 1.00D-01 BMatC= 6.05D-02 BMatP= 1.88D-01
 IDIUse=3 WtCom= 7.94D-01 WtEn= 2.06D-01
 Coeff-Com:  0.689D-01 0.307D-01 0.345D+00 0.555D+00
 Coeff-En:   0.000D+00 0.000D+00 0.258D+00 0.742D+00
 Coeff:      0.547D-01 0.244D-01 0.327D+00 0.593D+00
 Gap=     0.265 Goal=   None    Shift=    0.000
 RMSDP=1.47D-03 MaxDP=5.43D-02 DE=-1.26D-01 OVMax= 7.17D-02

 Cycle   5  Pass 0  IDiag  1:
 RMSU=  5.07D-04    CP:  9.95D-01  4.78D-01  5.37D-01  5.51D-01
 E= -864.548072412216     Delta-E=       -0.046287519553 Rises=F Damp=F
 DIIS: error= 4.44D-03 at cycle   5 NSaved=   5.
 NSaved= 5 IEnMin= 5 EnMin= -864.548072412216     IErMin= 5 ErrMin= 4.44D-03
 ErrMax= 4.44D-03  0.00D+00 EMaxC= 1.00D-01 BMatC= 4.53D-03 BMatP= 6.05D-02
 IDIUse=3 WtCom= 9.56D-01 WtEn= 4.44D-02
 Coeff-Com:  0.347D-02-0.166D-01 0.129D+00 0.346D+00 0.538D+00
 Coeff-En:   0.000D+00 0.000D+00 0.000D+00 0.526D-01 0.947D+00
 Coeff:      0.331D-02-0.159D-01 0.124D+00 0.333D+00 0.556D+00
 Gap=     0.244 Goal=   None    Shift=    0.000
 RMSDP=3.85D-04 MaxDP=1.36D-02 DE=-4.63D-02 OVMax= 1.53D-02

 Cycle   6  Pass 0  IDiag  1:
 RMSU=  1.47D-04    CP:  9.95D-01  4.98D-01  5.05D-01  6.66D-01  5.60D-01
 E= -864.551629792723     Delta-E=       -0.003557380506 Rises=F Damp=F
 DIIS: error= 1.15D-03 at cycle   6 NSaved=   6.
 NSaved= 6 IEnMin= 6 EnMin= -864.551629792723     IErMin= 6 ErrMin= 1.15D-03
 ErrMax= 1.15D-03  0.00D+00 EMaxC= 1.00D-01 BMatC= 3.08D-04 BMatP= 4.53D-03
 IDIUse=3 WtCom= 9.88D-01 WtEn= 1.15D-02
 Coeff-Com: -0.632D-03-0.785D-02 0.302D-01 0.874D-01 0.268D+00 0.623D+00
 Coeff-En:   0.000D+00 0.000D+00 0.000D+00 0.000D+00 0.331D-01 0.967D+00
 Coeff:     -0.624D-03-0.776D-02 0.299D-01 0.864D-01 0.265D+00 0.627D+00
 Gap=     0.248 Goal=   None    Shift=    0.000
 RMSDP=9.34D-05 MaxDP=4.46D-03 DE=-3.56D-03 OVMax= 3.85D-03

 Cycle   7  Pass 0  IDiag  1:
 RMSU=  5.63D-05    CP:  9.95D-01  4.92D-01  5.07D-01  6.57D-01  6.17D-01
                    CP:  6.29D-01
 E= -864.551864808305     Delta-E=       -0.000235015582 Rises=F Damp=F
 DIIS: error= 3.85D-04 at cycle   7 NSaved=   7.
 NSaved= 7 IEnMin= 7 EnMin= -864.551864808305     IErMin= 7 ErrMin= 3.85D-04
 ErrMax= 3.85D-04  0.00D+00 EMaxC= 1.00D-01 BMatC= 3.14D-05 BMatP= 3.08D-04
 IDIUse=3 WtCom= 9.96D-01 WtEn= 3.85D-03
 Coeff-Com:  0.139D-03-0.270D-02 0.147D-02 0.322D-02 0.786D-01 0.344D+00
 Coeff-Com:  0.576D+00
 Coeff-En:   0.000D+00 0.000D+00 0.000D+00 0.000D+00 0.000D+00 0.000D+00
 Coeff-En:   0.100D+01
 Coeff:      0.139D-03-0.269D-02 0.146D-02 0.320D-02 0.783D-01 0.342D+00
 Coeff:      0.577D+00
 Gap=     0.247 Goal=   None    Shift=    0.000
 RMSDP=3.08D-05 MaxDP=9.05D-04 DE=-2.35D-04 OVMax= 1.27D-03

 Cycle   8  Pass 0  IDiag  1:
 RMSU=  1.11D-05    CP:  9.95D-01  4.91D-01  5.11D-01  6.51D-01  6.27D-01
                    CP:  7.25D-01  6.59D-01
 E= -864.551891252499     Delta-E=       -0.000026444194 Rises=F Damp=F
 DIIS: error= 4.06D-05 at cycle   8 NSaved=   8.
 NSaved= 8 IEnMin= 8 EnMin= -864.551891252499     IErMin= 8 ErrMin= 4.06D-05
 ErrMax= 4.06D-05  0.00D+00 EMaxC= 1.00D-01 BMatC= 7.50D-07 BMatP= 3.14D-05
 IDIUse=1 WtCom= 1.00D+00 WtEn= 0.00D+00
 Coeff-Com:  0.207D-03-0.717D-03-0.590D-03-0.290D-02 0.190D-01 0.108D+00
 Coeff-Com:  0.234D+00 0.644D+00
 Coeff:      0.207D-03-0.717D-03-0.590D-03-0.290D-02 0.190D-01 0.108D+00
 Coeff:      0.234D+00 0.644D+00
 Gap=     0.247 Goal=   None    Shift=    0.000
 RMSDP=4.99D-06 MaxDP=1.65D-04 DE=-2.64D-05 OVMax= 1.81D-04

 Initial convergence to 1.0D-05 achieved.  Increase integral accuracy.
 Cycle   9  Pass 1  IDiag  1:
 E= -864.551852992983     Delta-E=        0.000038259516 Rises=F Damp=F
 DIIS: error= 1.33D-05 at cycle   1 NSaved=   1.
 NSaved= 1 IEnMin= 1 EnMin= -864.551852992983     IErMin= 1 ErrMin= 1.33D-05
 ErrMax= 1.33D-05  0.00D+00 EMaxC= 1.00D-01 BMatC= 1.24D-07 BMatP= 1.24D-07
 IDIUse=1 WtCom= 1.00D+00 WtEn= 0.00D+00
 Coeff-Com:  0.100D+01
 Coeff:      0.100D+01
 Gap=     0.247 Goal=   None    Shift=    0.000
 RMSDP=4.99D-06 MaxDP=1.65D-04 DE= 3.83D-05 OVMax= 1.02D-04

 Cycle  10  Pass 1  IDiag  1:
 RMSU=  5.55D-06    CP:  1.00D+00
 E= -864.551852978095     Delta-E=        0.000000014887 Rises=F Damp=F
 DIIS: error= 1.69D-05 at cycle   2 NSaved=   2.
 NSaved= 2 IEnMin= 1 EnMin= -864.551852992983     IErMin= 1 ErrMin= 1.33D-05
 ErrMax= 1.69D-05  0.00D+00 EMaxC= 1.00D-01 BMatC= 1.53D-07 BMatP= 1.24D-07
 IDIUse=1 WtCom= 1.00D+00 WtEn= 0.00D+00
 Coeff-Com:  0.529D+00 0.471D+00
 Coeff:      0.529D+00 0.471D+00
 Gap=     0.247 Goal=   None    Shift=    0.000
 RMSDP=2.14D-06 MaxDP=1.18D-04 DE= 1.49D-08 OVMax= 6.95D-05

 Cycle  11  Pass 1  IDiag  1:
 RMSU=  1.74D-06    CP:  1.00D+00  7.85D-01
 E= -864.551853114567     Delta-E=       -0.000000136471 Rises=F Damp=F
 DIIS: error= 6.14D-06 at cycle   3 NSaved=   3.
 NSaved= 3 IEnMin= 3 EnMin= -864.551853114567     IErMin= 3 ErrMin= 6.14D-06
 ErrMax= 6.14D-06  0.00D+00 EMaxC= 1.00D-01 BMatC= 9.49D-09 BMatP= 1.24D-07
 IDIUse=1 WtCom= 1.00D+00 WtEn= 0.00D+00
 Coeff-Com:  0.161D+00 0.225D+00 0.615D+00
 Coeff:      0.161D+00 0.225D+00 0.615D+00
 Gap=     0.247 Goal=   None    Shift=    0.000
 RMSDP=8.54D-07 MaxDP=3.23D-05 DE=-1.36D-07 OVMax= 3.68D-05

 Cycle  12  Pass 1  IDiag  1:
 RMSU=  7.37D-07    CP:  1.00D+00  8.22D-01  7.92D-01
 E= -864.551853116207     Delta-E=       -0.000000001640 Rises=F Damp=F
 DIIS: error= 6.46D-06 at cycle   4 NSaved=   4.
 NSaved= 4 IEnMin= 4 EnMin= -864.551853116207     IErMin= 3 ErrMin= 6.14D-06
 ErrMax= 6.46D-06  0.00D+00 EMaxC= 1.00D-01 BMatC= 7.28D-09 BMatP= 9.49D-09
 IDIUse=1 WtCom= 1.00D+00 WtEn= 0.00D+00
 Coeff-Com:  0.878D-02 0.728D-01 0.486D+00 0.432D+00
 Coeff:      0.878D-02 0.728D-01 0.486D+00 0.432D+00
 Gap=     0.247 Goal=   None    Shift=    0.000
 RMSDP=4.64D-07 MaxDP=1.71D-05 DE=-1.64D-09 OVMax= 1.97D-05

 Cycle  13  Pass 1  IDiag  1:
 RMSU=  1.47D-07    CP:  1.00D+00  8.21D-01  8.66D-01  4.35D-01
 E= -864.551853121887     Delta-E=       -0.000000005680 Rises=F Damp=F
 DIIS: error= 1.39D-06 at cycle   5 NSaved=   5.
 NSaved= 5 IEnMin= 5 EnMin= -864.551853121887     IErMin= 5 ErrMin= 1.39D-06
 ErrMax= 1.39D-06  0.00D+00 EMaxC= 1.00D-01 BMatC= 3.47D-10 BMatP= 7.28D-09
 IDIUse=1 WtCom= 1.00D+00 WtEn= 0.00D+00
 Coeff-Com: -0.381D-02 0.329D-01 0.272D+00 0.276D+00 0.423D+00
 Coeff:     -0.381D-02 0.329D-01 0.272D+00 0.276D+00 0.423D+00
 Gap=     0.247 Goal=   None    Shift=    0.000
 RMSDP=9.51D-08 MaxDP=3.47D-06 DE=-5.68D-09 OVMax= 3.70D-06

 Cycle  14  Pass 1  IDiag  1:
 RMSU=  4.72D-08    CP:  1.00D+00  8.23D-01  8.59D-01  4.77D-01  5.00D-01
 E= -864.551853122169     Delta-E=       -0.000000000282 Rises=F Damp=F
 DIIS: error= 2.16D-07 at cycle   6 NSaved=   6.
 NSaved= 6 IEnMin= 6 EnMin= -864.551853122169     IErMin= 6 ErrMin= 2.16D-07
 ErrMax= 2.16D-07  0.00D+00 EMaxC= 1.00D-01 BMatC= 1.21D-11 BMatP= 3.47D-10
 IDIUse=1 WtCom= 1.00D+00 WtEn= 0.00D+00
 Coeff-Com: -0.254D-02 0.119D-01 0.107D+00 0.111D+00 0.225D+00 0.547D+00
 Coeff:     -0.254D-02 0.119D-01 0.107D+00 0.111D+00 0.225D+00 0.547D+00
 Gap=     0.247 Goal=   None    Shift=    0.000
 RMSDP=1.90D-08 MaxDP=5.46D-07 DE=-2.82D-10 OVMax= 7.27D-07

 Cycle  15  Pass 1  IDiag  1:
 RMSU=  1.61D-08    CP:  1.00D+00  8.23D-01  8.60D-01  4.77D-01  5.20D-01
                    CP:  7.97D-01
 E= -864.551853122181     Delta-E=       -0.000000000012 Rises=F Damp=F
 DIIS: error= 5.40D-08 at cycle   7 NSaved=   7.
 NSaved= 7 IEnMin= 7 EnMin= -864.551853122181     IErMin= 7 ErrMin= 5.40D-08
 ErrMax= 5.40D-08  0.00D+00 EMaxC= 1.00D-01 BMatC= 9.30D-13 BMatP= 1.21D-11
 IDIUse=1 WtCom= 1.00D+00 WtEn= 0.00D+00
 Coeff-Com: -0.559D-03 0.420D-03 0.843D-02 0.742D-02 0.423D-01 0.238D+00
 Coeff-Com:  0.704D+00
 Coeff:     -0.559D-03 0.420D-03 0.843D-02 0.742D-02 0.423D-01 0.238D+00
 Coeff:      0.704D+00
 Gap=     0.247 Goal=   None    Shift=    0.000
 RMSDP=6.71D-09 MaxDP=3.26D-07 DE=-1.16D-11 OVMax= 2.24D-07

 SCF Done:  E(RB3LYP) =  -864.551853122     A.U. after   15 cycles
            NFock= 15  Conv=0.67D-08     -V/T= 2.0071
 KE= 8.584246427268D+02 PE=-3.561534514429D+03 EE= 1.063569609534D+03
 Leave Link  502 at Mon Oct 14 01:44:54 2019, MaxMem= 10737418240 cpu:             121.9 elap:               5.1
 (Enter /apps/cent7/gaussian/g16-A.03/g16-haswell/g16/l601.exe)
 Copying SCF densities to generalized density rwf, IOpCl= 0 IROHF=0.

 **********************************************************************

            Population analysis using the SCF density.

 **********************************************************************

 Orbital symmetries:
       Occupied  (A) (A) (A) (A) (A) (A) (A) (A) (A) (A) (A) (A)
                 (A) (A) (A) (A) (A) (A) (A) (A) (A) (A) (A) (A)
                 (A) (A) (A) (A) (A) (A) (A) (A) (A) (A) (A) (A)
                 (A) (A) (A) (A) (A) (A) (A) (A) (A) (A) (A) (A)
                 (A)
       Virtual   (A) (A) (A) (A) (A) (A) (A) (A) (A) (A) (A) (A)
                 (A) (A) (A) (A) (A) (A) (A) (A) (A) (A) (A) (A)
                 (A) (A) (A) (A) (A) (A) (A) (A) (A) (A) (A) (A)
                 (A) (A) (A) (A) (A) (A) (A) (A) (A) (A) (A) (A)
                 (A) (A) (A) (A) (A) (A) (A) (A) (A) (A) (A) (A)
                 (A) (A) (A) (A) (A) (A) (A) (A) (A) (A) (A) (A)
                 (A) (A) (A) (A) (A) (A) (A) (A) (A) (A) (A) (A)
                 (A) (A) (A) (A) (A) (A) (A) (A) (A) (A) (A) (A)
                 (A) (A) (A) (A) (A) (A) (A) (A) (A) (A) (A) (A)
                 (A) (A) (A) (A) (A) (A) (A) (A) (A) (A) (A) (A)
                 (A) (A) (A) (A) (A) (A) (A) (A) (A) (A) (A) (A)
                 (A) (A) (A) (A) (A) (A) (A) (A) (A) (A) (A) (A)
                 (A) (A) (A) (A) (A) (A) (A) (A) (A) (A) (A) (A)
                 (A) (A)
 The electronic state is 1-A.
 Alpha  occ. eigenvalues --  -89.29859 -19.41973 -19.33742 -10.41743 -10.41669
 Alpha  occ. eigenvalues --  -10.36456 -10.34885 -10.32899 -10.32013 -10.29596
 Alpha  occ. eigenvalues --  -10.28625  -8.33169  -6.29776  -6.29368  -6.29283
 Alpha  occ. eigenvalues --   -1.30851  -1.17026  -1.01666  -0.97839  -0.93169
 Alpha  occ. eigenvalues --   -0.89136  -0.86767  -0.81009  -0.79727  -0.73493
 Alpha  occ. eigenvalues --   -0.72729  -0.71566  -0.69103  -0.68280  -0.66838
 Alpha  occ. eigenvalues --   -0.64183  -0.60425  -0.59233  -0.59001  -0.57190
 Alpha  occ. eigenvalues --   -0.56183  -0.55976  -0.54025  -0.52585  -0.52409
 Alpha  occ. eigenvalues --   -0.51289  -0.49432  -0.48242  -0.47789  -0.47255
 Alpha  occ. eigenvalues --   -0.46956  -0.46434  -0.45616  -0.45212
 Alpha virt. eigenvalues --   -0.20539  -0.18116  -0.15666  -0.12096  -0.11084
 Alpha virt. eigenvalues --   -0.07451  -0.07431  -0.04046  -0.03308  -0.01989
 Alpha virt. eigenvalues --   -0.00846   0.00546   0.00901   0.01723   0.02620
 Alpha virt. eigenvalues --    0.02999   0.03212   0.04256   0.05112   0.05739
 Alpha virt. eigenvalues --    0.06307   0.07148   0.08925   0.09093   0.09783
 Alpha virt. eigenvalues --    0.10203   0.10974   0.11306   0.11375   0.18515
 Alpha virt. eigenvalues --    0.22326   0.23957   0.27437   0.29386   0.30775
 Alpha virt. eigenvalues --    0.34139   0.34601   0.40978   0.41882   0.43191
 Alpha virt. eigenvalues --    0.45200   0.45697   0.46483   0.47449   0.47958
 Alpha virt. eigenvalues --    0.48601   0.49692   0.52626   0.53191   0.57422
 Alpha virt. eigenvalues --    0.57713   0.59589   0.61483   0.62151   0.62258
 Alpha virt. eigenvalues --    0.64038   0.65149   0.66785   0.67172   0.67944
 Alpha virt. eigenvalues --    0.69156   0.70132   0.71305   0.72786   0.74368
 Alpha virt. eigenvalues --    0.74814   0.75613   0.76255   0.77052   0.77886
 Alpha virt. eigenvalues --    0.78699   0.79453   0.79664   0.80461   0.81608
 Alpha virt. eigenvalues --    0.82075   0.83177   0.83360   0.85266   0.86035
 Alpha virt. eigenvalues --    0.87221   0.87918   0.91009   0.92721   0.94242
 Alpha virt. eigenvalues --    0.97871   1.01905   1.06189   1.08779   1.19237
 Alpha virt. eigenvalues --    1.20091   1.22537   1.23758   1.25380   1.27968
 Alpha virt. eigenvalues --    1.31408   1.35324   1.44604   1.46356   1.47027
 Alpha virt. eigenvalues --    1.47788   1.51610   1.60783   1.64407   1.65209
 Alpha virt. eigenvalues --    1.66706   1.68023   1.68498   1.73542   1.74535
 Alpha virt. eigenvalues --    1.75291   1.76447   1.76657   1.78833   1.82205
 Alpha virt. eigenvalues --    1.83130   1.84415   1.86521   1.88116   1.89392
 Alpha virt. eigenvalues --    1.90014   1.91316   1.93258   1.96005   1.96459
 Alpha virt. eigenvalues --    1.98156   2.01949   2.06005   2.07658   2.09101
 Alpha virt. eigenvalues --    2.12114   2.12620   2.15574   2.16325   2.20444
 Alpha virt. eigenvalues --    2.21379   2.23237   2.24958   2.25409   2.31344
 Alpha virt. eigenvalues --    2.41877   2.43959   2.45367   2.50002   2.51542
 Alpha virt. eigenvalues --    2.59131   2.61540   3.57526   3.71661   3.77325
 Alpha virt. eigenvalues --    3.97627   3.99529   4.08598   4.09909   4.20932
 Alpha virt. eigenvalues --    4.21913   4.34754   4.35505
          Condensed to atoms (all electrons):
               1          2          3          4          5          6
     1  O    8.314718   0.120526  -0.030232  -0.001511   0.000008   0.000000
     2  S    0.120526  14.066372   0.164468   0.000469   0.000658  -0.000049
     3  C   -0.030232   0.164468   5.592966   0.252481  -0.027536   0.003643
     4  C   -0.001511   0.000469   0.252481   5.218516   0.340762  -0.034930
     5  C    0.000008   0.000658  -0.027536   0.340762   4.994235   0.356620
     6  C    0.000000  -0.000049   0.003643  -0.034930   0.356620   5.064848
     7  C   -0.030434   0.165558  -0.039452  -0.001725  -0.000044   0.000002
     8  C   -0.002195  -0.020986   0.001523   0.000070   0.000000  -0.000000
     9  C    0.000001   0.002316  -0.000036  -0.000001  -0.000000   0.000000
    10  C    0.000000  -0.000106   0.000000   0.000000   0.000000  -0.000000
    11  O   -0.030277   0.385373  -0.036213   0.001195  -0.000015   0.000000
    12  H    0.001038  -0.017703   0.356896  -0.041143  -0.001267  -0.000062
    13  H   -0.000342  -0.016283   0.356335  -0.038215  -0.002136  -0.000061
    14  H    0.003623  -0.002122  -0.056444   0.368175  -0.036764  -0.002080
    15  H   -0.000175  -0.005711  -0.051879   0.376665  -0.036024  -0.004173
    16  H   -0.000001   0.000110  -0.005701  -0.047290   0.389437  -0.040918
    17  H   -0.000000   0.000076  -0.004682  -0.047502   0.387069  -0.038604
    18  H   -0.000000   0.000024   0.000229  -0.009563  -0.044045   0.378993
    19  H    0.000000   0.000001  -0.000118   0.003706  -0.028570   0.384323
    20  H   -0.000000   0.000001  -0.000096  -0.001876  -0.031962   0.384283
    21  H    0.001039  -0.019952  -0.000167  -0.000013  -0.000005   0.000000
    22  H    0.000841  -0.009660  -0.000456   0.000792   0.000000  -0.000001
    23  H    0.005124  -0.005103   0.000021  -0.000009  -0.000000   0.000000
    24  H   -0.000190   0.000899   0.000051  -0.000003   0.000000  -0.000000
    25  H   -0.000001   0.000023   0.000001  -0.000000   0.000000   0.000000
    26  H    0.000001  -0.000040   0.000001  -0.000001   0.000000   0.000000
    27  H   -0.000000   0.000002  -0.000000  -0.000000  -0.000000   0.000000
    28  H   -0.000000   0.000002  -0.000000  -0.000000   0.000000   0.000000
    29  H    0.000000  -0.000004   0.000000  -0.000000  -0.000000   0.000000
    30  H    0.225561   0.014876  -0.001860   0.001661  -0.000052   0.000000
               7          8          9         10         11         12
     1  O   -0.030434  -0.002195   0.000001   0.000000  -0.030277   0.001038
     2  S    0.165558  -0.020986   0.002316  -0.000106   0.385373  -0.017703
     3  C   -0.039452   0.001523  -0.000036   0.000000  -0.036213   0.356896
     4  C   -0.001725   0.000070  -0.000001   0.000000   0.001195  -0.041143
     5  C   -0.000044   0.000000  -0.000000   0.000000  -0.000015  -0.001267
     6  C    0.000002  -0.000000   0.000000  -0.000000   0.000000  -0.000062
     7  C    5.620179   0.288681  -0.030185   0.003609  -0.036609  -0.000495
     8  C    0.288681   5.123224   0.349542  -0.038261  -0.002607  -0.000013
     9  C   -0.030185   0.349542   5.001723   0.370413  -0.000005  -0.000001
    10  C    0.003609  -0.038261   0.370413   5.047874   0.000001   0.000000
    11  O   -0.036609  -0.002607  -0.000005   0.000001   8.175251  -0.000650
    12  H   -0.000495  -0.000013  -0.000001   0.000000  -0.000650   0.444099
    13  H    0.001593  -0.000014   0.000000  -0.000000  -0.000111  -0.007675
    14  H   -0.000538  -0.000002  -0.000000  -0.000000  -0.000016   0.006132
    15  H    0.003546   0.000031   0.000004  -0.000000  -0.000010  -0.003892
    16  H   -0.000006  -0.000000   0.000000  -0.000000   0.000000   0.005081
    17  H   -0.000001   0.000000   0.000000  -0.000000   0.000000  -0.000344
    18  H   -0.000006   0.000000  -0.000000  -0.000000   0.000000   0.000012
    19  H    0.000000   0.000000  -0.000000   0.000000  -0.000000  -0.000004
    20  H    0.000000   0.000000   0.000000   0.000000  -0.000000   0.000007
    21  H    0.353161  -0.030422  -0.002465  -0.000029  -0.000994   0.000373
    22  H    0.324520  -0.038244  -0.003317  -0.000064   0.001212   0.000163
    23  H   -0.054016   0.382039  -0.041501  -0.001482  -0.000391  -0.000001
    24  H   -0.051694   0.382937  -0.037895  -0.002905   0.005477   0.000002
    25  H   -0.006096  -0.046000   0.383371  -0.040328   0.000001   0.000000
    26  H   -0.005935  -0.047603   0.379535  -0.039940  -0.000001   0.000000
    27  H   -0.000135   0.004081  -0.028569   0.382130   0.000000  -0.000000
    28  H   -0.000044  -0.003967  -0.033982   0.382533   0.000000  -0.000000
    29  H    0.000136  -0.007230  -0.039708   0.381538  -0.000001   0.000000
    30  H   -0.000940   0.000203  -0.000010   0.000000   0.001021   0.000065
              13         14         15         16         17         18
     1  O   -0.000342   0.003623  -0.000175  -0.000001  -0.000000  -0.000000
     2  S   -0.016283  -0.002122  -0.005711   0.000110   0.000076   0.000024
     3  C    0.356335  -0.056444  -0.051879  -0.005701  -0.004682   0.000229
     4  C   -0.038215   0.368175   0.376665  -0.047290  -0.047502  -0.009563
     5  C   -0.002136  -0.036764  -0.036024   0.389437   0.387069  -0.044045
     6  C   -0.000061  -0.002080  -0.004173  -0.040918  -0.038604   0.378993
     7  C    0.001593  -0.000538   0.003546  -0.000006  -0.000001  -0.000006
     8  C   -0.000014  -0.000002   0.000031  -0.000000   0.000000   0.000000
     9  C    0.000000  -0.000000   0.000004   0.000000   0.000000  -0.000000
    10  C   -0.000000  -0.000000  -0.000000  -0.000000  -0.000000  -0.000000
    11  O   -0.000111  -0.000016  -0.000010   0.000000   0.000000   0.000000
    12  H   -0.007675   0.006132  -0.003892   0.005081  -0.000344   0.000012
    13  H    0.432505  -0.003942   0.005486  -0.000358   0.004953   0.000018
    14  H   -0.003942   0.581004  -0.021586   0.005750  -0.004518   0.000399
    15  H    0.005486  -0.021586   0.553350  -0.004305   0.005481   0.005721
    16  H   -0.000358   0.005750  -0.004305   0.549912  -0.018284   0.001279
    17  H    0.004953  -0.004518   0.005481  -0.018284   0.546076   0.005215
    18  H    0.000018   0.000399   0.005721   0.001279   0.005215   0.561377
    19  H    0.000002  -0.000073   0.000173  -0.007433   0.000937  -0.025805
    20  H   -0.000010   0.002498  -0.000275   0.004473  -0.008429  -0.027243
    21  H    0.000009  -0.000001   0.000153   0.000000   0.000000  -0.000000
    22  H   -0.000008   0.000243   0.002496   0.000005   0.000001   0.000004
    23  H    0.000001  -0.000005   0.000008  -0.000000  -0.000000  -0.000000
    24  H   -0.000001   0.000000   0.000000  -0.000000  -0.000000  -0.000000
    25  H    0.000000  -0.000000   0.000001  -0.000000  -0.000000  -0.000000
    26  H   -0.000000   0.000000  -0.000003  -0.000000  -0.000000  -0.000000
    27  H    0.000000  -0.000000   0.000000   0.000000   0.000000  -0.000000
    28  H    0.000000   0.000000   0.000000  -0.000000  -0.000000  -0.000000
    29  H   -0.000000   0.000000  -0.000000  -0.000000  -0.000000   0.000000
    30  H   -0.000011   0.003917   0.000007   0.000003   0.000003   0.000002
              19         20         21         22         23         24
     1  O    0.000000  -0.000000   0.001039   0.000841   0.005124  -0.000190
     2  S    0.000001   0.000001  -0.019952  -0.009660  -0.005103   0.000899
     3  C   -0.000118  -0.000096  -0.000167  -0.000456   0.000021   0.000051
     4  C    0.003706  -0.001876  -0.000013   0.000792  -0.000009  -0.000003
     5  C   -0.028570  -0.031962  -0.000005   0.000000  -0.000000   0.000000
     6  C    0.384323   0.384283   0.000000  -0.000001   0.000000  -0.000000
     7  C    0.000000   0.000000   0.353161   0.324520  -0.054016  -0.051694
     8  C    0.000000   0.000000  -0.030422  -0.038244   0.382039   0.382937
     9  C   -0.000000   0.000000  -0.002465  -0.003317  -0.041501  -0.037895
    10  C    0.000000   0.000000  -0.000029  -0.000064  -0.001482  -0.002905
    11  O   -0.000000  -0.000000  -0.000994   0.001212  -0.000391   0.005477
    12  H   -0.000004   0.000007   0.000373   0.000163  -0.000001   0.000002
    13  H    0.000002  -0.000010   0.000009  -0.000008   0.000001  -0.000001
    14  H   -0.000073   0.002498  -0.000001   0.000243  -0.000005   0.000000
    15  H    0.000173  -0.000275   0.000153   0.002496   0.000008   0.000000
    16  H   -0.007433   0.004473   0.000000   0.000005  -0.000000  -0.000000
    17  H    0.000937  -0.008429   0.000000   0.000001  -0.000000  -0.000000
    18  H   -0.025805  -0.027243  -0.000000   0.000004  -0.000000  -0.000000
    19  H    0.507188  -0.024368  -0.000000  -0.000000   0.000000   0.000000
    20  H   -0.024368   0.529451   0.000000   0.000000   0.000000   0.000000
    21  H   -0.000000   0.000000   0.442056  -0.012412   0.005744  -0.004014
    22  H   -0.000000   0.000000  -0.012412   0.498914  -0.003825   0.005869
    23  H    0.000000   0.000000   0.005744  -0.003825   0.551997  -0.015833
    24  H    0.000000   0.000000  -0.004014   0.005869  -0.015833   0.503059
    25  H    0.000000  -0.000000   0.005547  -0.000303   0.005610  -0.003993
    26  H    0.000000  -0.000000  -0.000274   0.005921  -0.003883   0.005237
    27  H   -0.000000   0.000000  -0.000004  -0.000000  -0.000052   0.000036
    28  H   -0.000000  -0.000000   0.000010  -0.000010   0.003546  -0.000314
    29  H   -0.000000  -0.000000   0.000007   0.000018  -0.000138   0.005056
    30  H   -0.000000   0.000000   0.000020   0.000223   0.000120  -0.000004
              25         26         27         28         29         30
     1  O   -0.000001   0.000001  -0.000000  -0.000000   0.000000   0.225561
     2  S    0.000023  -0.000040   0.000002   0.000002  -0.000004   0.014876
     3  C    0.000001   0.000001  -0.000000  -0.000000   0.000000  -0.001860
     4  C   -0.000000  -0.000001  -0.000000  -0.000000  -0.000000   0.001661
     5  C    0.000000   0.000000  -0.000000   0.000000  -0.000000  -0.000052
     6  C    0.000000   0.000000   0.000000   0.000000   0.000000   0.000000
     7  C   -0.006096  -0.005935  -0.000135  -0.000044   0.000136  -0.000940
     8  C   -0.046000  -0.047603   0.004081  -0.003967  -0.007230   0.000203
     9  C    0.383371   0.379535  -0.028569  -0.033982  -0.039708  -0.000010
    10  C   -0.040328  -0.039940   0.382130   0.382533   0.381538   0.000000
    11  O    0.000001  -0.000001   0.000000   0.000000  -0.000001   0.001021
    12  H    0.000000   0.000000  -0.000000  -0.000000   0.000000   0.000065
    13  H    0.000000  -0.000000   0.000000   0.000000  -0.000000  -0.000011
    14  H   -0.000000   0.000000  -0.000000   0.000000   0.000000   0.003917
    15  H    0.000001  -0.000003   0.000000   0.000000  -0.000000   0.000007
    16  H   -0.000000  -0.000000   0.000000  -0.000000  -0.000000   0.000003
    17  H   -0.000000  -0.000000   0.000000  -0.000000  -0.000000   0.000003
    18  H   -0.000000  -0.000000  -0.000000  -0.000000   0.000000   0.000002
    19  H    0.000000   0.000000  -0.000000  -0.000000  -0.000000  -0.000000
    20  H   -0.000000  -0.000000   0.000000  -0.000000  -0.000000   0.000000
    21  H    0.005547  -0.000274  -0.000004   0.000010   0.000007   0.000020
    22  H   -0.000303   0.005921  -0.000000  -0.000010   0.000018   0.000223
    23  H    0.005610  -0.003883  -0.000052   0.003546  -0.000138   0.000120
    24  H   -0.003993   0.005237   0.000036  -0.000314   0.005056  -0.000004
    25  H    0.559889  -0.020188  -0.005572   0.004978  -0.001107   0.000000
    26  H   -0.020188   0.573541  -0.000772  -0.006739   0.005379   0.000000
    27  H   -0.005572  -0.000772   0.514660  -0.025781  -0.025509  -0.000000
    28  H    0.004978  -0.006739  -0.025781   0.541930  -0.027067   0.000000
    29  H   -0.001107   0.005379  -0.025509  -0.027067   0.541722   0.000000
    30  H    0.000000   0.000000  -0.000000   0.000000   0.000000   0.277990
 Mulliken charges:
               1
     1  O   -0.577123
     2  S    1.175964
     3  C   -0.473744
     4  C   -0.340712
     5  C   -0.260371
     6  C   -0.451835
     7  C   -0.502630
     8  C   -0.294787
     9  C   -0.269229
    10  C   -0.444982
    11  O   -0.461630
    12  H    0.259381
    13  H    0.268266
    14  H    0.156349
    15  H    0.174911
    16  H    0.168250
    17  H    0.172552
    18  H    0.153386
    19  H    0.190041
    20  H    0.173544
    21  H    0.262634
    22  H    0.227079
    23  H    0.172031
    24  H    0.208223
    25  H    0.164166
    26  H    0.155763
    27  H    0.185486
    28  H    0.164906
    29  H    0.166908
    30  H    0.477202
 Sum of Mulliken charges =   1.00000
 Mulliken charges with hydrogens summed into heavy atoms:
               1
     1  O   -0.099921
     2  S    1.175964
     3  C    0.053904
     4  C   -0.009452
     5  C    0.080430
     6  C    0.065136
     7  C   -0.012917
     8  C    0.085467
     9  C    0.050701
    10  C    0.072318
    11  O   -0.461630
 Electronic spatial extent (au):  <R**2>=           3583.8756
 Charge=              1.0000 electrons
 Dipole moment (field-independent basis, Debye):
    X=              2.3711    Y=             -2.7676    Z=              1.1432  Tot=              3.8195
 Quadrupole moment (field-independent basis, Debye-Ang):
   XX=            -44.5750   YY=            -78.2457   ZZ=            -65.9018
   XY=              5.5545   XZ=              1.2267   YZ=              1.7334
 Traceless Quadrupole moment (field-independent basis, Debye-Ang):
   XX=             18.3325   YY=            -15.3382   ZZ=             -2.9943
   XY=              5.5545   XZ=              1.2267   YZ=              1.7334
 Octapole moment (field-independent basis, Debye-Ang**2):
  XXX=              9.2768  YYY=             -4.0960  ZZZ=             15.0957  XYY=              7.3727
  XXY=            -21.7034  XXZ=             -5.2512  XZZ=              3.5858  YZZ=              2.4002
  YYZ=              3.5735  XYZ=              3.1631
 Hexadecapole moment (field-independent basis, Debye-Ang**3):
 XXXX=          -3124.5455 YYYY=           -862.1672 ZZZZ=           -215.7513 XXXY=             13.2213
 XXXZ=             26.3777 YYYX=             15.2187 YYYZ=              9.5147 ZZZX=              7.0325
 ZZZY=              9.4719 XXYY=           -676.8441 XXZZ=           -622.2815 YYZZ=           -190.4067
 XXYZ=             15.8232 YYXZ=             -5.9252 ZZXY=              3.5926
 N-N= 7.749884090458D+02 E-N=-3.561534528725D+03  KE= 8.584246427268D+02
 No NMR shielding tensors so no spin-rotation constants.
 Leave Link  601 at Mon Oct 14 01:44:54 2019, MaxMem= 10737418240 cpu:               2.4 elap:               0.1
 (Enter /apps/cent7/gaussian/g16-A.03/g16-haswell/g16/l701.exe)
 ... and contract with generalized density number  0.
 Compute integral first derivatives.
 Leave Link  701 at Mon Oct 14 01:44:54 2019, MaxMem= 10737418240 cpu:               2.9 elap:               0.2
 (Enter /apps/cent7/gaussian/g16-A.03/g16-haswell/g16/l702.exe)
 L702 exits ... SP integral derivatives will be done elsewhere.
 Leave Link  702 at Mon Oct 14 01:44:55 2019, MaxMem= 10737418240 cpu:               0.9 elap:               0.1
 (Enter /apps/cent7/gaussian/g16-A.03/g16-haswell/g16/l703.exe)
 Integral derivatives from FoFJK, PRISM(SPDF).
 Compute integral first derivatives, UseDBF=F ICtDFT=           0.
 Calling FoFJK, ICntrl=      2127 FMM=F ISym2X=0 I1Cent= 0 IOpClX= 0 NMat=1 NMatS=1 NMatT=0.
 FoFJK:  IHMeth= 1 ICntrl=    2127 DoSepK=F KAlg= 0 I1Cent=           0 FoldK=F
 IRaf=         0 NMat=       1 IRICut=       1 DoRegI=T DoRafI=F ISym2E= 0 IDoP0=0 IntGTp=1.
 FoFCou: FMM=F IPFlag=           0 FMFlag=      100000 FMFlg1=         800
         NFxFlg=           0 DoJE=F BraDBF=F KetDBF=F FulRan=T
         wScrn=  0.000000 ICntrl=      2127 IOpCl=  0 I1Cent=           0 NGrid=           0
         NMat0=    1 NMatS0=      1 NMatT0=    0 NMatD0=    1 NMtDS0=    0 NMtDT0=    0
 Symmetry not used in FoFCou.
 Leave Link  703 at Mon Oct 14 01:44:56 2019, MaxMem= 10737418240 cpu:              30.4 elap:               1.3
 (Enter /apps/cent7/gaussian/g16-A.03/g16-haswell/g16/l716.exe)
 Dipole        = 9.32866504D-01-1.08885326D+00 4.49781398D-01
 ***** Axes restored to original set *****
 -------------------------------------------------------------------
 Center     Atomic                   Forces (Hartrees/Bohr)
 Number     Number              X              Y              Z
 -------------------------------------------------------------------
      1        8          -0.018207567    0.008067397   -0.000083611
      2       16          -0.126497086    0.024336383   -0.005519158
      3        6           0.041518936   -0.013611740   -0.002873427
      4        6          -0.006177639   -0.001414760   -0.005080587
      5        6           0.009728851    0.005197569    0.015586104
      6        6          -0.007617479    0.008143253    0.003718687
      7        6           0.008578431    0.015223729    0.027248194
      8        6           0.000110654   -0.003138155    0.001696122
      9        6          -0.004466110    0.017426954   -0.004850264
     10        6           0.000988435    0.000964903   -0.013894805
     11        8           0.104376578   -0.037679944    0.003136216
     12        1          -0.019256413    0.012184627   -0.001573878
     13        1          -0.022658734    0.005062728    0.002024934
     14        1           0.012985714   -0.002753869    0.014740122
     15        1           0.016752607    0.006490903    0.008142195
     16        1          -0.010563697    0.003713453   -0.015178749
     17        1          -0.016364468   -0.009640177   -0.009610094
     18        1           0.005687980   -0.004394746    0.001666125
     19        1           0.003134314   -0.000938075   -0.001088971
     20        1           0.005469491   -0.001255246    0.000805673
     21        1           0.006386724   -0.011134960   -0.018274011
     22        1          -0.001057479   -0.016189291   -0.013250780
     23        1          -0.011243503    0.016260505    0.001760518
     24        1           0.003726078    0.019372183    0.000119353
     25        1           0.010406285   -0.016001133   -0.000865204
     26        1          -0.002659197   -0.020856578    0.000363248
     27        1           0.000488596    0.000267449    0.002412954
     28        1           0.000020767    0.003965964    0.003909585
     29        1          -0.002783317    0.002926805    0.004882815
     30        1           0.019192249   -0.010596131   -0.000069306
 -------------------------------------------------------------------
 Cartesian Forces:  Max     0.126497086 RMS     0.020889742
 Leave Link  716 at Mon Oct 14 01:44:56 2019, MaxMem= 10737418240 cpu:               0.6 elap:               0.0
 (Enter /apps/cent7/gaussian/g16-A.03/g16-haswell/g16/l103.exe)

 GradGradGradGradGradGradGradGradGradGradGradGradGradGradGradGradGradGrad
 Berny optimization.
 FormGI is forming the generalized inverse of G from B-inverse, IUseBI=4.
 Internal  Forces:  Max     0.110920649 RMS     0.011305919
 Search for a local minimum.
 Step number   1 out of a maximum of  169
 All quantities printed in internal units (Hartrees-Bohrs-Radians)
 RMS Force = .11306D-01 SwitMx=.10000D-02 MixMth= 1
 Mixed Optimization -- RFO/linear search
 Second derivative matrix not updated -- first step.
 ITU=  0
     Eigenvalues ---    0.00230   0.00230   0.00230   0.00230   0.00230
     Eigenvalues ---    0.00230   0.00230   0.00230   0.02562   0.03847
     Eigenvalues ---    0.03960   0.03961   0.03981   0.04009   0.04068
     Eigenvalues ---    0.04942   0.04973   0.05110   0.05145   0.05151
     Eigenvalues ---    0.05159   0.05498   0.05715   0.05715   0.05715
     Eigenvalues ---    0.05715   0.06781   0.07694   0.07736   0.07768
     Eigenvalues ---    0.07785   0.07944   0.07947   0.10173   0.11651
     Eigenvalues ---    0.11733   0.11766   0.11781   0.11791   0.11930
     Eigenvalues ---    0.16000   0.16000   0.16000   0.16000   0.16000
     Eigenvalues ---    0.16000   0.16000   0.18098   0.21456   0.22478
     Eigenvalues ---    0.22497   0.22501   0.22503   0.22508   0.22534
     Eigenvalues ---    0.23501   0.23512   0.27330   0.27584   0.27736
     Eigenvalues ---    0.27854   0.28013   0.28194   0.34804   0.34805
     Eigenvalues ---    0.34805   0.34806   0.34808   0.34809   0.34810
     Eigenvalues ---    0.34810   0.34810   0.34812   0.34815   0.34815
     Eigenvalues ---    0.34816   0.34816   0.34816   0.34816   0.34817
     Eigenvalues ---    0.34819   0.50397   0.50426   0.55473
 RFO step:  Lambda=-6.44382121D-02 EMin= 2.30000000D-03
 Linear search not attempted -- first point.
 Maximum step size (   0.300) exceeded in Quadratic search.
    -- Step size scaled by   0.714
 Iteration  1 RMS(Cart)=  0.04553391 RMS(Int)=  0.00108845
 Iteration  2 RMS(Cart)=  0.00117349 RMS(Int)=  0.00073275
 Iteration  3 RMS(Cart)=  0.00000156 RMS(Int)=  0.00073275
 Iteration  4 RMS(Cart)=  0.00000000 RMS(Int)=  0.00073275
 ITry= 1 IFail=0 DXMaxC= 1.91D-01 DCOld= 1.00D+10 DXMaxT= 3.00D-01 DXLimC= 3.00D+00 Rises=F
 Variable       Old X    -DE/DX   Delta X   Delta X   Delta X     New X
                                 (Linear)    (Quad)   (Total)
    R1        3.03167  -0.00127   0.00000  -0.00159  -0.00159   3.03007
    R2        1.81414   0.02084   0.00000   0.02402   0.02402   1.83816
    R3        3.46880  -0.01128   0.00000  -0.02688  -0.02688   3.44192
    R4        3.46848  -0.01111   0.00000  -0.02648  -0.02648   3.44201
    R5        3.03138  -0.11092   0.00000  -0.13923  -0.13923   2.89215
    R6        2.92720   0.01041   0.00000   0.02174   0.02174   2.94894
    R7        2.05975   0.00155   0.00000   0.00268   0.00268   2.06242
    R8        2.05985   0.00170   0.00000   0.00295   0.00295   2.06279
    R9        2.93056   0.00104   0.00000   0.00219   0.00219   2.93275
   R10        2.05977   0.00492   0.00000   0.00851   0.00851   2.06827
   R11        2.05985   0.00335   0.00000   0.00579   0.00579   2.06564
   R12        2.92111   0.00557   0.00000   0.01154   0.01154   2.93265
   R13        2.05981   0.00275   0.00000   0.00476   0.00476   2.06457
   R14        2.05993   0.00240   0.00000   0.00415   0.00415   2.06408
   R15        2.05977   0.00385   0.00000   0.00667   0.00667   2.06644
   R16        2.05975   0.00131   0.00000   0.00227   0.00227   2.06202
   R17        2.05970   0.00227   0.00000   0.00393   0.00393   2.06363
   R18        2.92458   0.00837   0.00000   0.01742   0.01742   2.94200
   R19        2.05987   0.00178   0.00000   0.00307   0.00307   2.06294
   R20        2.05974   0.00279   0.00000   0.00483   0.00483   2.06457
   R21        2.93626  -0.00021   0.00000  -0.00044  -0.00044   2.93582
   R22        2.05985   0.00304   0.00000   0.00525   0.00525   2.06510
   R23        2.05994   0.00193   0.00000   0.00334   0.00334   2.06328
   R24        2.91717   0.00227   0.00000   0.00468   0.00468   2.92185
   R25        2.05991   0.00333   0.00000   0.00577   0.00577   2.06567
   R26        2.05974   0.00351   0.00000   0.00608   0.00608   2.06582
   R27        2.05974   0.00166   0.00000   0.00288   0.00288   2.06262
   R28        2.05993   0.00286   0.00000   0.00494   0.00494   2.06488
   R29        2.05985   0.00353   0.00000   0.00610   0.00610   2.06595
    A1        2.09440  -0.01236   0.00000  -0.03933  -0.03933   2.05507
    A2        1.90652  -0.00470   0.00000  -0.02235  -0.02246   1.88406
    A3        1.91231  -0.00291   0.00000  -0.01842  -0.01860   1.89372
    A4        1.89758   0.00099   0.00000   0.00363   0.00387   1.90146
    A5        1.93337   0.00146   0.00000   0.00253   0.00210   1.93547
    A6        1.90396   0.00422   0.00000   0.02299   0.02289   1.92686
    A7        1.90970   0.00096   0.00000   0.01178   0.01159   1.92129
    A8        1.94661  -0.00285   0.00000   0.00373   0.00454   1.95115
    A9        1.90734  -0.00799   0.00000  -0.04253  -0.04385   1.86349
   A10        1.90733  -0.00744   0.00000  -0.04061  -0.04191   1.86543
   A11        1.80090   0.01363   0.00000   0.06800   0.06773   1.86863
   A12        1.80084   0.01295   0.00000   0.06511   0.06481   1.86565
   A13        2.09436  -0.00567   0.00000  -0.03720  -0.04307   2.05129
[...]
 -0.00212126,0.00071277,-0.00018090,-0.00016315,-0.00010976,0.00013784,
 -0.00015999,0.00018073,-0.00011858,0.00010803,-0.00007497,0.00000856,0
 .00000554,0.00003285,0.02827040,-0.00962465,-0.00296495,-0.01609003,0.
 00329537,-0.04782762,-0.02755593,0.00932027,-0.00272096,-0.00128934,0.
 00031543,0.00188144,-0.00145262,0.00071684,0.00013560,-0.00001388,-0.0
 0000957,0.00002570,-0.00005370,0.00008815,0.00001538,-0.00001782,0.000
 00124,0.00001636,-0.00005187,0.00016932,-0.00006701,0.00000258,-0.0000
 1334,-0.00000968,0.00000896,-0.00002759,-0.00004640,-0.00000278,0.0000
 0871,0.00000058,-0.00001061,0.00000475,-0.00000355,-0.00000209,-0.0000
 0033,0.00000266,-0.00054301,0.00060056,0.00096619,0.00051096,-0.002969
 23,-0.00485256,-0.00086061,0.00072701,-0.00029548,0.01347169,-0.003091
 72,0.05920746,0.00005306,0.00014197,-0.00014590,0.00019465,0.00006780,
 0.00042781,-0.00000824,-0.00005651,0.00003546,0.00001093,-0.00002152,0
 .00002948,-0.00000855,0.00000453,-0.00000486,-0.00000083,-0.00000527,0
 .00000733,0.00006679,-0.00007398,-0.00006760,0.00308089,0.00501104,0.0
 0001839,-0.14593493,-0.12270671,-0.00628817,0.00503485,0.00674110,0.00
 033649,-0.00010059,0.00001748,-0.00002124,0.00000904,-0.00000783,0.000
 00814,-0.00000255,0.00002413,0.00001737,-0.00000026,0.00000952,-0.0000
 1123,-0.00001488,-0.00000188,-0.00000713,0.00000510,0.00000057,0.00000
 569,0.00000059,0.00000166,-0.00000550,-0.00000408,0.00000183,-0.000002
 11,-0.00000045,0.00000040,-0.00000076,0.00000231,0.00000361,-0.0000018
 0,0.00008839,-0.00011812,0.00061682,-0.00011530,-0.00014522,-0.0001308
 4,0.00114545,0.00112423,-0.00110337,0.00077719,0.00018268,0.00061855,0
 .15253331,0.00011656,0.00035110,0.00005343,-0.00002028,-0.00028089,-0.
 00001733,0.00000997,-0.00008719,0.00006074,0.00001782,0.00000149,0.000
 02914,-0.00001689,-0.00000559,-0.00001668,0.00000542,0.00000086,0.0000
 1101,-0.00001429,0.00037862,-0.00117430,-0.01077311,-0.01581812,0.0010
 6532,-0.12188042,-0.21229310,-0.00686243,-0.01046513,-0.01433075,-0.00
 202107,0.00006432,0.00007631,0.00006847,-0.00000825,0.00000026,0.00000
 713,-0.00001135,0.00003512,0.00002674,0.00000493,0.00000241,-0.0000057
 1,-0.00000400,-0.00000395,-0.00000336,0.00000355,0.00000298,0.00000403
 ,0.00000017,0.00000201,-0.00000143,-0.00000213,0.00000048,-0.00000252,
 -0.00000432,0.00000223,0.00000113,0.00000154,0.00000089,-0.00000149,-0
 .00012562,0.00050457,0.00087212,0.00005585,0.00001172,0.00008579,0.000
 90794,-0.00094600,0.00306212,0.00012901,0.00036729,-0.00055011,0.13423
 981,0.23146885,-0.00007178,-0.00040612,-0.00023524,-0.00007871,0.00065
 708,0.00079700,0.00004239,-0.00007942,0.00006272,-0.00000406,0.0000004
 0,-0.00003226,0.00000405,-0.00000338,0.00000676,-0.00000141,0.00000038
 ,-0.00000462,0.00092947,0.00162018,0.00113062,0.01798127,0.02378975,-0
 .00259802,-0.00696257,-0.00728716,-0.04837989,-0.01786321,-0.02404582,
 -0.00219830,0.00004415,-0.00014755,-0.00011325,-0.00000093,-0.00000384
 ,-0.00000921,0.00000227,0.00001427,0.00002588,-0.00000689,-0.00000138,
 0.00000572,0.00000376,-0.00000073,0.00000145,-0.00000070,-0.00000177,-
 0.00000324,0.00000028,-0.00000005,0.00000132,0.00000067,-0.00000114,0.
 00000055,0.00000123,-0.00000088,0.00000048,-0.00000075,0.00000011,0.00
 000042,-0.00014809,-0.00056453,-0.00042368,0.00002166,-0.00001568,-0.0
 0007845,-0.00098177,0.00305538,-0.00478616,-0.00007318,-0.00089133,0.0
 0109035,0.00629562,0.00758788,0.05862580,0.00000418,-0.00002546,-0.000
 05391,0.00011587,0.00006005,-0.00036017,-0.00006353,0.00010479,-0.0000
 7986,-0.00003147,0.00004016,-0.00003104,0.00001641,-0.00001169,0.00001
 217,-0.00000657,0.00000758,-0.00001280,0.00029745,-0.00013909,0.000582
 93,-0.00279565,0.00097364,-0.00063054,-0.28028340,0.07659332,-0.010018
 09,-0.00547177,0.00195543,0.00059965,0.00018933,-0.00015575,0.00016529
 ,0.00000149,0.00000225,-0.00000286,0.00001360,-0.00004460,-0.00003345,
 0.00000447,0.00000024,-0.00000084,-0.00000245,-0.00001807,0.00000080,-
 0.00000048,0.00000474,-0.00000127,0.00000036,-0.00000199,0.00000998,0.
 00000133,-0.00000902,0.00000186,0.00000461,-0.00000212,0.00000364,0.00
 000234,0.00000055,-0.00000260,-0.00014617,0.00006595,0.00004008,0.0001
 3937,-0.00007337,-0.00089190,0.00076575,0.00020606,-0.00024574,0.00152
 119,0.00021220,-0.00022006,-0.01860126,0.00617273,-0.00082500,0.301841
 46,-0.00015184,-0.00007099,0.00001971,0.00037304,-0.00018504,-0.000246
 93,-0.00001557,-0.00004130,0.00003562,0.00002584,0.00001590,0.00000295
 ,-0.00001459,-0.00000716,-0.00000992,0.00000801,0.00000569,0.00000543,
 -0.00006485,0.00032203,-0.00096695,0.01830424,-0.00741125,0.00241246,0
 .07576611,-0.07808833,0.00390907,0.01762574,-0.00622342,-0.00036287,-0
 .00021041,0.00015405,0.00015689,-0.00000884,-0.00000220,-0.00000128,-0
 .00000265,0.00002040,0.00001231,-0.00000192,-0.00000592,0.00000767,0.0
 0000489,-0.00000006,0.00000068,-0.00000163,-0.00000130,-0.00000217,0.0
 0000099,0.00000159,0.00000157,0.00000100,0.00000053,-0.00000057,-0.000
 00432,0.00000142,0.00000057,-0.00000248,-0.00000285,0.00000143,-0.0001
 6671,0.00000965,0.00015516,-0.00017752,0.00045935,0.00039985,0.0002076
 2,0.00039012,-0.00081521,0.00038139,-0.00136802,0.00327545,-0.02550817
 ,0.01004989,-0.00142117,-0.08645014,0.08214018,0.00008918,-0.00007682,
 -0.00003664,-0.00047583,0.00059495,0.00069689,0.00002000,-0.00009141,0
 .00004926,-0.00002409,0.00002892,-0.00001905,0.00001091,-0.00001203,0.
 00000463,-0.00000113,0.00000244,-0.00000516,-0.00163030,0.00074906,0.0
 0103540,-0.02788091,0.00963930,-0.00481948,-0.00924672,0.00402717,-0.0
 4843347,0.02851045,-0.00990933,0.00020172,0.00041260,-0.00034592,-0.00
 030273,0.00000520,0.00000004,-0.00001204,-0.00000023,0.00000777,0.0000
 2601,0.00000066,0.00000205,-0.00000250,-0.00000137,-0.00001534,0.00000
 251,-0.00000040,0.00000224,0.00000034,-0.00000019,0.00000121,0.0000051
 9,0.00000070,-0.00000358,-0.00000004,0.00000184,-0.00000074,0.00000178
 ,0.00000069,-0.00000012,-0.00000126,-0.00002367,-0.00002589,-0.0000762
 7,0.00044838,-0.00031799,-0.00043562,0.00056100,-0.00070673,0.00107643
 ,-0.00023704,0.00317317,-0.00468194,-0.00091551,0.00014809,-0.00033584
 ,0.01042092,-0.00449455,0.05866656,-0.00000163,-0.00003450,0.00001034,
 -0.00007155,0.00026786,0.00016709,0.00002809,-0.00012772,0.00009205,0.
 00001756,-0.00000635,0.00001006,-0.00001013,0.00000011,-0.00001199,0.0
 0000575,0.00000069,0.00000698,0.00054717,-0.00014224,0.00020098,-0.000
 21228,0.00078005,0.00119790,-0.00032241,-0.00459677,0.00619442,-0.0540
 3919,0.02085864,-0.02993337,0.00004647,-0.00005388,-0.00002319,-0.0000
 0323,-0.00000323,-0.00000562,-0.00001135,0.00003918,0.00003966,-0.0000
 0120,-0.00000065,-0.00000042,0.00000035,0.00000181,-0.00000296,-0.0000
 0037,-0.00000091,0.00000029,0.00000048,0.00000070,-0.00000201,0.,0.000
 00177,-0.00000101,-0.00000320,0.00000191,-0.00000003,-0.00000127,-0.00
 000132,0.00000013,-0.00000628,0.00002296,0.00002127,0.00000471,-0.0000
 9220,-0.00004660,0.00003381,0.00035981,-0.00026773,0.00029318,-0.00016
 273,0.00031913,0.00009724,0.00004781,-0.00044976,0.00018866,-0.0005482
 0,-0.00005884,0.05334026,0.00001820,0.00013922,0.00000182,0.00027099,-
 0.00067339,-0.00049711,-0.00008125,0.00031624,-0.00025717,-0.00004611,
 0.00001428,-0.00001923,0.00002653,0.00000344,0.00002535,-0.00001142,-0
 .00000288,-0.00001436,-0.00007714,0.00082264,-0.00047786,0.00073914,-0
 .00181876,-0.00337043,-0.00296878,0.01108758,-0.01685726,0.02078230,-0
 .13810439,0.12710127,-0.00009168,0.00012245,0.00005525,0.00000477,0.00
 000801,0.00000851,0.00001996,-0.00010384,-0.00010334,0.00000350,-0.000
 00211,0.00000353,0.00000560,0.00000057,0.00000774,-0.00000207,0.000000
 85,-0.00000167,-0.00000194,-0.00000217,0.00000378,0.00000227,-0.000001
 29,0.00000241,0.00000680,-0.00000385,-0.00000119,0.00000138,0.00000047
 ,0.00000133,-0.00007106,0.00009163,0.00004521,0.00000469,0.00007365,0.
 00002754,0.00025747,0.00006723,-0.00016765,-0.00006591,-0.00023214,-0.
 00000683,-0.00032250,0.00091504,0.00061004,-0.00022208,0.00075221,0.00
 074178,-0.02350153,0.14694620,0.00005831,0.00020703,-0.00011993,0.0002
 8785,-0.00086673,-0.00012909,-0.00009941,0.00041148,-0.00020955,-0.000
 07362,-0.00000494,-0.00005763,0.00004777,0.00001787,0.00005915,-0.0000
 2604,-0.00000588,-0.00003439,-0.00024598,0.00094080,-0.00079647,0.0014
 0003,-0.00409610,-0.00304563,-0.00363931,0.01524957,-0.02192848,-0.029
 49000,0.12564664,-0.22589915,-0.00011029,0.00015041,-0.00008010,0.0000
 1878,0.00000888,0.00000846,0.00002892,-0.00012726,-0.00010801,-0.00000
 010,-0.00000068,0.00000969,0.00000046,0.00001627,0.00000877,-0.0000029
 3,-0.00000062,-0.00000435,-0.00000201,-0.00000543,-0.00000037,0.000002
 79,-0.00000052,0.00000663,0.00001521,-0.00000935,-0.00000453,0.0000023
 6,0.00000219,0.00000430,-0.00006168,0.00006107,-0.00003933,0.00001448,
 0.00007497,-0.00004162,0.00011953,-0.00015317,0.00023392,0.00000683,-0
 .00023476,0.00026200,-0.00055340,0.00009905,0.00090665,0.00033600,0.00
 033403,0.00097153,0.03129744,-0.13501079,0.24554219,0.00001245,0.00004
 641,0.00004197,-0.00003324,-0.00015953,-0.00013434,-0.00000176,0.00002
 754,-0.00002690,0.00000259,0.00000094,0.00000732,-0.00000265,-0.000001
 86,-0.00000272,0.00000138,-0.00000076,0.00000295,0.00015563,0.00027073
 ,-0.00008362,0.00008847,0.00002100,-0.00023636,0.00521786,0.00748030,0
 .00046140,-0.14839623,-0.12738477,-0.01116127,-0.00000036,0.00005194,0
 .00002211,-0.00000465,0.00000164,0.00000432,-0.00000036,-0.00000704,-0
 .00000913,0.00000218,-0.00000152,0.00000041,0.00000197,0.,-0.00000039,
 0.00000038,0.00000036,0.00000055,-0.00000060,0.00000090,-0.00000031,0.
 00000004,0.00000103,-0.00000094,-0.00000124,0.00000027,-0.00000007,0.0
 0000019,-0.00000015,0.00000045,-0.00005731,0.00001398,0.00008032,-0.00
 000610,0.00002133,0.00002383,0.00012636,-0.00008061,-0.00047327,-0.000
 07513,-0.00014550,0.00006643,0.00089313,0.00130071,0.00191175,0.000787
 27,0.00007974,-0.00071993,0.00302154,0.00485502,0.00106860,0.15583237,
 0.00007019,0.00012252,-0.00005876,-0.00001924,-0.00014429,0.00007110,-
 0.00001641,0.00007260,-0.00003713,-0.00001703,-0.00001214,-0.00000803,
 0.00000973,0.00000522,0.00001437,-0.00000800,-0.00000402,-0.00000662,0
 .00021836,0.00021978,0.00024038,0.00004941,0.00059518,0.00088117,-0.01
 002374,-0.01467614,-0.00130950,-0.12662973,-0.21547000,-0.01419342,-0.
 00000828,0.00004509,-0.00005587,0.00000530,0.00000007,0.00000584,0.000
 00354,-0.00002345,-0.00001893,0.00000084,0.00000335,-0.00000138,-0.000
 00376,0.00000383,-0.00000060,0.00000211,0.00000102,0.00000133,-0.00000
 067,-0.00000062,-0.00000213,-0.00000115,0.00000010,0.00000069,0.000003
 91,-0.00000243,-0.00000105,0.00000232,0.00000272,0.00000013,-0.0000226
 0,0.00005532,0.00023931,-0.00001112,-0.00003924,-0.00001016,0.00001549
 ,0.00060767,-0.00076477,0.00005812,0.00004321,-0.00005015,0.00134595,-
 0.00063743,-0.00317801,0.00023310,0.00024858,0.00044321,-0.01143905,-0
 .01435618,-0.00189868,0.13946457,0.23287979,0.00003927,0.00012760,0.00
 001810,0.00000949,0.00002817,-0.00010447,-0.00000320,-0.00004269,0.000
 01828,0.00001174,-0.00000331,0.00001925,-0.00000822,-0.00000191,-0.000
 01065,0.00000392,-0.00000024,0.00000721,0.00011743,-0.00005062,0.00037
 318,-0.00102616,-0.00129028,0.00156852,-0.01817527,-0.02314962,-0.0035
 8154,-0.01074427,-0.01351418,-0.05067958,-0.00000724,0.00003366,0.0000
 1793,-0.00000284,-0.00000283,0.00000023,-0.00000717,0.00001312,0.00001
 041,0.00000197,0.00000113,-0.00000371,-0.00000106,-0.00000229,-0.00000
 190,0.00000129,0.00000084,0.00000223,-0.00000003,0.00000130,-0.0000008
 7,-0.00000101,0.00000063,-0.00000156,-0.00000253,0.00000176,0.00000063
 ,0.00000035,0.00000005,-0.00000109,0.00004025,0.00018855,0.00013348,-0
 .00001208,-0.00004350,0.00003182,0.00032677,0.00060290,-0.00044109,-0.
 00001704,0.00005527,-0.00009113,0.00141482,-0.00314093,-0.00463973,0.0
 0002135,0.00089528,0.00109415,0.01783916,0.02094632,0.00339512,0.01081
 924,0.01853192,0.05388177,0.00003312,-0.00004530,0.00001670,-0.0001678
 7,0.00015203,0.00008341,0.00002381,-0.00005769,0.00004209,-0.00000203,
 0.00000139,-0.00000853,0.00000005,-0.00000180,-0.00000349,-0.00000031,
 0.00000230,-0.00000107,0.00043440,-0.00012352,-0.00006520,0.00020508,-
 0.00019662,-0.00042271,-0.00482652,0.00177786,0.00029921,-0.28884951,0
 .07902722,-0.00273409,0.00009017,-0.00007068,-0.00000967,-0.00000198,0
 .00000108,-0.00000250,-0.00000406,0.00001559,0.00001717,0.00000039,0.0
 0000185,-0.00000257,-0.00000269,-0.00000298,-0.00000027,0.00000062,0.0
 0000138,-0.00000007,0.00000065,-0.00000134,0.00000174,-0.00000042,-0.0
 0000300,0.00000030,0.00000025,0.00000060,0.00000174,0.00000074,0.00000
 061,-0.00000187,-0.00001167,-0.00000117,-0.00002377,0.00000090,-0.0000
 7467,-0.00020529,-0.00007821,0.00005429,-0.00001680,0.00020550,-0.0002
 0750,0.00086684,0.00077455,0.00018591,0.00031615,0.00151702,0.00052585
 ,0.00076920,-0.00293852,0.00045752,-0.00040005,-0.01756957,0.00671960,
 -0.00066253,0.31118661,0.00001319,0.00002391,-0.00004514,-0.00001235,-
 0.00002316,0.00011571,-0.00000046,0.00004874,-0.00001705,-0.00000980,-
 0.00001497,-0.00001104,0.00000978,0.00000884,0.00001357,-0.00000499,-0
 .00000389,-0.00000634,-0.00014074,-0.00003614,0.00023630,-0.00038939,0
 .00041013,0.00079015,0.01770244,-0.00697665,0.00018987,0.07832208,-0.0
 7660953,0.00100702,-0.00004595,0.00001833,-0.00007861,0.00000683,0.000
 00093,0.00000075,0.00000363,-0.00001506,-0.00001154,-0.00000243,-0.000
 00043,0.00000300,0.00000165,0.00000846,0.00000056,-0.00000115,-0.00000
 195,-0.00000104,-0.00000061,-0.00000072,-0.00000290,0.00000065,0.00000
 255,0.00000151,0.00000303,-0.00000188,-0.00000242,-0.00000044,0.000000
 15,0.00000198,0.00003222,-0.00003523,-0.00001821,-0.00004026,0.0000133
 7,0.00013998,-0.00013321,0.00005021,-0.00008607,-0.00020411,0.00049056
 ,-0.00036521,0.00006606,0.00022347,0.00075412,0.00050689,-0.00118535,-
 0.00356684,0.01831309,-0.00601708,-0.00073914,-0.02583147,0.01049044,-
 0.00018751,-0.08815743,0.07914389,-0.00002155,0.00001073,0.00002392,-0
 .00002407,0.00003081,-0.00011800,0.00001705,-0.00003174,0.00001759,0.0
 0001754,-0.00000780,0.00001482,-0.00000841,-0.00000076,-0.00000895,0.0
 0000429,-0.00000093,0.00000659,-0.00009655,-0.00012704,0.00039514,0.00
 141702,-0.00051209,0.00166669,0.02845286,-0.00906757,-0.00120999,-0.00
 352814,0.00142773,-0.04954432,-0.00009822,0.00007748,0.00001805,-0.000
 00301,-0.00000091,0.00000232,-0.00000305,0.00001447,0.00000799,-0.0000
 0022,-0.00000054,-0.00000107,0.00000161,-0.00000002,-0.00000133,0.0000
 0065,-0.00000064,0.00000088,-0.00000006,0.00000145,-0.00000118,-0.0000
 0072,0.00000152,-0.00000117,-0.00000279,0.00000168,0.00000009,-0.00000
 057,-0.00000019,-0.00000025,0.00003640,-0.00003077,0.00004029,-0.00014
 263,0.00011856,0.00011200,-0.00002128,0.00006707,-0.00009317,-0.000555
 16,0.00033148,-0.00041492,-0.00054638,0.00072366,0.00111267,0.00118632
 ,-0.00328175,-0.00471720,-0.02659042,0.00721566,0.00106952,-0.00163683
 ,0.00117074,-0.00097594,0.00213439,0.00187125,0.05261944,-0.05809158,0
 .11246223,-0.06859863,0.00431398,-0.04194967,0.01681498,-0.00187095,0.
 00015581,0.00011867,0.00028198,0.00041425,0.00076953,-0.00014133,0.000
 04295,-0.00024363,0.00007740,0.00005812,0.00011092,-0.00553256,-0.0037
 6227,-0.00204176,0.00013107,0.00002280,-0.00021916,-0.00004272,0.00011
 185,0.00014393,0.00005493,0.00001712,-0.00001083,0.00058264,0.00711267
 ,-0.00124273,0.00002594,-0.00004585,-0.00029059,0.00022677,-0.00009834
 ,-0.00031965,0.00011211,0.00013142,-0.00015503,-0.00011917,-0.00006330
 ,-0.00002884,-0.00001248,-0.00000208,0.00003663,0.00003227,0.00001570,
 0.00004215,-0.00000601,-0.00001018,-0.00000332,-0.00004689,0.00001383,
 -0.00000382,-0.00003162,-0.00000546,-0.00000934,0.00073738,-0.00069704
 ,0.00191640,0.00025384,0.00019482,-0.00045181,0.00005589,0.00014580,0.
 00020563,-0.00009645,-0.00003689,0.00011855,0.00002444,0.00006173,-0.0
 0008591,-0.00000942,0.00002540,-0.00003558,-0.00000265,0.00000732,-0.0
 0000056,0.00000537,-0.00000178,0.00002361,-0.00002049,-0.00000675,0.00
 001189,0.05910830,0.07397226,-0.34250584,0.17117609,-0.00340866,-0.025
 99154,0.01097028,0.00026002,0.00029427,-0.00078267,0.00027673,0.000118
 07,0.00053655,-0.00027883,-0.00003478,-0.00045438,0.00015269,0.0000465
 8,0.00022768,-0.00074248,-0.00003719,-0.00101953,-0.00006933,0.0005546
 6,0.00014026,0.00008142,-0.00030219,0.00008035,-0.00000618,0.00020107,
 -0.00004158,0.00408692,0.00289638,-0.00110353,-0.00015108,0.00038026,0
 .00007424,-0.00022796,-0.00020907,-0.00073815,0.00021694,-0.00014261,-
 0.00006312,-0.00002803,0.00006611,-0.00003566,0.00001936,0.00001903,0.
 00003089,0.00001120,-0.00000423,0.00001449,-0.00000913,-0.00000775,-0.
 00002585,-0.00009398,0.00005991,0.00002188,-0.00001668,-0.00001545,-0.
 00002967,0.00005742,0.00032946,0.00017230,0.00022458,0.00017858,-0.000
 32295,-0.00003178,0.00015336,0.00015315,0.00001346,0.00002231,0.000067
 15,-0.00001666,0.00000742,-0.00003962,0.00001369,0.00002159,0.00000588
 ,0.00001488,-0.00004365,-0.00006623,-0.00002520,-0.00003056,0.00000140
 ,0.00001863,-0.00001193,-0.00000152,-0.07431421,0.36398772,-0.05281204
 ,0.18226239,-0.09495777,0.00118520,-0.00184294,-0.00135635,-0.00246697
 ,-0.00173724,0.00112993,-0.00048469,0.00005017,-0.00041226,0.00013833,
 -0.00010812,0.00021430,-0.00003731,-0.00002292,-0.00009454,0.00243387,
 0.00169050,0.00085831,0.00018211,0.00029836,0.00067178,-0.00010024,-0.
 00004381,-0.00028494,0.00002044,-0.00001939,0.00002500,-0.00102554,-0.
 00087337,-0.00101226,0.00022328,-0.00015834,-0.00138148,-0.00043319,-0
 .00055648,-0.00061082,0.00010404,-0.00013963,0.00024296,0.00004629,0.0
 0015506,0.00001615,0.00002312,0.00005343,-0.00002295,-0.00003848,-0.00
 001051,-0.00010075,-0.00000324,0.00002517,-0.00000740,0.00002998,-0.00
 001651,0.00000228,0.00003636,-0.00000780,0.00001811,-0.00012407,0.0003
 1487,-0.00061298,-0.00010276,-0.00027197,0.00029057,-0.00031157,-0.000
 01987,-0.00014127,0.00010273,0.00006269,-0.00011366,-0.00002619,-0.000
 10847,0.00006953,0.00002916,-0.00002278,0.00004686,-0.00000294,-0.0000
 1265,0.00002072,-0.00002554,-0.00000500,-0.00003906,0.00001153,0.00001
 325,-0.00002048,0.05342831,-0.17894812,0.09756251\\0.00000426,-0.00000
 597,0.00000451,-0.00002059,-0.00000742,0.00001074,-0.00001510,0.000012
 96,-0.00000943,0.00001500,-0.00000411,0.00000899,-0.00000947,0.0000096
 8,-0.00000530,0.00001339,-0.00000712,0.00000626,0.00000022,-0.00001366
 ,-0.00001685,-0.00000376,-0.00000214,0.00000447,-0.00000086,0.00000586
 ,0.00000056,-0.00000014,-0.00000262,0.00000101,0.00000721,0.00000245,-
 0.00000374,0.00000034,0.00000294,0.00000599,0.00000271,-0.00000637,-0.
 00000757,0.00000473,-0.00000051,-0.00000191,-0.00000501,0.00000218,-0.
 00000358,0.00000045,-0.00000309,-0.00000035,-0.00000301,0.00000225,0.0
 0000241,-0.00000135,0.00000103,0.00000029,-0.00000276,0.00000253,-0.00
 000156,-0.00000082,-0.00000056,-0.00000143,0.00000572,0.00000393,0.000
 00734,0.00000157,0.00000355,0.00000220,0.00000034,0.00000138,0.0000024
 5,0.00000127,0.00000127,-0.00000110,-0.00000035,-0.00000149,0.00000208
 ,0.00000123,0.00000034,-0.00000018,-0.00000072,-0.00000057,0.00000145,
 0.00000139,-0.00000138,-0.00000092,0.00000037,-0.00000055,-0.00000170,
 0.00000376,0.00000520,-0.00000514\\\@


 WE TEND TO MEET ANY NEW SITUATION BY REORGANIZING. IT CAN BE A
 WONDERFUL METHOD FOR CREATING THE ILLUSION OF PROGRESS WHILE PRODUCING
 CONFUSION, INEFFICIENCY, AND DEMORALIZATION.
     -- PETRONIUS ARBITER, 210 B.C.
 Job cpu time:       0 days  0 hours 18 minutes 31.9 seconds.
 Elapsed time:       0 days  0 hours  0 minutes 46.9 seconds.
 File lengths (MBytes):  RWF=    161 Int=      0 D2E=      0 Chk=      5 Scr=      1
 Normal termination of Gaussian 16 at Mon Oct 14 01:48:38 2019.
real 230.64
user 5205.10
sys 36.59
Machine:
brown-a074
brown-a074
brown-a074
brown-a074
brown-a074
brown-a074
brown-a074
brown-a074
brown-a074
brown-a074
brown-a074
brown-a074
brown-a074
brown-a074
brown-a074
brown-a074
brown-a074
brown-a074
brown-a074
brown-a074
brown-a074
brown-a074
brown-a074
brown-a074
