Title Card Required                                                     
Freq      RB3LYP                                                      6-31G(d)            
Number of atoms                            I               30
Info1-9                                    I   N=           9
          70          70        1002           0           0         100
           6          18        -502
Full Title                                 C   N=           2
Title Card Required     
Route                                      C   N=           6
#P opt freq b3lyp/6-31g(d) geom=connectivity temperature=0.0
01          
Charge                                     I                1
Multiplicity                               I                1
Number of electrons                        I               98
Number of alpha electrons                  I               49
Number of beta electrons                   I               49
Number of basis functions                  I              207
Number of independent functions            I              207
Number of point charges in /Mol/           I                0
Number of translation vectors              I                0
Atomic numbers                             I   N=          30
           8          16           6           6           6           6
           6           6           6           6           8           1
           1           1           1           1           1           1
           1           1           1           1           1           1
           1           1           1           1           1           1
Nuclear charges                            R   N=          30
  8.00000000E+00  1.60000000E+01  6.00000000E+00  6.00000000E+00  6.00000000E+00
  6.00000000E+00  6.00000000E+00  6.00000000E+00  6.00000000E+00  6.00000000E+00
  8.00000000E+00  1.00000000E+00  1.00000000E+00  1.00000000E+00  1.00000000E+00
  1.00000000E+00  1.00000000E+00  1.00000000E+00  1.00000000E+00  1.00000000E+00
  1.00000000E+00  1.00000000E+00  1.00000000E+00  1.00000000E+00  1.00000000E+00
  1.00000000E+00  1.00000000E+00  1.00000000E+00  1.00000000E+00  1.00000000E+00
Current cartesian coordinates              R   N=          90
  2.10444184E-02  2.06869012E+00  2.94180502E+00 -7.19855888E-02  1.99700284E+00
 -1.16377649E-01  3.17669214E+00  1.41214399E+00 -1.07674372E+00  4.44912914E+00
 -8.74717904E-01  1.61694668E-01  7.23360457E+00 -1.04716784E+00 -6.79241413E-01
  8.57684524E+00 -3.32519291E+00  4.98477646E-01 -1.99275901E+00 -7.98949440E-01
 -5.78546114E-01 -4.77394666E+00 -3.09327971E-01  8.38266574E-02 -6.36071269E+00
 -2.69062229E+00 -4.53011186E-01 -9.15399335E+00 -2.28231341E+00  1.90554234E-01
 -1.09504872E+00  4.29187935E+00 -1.24649501E+00  3.05645204E+00  1.26220151E+00
 -3.14066223E+00  4.12378482E+00  3.20107630E+00 -6.27087956E-01  4.35054014E+00
 -7.05826079E-01  2.22296895E+00  3.46528142E+00 -2.61863549E+00 -3.73051428E-01
  7.32164983E+00 -1.17123063E+00 -2.74789834E+00  8.21564729E+00  7.00615643E-01
 -1.46634988E-01  7.67603066E+00 -5.10491758E+00 -5.76713766E-02  1.05473616E+01
 -3.39754924E+00 -1.21946412E-01  8.57005065E+00 -3.22025500E+00  2.56639882E+00
 -1.72954237E+00 -1.26574538E+00 -2.58082403E+00 -1.12926712E+00 -2.27672873E+00
  5.84374591E-01 -4.92950566E+00  2.04938095E-01  2.08298043E+00 -5.48345475E+00
  1.28146566E+00 -1.03443184E+00 -6.17071017E+00 -3.20708573E+00 -2.45340804E+00
 -5.61223773E+00 -4.28172587E+00  6.48092626E-01 -1.02421783E+01 -3.99425952E+00
 -2.08346041E-01 -9.40735564E+00 -1.82545393E+00  2.19405543E+00 -9.96743531E+00
 -7.41275306E-01 -9.27384720E-01  1.59536100E-01  3.82067677E+00  3.53797421E+00
Number of symbols in /Mol/                 I                0
Force Field                                I                0
Atom Types                                 C   N=          30
                                                            
                                                            
                                                            
                                                            
                                                            
                                                            
Int Atom Types                             I   N=          30
           0           0           0           0           0           0
           0           0           0           0           0           0
           0           0           0           0           0           0
           0           0           0           0           0           0
           0           0           0           0           0           0
MM charges                                 R   N=          30
  0.00000000E+00  0.00000000E+00  0.00000000E+00  0.00000000E+00  0.00000000E+00
  0.00000000E+00  0.00000000E+00  0.00000000E+00  0.00000000E+00  0.00000000E+00
  0.00000000E+00  0.00000000E+00  0.00000000E+00  0.00000000E+00  0.00000000E+00
  0.00000000E+00  0.00000000E+00  0.00000000E+00  0.00000000E+00  0.00000000E+00
  0.00000000E+00  0.00000000E+00  0.00000000E+00  0.00000000E+00  0.00000000E+00
  0.00000000E+00  0.00000000E+00  0.00000000E+00  0.00000000E+00  0.00000000E+00
Integer atomic weights                     I   N=          30
          16          32          12          12          12          12
          12          12          12          12          16           1
           1           1           1           1           1           1
           1           1           1           1           1           1
           1           1           1           1           1           1
Real atomic weights                        R   N=          30
  1.59949146E+01  3.19720718E+01  1.20000000E+01  1.20000000E+01  1.20000000E+01
  1.20000000E+01  1.20000000E+01  1.20000000E+01  1.20000000E+01  1.20000000E+01
  1.59949146E+01  1.00782504E+00  1.00782504E+00  1.00782504E+00  1.00782504E+00
  1.00782504E+00  1.00782504E+00  1.00782504E+00  1.00782504E+00  1.00782504E+00
  1.00782504E+00  1.00782504E+00  1.00782504E+00  1.00782504E+00  1.00782504E+00
  1.00782504E+00  1.00782504E+00  1.00782504E+00  1.00782504E+00  1.00782504E+00
Atom fragment info                         I   N=          30
           0           0           0           0           0           0
           0           0           0           0           0           0
           0           0           0           0           0           0
           0           0           0           0           0           0
           0           0           0           0           0           0
Atom residue num                           I   N=          30
           0           0           0           0           0           0
           0           0           0           0           0           0
           0           0           0           0           0           0
           0           0           0           0           0           0
           0           0           0           0           0           0
Nuclear spins                              I   N=          30
           0           0           0           0           0           0
           0           0           0           0           0           1
           1           1           1           1           1           1
           1           1           1           1           1           1
           1           1           1           1           1           1
Nuclear ZEff                               R   N=          30
 -5.60000000E+00 -1.36000000E+01 -3.60000000E+00 -3.60000000E+00 -3.60000000E+00
 -3.60000000E+00 -3.60000000E+00 -3.60000000E+00 -3.60000000E+00 -3.60000000E+00
 -5.60000000E+00 -1.00000000E+00 -1.00000000E+00 -1.00000000E+00 -1.00000000E+00
 -1.00000000E+00 -1.00000000E+00 -1.00000000E+00 -1.00000000E+00 -1.00000000E+00
 -1.00000000E+00 -1.00000000E+00 -1.00000000E+00 -1.00000000E+00 -1.00000000E+00
 -1.00000000E+00 -1.00000000E+00 -1.00000000E+00 -1.00000000E+00 -1.00000000E+00
Nuclear ZNuc                               R   N=          30
  8.00000000E+00  1.60000000E+01  6.00000000E+00  6.00000000E+00  6.00000000E+00
  6.00000000E+00  6.00000000E+00  6.00000000E+00  6.00000000E+00  6.00000000E+00
  8.00000000E+00  1.00000000E+00  1.00000000E+00  1.00000000E+00  1.00000000E+00
  1.00000000E+00  1.00000000E+00  1.00000000E+00  1.00000000E+00  1.00000000E+00
  1.00000000E+00  1.00000000E+00  1.00000000E+00  1.00000000E+00  1.00000000E+00
  1.00000000E+00  1.00000000E+00  1.00000000E+00  1.00000000E+00  1.00000000E+00
Nuclear QMom                               R   N=          30
  0.00000000E+00  0.00000000E+00  0.00000000E+00  0.00000000E+00  0.00000000E+00
  0.00000000E+00  0.00000000E+00  0.00000000E+00  0.00000000E+00  0.00000000E+00
  0.00000000E+00  0.00000000E+00  0.00000000E+00  0.00000000E+00  0.00000000E+00
  0.00000000E+00  0.00000000E+00  0.00000000E+00  0.00000000E+00  0.00000000E+00
  0.00000000E+00  0.00000000E+00  0.00000000E+00  0.00000000E+00  0.00000000E+00
  0.00000000E+00  0.00000000E+00  0.00000000E+00  0.00000000E+00  0.00000000E+00
Nuclear GFac                               R   N=          30
  0.00000000E+00  0.00000000E+00  0.00000000E+00  0.00000000E+00  0.00000000E+00
  0.00000000E+00  0.00000000E+00  0.00000000E+00  0.00000000E+00  0.00000000E+00
  0.00000000E+00  2.79284600E+00  2.79284600E+00  2.79284600E+00  2.79284600E+00
  2.79284600E+00  2.79284600E+00  2.79284600E+00  2.79284600E+00  2.79284600E+00
  2.79284600E+00  2.79284600E+00  2.79284600E+00  2.79284600E+00  2.79284600E+00
  2.79284600E+00  2.79284600E+00  2.79284600E+00  2.79284600E+00  2.79284600E+00
MicOpt                                     I   N=          30
          -1          -1          -1          -1          -1          -1
          -1          -1          -1          -1          -1          -1
          -1          -1          -1          -1          -1          -1
          -1          -1          -1          -1          -1          -1
          -1          -1          -1          -1          -1          -1
Number of residues                         I                0
Number of secondary structures             I                0
Redundant internal dimensions              I   N=           4
         159          29          55          75
Redundant internal coordinate indices      I   N=         636
           1           2           0           0           1          30
           0           0           2           3           0           0
           2           7           0           0           2          11
           0           0           3           4           0           0
           3          12           0           0           3          13
           0           0           4           5           0           0
           4          14           0           0           4          15
           0           0           5           6           0           0
           5          16           0           0           5          17
           0           0           6          18           0           0
           6          19           0           0           6          20
           0           0           7           8           0           0
           7          21           0           0           7          22
           0           0           8           9           0           0
           8          23           0           0           8          24
           0           0           9          10           0           0
           9          25           0           0           9          26
           0           0          10          27           0           0
          10          28           0           0          10          29
           0           0           2           1          30           0
           1           2           3           0           1           2
           7           0           1           2          11           0
           3           2           7           0           3           2
          11           0           7           2          11           0
           2           3           4           0           2           3
          12           0           2           3          13           0
           4           3          12           0           4           3
          13           0          12           3          13           0
           3           4           5           0           3           4
          14           0           3           4          15           0
           5           4          14           0           5           4
          15           0          14           4          15           0
           4           5           6           0           4           5
          16           0           4           5          17           0
           6           5          16           0           6           5
          17           0          16           5          17           0
           5           6          18           0           5           6
          19           0           5           6          20           0
          18           6          19           0          18           6
          20           0          19           6          20           0
           2           7           8           0           2           7
          21           0           2           7          22           0
           8           7          21           0           8           7
          22           0          21           7          22           0
           7           8           9           0           7           8
          23           0           7           8          24           0
           9           8          23           0           9           8
          24           0          23           8          24           0
           8           9          10           0           8           9
          25           0           8           9          26           0
          10           9          25           0          10           9
          26           0          25           9          26           0
           9          10          27           0           9          10
          28           0           9          10          29           0
          27          10          28           0          27          10
          29           0          28          10          29           0
          30           1           2           3          30           1
           2           7          30           1           2          11
           1           2           3           4           1           2
           3          12           1           2           3          13
           7           2           3           4           7           2
           3          12           7           2           3          13
          11           2           3           4          11           2
           3          12          11           2           3          13
           1           2           7           8           1           2
           7          21           1           2           7          22
           3           2           7           8           3           2
           7          21           3           2           7          22
          11           2           7           8          11           2
           7          21          11           2           7          22
           2           3           4           5           2           3
           4          14           2           3           4          15
          12           3           4           5          12           3
           4          14          12           3           4          15
          13           3           4           5          13           3
           4          14          13           3           4          15
           3           4           5           6           3           4
           5          16           3           4           5          17
          14           4           5           6          14           4
           5          16          14           4           5          17
          15           4           5           6          15           4
           5          16          15           4           5          17
           4           5           6          18           4           5
           6          19           4           5           6          20
          16           5           6          18          16           5
           6          19          16           5           6          20
          17           5           6          18          17           5
           6          19          17           5           6          20
           2           7           8           9           2           7
           8          23           2           7           8          24
          21           7           8           9          21           7
           8          23          21           7           8          24
          22           7           8           9          22           7
           8          23          22           7           8          24
           7           8           9          10           7           8
           9          25           7           8           9          26
          23           8           9          10          23           8
           9          25          23           8           9          26
          24           8           9          10          24           8
           9          25          24           8           9          26
           8           9          10          27           8           9
          10          28           8           9          10          29
          25           9          10          27          25           9
          10          28          25           9          10          29
          26           9          10          27          26           9
          10          28          26           9          10          29
Redundant internal coordinates             R   N=         159
  3.06043704E+00  1.85581650E+00  3.43777105E+00  3.42349519E+00  2.75504657E+00
  2.89526560E+00  2.07284830E+00  2.07351240E+00  2.91379750E+00  2.07053034E+00
  2.07247637E+00  2.89494661E+00  2.07424324E+00  2.07432510E+00  2.07079418E+00
  2.06714690E+00  2.07059318E+00  2.90059850E+00  2.07275138E+00  2.06925939E+00
  2.91145736E+00  2.07009275E+00  2.06991019E+00  2.89539451E+00  2.07471035E+00
  2.07466984E+00  2.06737211E+00  2.07049030E+00  2.07033180E+00  1.92344934E+00
  1.82803478E+00  1.74272663E+00  1.98413964E+00  1.93214960E+00  1.95846947E+00
  2.00045916E+00  2.01550868E+00  1.80867710E+00  1.79699552E+00  1.97605988E+00
  1.96921123E+00  1.88055274E+00  1.92120403E+00  1.91822246E+00  1.92371646E+00
  1.91520943E+00  1.90644702E+00  1.87853375E+00  1.95256606E+00  1.90914566E+00
  1.90545406E+00  1.91661068E+00  1.91654364E+00  1.86123219E+00  1.94463398E+00
  1.92596457E+00  1.94431239E+00  1.87966873E+00  1.88635804E+00  1.88036744E+00
  1.94902250E+00  1.81634203E+00  1.84757111E+00  1.96099169E+00  1.97395932E+00
  1.90611058E+00  1.92026861E+00  1.91189067E+00  1.91242368E+00  1.91803594E+00
  1.92000909E+00  1.88078690E+00  1.94922525E+00  1.90866266E+00  1.91005022E+00
  1.91533827E+00  1.91582936E+00  1.86270016E+00  1.92637692E+00  1.94362342E+00
  1.94334680E+00  1.88075104E+00  1.88112929E+00  1.88618862E+00  1.67229380E+00
 -2.61026147E+00 -4.71590239E-01  9.15910614E-01  3.08707469E+00 -1.23804601E+00
 -9.47592054E-01  1.22357202E+00 -3.10154867E+00  3.07633509E+00 -1.03568614E+00
  9.22378471E-01  1.27583453E+00 -2.88790755E+00 -8.79418436E-01 -3.08785705E+00
 -9.68413836E-01  1.04007528E+00 -8.51218712E-01  1.26822451E+00 -3.00647168E+00
 -3.07623964E+00 -9.64806089E-01  1.10287770E+00  1.12579508E+00 -3.04595667E+00
 -9.78272885E-01 -1.01598911E+00  1.09544444E+00 -3.12005708E+00 -3.13303770E+00
 -1.00543129E+00  1.02517182E+00  1.03690876E+00 -3.11867014E+00 -1.08806703E+00
 -1.01860307E+00  1.10900333E+00  3.13960644E+00  1.05861740E+00 -3.13735041E+00
 -1.04946474E+00 -1.06469847E+00  1.02251902E+00  3.11040469E+00 -3.10598038E+00
 -1.01876288E+00  1.06912278E+00  3.09529082E+00 -1.07760579E+00  9.82218046E-01
  1.06191382E+00 -3.11098280E+00 -1.05115896E+00 -1.10598364E+00  1.00430505E+00
  3.06412889E+00  3.13916619E+00 -1.02056180E+00  1.01413865E+00  1.03257180E+00
 -3.12715619E+00 -1.09245573E+00 -1.03550000E+00  1.08795732E+00  3.12265777E+00
  3.13990845E+00 -1.05508454E+00  1.05142119E+00  1.02031112E+00  3.10850343E+00
 -1.06817614E+00 -1.02158718E+00  1.06660513E+00 -3.11007445E+00
ZRed-IntVec                                I   N=         159
           0           0           0           0           0           0
           0           0           0           0           0           0
           0           0           0           0           0           0
           0           0           0           0           0           0
           0           0           0           0           0           0
           0           0           0           0           0           0
           0           0           0           0           0           0
           0           0           0           0           0           0
           0           0           0           0           0           0
           0           0           0           0           0           0
           0           0           0           0           0           0
           0           0           0           0           0           0
           0           0           0           0           0           0
           0           0           0           0           0           0
           0           0           0           0           0           0
           0           0           0           0           0           0
           0           0           0           0           0           0
           0           0           0           0           0           0
           0           0           0           0           0           0
           0           0           0           0           0           0
           0           0           0           0           0           0
           0           0           0           0           0           0
           0           0           0           0           0           0
           0           0           0           0           0           0
           0           0           0           0           0           0
           0           0           0           0           0           0
           0           0           0
ZRed-FPVec                                 R   N=         159
  0.00000000E+00  0.00000000E+00  0.00000000E+00  0.00000000E+00  0.00000000E+00
  0.00000000E+00  0.00000000E+00  0.00000000E+00  0.00000000E+00  0.00000000E+00
  0.00000000E+00  0.00000000E+00  0.00000000E+00  0.00000000E+00  0.00000000E+00
  0.00000000E+00  0.00000000E+00  0.00000000E+00  0.00000000E+00  0.00000000E+00
  0.00000000E+00  0.00000000E+00  0.00000000E+00  0.00000000E+00  0.00000000E+00
  0.00000000E+00  0.00000000E+00  0.00000000E+00  0.00000000E+00  0.00000000E+00
  0.00000000E+00  0.00000000E+00  0.00000000E+00  0.00000000E+00  0.00000000E+00
  0.00000000E+00  0.00000000E+00  0.00000000E+00  0.00000000E+00  0.00000000E+00
  0.00000000E+00  0.00000000E+00  0.00000000E+00  0.00000000E+00  0.00000000E+00
  0.00000000E+00  0.00000000E+00  0.00000000E+00  0.00000000E+00  0.00000000E+00
  0.00000000E+00  0.00000000E+00  0.00000000E+00  0.00000000E+00  0.00000000E+00
  0.00000000E+00  0.00000000E+00  0.00000000E+00  0.00000000E+00  0.00000000E+00
  0.00000000E+00  0.00000000E+00  0.00000000E+00  0.00000000E+00  0.00000000E+00
  0.00000000E+00  0.00000000E+00  0.00000000E+00  0.00000000E+00  0.00000000E+00
  0.00000000E+00  0.00000000E+00  0.00000000E+00  0.00000000E+00  0.00000000E+00
  0.00000000E+00  0.00000000E+00  0.00000000E+00  0.00000000E+00  0.00000000E+00
  0.00000000E+00  0.00000000E+00  0.00000000E+00  0.00000000E+00  0.00000000E+00
  0.00000000E+00  0.00000000E+00  0.00000000E+00  0.00000000E+00  0.00000000E+00
  0.00000000E+00  0.00000000E+00  0.00000000E+00  0.00000000E+00  0.00000000E+00
  0.00000000E+00  0.00000000E+00  0.00000000E+00  0.00000000E+00  0.00000000E+00
  0.00000000E+00  0.00000000E+00  0.00000000E+00  0.00000000E+00  0.00000000E+00
  0.00000000E+00  0.00000000E+00  0.00000000E+00  0.00000000E+00  0.00000000E+00
  0.00000000E+00  0.00000000E+00  0.00000000E+00  0.00000000E+00  0.00000000E+00
  0.00000000E+00  0.00000000E+00  0.00000000E+00  0.00000000E+00  0.00000000E+00
  0.00000000E+00  0.00000000E+00  0.00000000E+00  0.00000000E+00  0.00000000E+00
  0.00000000E+00  0.00000000E+00  0.00000000E+00  0.00000000E+00  0.00000000E+00
  0.00000000E+00  0.00000000E+00  0.00000000E+00  0.00000000E+00  0.00000000E+00
  0.00000000E+00  0.00000000E+00  0.00000000E+00  0.00000000E+00  0.00000000E+00
  0.00000000E+00  0.00000000E+00  0.00000000E+00  0.00000000E+00  0.00000000E+00
  0.00000000E+00  0.00000000E+00  0.00000000E+00  0.00000000E+00  0.00000000E+00
  0.00000000E+00  0.00000000E+00  0.00000000E+00  0.00000000E+00  0.00000000E+00
  0.00000000E+00  0.00000000E+00  0.00000000E+00  0.00000000E+00
ZRed-Constraint1                           R   N=         159
  3.06043704E+00  1.85581650E+00  3.43777105E+00  3.42349519E+00  2.75504657E+00
  2.89526560E+00  2.07284830E+00  2.07351240E+00  2.91379750E+00  2.07053034E+00
  2.07247637E+00  2.89494661E+00  2.07424324E+00  2.07432510E+00  2.07079418E+00
  2.06714690E+00  2.07059318E+00  2.90059850E+00  2.07275138E+00  2.06925939E+00
  2.91145736E+00  2.07009275E+00  2.06991019E+00  2.89539451E+00  2.07471035E+00
  2.07466984E+00  2.06737211E+00  2.07049030E+00  2.07033180E+00  1.92344934E+00
  1.82803478E+00  1.74272663E+00  1.98413964E+00  1.93214960E+00  1.95846947E+00
  2.00045916E+00  2.01550868E+00  1.80867710E+00  1.79699552E+00  1.97605988E+00
  1.96921123E+00  1.88055274E+00  1.92120403E+00  1.91822246E+00  1.92371646E+00
  1.91520943E+00  1.90644702E+00  1.87853375E+00  1.95256606E+00  1.90914566E+00
  1.90545406E+00  1.91661068E+00  1.91654364E+00  1.86123219E+00  1.94463398E+00
  1.92596457E+00  1.94431239E+00  1.87966873E+00  1.88635804E+00  1.88036744E+00
  1.94902250E+00  1.81634203E+00  1.84757111E+00  1.96099169E+00  1.97395932E+00
  1.90611058E+00  1.92026861E+00  1.91189067E+00  1.91242368E+00  1.91803594E+00
  1.92000909E+00  1.88078690E+00  1.94922525E+00  1.90866266E+00  1.91005022E+00
  1.91533827E+00  1.91582936E+00  1.86270016E+00  1.92637692E+00  1.94362342E+00
  1.94334680E+00  1.88075104E+00  1.88112929E+00  1.88618862E+00  1.67229380E+00
 -2.61026147E+00 -4.71590239E-01  9.15910614E-01  3.08707469E+00 -1.23804601E+00
 -9.47592054E-01  1.22357202E+00 -3.10154867E+00  3.07633509E+00 -1.03568614E+00
  9.22378471E-01  1.27583453E+00 -2.88790755E+00 -8.79418436E-01 -3.08785705E+00
 -9.68413836E-01  1.04007528E+00 -8.51218712E-01  1.26822451E+00 -3.00647168E+00
 -3.07623964E+00 -9.64806089E-01  1.10287770E+00  1.12579508E+00 -3.04595667E+00
 -9.78272885E-01 -1.01598911E+00  1.09544444E+00 -3.12005708E+00 -3.13303770E+00
 -1.00543129E+00  1.02517182E+00  1.03690876E+00 -3.11867014E+00 -1.08806703E+00
 -1.01860307E+00  1.10900333E+00  3.13960644E+00  1.05861740E+00 -3.13735041E+00
 -1.04946474E+00 -1.06469847E+00  1.02251902E+00  3.11040469E+00 -3.10598038E+00
 -1.01876288E+00  1.06912278E+00  3.09529082E+00 -1.07760579E+00  9.82218046E-01
  1.06191382E+00 -3.11098280E+00 -1.05115896E+00 -1.10598364E+00  1.00430505E+00
  3.06412889E+00  3.13916619E+00 -1.02056180E+00  1.01413865E+00  1.03257180E+00
 -3.12715619E+00 -1.09245573E+00 -1.03550000E+00  1.08795732E+00  3.12265777E+00
  3.13990845E+00 -1.05508454E+00  1.05142119E+00  1.02031112E+00  3.10850343E+00
 -1.06817614E+00 -1.02158718E+00  1.06660513E+00 -3.11007445E+00
ZRed-Constraint2                           R   N=         159
  3.03166781E+00  1.81413708E+00  3.46879617E+00  3.46848455E+00  3.03137700E+00
  2.92720091E+00  2.05974864E+00  2.05984562E+00  2.93056410E+00  2.05976515E+00
  2.05984874E+00  2.92111008E+00  2.05981293E+00  2.05993328E+00  2.05976778E+00
  2.05974770E+00  2.05969836E+00  2.92458115E+00  2.05986923E+00  2.05973566E+00
  2.93626436E+00  2.05984812E+00  2.05993956E+00  2.91717084E+00  2.05990540E+00
  2.05974041E+00  2.05974061E+00  2.05993224E+00  2.05985311E+00  2.09439510E+00
  1.90652150E+00  1.91231372E+00  1.89758237E+00  1.93337057E+00  1.90396361E+00
  1.90970031E+00  1.94660804E+00  1.90734087E+00  1.90733412E+00  1.80090355E+00
  1.80083736E+00  2.09436311E+00  1.98181662E+00  1.84797328E+00  1.84793950E+00
  1.84870686E+00  1.84866163E+00  2.09435225E+00  1.95387963E+00  1.85542977E+00
  1.85534730E+00  1.85340612E+00  1.85331535E+00  2.09434249E+00  1.91058040E+00
  1.91065716E+00  1.91071488E+00  1.91061298E+00  1.91057419E+00  1.91065981E+00
  1.96513951E+00  1.90483918E+00  1.90485713E+00  1.79524183E+00  1.79522234E+00
  2.09437932E+00  1.95855564E+00  1.85206331E+00  1.85209769E+00  1.85462529E+00
  1.85462356E+00  2.09439002E+00  1.96200987E+00  1.85463631E+00  1.85463489E+00
  1.85048321E+00  1.85062537E+00  2.09442643E+00  1.91063808E+00  1.91062330E+00
  1.91066376E+00  1.91053987E+00  1.91067296E+00  1.91066145E+00 -1.05524162E+00
  1.06557692E+00 -3.13125482E+00  1.06979467E+00  3.04971565E+00 -9.10042392E-01
 -1.03822466E+00  9.41696322E-01 -3.01806172E+00 -3.14134755E+00 -1.16142656E+00
  1.16200070E+00  1.03121369E+00  3.01308375E+00 -9.50643477E-01  3.13579492E+00
 -1.16552033E+00  1.15393775E+00 -1.04768248E+00  9.34187583E-01 -3.02953964E+00
  3.13943500E+00 -1.12275333E+00  1.11851380E+00  1.09397100E+00  3.11496798E+00
 -9.26950193E-01 -1.09833155E+00  9.22665435E-01 -3.11925274E+00 -3.13289014E+00