Title Card Required                                                     
Freq      RB3LYP                                                      6-31G(d)            
Number of atoms                            I               28
Info1-9                                    I   N=           9
          66          66        1002           0           0         100
           6          18        -502
Full Title                                 C   N=           2
Title Card Required     
Route                                      C   N=           6
#P opt freq b3lyp/6-31g(d) geom=connectivity temperature=0.0
01          
Charge                                     I                0
Multiplicity                               I                1
Number of electrons                        I               90
Number of alpha electrons                  I               45
Number of beta electrons                   I               45
Number of basis functions                  I              190
Number of independent functions            I              190
Number of point charges in /Mol/           I                0
Number of translation vectors              I                0
Atomic numbers                             I   N=          28
           6           6           6           6          16           6
           6           6           6           8           1           1
           1           1           1           1           1           1
           1           1           1           1           1           1
           1           1           1           1
Nuclear charges                            R   N=          28
  6.00000000E+00  6.00000000E+00  6.00000000E+00  6.00000000E+00  1.60000000E+01
  6.00000000E+00  6.00000000E+00  6.00000000E+00  6.00000000E+00  8.00000000E+00
  1.00000000E+00  1.00000000E+00  1.00000000E+00  1.00000000E+00  1.00000000E+00
  1.00000000E+00  1.00000000E+00  1.00000000E+00  1.00000000E+00  1.00000000E+00
  1.00000000E+00  1.00000000E+00  1.00000000E+00  1.00000000E+00  1.00000000E+00
  1.00000000E+00  1.00000000E+00  1.00000000E+00
Current cartesian coordinates              R   N=          84
  9.92599199E+00 -1.04066526E-01  2.63949484E-01  7.37553972E+00 -1.46148822E+00
  4.52726777E-01  5.14774783E+00  2.26557140E-01 -3.24673165E-01  2.60356729E+00
 -1.12701274E+00 -1.23270165E-01  9.54355749E-07  1.06785264E+00 -9.05154073E-01
 -2.60357595E+00 -1.12699784E+00 -1.23349142E-01 -5.14775042E+00  2.26618700E-01
 -3.24541737E-01 -7.37554144E+00 -1.46150350E+00  4.52708460E-01 -9.92597139E+00
 -1.04086578E-01  2.63921415E-01 -9.84748944E-06  3.13033978E+00  1.08664806E+00
  1.03000599E+01  5.21948591E-01 -1.67612334E+00  9.97165176E+00  1.57155119E+00
  1.48208287E+00  1.14815498E+01 -1.34487609E+00  8.36956851E-01  7.40421784E+00
 -3.16322365E+00 -7.38338774E-01  7.08405939E+00 -2.12295810E+00  2.39946437E+00
  5.08838036E+00  1.91405112E+00  8.77984449E-01  5.42841148E+00  8.92788526E-01
 -2.27198708E+00  2.46975835E+00 -2.72862948E+00 -1.43422194E+00  2.27557843E+00
 -1.80890605E+00  1.80646155E+00 -2.46982029E+00 -2.72850368E+00 -1.43444448E+00
 -2.27557322E+00 -1.80908142E+00  1.80631301E+00 -5.08836955E+00  1.91395075E+00
  8.78342278E-01 -5.42842248E+00  8.93098097E-01 -2.27176962E+00 -7.40421571E+00
 -3.16310228E+00 -7.38543970E-01 -7.08412080E+00 -2.12315340E+00  2.39939722E+00
 -1.14815348E+01 -1.34495449E+00  8.36785702E-01 -9.97163203E+00  1.57141699E+00
  1.48220938E+00 -1.02999607E+01  5.22100247E-01 -1.67611937E+00
Number of symbols in /Mol/                 I                0
Force Field                                I                0
Atom Types                                 C   N=          28
                                                            
                                                            
                                                            
                                                            
                                                            
                                    
Int Atom Types                             I   N=          28
           0           0           0           0           0           0
           0           0           0           0           0           0
           0           0           0           0           0           0
           0           0           0           0           0           0
           0           0           0           0
MM charges                                 R   N=          28
  0.00000000E+00  0.00000000E+00  0.00000000E+00  0.00000000E+00  0.00000000E+00
  0.00000000E+00  0.00000000E+00  0.00000000E+00  0.00000000E+00  0.00000000E+00
  0.00000000E+00  0.00000000E+00  0.00000000E+00  0.00000000E+00  0.00000000E+00
  0.00000000E+00  0.00000000E+00  0.00000000E+00  0.00000000E+00  0.00000000E+00
  0.00000000E+00  0.00000000E+00  0.00000000E+00  0.00000000E+00  0.00000000E+00
  0.00000000E+00  0.00000000E+00  0.00000000E+00
Integer atomic weights                     I   N=          28
          12          12          12          12          32          12
          12          12          12          16           1           1
           1           1           1           1           1           1
           1           1           1           1           1           1
           1           1           1           1
Real atomic weights                        R   N=          28
  1.20000000E+01  1.20000000E+01  1.20000000E+01  1.20000000E+01  3.19720718E+01
  1.20000000E+01  1.20000000E+01  1.20000000E+01  1.20000000E+01  1.59949146E+01
  1.00782504E+00  1.00782504E+00  1.00782504E+00  1.00782504E+00  1.00782504E+00
  1.00782504E+00  1.00782504E+00  1.00782504E+00  1.00782504E+00  1.00782504E+00
  1.00782504E+00  1.00782504E+00  1.00782504E+00  1.00782504E+00  1.00782504E+00
  1.00782504E+00  1.00782504E+00  1.00782504E+00
Atom fragment info                         I   N=          28
           0           0           0           0           0           0
           0           0           0           0           0           0
           0           0           0           0           0           0
           0           0           0           0           0           0
           0           0           0           0
Atom residue num                           I   N=          28
           0           0           0           0           0           0
           0           0           0           0           0           0
           0           0           0           0           0           0
           0           0           0           0           0           0
           0           0           0           0
Nuclear spins                              I   N=          28
           0           0           0           0           0           0
           0           0           0           0           1           1
           1           1           1           1           1           1
           1           1           1           1           1           1
           1           1           1           1
Nuclear ZEff                               R   N=          28
 -3.60000000E+00 -3.60000000E+00 -3.60000000E+00 -3.60000000E+00 -1.36000000E+01
 -3.60000000E+00 -3.60000000E+00 -3.60000000E+00 -3.60000000E+00 -5.60000000E+00
 -1.00000000E+00 -1.00000000E+00 -1.00000000E+00 -1.00000000E+00 -1.00000000E+00
 -1.00000000E+00 -1.00000000E+00 -1.00000000E+00 -1.00000000E+00 -1.00000000E+00
 -1.00000000E+00 -1.00000000E+00 -1.00000000E+00 -1.00000000E+00 -1.00000000E+00
 -1.00000000E+00 -1.00000000E+00 -1.00000000E+00
Nuclear ZNuc                               R   N=          28
  6.00000000E+00  6.00000000E+00  6.00000000E+00  6.00000000E+00  1.60000000E+01
  6.00000000E+00  6.00000000E+00  6.00000000E+00  6.00000000E+00  8.00000000E+00
  1.00000000E+00  1.00000000E+00  1.00000000E+00  1.00000000E+00  1.00000000E+00
  1.00000000E+00  1.00000000E+00  1.00000000E+00  1.00000000E+00  1.00000000E+00
  1.00000000E+00  1.00000000E+00  1.00000000E+00  1.00000000E+00  1.00000000E+00
  1.00000000E+00  1.00000000E+00  1.00000000E+00
Nuclear QMom                               R   N=          28
  0.00000000E+00  0.00000000E+00  0.00000000E+00  0.00000000E+00  0.00000000E+00
  0.00000000E+00  0.00000000E+00  0.00000000E+00  0.00000000E+00  0.00000000E+00
  0.00000000E+00  0.00000000E+00  0.00000000E+00  0.00000000E+00  0.00000000E+00
  0.00000000E+00  0.00000000E+00  0.00000000E+00  0.00000000E+00  0.00000000E+00
  0.00000000E+00  0.00000000E+00  0.00000000E+00  0.00000000E+00  0.00000000E+00
  0.00000000E+00  0.00000000E+00  0.00000000E+00
Nuclear GFac                               R   N=          28
  0.00000000E+00  0.00000000E+00  0.00000000E+00  0.00000000E+00  0.00000000E+00
  0.00000000E+00  0.00000000E+00  0.00000000E+00  0.00000000E+00  0.00000000E+00
  2.79284600E+00  2.79284600E+00  2.79284600E+00  2.79284600E+00  2.79284600E+00
  2.79284600E+00  2.79284600E+00  2.79284600E+00  2.79284600E+00  2.79284600E+00
  2.79284600E+00  2.79284600E+00  2.79284600E+00  2.79284600E+00  2.79284600E+00
  2.79284600E+00  2.79284600E+00  2.79284600E+00
MicOpt                                     I   N=          28
          -1          -1          -1          -1          -1          -1
          -1          -1          -1          -1          -1          -1
          -1          -1          -1          -1          -1          -1
          -1          -1          -1          -1          -1          -1
          -1          -1          -1          -1
Number of residues                         I                0
Number of secondary structures             I                0
Redundant internal dimensions              I   N=           4
         144          27          51          66
Redundant internal coordinate indices      I   N=         576
           1           2           0           0           1          11
           0           0           1          12           0           0
           1          13           0           0           2           3
           0           0           2          14           0           0
           2          15           0           0           3           4
           0           0           3          16           0           0
           3          17           0           0           4           5
           0           0           4          18           0           0
           4          19           0           0           5           6
           0           0           5          10           0           0
           6           7           0           0           6          20
           0           0           6          21           0           0
           7           8           0           0           7          22
           0           0           7          23           0           0
           8           9           0           0           8          24
           0           0           8          25           0           0
           9          26           0           0           9          27
           0           0           9          28           0           0
           2           1          11           0           2           1
          12           0           2           1          13           0
          11           1          12           0          11           1
          13           0          12           1          13           0
           1           2           3           0           1           2
          14           0           1           2          15           0
           3           2          14           0           3           2
          15           0          14           2          15           0
           2           3           4           0           2           3
          16           0           2           3          17           0
           4           3          16           0           4           3
          17           0          16           3          17           0
           3           4           5           0           3           4
          18           0           3           4          19           0
           5           4          18           0           5           4
          19           0          18           4          19           0
           4           5           6           0           4           5
          10           0           6           5          10           0
           5           6           7           0           5           6
          20           0           5           6          21           0
           7           6          20           0           7           6
          21           0          20           6          21           0
           6           7           8           0           6           7
          22           0           6           7          23           0
           8           7          22           0           8           7
          23           0          22           7          23           0
           7           8           9           0           7           8
          24           0           7           8          25           0
           9           8          24           0           9           8
          25           0          24           8          25           0
           8           9          26           0           8           9
          27           0           8           9          28           0
          26           9          27           0          26           9
          28           0          27           9          28           0
          11           1           2           3          11           1
           2          14          11           1           2          15
          12           1           2           3          12           1
           2          14          12           1           2          15
          13           1           2           3          13           1
           2          14          13           1           2          15
           1           2           3           4           1           2
           3          16           1           2           3          17
          14           2           3           4          14           2
           3          16          14           2           3          17
          15           2           3           4          15           2
           3          16          15           2           3          17
           2           3           4           5           2           3
           4          18           2           3           4          19
          16           3           4           5          16           3
           4          18          16           3           4          19
          17           3           4           5          17           3
           4          18          17           3           4          19
           3           4           5           6           3           4
           5          10          18           4           5           6
          18           4           5          10          19           4
           5           6          19           4           5          10
           4           5           6           7           4           5
           6          20           4           5           6          21
          10           5           6           7          10           5
           6          20          10           5           6          21
           5           6           7           8           5           6
           7          22           5           6           7          23
          20           6           7           8          20           6
           7          22          20           6           7          23
          21           6           7           8          21           6
           7          22          21           6           7          23
           6           7           8           9           6           7
           8          24           6           7           8          25
          22           7           8           9          22           7
           8          24          22           7           8          25
          23           7           8           9          23           7
           8          24          23           7           8          25
           7           8           9          26           7           8
           9          27           7           8           9          28
          24           8           9          26          24           8
           9          27          24           8           9          28
          25           8           9          26          25           8
           9          27          25           8           9          28
Redundant internal coordinates             R   N=         144
  2.89534753E+00  2.07260809E+00  2.07210726E+00  2.07067765E+00  2.90119019E+00
  2.07734519E+00  2.07660551E+00  2.88886989E+00  2.07305228E+00  2.07717785E+00
  3.49389956E+00  2.07404811E+00  2.07278066E+00  3.49388040E+00  2.86725111E+00
  2.88887174E+00  2.07404979E+00  2.07278070E+00  2.90119411E+00  2.07305221E+00
  2.07717790E+00  2.89532627E+00  2.07734036E+00  2.07660870E+00  2.07067720E+00
  2.07210585E+00  2.07261579E+00  1.94080080E+00  1.93927997E+00  1.94203088E+00
  1.87764398E+00  1.88014463E+00  1.88108803E+00  1.96726212E+00  1.91188655E+00
  1.91145105E+00  1.91092129E+00  1.90578148E+00  1.85302921E+00  1.96596534E+00
  1.91789186E+00  1.91141615E+00  1.89202991E+00  1.91201447E+00  1.86152693E+00
  1.92444306E+00  1.95473117E+00  1.93735158E+00  1.87086115E+00  1.87243959E+00
  1.90096586E+00  1.68160488E+00  1.87174350E+00  1.87175255E+00  1.92445639E+00
  1.87084256E+00  1.87246459E+00  1.95473692E+00  1.93733391E+00  1.90095878E+00
  1.96596388E+00  1.89203557E+00  1.91200706E+00  1.91787198E+00  1.91143202E+00
  1.86153446E+00  1.96724817E+00  1.91090836E+00  1.90580833E+00  1.91184940E+00
  1.91146938E+00  1.85305040E+00  1.94202086E+00  1.93924683E+00  1.94080831E+00
  1.88109817E+00  1.88016157E+00  1.87765472E+00 -1.05039545E+00  1.08179467E+00
  3.10748688E+00  1.04060341E+00 -3.11039178E+00 -1.08469956E+00  3.13678139E+00
 -1.01421379E+00  1.01147842E+00 -3.13688886E+00 -1.02545409E+00  1.01392799E+00
  1.01356268E+00  3.12499744E+00 -1.11880579E+00 -1.00838153E+00  1.10305323E+00
 -3.14074999E+00  3.08378992E+00 -1.11770533E+00  1.01125780E+00  9.57643550E-01
  3.03933362E+00 -1.11488856E+00 -1.06736444E+00  1.01432562E+00 -3.13989655E+00
 -3.04385833E+00 -1.11887033E+00  1.10735834E+00  3.03234634E+00 -9.32088387E-01
  9.92899615E-01  3.04375348E+00 -1.10745992E+00  9.31981784E-01  1.11877307E+00
 -3.03244033E+00 -9.92998619E-01 -3.08383296E+00 -9.57708728E-01  1.06730737E+00
  1.11767301E+00 -3.03938806E+00 -1.01437196E+00 -1.01127240E+00  1.11485184E+00
  3.13986794E+00  3.13697228E+00 -1.01354562E+00  1.00843186E+00  1.02554527E+00
 -3.12497262E+00 -1.10299515E+00 -1.01384367E+00  1.11882374E+00  3.14080121E+00
 -3.13679949E+00 -1.04063773E+00  1.05035757E+00  1.01424845E+00  3.11041021E+00
 -1.08177980E+00 -1.01145859E+00  1.08470317E+00 -3.10748684E+00
ZRed-IntVec                                I   N=         144
           0           0           0           0           0           0
           0           0           0           0           0           0
           0           0           0           0           0           0
           0           0           0           0           0           0
           0           0           0           0           0           0
           0           0           0           0           0           0
           0           0           0           0           0           0
           0           0           0           0           0           0
           0           0           0           0           0           0
           0           0           0           0           0           0
           0           0           0           0           0           0
           0           0           0           0           0           0
           0           0           0           0           0           0
           0           0           0           0           0           0
           0           0           0           0           0           0
           0           0           0           0           0           0
           0           0           0           0           0           0
           0           0           0           0           0           0
           0           0           0           0           0           0
           0           0           0           0           0           0
           0           0           0           0           0           0
           0           0           0           0           0           0
           0           0           0           0           0           0
           0           0           0           0           0           0
ZRed-FPVec                                 R   N=         144
  0.00000000E+00  0.00000000E+00  0.00000000E+00  0.00000000E+00  0.00000000E+00
  0.00000000E+00  0.00000000E+00  0.00000000E+00  0.00000000E+00  0.00000000E+00
  0.00000000E+00  0.00000000E+00  0.00000000E+00  0.00000000E+00  0.00000000E+00
  0.00000000E+00  0.00000000E+00  0.00000000E+00  0.00000000E+00  0.00000000E+00
  0.00000000E+00  0.00000000E+00  0.00000000E+00  0.00000000E+00  0.00000000E+00
  0.00000000E+00  0.00000000E+00  0.00000000E+00  0.00000000E+00  0.00000000E+00
  0.00000000E+00  0.00000000E+00  0.00000000E+00  0.00000000E+00  0.00000000E+00
  0.00000000E+00  0.00000000E+00  0.00000000E+00  0.00000000E+00  0.00000000E+00
  0.00000000E+00  0.00000000E+00  0.00000000E+00  0.00000000E+00  0.00000000E+00
  0.00000000E+00  0.00000000E+00  0.00000000E+00  0.00000000E+00  0.00000000E+00
  0.00000000E+00  0.00000000E+00  0.00000000E+00  0.00000000E+00  0.00000000E+00
  0.00000000E+00  0.00000000E+00  0.00000000E+00  0.00000000E+00  0.00000000E+00
  0.00000000E+00  0.00000000E+00  0.00000000E+00  0.00000000E+00  0.00000000E+00
  0.00000000E+00  0.00000000E+00  0.00000000E+00  0.00000000E+00  0.00000000E+00
  0.00000000E+00  0.00000000E+00  0.00000000E+00  0.00000000E+00  0.00000000E+00
  0.00000000E+00  0.00000000E+00  0.00000000E+00  0.00000000E+00  0.00000000E+00
  0.00000000E+00  0.00000000E+00  0.00000000E+00  0.00000000E+00  0.00000000E+00
  0.00000000E+00  0.00000000E+00  0.00000000E+00  0.00000000E+00  0.00000000E+00
  0.00000000E+00  0.00000000E+00  0.00000000E+00  0.00000000E+00  0.00000000E+00
  0.00000000E+00  0.00000000E+00  0.00000000E+00  0.00000000E+00  0.00000000E+00
  0.00000000E+00  0.00000000E+00  0.00000000E+00  0.00000000E+00  0.00000000E+00
  0.00000000E+00  0.00000000E+00  0.00000000E+00  0.00000000E+00  0.00000000E+00
  0.00000000E+00  0.00000000E+00  0.00000000E+00  0.00000000E+00  0.00000000E+00
  0.00000000E+00  0.00000000E+00  0.00000000E+00  0.00000000E+00  0.00000000E+00
  0.00000000E+00  0.00000000E+00  0.00000000E+00  0.00000000E+00  0.00000000E+00
  0.00000000E+00  0.00000000E+00  0.00000000E+00  0.00000000E+00  0.00000000E+00
  0.00000000E+00  0.00000000E+00  0.00000000E+00  0.00000000E+00  0.00000000E+00
  0.00000000E+00  0.00000000E+00  0.00000000E+00  0.00000000E+00  0.00000000E+00
  0.00000000E+00  0.00000000E+00  0.00000000E+00  0.00000000E+00
ZRed-Constraint1                           R   N=         144
  2.89534753E+00  2.07260809E+00  2.07210726E+00  2.07067765E+00  2.90119019E+00
  2.07734519E+00  2.07660551E+00  2.88886989E+00  2.07305228E+00  2.07717785E+00
  3.49389956E+00  2.07404811E+00  2.07278066E+00  3.49388040E+00  2.86725111E+00
  2.88887174E+00  2.07404979E+00  2.07278070E+00  2.90119411E+00  2.07305221E+00
  2.07717790E+00  2.89532627E+00  2.07734036E+00  2.07660870E+00  2.07067720E+00
  2.07210585E+00  2.07261579E+00  1.94080080E+00  1.93927997E+00  1.94203088E+00
  1.87764398E+00  1.88014463E+00  1.88108803E+00  1.96726212E+00  1.91188655E+00
  1.91145105E+00  1.91092129E+00  1.90578148E+00  1.85302921E+00  1.96596534E+00
  1.91789186E+00  1.91141615E+00  1.89202991E+00  1.91201447E+00  1.86152693E+00
  1.92444306E+00  1.95473117E+00  1.93735158E+00  1.87086115E+00  1.87243959E+00
  1.90096586E+00  1.68160488E+00  1.87174350E+00  1.87175255E+00  1.92445639E+00
  1.87084256E+00  1.87246459E+00  1.95473692E+00  1.93733391E+00  1.90095878E+00
  1.96596388E+00  1.89203557E+00  1.91200706E+00  1.91787198E+00  1.91143202E+00
  1.86153446E+00  1.96724817E+00  1.91090836E+00  1.90580833E+00  1.91184940E+00
  1.91146938E+00  1.85305040E+00  1.94202086E+00  1.93924683E+00  1.94080831E+00
  1.88109817E+00  1.88016157E+00  1.87765472E+00 -1.05039545E+00  1.08179467E+00
  3.10748688E+00  1.04060341E+00 -3.11039178E+00 -1.08469956E+00  3.13678139E+00
 -1.01421379E+00  1.01147842E+00 -3.13688886E+00 -1.02545409E+00  1.01392799E+00
  1.01356268E+00  3.12499744E+00 -1.11880579E+00 -1.00838153E+00  1.10305323E+00
 -3.14074999E+00  3.08378992E+00 -1.11770533E+00  1.01125780E+00  9.57643550E-01
  3.03933362E+00 -1.11488856E+00 -1.06736444E+00  1.01432562E+00 -3.13989655E+00
 -3.04385833E+00 -1.11887033E+00  1.10735834E+00  3.03234634E+00 -9.32088387E-01
  9.92899615E-01  3.04375348E+00 -1.10745992E+00  9.31981784E-01  1.11877307E+00
 -3.03244033E+00 -9.92998619E-01 -3.08383296E+00 -9.57708728E-01  1.06730737E+00
  1.11767301E+00 -3.03938806E+00 -1.01437196E+00 -1.01127240E+00  1.11485184E+00
  3.13986794E+00  3.13697228E+00 -1.01354562E+00  1.00843186E+00  1.02554527E+00
 -3.12497262E+00 -1.10299515E+00 -1.01384367E+00  1.11882374E+00  3.14080121E+00
 -3.13679949E+00 -1.04063773E+00  1.05035757E+00  1.01424845E+00  3.11041021E+00
 -1.08177980E+00 -1.01145859E+00  1.08470317E+00 -3.10748684E+00
ZRed-Constraint2                           R   N=         144
  2.92185672E+00  2.05976639E+00  2.05980210E+00  2.05986392E+00  2.92973437E+00
  2.05988643E+00  2.05971185E+00  2.92635039E+00  2.05982081E+00  2.05988577E+00
  3.46430547E+00  2.05977674E+00  2.05997056E+00  3.46431769E+00  3.02863395E+00
  2.92638681E+00  2.05981785E+00  2.05969697E+00  2.92982272E+00  2.05976370E+00
  2.05978151E+00  2.92172901E+00  2.05993180E+00  2.05993585E+00  2.05982570E+00
  2.05984109E+00  2.05993071E+00  1.91072743E+00  1.91069727E+00  1.91066619E+00
  1.91059138E+00  1.91050589E+00  1.91061126E+00  1.95867751E+00  1.85237671E+00
  1.85243502E+00  1.85419370E+00  1.85423202E+00  2.09445871E+00  1.98102887E+00
  1.84896823E+00  1.84894309E+00  1.84808505E+00  1.84804264E+00  2.09427856E+00
  1.92392072E+00  1.80777123E+00  1.80768666E+00  1.91032859E+00  1.91033875E+00
  2.09442819E+00  1.85583238E+00  1.83695941E+00  1.83690585E+00  1.92388969E+00
  1.91036800E+00  1.91031808E+00  1.80773896E+00  1.80775607E+00  2.09440101E+00
  1.98101920E+00  1.84808528E+00  1.84804773E+00  1.84888300E+00  1.84887931E+00
  2.09443268E+00  1.95872050E+00  1.85419961E+00  1.85422265E+00  1.85246877E+00
  1.85245914E+00  2.09430980E+00  1.91068080E+00  1.91071981E+00  1.91066675E+00
  1.91058861E+00  1.91061154E+00  1.91053190E+00 -1.75792867E+00  2.60275750E-01
  2.50697180E+00  3.36512063E-01  2.35471649E+00 -1.68177277E+00  2.43093964E+00
 -1.83404124E+00  4.12654813E-01 -3.13901853E+00 -1.11857169E+00  1.12378689E+00
  1.12706294E+00 -3.13567553E+00 -8.93316949E-01 -1.12182213E+00  8.98624713E-01
  3.14098329E+00 -3.11296338E+00 -1.07072924E+00  1.12802140E+00  1.14925372E+00
 -3.09169745E+00 -8.92946811E-01 -1.09205191E+00  9.50182228E-01 -3.13425244E+00
 -3.11447650E+00 -1.17120310E+00  1.19126319E+00  3.13453659E+00 -1.13712643E+00
  8.06146979E-01  3.11450479E+00 -1.19126856E+00  1.13709999E+00  1.17119402E+00
 -3.13457933E+00 -8.06210786E-01  3.11295866E+00 -1.14936657E+00  1.09212636E+00
  1.07071036E+00  3.09157043E+00 -9.50121945E-01 -1.12802708E+00  8.92832985E-01
  3.13432591E+00  3.13897996E+00 -1.12696542E+00  1.12173791E+00  1.11859083E+00
  3.13583076E+00 -8.98651209E-01 -1.12386399E+00  8.93375942E-01 -3.14110603E+00
  2.06308175E+00 -2.12568096E+00 -3.13364373E-02  4.47935134E-02  2.13921611E+00
 -2.04962467E+00 -2.20179344E+00 -1.07370844E-01  1.98697368E+00
SymInf integers                            I   N=          26
           1           1           1           1           1           0
           0           0           0           0           0           0
           0           0           0           0           0           0
           0           0           0           0           0           0
           0           0
RotTr to input orientation                 R   N=          12
  9.04903349E-02  2.77393338E-01 -9.56485460E-01 -7.49333116E-01  6.51581310E-01
  1.18074885E-01  6.55981235E-01  7.06041594E-01  2.66821826E-01 -6.82098945E-01
  3.78896566E+00 -2.03014875E+00
Number of contracted shells                I               77
Number of primitive shells                 I              188
Pure/Cartesian d shells                    I                1
Pure/Cartesian f shells                    I                0
Highest angular momentum                   I                2
Largest degree of contraction              I                6
Shell types                                I   N=          77
           0          -1          -1           2           0          -1
          -1           2           0          -1          -1           2
           0          -1          -1           2           0          -1
          -1          -1           2           0          -1          -1
           2           0          -1          -1           2           0
          -1          -1           2           0          -1          -1
           2           0          -1          -1           2           0
           0           0           0           0           0           0
           0           0           0           0           0           0