 Entering Gaussian System, Link 0=/apps/cent7/gaussian/g16-A.03/g16-haswell/g16/g16
 Initial command:
 /apps/cent7/gaussian/g16-A.03/g16-haswell/g16/l1.exe "/scratch/brown/finej/gaussian/Gau-19713.inp" -scrdir="/scratch/brown/finej/gaussian/"
 Entering Link 1 = /apps/cent7/gaussian/g16-A.03/g16-haswell/g16/l1.exe PID=     19714.
  
 Copyright (c) 1988,1990,1992,1993,1995,1998,2003,2009,2016,
            Gaussian, Inc.  All Rights Reserved.
  
 This is part of the Gaussian(R) 16 program.  It is based on
 the Gaussian(R) 09 system (copyright 2009, Gaussian, Inc.),
 the Gaussian(R) 03 system (copyright 2003, Gaussian, Inc.),
 the Gaussian(R) 98 system (copyright 1998, Gaussian, Inc.),
 the Gaussian(R) 94 system (copyright 1995, Gaussian, Inc.),
 the Gaussian 92(TM) system (copyright 1992, Gaussian, Inc.),
 the Gaussian 90(TM) system (copyright 1990, Gaussian, Inc.),
 the Gaussian 88(TM) system (copyright 1988, Gaussian, Inc.),
 the Gaussian 86(TM) system (copyright 1986, Carnegie Mellon
 University), and the Gaussian 82(TM) system (copyright 1983,
 Carnegie Mellon University). Gaussian is a federally registered
 trademark of Gaussian, Inc.
  
 This software contains proprietary and confidential information,
 including trade secrets, belonging to Gaussian, Inc.
  
 This software is provided under written license and may be
 used, copied, transmitted, or stored only in accord with that
 written license.
  
 The following legend is applicable only to US Government
 contracts under FAR:
  
                    RESTRICTED RIGHTS LEGEND
  
 Use, reproduction and disclosure by the US Government is
 subject to restrictions as set forth in subparagraphs (a)
 and (c) of the Commercial Computer Software - Restricted
 Rights clause in FAR 52.227-19.
  
 Gaussian, Inc.
 340 Quinnipiac St., Bldg. 40, Wallingford CT 06492
  
  
 ---------------------------------------------------------------
 Warning -- This program may not be used in any manner that
 competes with the business of Gaussian, Inc. or will provide
 assistance to any competitor of Gaussian, Inc.  The licensee
 of this program is prohibited from giving any competitor of
 Gaussian, Inc. access to this program.  By using this program,
 the user acknowledges that Gaussian, Inc. is engaged in the
 business of creating and licensing software in the field of
 computational chemistry and represents and warrants to the
 licensee that it is not a competitor of Gaussian, Inc. and that
 it will not use this program in any manner prohibited above.
 ---------------------------------------------------------------
  

 Cite this work as:
 Gaussian 16, Revision A.03,
 M. J. Frisch, G. W. Trucks, H. B. Schlegel, G. E. Scuseria, 
 M. A. Robb, J. R. Cheeseman, G. Scalmani, V. Barone, 
 G. A. Petersson, H. Nakatsuji, X. Li, M. Caricato, A. V. Marenich, 
 J. Bloino, B. G. Janesko, R. Gomperts, B. Mennucci, H. P. Hratchian, 
 J. V. Ortiz, A. F. Izmaylov, J. L. Sonnenberg, D. Williams-Young, 
 F. Ding, F. Lipparini, F. Egidi, J. Goings, B. Peng, A. Petrone, 
 T. Henderson, D. Ranasinghe, V. G. Zakrzewski, J. Gao, N. Rega, 
 G. Zheng, W. Liang, M. Hada, M. Ehara, K. Toyota, R. Fukuda, 
 J. Hasegawa, M. Ishida, T. Nakajima, Y. Honda, O. Kitao, H. Nakai, 
 T. Vreven, K. Throssell, J. A. Montgomery, Jr., J. E. Peralta, 
 F. Ogliaro, M. J. Bearpark, J. J. Heyd, E. N. Brothers, K. N. Kudin, 
 V. N. Staroverov, T. A. Keith, R. Kobayashi, J. Normand, 
 K. Raghavachari, A. P. Rendell, J. C. Burant, S. S. Iyengar, 
 J. Tomasi, M. Cossi, J. M. Millam, M. Klene, C. Adamo, R. Cammi, 
 J. W. Ochterski, R. L. Martin, K. Morokuma, O. Farkas, 
 J. B. Foresman, and D. J. Fox, Gaussian, Inc., Wallingford CT, 2016.
 
 ******************************************
 Gaussian 16:  ES64L-G16RevA.03 25-Dec-2016
                14-Oct-2019 
 ******************************************
 %chk=31.chk
 %nprocshared=24
 Will use up to   24 processors via shared memory.
 %mem=80GB
 --------------------------------------------------------------
 #P opt freq b3lyp/6-31g(d) geom=connectivity temperature=0.001
 --------------------------------------------------------------
 1/18=20,19=15,26=3,38=1,57=2,112=-1000/1,3;
 2/9=110,12=2,17=6,18=5,40=1/2;
 3/5=1,6=6,7=1,11=2,25=1,30=1,71=1,74=-5/1,2,3;
 4//1;
 5/5=2,38=5/2;
 6/7=2,8=2,9=2,10=2,28=1/1;
 7//1,2,3,16;
 1/18=20,19=15,26=3/3(2);
 2/9=110/2;
 99//99;
 2/9=110/2;
 3/5=1,6=6,7=1,11=2,25=1,30=1,71=1,74=-5/1,2,3;
 4/5=5,16=3,69=1/1;
 5/5=2,38=5/2;
 7//1,2,3,16;
 1/18=20,19=15,26=3/3(-5);
 2/9=110/2;
 6/7=2,8=2,9=2,10=2,19=2,28=1/1;
 99/9=1/99;
 Leave Link    1 at Mon Oct 14 01:45:12 2019, MaxMem= 10737418240 cpu:               1.2 elap:               0.1
 (Enter /apps/cent7/gaussian/g16-A.03/g16-haswell/g16/l101.exe)
 -------------------
 Title Card Required
 -------------------
 Symbolic Z-matrix:
 Charge =  0 Multiplicity = 1
 C                    -0.019     3.4371   -6.2057 
 C                     0.6704    2.7497   -5.0045 
 C                    -0.2321    2.7281   -3.7441 
 C                     0.4315    2.0488   -2.5209 
 S                    -0.7273    2.0292   -1.1005 
 C                     0.1766    1.2507    0.2915 
 C                    -0.7128    1.2232    1.5589 
 C                    -0.0348    0.5419    2.7754 
 C                    -0.9462    0.534     4.0243 
 O                    -0.9055    3.5656   -0.6806 
 H                    -0.4084    2.6782   -6.8843 
 H                    -0.8392    4.0589   -5.8469 
 H                     0.7046    4.0589   -6.7329 
 H                     0.8153    1.7087   -5.2935 
 H                     1.5304    3.3703   -4.753 
 H                    -0.3788    3.771    -3.4631 
 H                    -1.0903    2.1071   -4.0011 
 H                     0.6079    1.0279   -2.8596 
 H                     1.2748    2.7007   -2.2925 
 H                     0.3422    0.1959    0.0722 
 H                     1.0143    1.8853    0.5805 
 H                    -0.8597    2.2652    1.843 
 H                    -1.5714    0.6006    1.3074 
 H                     0.1091   -0.5026    2.4987 
 H                     0.8249    1.1612    3.0316 
 H                    -1.1573   -0.4955    4.3136 
 H                    -0.4431    1.046     4.8446 
 H                    -1.8809    1.046     3.7953 
 
 ITRead=  0  0  0  0  0  0  0  0  0  0  0  0  0  0  0  0  0  0  0  0
 ITRead=  0  0  0  0  0  0  0  0
 MicOpt= -1 -1 -1 -1 -1 -1 -1 -1 -1 -1 -1 -1 -1 -1 -1 -1 -1 -1 -1 -1
 MicOpt= -1 -1 -1 -1 -1 -1 -1 -1
 NAtoms=     28 NQM=       28 NQMF=       0 NMMI=      0 NMMIF=      0
                NMic=       0 NMicF=      0.
                    Isotopes and Nuclear Properties:
 (Nuclear quadrupole moments (NQMom) in fm**2, nuclear magnetic moments (NMagM)
  in nuclear magnetons)

  Atom         1           2           3           4           5           6           7           8           9          10
 IAtWgt=          12          12          12          12          32          12          12          12          12          16
 AtmWgt=  12.0000000  12.0000000  12.0000000  12.0000000  31.9720718  12.0000000  12.0000000  12.0000000  12.0000000  15.9949146
 NucSpn=           0           0           0           0           0           0           0           0           0           0
 AtZEff=  -0.0000000  -0.0000000  -0.0000000  -0.0000000  -0.0000000  -0.0000000  -0.0000000  -0.0000000  -0.0000000  -0.0000000
 NQMom=    0.0000000   0.0000000   0.0000000   0.0000000   0.0000000   0.0000000   0.0000000   0.0000000   0.0000000   0.0000000
 NMagM=    0.0000000   0.0000000   0.0000000   0.0000000   0.0000000   0.0000000   0.0000000   0.0000000   0.0000000   0.0000000
 AtZNuc=   6.0000000   6.0000000   6.0000000   6.0000000  16.0000000   6.0000000   6.0000000   6.0000000   6.0000000   8.0000000

  Atom        11          12          13          14          15          16          17          18          19          20
 IAtWgt=           1           1           1           1           1           1           1           1           1           1
 AtmWgt=   1.0078250   1.0078250   1.0078250   1.0078250   1.0078250   1.0078250   1.0078250   1.0078250   1.0078250   1.0078250
 NucSpn=           1           1           1           1           1           1           1           1           1           1
 AtZEff=  -0.0000000  -0.0000000  -0.0000000  -0.0000000  -0.0000000  -0.0000000  -0.0000000  -0.0000000  -0.0000000  -0.0000000
 NQMom=    0.0000000   0.0000000   0.0000000   0.0000000   0.0000000   0.0000000   0.0000000   0.0000000   0.0000000   0.0000000
 NMagM=    2.7928460   2.7928460   2.7928460   2.7928460   2.7928460   2.7928460   2.7928460   2.7928460   2.7928460   2.7928460
 AtZNuc=   1.0000000   1.0000000   1.0000000   1.0000000   1.0000000   1.0000000   1.0000000   1.0000000   1.0000000   1.0000000

  Atom        21          22          23          24          25          26          27          28
 IAtWgt=           1           1           1           1           1           1           1           1
 AtmWgt=   1.0078250   1.0078250   1.0078250   1.0078250   1.0078250   1.0078250   1.0078250   1.0078250
 NucSpn=           1           1           1           1           1           1           1           1
 AtZEff=  -0.0000000  -0.0000000  -0.0000000  -0.0000000  -0.0000000  -0.0000000  -0.0000000  -0.0000000
 NQMom=    0.0000000   0.0000000   0.0000000   0.0000000   0.0000000   0.0000000   0.0000000   0.0000000
 NMagM=    2.7928460   2.7928460   2.7928460   2.7928460   2.7928460   2.7928460   2.7928460   2.7928460
 AtZNuc=   1.0000000   1.0000000   1.0000000   1.0000000   1.0000000   1.0000000   1.0000000   1.0000000
 Leave Link  101 at Mon Oct 14 01:45:12 2019, MaxMem= 10737418240 cpu:               9.5 elap:               0.4
 (Enter /apps/cent7/gaussian/g16-A.03/g16-haswell/g16/l103.exe)

 GradGradGradGradGradGradGradGradGradGradGradGradGradGradGradGradGradGrad
 Berny optimization.
 Initialization pass.
                           ----------------------------
                           !    Initial Parameters    !
                           ! (Angstroms and Degrees)  !
 --------------------------                            --------------------------
 ! Name  Definition              Value          Derivative Info.                !
 --------------------------------------------------------------------------------
 ! R1    R(1,2)                  1.5462         estimate D2E/DX2                !
 ! R2    R(1,11)                 1.09           estimate D2E/DX2                !
 ! R3    R(1,12)                 1.09           estimate D2E/DX2                !
 ! R4    R(1,13)                 1.09           estimate D2E/DX2                !
 ! R5    R(2,3)                  1.5503         estimate D2E/DX2                !
 ! R6    R(2,14)                 1.09           estimate D2E/DX2                !
 ! R7    R(2,15)                 1.09           estimate D2E/DX2                !
 ! R8    R(3,4)                  1.5486         estimate D2E/DX2                !
 ! R9    R(3,16)                 1.09           estimate D2E/DX2                !
 ! R10   R(3,17)                 1.09           estimate D2E/DX2                !
 ! R11   R(4,5)                  1.8332         estimate D2E/DX2                !
 ! R12   R(4,18)                 1.09           estimate D2E/DX2                !
 ! R13   R(4,19)                 1.0901         estimate D2E/DX2                !
 ! R14   R(5,6)                  1.8332         estimate D2E/DX2                !
 ! R15   R(5,10)                 1.6027         estimate D2E/DX2                !
 ! R16   R(6,7)                  1.5486         estimate D2E/DX2                !
 ! R17   R(6,20)                 1.09           estimate D2E/DX2                !
 ! R18   R(6,21)                 1.0899         estimate D2E/DX2                !
 ! R19   R(7,8)                  1.5504         estimate D2E/DX2                !
 ! R20   R(7,22)                 1.09           estimate D2E/DX2                !
 ! R21   R(7,23)                 1.09           estimate D2E/DX2                !
 ! R22   R(8,9)                  1.5461         estimate D2E/DX2                !
 ! R23   R(8,24)                 1.0901         estimate D2E/DX2                !
 ! R24   R(8,25)                 1.0901         estimate D2E/DX2                !
 ! R25   R(9,26)                 1.09           estimate D2E/DX2                !
 ! R26   R(9,27)                 1.09           estimate D2E/DX2                !
 ! R27   R(9,28)                 1.0901         estimate D2E/DX2                !
 ! A1    A(2,1,11)             109.4766         estimate D2E/DX2                !
 ! A2    A(2,1,12)             109.4749         estimate D2E/DX2                !
 ! A3    A(2,1,13)             109.4731         estimate D2E/DX2                !
 ! A4    A(11,1,12)            109.4688         estimate D2E/DX2                !
 ! A5    A(11,1,13)            109.4639         estimate D2E/DX2                !
 ! A6    A(12,1,13)            109.47           estimate D2E/DX2                !
 ! A7    A(1,2,3)              112.224          estimate D2E/DX2                !
 ! A8    A(1,2,14)             106.1334         estimate D2E/DX2                !
 ! A9    A(1,2,15)             106.1367         estimate D2E/DX2                !
 ! A10   A(3,2,14)             106.2375         estimate D2E/DX2                !
 ! A11   A(3,2,15)             106.2397         estimate D2E/DX2                !
 ! A12   A(14,2,15)            120.0036         estimate D2E/DX2                !
 ! A13   A(2,3,4)              113.5046         estimate D2E/DX2                !
 ! A14   A(2,3,16)             105.9381         estimate D2E/DX2                !
 ! A15   A(2,3,17)             105.9366         estimate D2E/DX2                !
 ! A16   A(4,3,16)             105.8875         estimate D2E/DX2                !
 ! A17   A(4,3,17)             105.885          estimate D2E/DX2                !
 ! A18   A(16,3,17)            119.9933         estimate D2E/DX2                !
 ! A19   A(3,4,5)              110.2325         estimate D2E/DX2                !
 ! A20   A(3,4,18)             103.5777         estimate D2E/DX2                !
 ! A21   A(3,4,19)             103.5728         estimate D2E/DX2                !
 ! A22   A(5,4,18)             109.4538         estimate D2E/DX2                !
 ! A23   A(5,4,19)             109.4543         estimate D2E/DX2                !
 ! A24   A(18,4,19)            120.0019         estimate D2E/DX2                !
 ! A25   A(4,5,6)              106.3314         estimate D2E/DX2                !
 ! A26   A(4,5,10)             105.25           estimate D2E/DX2                !
 ! A27   A(6,5,10)             105.247          estimate D2E/DX2                !
 ! A28   A(5,6,7)              110.2308         estimate D2E/DX2                !
 ! A29   A(5,6,20)             109.456          estimate D2E/DX2                !
 ! A30   A(5,6,21)             109.4532         estimate D2E/DX2                !
 ! A31   A(7,6,20)             103.5758         estimate D2E/DX2                !
 ! A32   A(7,6,21)             103.5768         estimate D2E/DX2                !
 ! A33   A(20,6,21)            120.0003         estimate D2E/DX2                !
 ! A34   A(6,7,8)              113.504          estimate D2E/DX2                !
 ! A35   A(6,7,22)             105.8875         estimate D2E/DX2                !
 ! A36   A(6,7,23)             105.8853         estimate D2E/DX2                !
 ! A37   A(8,7,22)             105.9332         estimate D2E/DX2                !
 ! A38   A(8,7,23)             105.933          estimate D2E/DX2                !
 ! A39   A(22,7,23)            120.0022         estimate D2E/DX2                !
 ! A40   A(7,8,9)              112.2264         estimate D2E/DX2                !
 ! A41   A(7,8,24)             106.2378         estimate D2E/DX2                !
 ! A42   A(7,8,25)             106.2391         estimate D2E/DX2                !
 ! A43   A(9,8,24)             106.1386         estimate D2E/DX2                !
 ! A44   A(9,8,25)             106.1381         estimate D2E/DX2                !
 ! A45   A(24,8,25)            119.9951         estimate D2E/DX2                !
 ! A46   A(8,9,26)             109.4739         estimate D2E/DX2                !
 ! A47   A(8,9,27)             109.4762         estimate D2E/DX2                !
 ! A48   A(8,9,28)             109.4731         estimate D2E/DX2                !
 ! A49   A(26,9,27)            109.4687         estimate D2E/DX2                !
 ! A50   A(26,9,28)            109.47           estimate D2E/DX2                !
 ! A51   A(27,9,28)            109.4654         estimate D2E/DX2                !
 ! D1    D(11,1,2,3)          -100.7219         estimate D2E/DX2                !
 ! D2    D(11,1,2,14)           14.9127         estimate D2E/DX2                !
 ! D3    D(11,1,2,15)          143.6389         estimate D2E/DX2                !
 ! D4    D(12,1,2,3)            19.2807         estimate D2E/DX2                !
 ! D5    D(12,1,2,14)          134.9153         estimate D2E/DX2                !
 ! D6    D(12,1,2,15)          -96.3585         estimate D2E/DX2                !
 ! D7    D(13,1,2,3)           139.2826         estimate D2E/DX2                !
 ! D8    D(13,1,2,14)         -105.0828         estimate D2E/DX2                !
 ! D9    D(13,1,2,15)           23.6434         estimate D2E/DX2                !
 ! D10   D(1,2,3,4)           -179.8525         estimate D2E/DX2                !
 ! D11   D(1,2,3,16)           -64.0894         estimate D2E/DX2                !
 ! D12   D(1,2,3,17)            64.3882         estimate D2E/DX2                !
 ! D13   D(14,2,3,4)            64.5759         estimate D2E/DX2                !
 ! D14   D(14,2,3,16)         -179.661          estimate D2E/DX2                !
 ! D15   D(14,2,3,17)          -51.1833         estimate D2E/DX2                !
 ! D16   D(15,2,3,4)           -64.2757         estimate D2E/DX2                !
 ! D17   D(15,2,3,16)           51.4874         estimate D2E/DX2                !
 ! D18   D(15,2,3,17)          179.9651         estimate D2E/DX2                !
 ! D19   D(2,3,4,5)           -178.3597         estimate D2E/DX2                !
 ! D20   D(2,3,4,18)           -61.3483         estimate D2E/DX2                !
 ! D21   D(2,3,4,19)            64.6309         estimate D2E/DX2                !
 ! D22   D(16,3,4,5)            65.8474         estimate D2E/DX2                !
 ! D23   D(16,3,4,18)         -177.1412         estimate D2E/DX2                !
 ! D24   D(16,3,4,19)          -51.1621         estimate D2E/DX2                !
 ! D25   D(17,3,4,5)           -62.57           estimate D2E/DX2                !
 ! D26   D(17,3,4,18)           54.4414         estimate D2E/DX2                !
 ! D27   D(17,3,4,19)         -179.5794         estimate D2E/DX2                !
 ! D28   D(3,4,5,6)           -178.4464         estimate D2E/DX2                !
 ! D29   D(3,4,5,10)           -67.105          estimate D2E/DX2                !
 ! D30   D(18,4,5,6)            68.2544         estimate D2E/DX2                !
 ! D31   D(18,4,5,10)          179.5957         estimate D2E/DX2                !
 ! D32   D(19,4,5,6)           -65.1525         estimate D2E/DX2                !
 ! D33   D(19,4,5,10)           46.1888         estimate D2E/DX2                !
 ! D34   D(4,5,6,7)            178.448          estimate D2E/DX2                !
 ! D35   D(4,5,6,20)           -68.2547         estimate D2E/DX2                !
 ! D36   D(4,5,6,21)            65.151          estimate D2E/DX2                !
 ! D37   D(10,5,6,7)            67.1045         estimate D2E/DX2                !
 ! D38   D(10,5,6,20)         -179.5982         estimate D2E/DX2                !
 ! D39   D(10,5,6,21)          -46.1925         estimate D2E/DX2                !
 ! D40   D(5,6,7,8)            178.3594         estimate D2E/DX2                !
 ! D41   D(5,6,7,22)           -65.8539         estimate D2E/DX2                !
 ! D42   D(5,6,7,23)            62.5742         estimate D2E/DX2                !
 ! D43   D(20,6,7,8)            61.3472         estimate D2E/DX2                !
 ! D44   D(20,6,7,22)          177.1339         estimate D2E/DX2                !
 ! D45   D(20,6,7,23)          -54.438          estimate D2E/DX2                !
 ! D46   D(21,6,7,8)           -64.6312         estimate D2E/DX2                !
 ! D47   D(21,6,7,22)           51.1556         estimate D2E/DX2                !
 ! D48   D(21,6,7,23)          179.5836         estimate D2E/DX2                !
 ! D49   D(6,7,8,9)            179.8503         estimate D2E/DX2                !
 ! D50   D(6,7,8,24)           -64.5704         estimate D2E/DX2                !
 ! D51   D(6,7,8,25)            64.2708         estimate D2E/DX2                !
 ! D52   D(22,7,8,9)            64.0905         estimate D2E/DX2                !
 ! D53   D(22,7,8,24)          179.6699         estimate D2E/DX2                !
 ! D54   D(22,7,8,25)          -51.4889         estimate D2E/DX2                !
 ! D55   D(23,7,8,9)           -64.3927         estimate D2E/DX2                !
 ! D56   D(23,7,8,24)           51.1867         estimate D2E/DX2                !
 ! D57   D(23,7,8,25)         -179.9721         estimate D2E/DX2                !
 ! D58   D(7,8,9,26)           118.2059         estimate D2E/DX2                !
 ! D59   D(7,8,9,27)          -121.7925         estimate D2E/DX2                !
 ! D60   D(7,8,9,28)            -1.7954         estimate D2E/DX2                !
 ! D61   D(24,8,9,26)            2.5665         estimate D2E/DX2                !
 ! D62   D(24,8,9,27)          122.5681         estimate D2E/DX2                !
 ! D63   D(24,8,9,28)         -117.4348         estimate D2E/DX2                !
 ! D64   D(25,8,9,26)         -126.1535         estimate D2E/DX2                !
 ! D65   D(25,8,9,27)           -6.1519         estimate D2E/DX2                !
 ! D66   D(25,8,9,28)          113.8452         estimate D2E/DX2                !
 --------------------------------------------------------------------------------
 Trust Radius=3.00D-01 FncErr=1.00D-07 GrdErr=1.00D-06 EigMax=2.50D+02 EigMin=1.00D-04
 Number of steps in this run=    154 maximum allowed number of steps=    168.
 GradGradGradGradGradGradGradGradGradGradGradGradGradGradGradGradGradGrad

 Leave Link  103 at Mon Oct 14 01:45:12 2019, MaxMem= 10737418240 cpu:               0.3 elap:               0.0
 (Enter /apps/cent7/gaussian/g16-A.03/g16-haswell/g16/l202.exe)
                          Input orientation:                          
 ---------------------------------------------------------------------
 Center     Atomic      Atomic             Coordinates (Angstroms)
 Number     Number       Type             X           Y           Z
 ---------------------------------------------------------------------
      1          6           0       -0.019000    3.437100   -6.205700
      2          6           0        0.670400    2.749700   -5.004500
      3          6           0       -0.232100    2.728100   -3.744100
      4          6           0        0.431500    2.048800   -2.520900
      5         16           0       -0.727300    2.029200   -1.100500
      6          6           0        0.176600    1.250700    0.291500
      7          6           0       -0.712800    1.223200    1.558900
      8          6           0       -0.034800    0.541900    2.775400
      9          6           0       -0.946200    0.534000    4.024300
     10          8           0       -0.905500    3.565600   -0.680600
     11          1           0       -0.408400    2.678200   -6.884300
     12          1           0       -0.839200    4.058900   -5.846900
     13          1           0        0.704600    4.058900   -6.732900
     14          1           0        0.815300    1.708700   -5.293500
     15          1           0        1.530400    3.370300   -4.753000
     16          1           0       -0.378800    3.771000   -3.463100
     17          1           0       -1.090300    2.107100   -4.001100
     18          1           0        0.607900    1.027900   -2.859600
     19          1           0        1.274800    2.700700   -2.292500
     20          1           0        0.342200    0.195900    0.072200
     21          1           0        1.014300    1.885300    0.580500
     22          1           0       -0.859700    2.265200    1.843000
     23          1           0       -1.571400    0.600600    1.307400
     24          1           0        0.109100   -0.502600    2.498700
     25          1           0        0.824900    1.161200    3.031600
     26          1           0       -1.157300   -0.495500    4.313600
     27          1           0       -0.443100    1.046000    4.844600
     28          1           0       -1.880900    1.046000    3.795300
 ---------------------------------------------------------------------
                    Distance matrix (angstroms):
                    1          2          3          4          5
     1  C    0.000000
     2  C    1.546180   0.000000
     3  C    2.570519   1.550349   0.000000
     4  C    3.963342   2.591641   1.548558   0.000000
     5  S    5.342933   4.208789   2.778904   1.833232   0.000000
     6  C    6.858004   5.526161   4.316922   2.934541   1.833238
     7  C    8.103809   6.879074   5.533318   4.316921   2.778894
     8  C    9.436238   8.117791   6.879119   5.526208   4.208826
     9  C   10.674296   9.436204   8.103829   6.858011   5.342950
    10  O    5.597243   4.673892   3.246522   2.734036   1.602684
    11  H    1.089981   2.168541   3.145541   4.487854   5.828828
    12  H    1.090000   2.168533   2.561517   4.088699   5.163382
    13  H    1.090033   2.168534   3.403140   4.675043   6.155806
    14  H    2.124978   1.090045   2.129991   2.819624   4.479239
    15  H    2.124956   1.089953   2.129955   2.817129   4.498501
    16  H    2.786180   2.125979   1.090010   2.123747   2.955875
    17  H    2.788699   2.125985   1.090045   2.123739   2.924264
    18  H    4.170568   2.751199   2.092515   1.089987   2.424829
    19  H    4.186805   2.778965   2.092520   1.090089   2.424908
    20  H    7.074452   5.692319   4.615843   3.188319   2.424880
    21  H    7.037635   5.661950   4.578863   3.159916   2.424797
    22  H    8.176900   7.033079   5.641263   4.556056   2.955912
    23  H    8.179386   7.034513   5.642485   4.556838   2.924275
    24  H    9.555324   8.196983   7.037499   5.640033   4.479265
    25  H    9.550895   8.193052   7.034382   5.636741   4.498555
    26  H   11.287902  10.034879   8.727779   7.463788   5.989281
    27  H   11.313989  10.057199   8.754413   7.484726   6.032551
    28  H   10.450073   9.319238   7.898769   6.800528   5.125069
                    6          7          8          9         10
     6  C    0.000000
     7  C    1.548577   0.000000
     8  C    2.591688   1.550395   0.000000
     9  C    3.963349   2.570539   1.546112   0.000000
    10  O    2.733986   3.246434   4.673844   5.597172   0.000000
    11  H    7.339761   8.573057   9.900160  11.130336   6.286532
    12  H    6.826257   7.931144   9.346679  10.482221   5.190221
    13  H    7.583335   8.877171  10.164830  11.439730   6.282205
    14  H    5.640029   7.037484   8.197026   9.555323   5.261946
    15  H    5.636706   7.034349   8.193077   9.550871   4.749336
    16  H    4.556029   5.641217   7.033086   8.176874   2.839350
    17  H    4.556849   5.642463   7.034549   8.179392   3.631404
    18  H    3.188274   4.615792   5.692318   7.074408   3.671286
    19  H    3.160000   4.578956   5.662074   7.037712   2.846047
    20  H    1.090009   2.092522   2.751206   4.170537   3.671286
    21  H    1.089945   2.092491   2.779014   4.186804   2.845947
    22  H    2.123742   1.089980   2.125933   2.786145   2.839312
    23  H    2.123720   1.089989   2.125937   2.788702   3.631362
    24  H    2.819636   2.130054   1.090069   2.125007   5.261902
    25  H    2.817171   2.130073   1.090071   2.125001   4.749300
    26  H    4.583208   3.277176   2.168470   1.090013   6.441892
    27  H    4.599636   3.301509   2.168505   1.090021   6.090159
    28  H    4.068393   2.529297   2.168501   1.090068   5.228142
                   11         12         13         14         15
    11  H    0.000000
    12  H    1.779921   0.000000
    13  H    1.779894   1.779976   0.000000
    14  H    2.228905   2.926954   2.758182   0.000000
    15  H    2.963172   2.699221   2.253025   1.887968   0.000000
    16  H    3.591615   2.444863   3.456622   3.004883   2.338685
    17  H    3.017281   2.698065   3.807088   2.336735   3.004845
    18  H    4.467053   4.495000   4.919224   2.535818   3.150049
    19  H    4.890633   4.352868   4.678353   3.193933   2.562763
    20  H    7.424157   7.166186   7.833485   5.594919   5.896710
    21  H    7.640419   7.033596   7.635854   5.880022   5.560378
    22  H    8.748715   7.896350   8.900026   7.351527   7.102186
    23  H    8.530706   7.979973   9.043586   7.106061   7.349888
    24  H    9.920987   9.558012  10.314279   8.130618   8.343057
    25  H   10.106799   9.486499  10.186098   8.343089   8.122675
    26  H   11.663027  11.139098  12.092741  10.052165  10.216231
    27  H   11.841975  11.114973  12.018040  10.237373  10.070303
    28  H   10.903494  10.155527  11.251905   9.503418   9.492775
                   16         17         18         19         20
    16  H    0.000000
    17  H    1.887919   0.000000
    18  H    2.976976   2.313348   0.000000
    19  H    2.291340   2.977478   1.888020   0.000000
    20  H    5.079323   4.721919   3.059129   3.568693   0.000000
    21  H    4.674109   5.046741   3.568555   2.997810   1.887898
    22  H    5.536551   5.850784   5.079292   4.674196   2.976961
    23  H    5.850761   5.539059   4.721845   5.046836   2.313302
    24  H    7.351514   7.106089   5.594874   5.880101   2.535772
    25  H    7.102188   7.349938   5.896702   5.560442   3.150056
    26  H    8.904277   8.712764   7.542644   7.731194   4.551484
    27  H    8.743434   8.932593   7.775579   7.525119   4.910720
    28  H    7.897234   7.907897   7.105079   7.053920   4.418859
                   21         22         23         24         25
    21  H    0.000000
    22  H    2.291311   0.000000
    23  H    2.977362   1.887929   0.000000
    24  H    3.193892   3.004868   2.336734   0.000000
    25  H    2.562827   2.338688   3.004895   1.888010   0.000000
    26  H    4.931540   3.716705   3.226477   2.213071   2.883972
    27  H    4.583774   3.266436   3.739415   2.864670   2.215415
    28  H    4.406988   2.518089   2.546334   2.835389   2.813870
                   26         27         28
    26  H    0.000000
    27  H    1.779962   0.000000
    28  H    1.780015   1.779972   0.000000
 Stoichiometry    C8H18OS
 Framework group  C1[X(C8H18OS)]
 Deg. of freedom    78
 Full point group                 C1      NOp   1
 Largest Abelian subgroup         C1      NOp   1
 Largest concise Abelian subgroup C1      NOp   1
                         Standard orientation:                         
 ---------------------------------------------------------------------
 Center     Atomic      Atomic             Coordinates (Angstroms)
 Number     Number       Type             X           Y           Z
 ---------------------------------------------------------------------
      1          6           0        5.337149    0.110938   -0.184815
      2          6           0        4.058880   -0.651684    0.233644
      3          6           0        2.766670    0.096704   -0.183119
      4          6           0        1.467278   -0.640105    0.225199
      5         16           0        0.000009    0.295222   -0.351880
      6          6           0       -1.467263   -0.640106    0.225213
      7          6           0       -2.766647    0.096729   -0.183156
      8          6           0       -4.058911   -0.651661    0.233609
      9          6           0       -5.337147    0.110911   -0.184796
     10          8           0       -0.000038    1.649842    0.504626
     11          1           0        5.747280   -0.336463   -1.090180
     12          1           0        5.091147    1.155621   -0.375132
     13          1           0        6.074373    0.051325    0.615884
     14          1           0        4.065316   -1.585292   -0.328968
     15          1           0        4.061337   -0.672016    1.323404
     16          1           0        2.768261    1.031602    0.377315
     17          1           0        2.769531    0.114725   -1.273011
     18          1           0        1.529549   -1.585943   -0.312932
     19          1           0        1.498936   -0.629787    1.314780
     20          1           0       -1.529580   -1.585970   -0.312910
     21          1           0       -1.498874   -0.629799    1.314651
     22          1           0       -2.768290    1.031561    0.377329
     23          1           0       -2.769527    0.114658   -1.272994
     24          1           0       -4.065301   -1.585347   -0.328919
     25          1           0       -4.061338   -0.672046    1.323487
     26          1           0       -5.912736   -0.499122   -0.880990
     27          1           0       -5.940352    0.321252    0.698405
     28          1           0       -5.059623    1.048390   -0.666837
 ---------------------------------------------------------------------
 Rotational constants (GHZ):           4.5828455           0.3079871           0.2976317
 Leave Link  202 at Mon Oct 14 01:45:12 2019, MaxMem= 10737418240 cpu:               0.3 elap:               0.0
 (Enter /apps/cent7/gaussian/g16-A.03/g16-haswell/g16/l301.exe)
 Standard basis: 6-31G(d) (6D, 7F)
 Ernie: Thresh=  0.10000D-02 Tol=  0.10000D-05 Strict=F.
 There are   190 symmetry adapted cartesian basis functions of A   symmetry.
 There are   190 symmetry adapted basis functions of A   symmetry.
   190 basis functions,   376 primitive gaussians,   190 cartesian basis functions
    45 alpha electrons       45 beta electrons
       nuclear repulsion energy       627.9085006656 Hartrees.
 IExCor=  402 DFT=T Ex+Corr=B3LYP ExCW=0 ScaHFX=  0.200000
 ScaDFX=  0.800000  0.720000  1.000000  0.810000 ScalE2=  1.000000  1.000000
 IRadAn=      5 IRanWt=     -1 IRanGd=            0 ICorTp=0 IEmpDi=  4
 NAtoms=   28 NActive=   28 NUniq=   28 SFac= 1.00D+00 NAtFMM=   60 NAOKFM=F Big=F
 Integral buffers will be    131072 words long.
 Raffenetti 2 integral format.
 Two-electron integral symmetry is turned on.
 Leave Link  301 at Mon Oct 14 01:45:12 2019, MaxMem= 10737418240 cpu:               1.3 elap:               0.1
 (Enter /apps/cent7/gaussian/g16-A.03/g16-haswell/g16/l302.exe)
 NPDir=0 NMtPBC=     1 NCelOv=     1 NCel=       1 NClECP=     1 NCelD=      1
         NCelK=      1 NCelE2=     1 NClLst=     1 CellRange=     0.0.
 One-electron integrals computed using PRISM.
 One-electron integral symmetry used in STVInt
 NBasis=   190 RedAO= T EigKep=  3.48D-03  NBF=   190
 NBsUse=   190 1.00D-06 EigRej= -1.00D+00 NBFU=   190
 Precomputing XC quadrature grid using
 IXCGrd= 4 IRadAn=           5 IRanWt=          -1 IRanGd=           0 AccXCQ= 0.00D+00.
 Generated NRdTot=       0 NPtTot=           0 NUsed=           0 NTot=          32
 NSgBfM=   187   187   187   187   187 MxSgAt=    28 MxSgA2=    28.
 Leave Link  302 at Mon Oct 14 01:45:13 2019, MaxMem= 10737418240 cpu:               4.9 elap:               0.2
 (Enter /apps/cent7/gaussian/g16-A.03/g16-haswell/g16/l303.exe)
 DipDrv:  MaxL=1.
 Leave Link  303 at Mon Oct 14 01:45:13 2019, MaxMem= 10737418240 cpu:               0.9 elap:               0.1
 (Enter /apps/cent7/gaussian/g16-A.03/g16-haswell/g16/l401.exe)
 ExpMin= 1.17D-01 ExpMax= 2.19D+04 ExpMxC= 3.30D+03 IAcc=3 IRadAn=         5 AccDes= 0.00D+00
 Harris functional with IExCor=  402 and IRadAn=       5 diagonalized for initial guess.
 HarFok:  IExCor=  402 AccDes= 0.00D+00 IRadAn=         5 IDoV= 1 UseB2=F ITyADJ=14
 ICtDFT=  3500011 ScaDFX=  1.000000  1.000000  1.000000  1.000000
 FoFCou: FMM=F IPFlag=           0 FMFlag=      100000 FMFlg1=           0
         NFxFlg=           0 DoJE=T BraDBF=F KetDBF=T FulRan=T
         wScrn=  0.000000 ICntrl=       500 IOpCl=  0 I1Cent=   200000004 NGrid=           0
         NMat0=    1 NMatS0=      1 NMatT0=    0 NMatD0=    1 NMtDS0=    0 NMtDT0=    0
 Petite list used in FoFCou.
 Harris En= -789.131542047088    
 JPrj=0 DoOrth=F DoCkMO=F.
 Leave Link  401 at Mon Oct 14 01:45:13 2019, MaxMem= 10737418240 cpu:               9.7 elap:               0.4
 (Enter /apps/cent7/gaussian/g16-A.03/g16-haswell/g16/l502.exe)
 Integral symmetry usage will be decided dynamically.
 Closed shell SCF:
 Using DIIS extrapolation, IDIIS=  1040.
 NGot= 10737418240 LenX= 10737339033 LenY= 10737302492
 Requested convergence on RMS density matrix=1.00D-08 within 128 cycles.
 Requested convergence on MAX density matrix=1.00D-06.
 Requested convergence on             energy=1.00D-06.
 No special actions if energy rises.
 Fock matrices will be formed incrementally for  20 cycles.
 Integral accuracy reduced to 1.0D-05 until final iterations.

 Cycle   1  Pass 0  IDiag  1:
 FoFJK:  IHMeth= 1 ICntrl=       0 DoSepK=F KAlg= 0 I1Cent=           0 FoldK=F
 IRaf= 810000000 NMat=       1 IRICut=       1 DoRegI=T DoRafI=F ISym2E= 0 IDoP0=0 IntGTp=1.
 FoFCou: FMM=F IPFlag=           0 FMFlag=      100000 FMFlg1=           0
         NFxFlg=           0 DoJE=F BraDBF=F KetDBF=F FulRan=T
         wScrn=  0.000000 ICntrl=         0 IOpCl=  0 I1Cent=           0 NGrid=           0
         NMat0=    1 NMatS0=      1 NMatT0=    0 NMatD0=    1 NMtDS0=    0 NMtDT0=    0
 Symmetry not used in FoFCou.
 E= -788.508144047079    
 DIIS: error= 4.56D-02 at cycle   1 NSaved=   1.
 NSaved= 1 IEnMin= 1 EnMin= -788.508144047079     IErMin= 1 ErrMin= 4.56D-02
 ErrMax= 4.56D-02  0.00D+00 EMaxC= 1.00D-01 BMatC= 5.16D-01 BMatP= 5.16D-01
 IDIUse=3 WtCom= 5.44D-01 WtEn= 4.56D-01
 Coeff-Com:  0.100D+01
 Coeff-En:   0.100D+01
 Coeff:      0.100D+01
 Gap=     0.252 Goal=   None    Shift=    0.000
 GapD=    0.252 DampG=1.000 DampE=0.500 DampFc=0.5000 IDamp=-1.
 Damping current iteration by 5.00D-01
 RMSDP=1.53D-02 MaxDP=4.94D-01              OVMax= 4.45D-01

 Cycle   2  Pass 0  IDiag  1:
 RMSU=  7.64D-03    CP:  9.97D-01
 E= -788.518621934632     Delta-E=       -0.010477887552 Rises=F Damp=T
 DIIS: error= 4.11D-02 at cycle   2 NSaved=   2.
 NSaved= 2 IEnMin= 2 EnMin= -788.518621934632     IErMin= 2 ErrMin= 4.11D-02
 ErrMax= 4.11D-02  0.00D+00 EMaxC= 1.00D-01 BMatC= 1.60D-01 BMatP= 5.16D-01
 IDIUse=3 WtCom= 5.89D-01 WtEn= 4.11D-01
 Coeff-Com:  0.316D+00 0.684D+00
 Coeff-En:   0.492D+00 0.508D+00
 Coeff:      0.388D+00 0.612D+00
 Gap=     0.212 Goal=   None    Shift=    0.000
 RMSDP=6.55D-03 MaxDP=2.43D-01 DE=-1.05D-02 OVMax= 3.29D-01

 Cycle   3  Pass 0  IDiag  1:
 RMSU=  3.91D-03    CP:  9.76D-01  3.16D-01
 E= -788.891499107325     Delta-E=       -0.372877172694 Rises=F Damp=F
 DIIS: error= 2.53D-02 at cycle   3 NSaved=   3.
 NSaved= 3 IEnMin= 3 EnMin= -788.891499107325     IErMin= 3 ErrMin= 2.53D-02
 ErrMax= 2.53D-02  0.00D+00 EMaxC= 1.00D-01 BMatC= 1.33D-01 BMatP= 1.60D-01
 IDIUse=3 WtCom= 7.47D-01 WtEn= 2.53D-01
 Coeff-Com:  0.170D+00 0.433D+00 0.398D+00
 Coeff-En:   0.235D-01 0.000D+00 0.977D+00
 Coeff:      0.133D+00 0.323D+00 0.544D+00
 Gap=     0.259 Goal=   None    Shift=    0.000
 RMSDP=3.66D-03 MaxDP=8.48D-02 DE=-3.73D-01 OVMax= 1.44D-01

 Cycle   4  Pass 0  IDiag  1:
 RMSU=  1.68D-03    CP:  9.95D-01  5.47D-01  3.13D-01
 E= -788.992329935924     Delta-E=       -0.100830828598 Rises=F Damp=F
 DIIS: error= 1.52D-02 at cycle   4 NSaved=   4.
 NSaved= 4 IEnMin= 4 EnMin= -788.992329935924     IErMin= 4 ErrMin= 1.52D-02
 ErrMax= 1.52D-02  0.00D+00 EMaxC= 1.00D-01 BMatC= 3.51D-02 BMatP= 1.33D-01
 IDIUse=3 WtCom= 8.48D-01 WtEn= 1.52D-01
 Coeff-Com:  0.345D-01-0.101D-01 0.325D+00 0.650D+00
 Coeff-En:   0.000D+00 0.000D+00 0.226D+00 0.774D+00
 Coeff:      0.293D-01-0.857D-02 0.310D+00 0.669D+00
 Gap=     0.245 Goal=   None    Shift=    0.000
 RMSDP=1.49D-03 MaxDP=4.55D-02 DE=-1.01D-01 OVMax= 6.29D-02

 Cycle   5  Pass 0  IDiag  1:
 RMSU=  3.68D-04    CP:  9.90D-01  4.29D-01  5.56D-01  6.45D-01
 E= -789.022707435436     Delta-E=       -0.030377499512 Rises=F Damp=F
 DIIS: error= 2.03D-03 at cycle   5 NSaved=   5.
 NSaved= 5 IEnMin= 5 EnMin= -789.022707435436     IErMin= 5 ErrMin= 2.03D-03
 ErrMax= 2.03D-03  0.00D+00 EMaxC= 1.00D-01 BMatC= 6.45D-04 BMatP= 3.51D-02
 IDIUse=3 WtCom= 9.80D-01 WtEn= 2.03D-02
 Coeff-Com:  0.215D-02-0.203D-01 0.938D-01 0.273D+00 0.652D+00
 Coeff-En:   0.000D+00 0.000D+00 0.000D+00 0.000D+00 0.100D+01
 Coeff:      0.210D-02-0.199D-01 0.919D-01 0.267D+00 0.659D+00
 Gap=     0.238 Goal=   None    Shift=    0.000
 RMSDP=2.42D-04 MaxDP=8.56D-03 DE=-3.04D-02 OVMax= 8.29D-03

 Cycle   6  Pass 0  IDiag  1:
 RMSU=  9.32D-05    CP:  9.90D-01  4.43D-01  5.34D-01  7.12D-01  6.39D-01
 E= -789.023247330719     Delta-E=       -0.000539895284 Rises=F Damp=F
 DIIS: error= 6.01D-04 at cycle   6 NSaved=   6.
 NSaved= 6 IEnMin= 6 EnMin= -789.023247330719     IErMin= 6 ErrMin= 6.01D-04
 ErrMax= 6.01D-04  0.00D+00 EMaxC= 1.00D-01 BMatC= 5.86D-05 BMatP= 6.45D-04
 IDIUse=3 WtCom= 9.94D-01 WtEn= 6.01D-03
 Coeff-Com:  0.238D-03-0.738D-02 0.128D-01 0.441D-01 0.267D+00 0.684D+00
 Coeff-En:   0.000D+00 0.000D+00 0.000D+00 0.000D+00 0.328D-01 0.967D+00
 Coeff:      0.237D-03-0.733D-02 0.127D-01 0.438D-01 0.265D+00 0.685D+00
 Gap=     0.239 Goal=   None    Shift=    0.000
 RMSDP=6.37D-05 MaxDP=2.11D-03 DE=-5.40D-04 OVMax= 2.48D-03

 Cycle   7  Pass 0  IDiag  1:
 RMSU=  2.41D-05    CP:  9.90D-01  4.38D-01  5.41D-01  6.98D-01  7.05D-01
                    CP:  8.18D-01
 E= -789.023302516340     Delta-E=       -0.000055185621 Rises=F Damp=F
 DIIS: error= 8.55D-05 at cycle   7 NSaved=   7.
 NSaved= 7 IEnMin= 7 EnMin= -789.023302516340     IErMin= 7 ErrMin= 8.55D-05
 ErrMax= 8.55D-05  0.00D+00 EMaxC= 1.00D-01 BMatC= 2.43D-06 BMatP= 5.86D-05
 IDIUse=1 WtCom= 1.00D+00 WtEn= 0.00D+00
 Coeff-Com:  0.351D-03-0.214D-02 0.977D-03 0.344D-02 0.744D-01 0.287D+00
 Coeff-Com:  0.636D+00
 Coeff:      0.351D-03-0.214D-02 0.977D-03 0.344D-02 0.744D-01 0.287D+00
 Coeff:      0.636D+00
 Gap=     0.239 Goal=   None    Shift=    0.000
 RMSDP=1.00D-05 MaxDP=2.19D-04 DE=-5.52D-05 OVMax= 2.75D-04

 Cycle   8  Pass 0  IDiag  1:
 RMSU=  6.52D-06    CP:  9.90D-01  4.38D-01  5.41D-01  6.97D-01  7.14D-01
                    CP:  8.31D-01  7.84D-01
 E= -789.023304679051     Delta-E=       -0.000002162711 Rises=F Damp=F
 DIIS: error= 2.06D-05 at cycle   8 NSaved=   8.
 NSaved= 8 IEnMin= 8 EnMin= -789.023304679051     IErMin= 8 ErrMin= 2.06D-05
 ErrMax= 2.06D-05  0.00D+00 EMaxC= 1.00D-01 BMatC= 1.27D-07 BMatP= 2.43D-06
 IDIUse=1 WtCom= 1.00D+00 WtEn= 0.00D+00
 Coeff-Com:  0.191D-03-0.433D-03-0.352D-03-0.160D-02 0.106D-01 0.666D-01
 Coeff-Com:  0.251D+00 0.674D+00
 Coeff:      0.191D-03-0.433D-03-0.352D-03-0.160D-02 0.106D-01 0.666D-01
 Coeff:      0.251D+00 0.674D+00
 Gap=     0.239 Goal=   None    Shift=    0.000
 RMSDP=2.65D-06 MaxDP=1.18D-04 DE=-2.16D-06 OVMax= 9.75D-05

 Initial convergence to 1.0D-05 achieved.  Increase integral accuracy.
 Cycle   9  Pass 1  IDiag  1:
 E= -789.023273741045     Delta-E=        0.000030938006 Rises=F Damp=F
 DIIS: error= 1.46D-05 at cycle   1 NSaved=   1.
 NSaved= 1 IEnMin= 1 EnMin= -789.023273741045     IErMin= 1 ErrMin= 1.46D-05
 ErrMax= 1.46D-05  0.00D+00 EMaxC= 1.00D-01 BMatC= 1.84D-08 BMatP= 1.84D-08
 IDIUse=1 WtCom= 1.00D+00 WtEn= 0.00D+00
 Coeff-Com:  0.100D+01
 Coeff:      0.100D+01
 Gap=     0.239 Goal=   None    Shift=    0.000
 RMSDP=2.65D-06 MaxDP=1.18D-04 DE= 3.09D-05 OVMax= 4.26D-05

 Cycle  10  Pass 1  IDiag  1:
 RMSU=  3.12D-06    CP:  1.00D+00
 E= -789.023273754001     Delta-E=       -0.000000012956 Rises=F Damp=F
 DIIS: error= 3.81D-06 at cycle   2 NSaved=   2.
 NSaved= 2 IEnMin= 2 EnMin= -789.023273754001     IErMin= 2 ErrMin= 3.81D-06
 ErrMax= 3.81D-06  0.00D+00 EMaxC= 1.00D-01 BMatC= 5.72D-09 BMatP= 1.84D-08
 IDIUse=1 WtCom= 1.00D+00 WtEn= 0.00D+00
 Coeff-Com:  0.310D+00 0.690D+00
 Coeff:      0.310D+00 0.690D+00
 Gap=     0.239 Goal=   None    Shift=    0.000
 RMSDP=7.24D-07 MaxDP=1.98D-05 DE=-1.30D-08 OVMax= 2.31D-05

 Cycle  11  Pass 1  IDiag  1:
 RMSU=  7.13D-07    CP:  1.00D+00  9.64D-01
 E= -789.023273757349     Delta-E=       -0.000000003348 Rises=F Damp=F
 DIIS: error= 3.44D-06 at cycle   3 NSaved=   3.
 NSaved= 3 IEnMin= 3 EnMin= -789.023273757349     IErMin= 3 ErrMin= 3.44D-06
 ErrMax= 3.44D-06  0.00D+00 EMaxC= 1.00D-01 BMatC= 2.66D-09 BMatP= 5.72D-09
 IDIUse=1 WtCom= 1.00D+00 WtEn= 0.00D+00
 Coeff-Com:  0.292D-01 0.402D+00 0.569D+00
 Coeff:      0.292D-01 0.402D+00 0.569D+00
 Gap=     0.239 Goal=   None    Shift=    0.000
 RMSDP=4.20D-07 MaxDP=1.04D-05 DE=-3.35D-09 OVMax= 1.81D-05

 Cycle  12  Pass 1  IDiag  1:
 RMSU=  2.87D-07    CP:  1.00D+00  9.76D-01  5.81D-01
 E= -789.023273759389     Delta-E=       -0.000000002040 Rises=F Damp=F
 DIIS: error= 2.25D-06 at cycle   4 NSaved=   4.
 NSaved= 4 IEnMin= 4 EnMin= -789.023273759389     IErMin= 4 ErrMin= 2.25D-06
 ErrMax= 2.25D-06  0.00D+00 EMaxC= 1.00D-01 BMatC= 6.41D-10 BMatP= 2.66D-09
 IDIUse=1 WtCom= 1.00D+00 WtEn= 0.00D+00
 Coeff-Com: -0.247D-02 0.232D+00 0.401D+00 0.369D+00
 Coeff:     -0.247D-02 0.232D+00 0.401D+00 0.369D+00
 Gap=     0.239 Goal=   None    Shift=    0.000
 RMSDP=2.06D-07 MaxDP=5.50D-06 DE=-2.04D-09 OVMax= 8.10D-06

 Cycle  13  Pass 1  IDiag  1:
 RMSU=  5.72D-08    CP:  1.00D+00  9.87D-01  6.51D-01  3.54D-01
 E= -789.023273759928     Delta-E=       -0.000000000540 Rises=F Damp=F
 DIIS: error= 3.25D-07 at cycle   5 NSaved=   5.
 NSaved= 5 IEnMin= 5 EnMin= -789.023273759928     IErMin= 5 ErrMin= 3.25D-07
 ErrMax= 3.25D-07  0.00D+00 EMaxC= 1.00D-01 BMatC= 1.61D-11 BMatP= 6.41D-10
 IDIUse=1 WtCom= 1.00D+00 WtEn= 0.00D+00
 Coeff-Com: -0.339D-02 0.970D-01 0.176D+00 0.202D+00 0.529D+00
 Coeff:     -0.339D-02 0.970D-01 0.176D+00 0.202D+00 0.529D+00
 Gap=     0.239 Goal=   None    Shift=    0.000
 RMSDP=2.33D-08 MaxDP=1.07D-06 DE=-5.40D-10 OVMax= 8.38D-07

 Cycle  14  Pass 1  IDiag  1:
 RMSU=  1.93D-08    CP:  1.00D+00  9.89D-01  6.50D-01  3.55D-01  7.92D-01
 E= -789.023273759943     Delta-E=       -0.000000000015 Rises=F Damp=F
 DIIS: error= 2.98D-08 at cycle   6 NSaved=   6.
 NSaved= 6 IEnMin= 6 EnMin= -789.023273759943     IErMin= 6 ErrMin= 2.98D-08
 ErrMax= 2.98D-08  0.00D+00 EMaxC= 1.00D-01 BMatC= 3.38D-13 BMatP= 1.61D-11
 IDIUse=1 WtCom= 1.00D+00 WtEn= 0.00D+00
 Coeff-Com: -0.854D-03 0.124D-01 0.222D-01 0.388D-01 0.146D+00 0.781D+00
 Coeff:     -0.854D-03 0.124D-01 0.222D-01 0.388D-01 0.146D+00 0.781D+00
 Gap=     0.239 Goal=   None    Shift=    0.000
 RMSDP=6.05D-09 MaxDP=4.08D-07 DE=-1.50D-11 OVMax= 2.50D-07

 SCF Done:  E(RB3LYP) =  -789.023273760     A.U. after   14 cycles
            NFock= 14  Conv=0.60D-08     -V/T= 2.0066
 KE= 7.838600942726D+02 PE=-3.107746712263D+03 EE= 9.069548435647D+02
 Leave Link  502 at Mon Oct 14 01:45:17 2019, MaxMem= 10737418240 cpu:              88.7 elap:               3.8
 (Enter /apps/cent7/gaussian/g16-A.03/g16-haswell/g16/l601.exe)
 Copying SCF densities to generalized density rwf, IOpCl= 0 IROHF=0.

 **********************************************************************

            Population analysis using the SCF density.

 **********************************************************************

 Orbital symmetries:
       Occupied  (A) (A) (A) (A) (A) (A) (A) (A) (A) (A) (A) (A)
                 (A) (A) (A) (A) (A) (A) (A) (A) (A) (A) (A) (A)
                 (A) (A) (A) (A) (A) (A) (A) (A) (A) (A) (A) (A)
                 (A) (A) (A) (A) (A) (A) (A) (A) (A)
       Virtual   (A) (A) (A) (A) (A) (A) (A) (A) (A) (A) (A) (A)
                 (A) (A) (A) (A) (A) (A) (A) (A) (A) (A) (A) (A)
                 (A) (A) (A) (A) (A) (A) (A) (A) (A) (A) (A) (A)
                 (A) (A) (A) (A) (A) (A) (A) (A) (A) (A) (A) (A)
                 (A) (A) (A) (A) (A) (A) (A) (A) (A) (A) (A) (A)
                 (A) (A) (A) (A) (A) (A) (A) (A) (A) (A) (A) (A)
                 (A) (A) (A) (A) (A) (A) (A) (A) (A) (A) (A) (A)
                 (A) (A) (A) (A) (A) (A) (A) (A) (A) (A) (A) (A)
                 (A) (A) (A) (A) (A) (A) (A) (A) (A) (A) (A) (A)
                 (A) (A) (A) (A) (A) (A) (A) (A) (A) (A) (A) (A)
                 (A) (A) (A) (A) (A) (A) (A) (A) (A) (A) (A) (A)
                 (A) (A) (A) (A) (A) (A) (A) (A) (A) (A) (A) (A)
                 (A)
 The electronic state is 1-A.
 Alpha  occ. eigenvalues --  -88.97062 -19.08623 -10.21455 -10.21446 -10.18962
 Alpha  occ. eigenvalues --  -10.18959 -10.18742 -10.18711 -10.17471 -10.17436
 Alpha  occ. eigenvalues --   -8.01864  -5.98235  -5.98202  -5.97589  -0.94650
 Alpha  occ. eigenvalues --   -0.81387  -0.80719  -0.76305  -0.73879  -0.68057
 Alpha  occ. eigenvalues --   -0.63606  -0.59133  -0.57295  -0.57095  -0.50774
 Alpha  occ. eigenvalues --   -0.50265  -0.45499  -0.45403  -0.44485  -0.43362
 Alpha  occ. eigenvalues --   -0.41831  -0.39903  -0.38929  -0.37957  -0.36959
 Alpha  occ. eigenvalues --   -0.35745  -0.35066  -0.34411  -0.34261  -0.32565
 Alpha  occ. eigenvalues --   -0.32354  -0.31690  -0.31613  -0.23687  -0.20553
 Alpha virt. eigenvalues --    0.03369   0.05234   0.06995   0.07940   0.08356
 Alpha virt. eigenvalues --    0.10445   0.11932   0.12370   0.12928   0.14240
 Alpha virt. eigenvalues --    0.14663   0.14677   0.15798   0.15988   0.16961
 Alpha virt. eigenvalues --    0.17225   0.18581   0.19550   0.19810   0.20170
 Alpha virt. eigenvalues --    0.22646   0.22729   0.23747   0.24549   0.26115
 Alpha virt. eigenvalues --    0.26377   0.26996   0.35863   0.41032   0.41716
 Alpha virt. eigenvalues --    0.44922   0.48586   0.48712   0.51097   0.52817
 Alpha virt. eigenvalues --    0.55304   0.55635   0.56151   0.56683   0.60320
 Alpha virt. eigenvalues --    0.62009   0.62728   0.63940   0.64496   0.65400
 Alpha virt. eigenvalues --    0.67332   0.69240   0.70259   0.71975   0.73431
 Alpha virt. eigenvalues --    0.79271   0.79999   0.81726   0.82302   0.83803
 Alpha virt. eigenvalues --    0.85292   0.86064   0.86792   0.86985   0.87124
 Alpha virt. eigenvalues --    0.87748   0.88031   0.88802   0.89348   0.90271
 Alpha virt. eigenvalues --    0.91150   0.91343   0.92276   0.92567   0.94100
 Alpha virt. eigenvalues --    0.94734   0.95543   0.95689   0.97629   0.97793
 Alpha virt. eigenvalues --    1.03473   1.06754   1.09823   1.11820   1.12123
 Alpha virt. eigenvalues --    1.13273   1.15745   1.16379   1.30485   1.31547
 Alpha virt. eigenvalues --    1.39120   1.39748   1.43004   1.43204   1.46019
 Alpha virt. eigenvalues --    1.53352   1.61224   1.62832   1.63625   1.78438
 Alpha virt. eigenvalues --    1.83054   1.85404   1.86043   1.88717   1.89069
 Alpha virt. eigenvalues --    1.89849   1.90676   1.92239   1.97065   1.99031
 Alpha virt. eigenvalues --    2.00081   2.00325   2.01501   2.04370   2.05288
 Alpha virt. eigenvalues --    2.06588   2.07249   2.09933   2.10637   2.11285
 Alpha virt. eigenvalues --    2.15081   2.17680   2.19451   2.21510   2.25166
 Alpha virt. eigenvalues --    2.26816   2.27837   2.30696   2.32553   2.34593
 Alpha virt. eigenvalues --    2.35536   2.39053   2.39319   2.56850   2.59138
 Alpha virt. eigenvalues --    2.64157   2.65719   2.67035   2.74279   2.75847
 Alpha virt. eigenvalues --    3.79068   3.94567   4.12146   4.13307   4.22790
 Alpha virt. eigenvalues --    4.23794   4.37180   4.37662   4.50527   4.51742
          Condensed to atoms (all electrons):
               1          2          3          4          5          6
     1  C    5.084408   0.358820  -0.037901   0.004176  -0.000088   0.000000
     2  C    0.358820   4.995434   0.373186  -0.034293   0.002944  -0.000028
     3  C   -0.037901   0.373186   5.079449   0.351861  -0.043517   0.002727
     4  C    0.004176  -0.034293   0.351861   5.570676   0.051565   0.010959
     5  S   -0.000088   0.002944  -0.043517   0.051565  14.961399   0.051619
     6  C    0.000000  -0.000028   0.002727   0.010959   0.051619   5.571256
     7  C   -0.000000   0.000000  -0.000017   0.002727  -0.043521   0.351564
     8  C    0.000000  -0.000000   0.000000  -0.000028   0.002988  -0.034916
     9  C   -0.000000   0.000000  -0.000000   0.000000  -0.000096   0.004306
    10  O    0.000001   0.000053  -0.004194  -0.040597   0.285476  -0.040594
    11  H    0.380162  -0.031651   0.000232  -0.000125   0.000001  -0.000000
    12  H    0.379520  -0.044089  -0.007529   0.000185  -0.000005   0.000000
    13  H    0.378794  -0.030526   0.003394  -0.000149   0.000002  -0.000000
    14  H   -0.045020   0.378407  -0.045978  -0.004322  -0.000003  -0.000002
    15  H   -0.045805   0.382425  -0.044059  -0.004824   0.000066   0.000002
    16  H   -0.004795  -0.042176   0.370576  -0.050834   0.003201   0.000098
    17  H   -0.002756  -0.048873   0.377645  -0.053063   0.004052  -0.000145
    18  H   -0.000006  -0.005317  -0.045343   0.309325  -0.001954  -0.000037
    19  H   -0.000045  -0.004667  -0.047321   0.344186  -0.014691  -0.008238
    20  H   -0.000000  -0.000001  -0.000058  -0.000031  -0.001989   0.309359
    21  H    0.000000  -0.000001  -0.000066  -0.008249  -0.014675   0.344353
    22  H   -0.000000  -0.000000  -0.000000   0.000096   0.003238  -0.051184
    23  H    0.000000   0.000000   0.000001  -0.000146   0.004006  -0.052744
    24  H   -0.000000   0.000000   0.000000  -0.000002  -0.000002  -0.004482
    25  H   -0.000000   0.000000   0.000000   0.000002   0.000063  -0.004668
    26  H    0.000000  -0.000000   0.000000  -0.000000   0.000001  -0.000144
    27  H    0.000000  -0.000000   0.000000  -0.000000   0.000002  -0.000145
    28  H   -0.000000   0.000000   0.000000   0.000000   0.000004   0.000212
               7          8          9         10         11         12
     1  C   -0.000000   0.000000  -0.000000   0.000001   0.380162   0.379520
     2  C    0.000000  -0.000000   0.000000   0.000053  -0.031651  -0.044089
     3  C   -0.000017   0.000000  -0.000000  -0.004194   0.000232  -0.007529
     4  C    0.002727  -0.000028   0.000000  -0.040597  -0.000125   0.000185
     5  S   -0.043521   0.002988  -0.000096   0.285476   0.000001  -0.000005
     6  C    0.351564  -0.034916   0.004306  -0.040594  -0.000000   0.000000
     7  C    5.080043   0.373300  -0.035794  -0.004163   0.000000   0.000000
     8  C    0.373300   4.998543   0.352758   0.000058  -0.000000   0.000000
     9  C   -0.035794   0.352758   5.090801   0.000001   0.000000  -0.000000
    10  O   -0.004163   0.000058   0.000001   8.450005  -0.000000  -0.000002
    11  H    0.000000  -0.000000   0.000000  -0.000000   0.565926  -0.027584
    12  H    0.000000   0.000000  -0.000000  -0.000002  -0.027584   0.557433
    13  H    0.000000  -0.000000   0.000000  -0.000000  -0.029244  -0.028226
    14  H    0.000000   0.000000  -0.000000  -0.000001  -0.010257   0.005570
    15  H    0.000000   0.000000  -0.000000  -0.000000   0.004643   0.002824
    16  H   -0.000000  -0.000000  -0.000000   0.010030  -0.000166   0.005106
    17  H    0.000001   0.000000   0.000000  -0.000539   0.001578   0.001212
    18  H   -0.000058  -0.000001  -0.000000   0.001815  -0.000005   0.000025
    19  H   -0.000067  -0.000001   0.000000   0.002140   0.000004   0.000016
    20  H   -0.045392  -0.005262  -0.000011   0.001816   0.000000   0.000000
    21  H   -0.047384  -0.004523  -0.000061   0.002136  -0.000000   0.000000
    22  H    0.371682  -0.043373  -0.003743   0.009976   0.000000   0.000000
    23  H    0.377273  -0.047743  -0.004140  -0.000539  -0.000000  -0.000000
    24  H   -0.045557   0.380443  -0.046140  -0.000001  -0.000000  -0.000000
    25  H   -0.044317   0.383460  -0.045497  -0.000000   0.000000   0.000000
    26  H    0.001968  -0.030982   0.379730  -0.000000  -0.000000   0.000000
    27  H    0.002286  -0.030857   0.380757  -0.000000  -0.000000   0.000000
    28  H   -0.008209  -0.045537   0.380264  -0.000000   0.000000  -0.000000
              13         14         15         16         17         18
     1  C    0.378794  -0.045020  -0.045805  -0.004795  -0.002756  -0.000006
     2  C   -0.030526   0.378407   0.382425  -0.042176  -0.048873  -0.005317
     3  C    0.003394  -0.045978  -0.044059   0.370576   0.377645  -0.045343
     4  C   -0.000149  -0.004322  -0.004824  -0.050834  -0.053063   0.309325
     5  S    0.000002  -0.000003   0.000066   0.003201   0.004052  -0.001954
     6  C   -0.000000  -0.000002   0.000002   0.000098  -0.000145  -0.000037
     7  C    0.000000   0.000000   0.000000  -0.000000   0.000001  -0.000058
     8  C   -0.000000   0.000000   0.000000  -0.000000   0.000000  -0.000001
     9  C    0.000000  -0.000000  -0.000000  -0.000000   0.000000  -0.000000
    10  O   -0.000000  -0.000001  -0.000000   0.010030  -0.000539   0.001815
    11  H   -0.029244  -0.010257   0.004643  -0.000166   0.001578  -0.000005
    12  H   -0.028226   0.005570   0.002824   0.005106   0.001212   0.000025
    13  H    0.563295   0.002294  -0.009390   0.000225  -0.000036   0.000002
    14  H    0.002294   0.599674  -0.021701   0.005727  -0.004176   0.005852
    15  H   -0.009390  -0.021701   0.588551  -0.004231   0.006242  -0.000259
    16  H    0.000225   0.005727  -0.004231   0.545479  -0.018121   0.007304
    17  H   -0.000036  -0.004176   0.006242  -0.018121   0.587677  -0.003648
    18  H    0.000002   0.005852  -0.000259   0.007304  -0.003648   0.587000
    19  H    0.000001  -0.000181   0.005360  -0.003314   0.006687  -0.015827
    20  H   -0.000000   0.000000   0.000000  -0.000006   0.000011   0.000429
    21  H   -0.000000   0.000000  -0.000000   0.000016   0.000006   0.000249
    22  H    0.000000   0.000000   0.000000  -0.000002   0.000000  -0.000006
    23  H    0.000000   0.000000  -0.000000   0.000000  -0.000000   0.000011
    24  H    0.000000  -0.000000   0.000000   0.000000   0.000000   0.000000
    25  H    0.000000   0.000000  -0.000000   0.000000  -0.000000   0.000000
    26  H   -0.000000  -0.000000   0.000000   0.000000  -0.000000   0.000000
    27  H   -0.000000   0.000000   0.000000   0.000000  -0.000000  -0.000000
    28  H    0.000000  -0.000000  -0.000000   0.000000  -0.000000   0.000000
              19         20         21         22         23         24
     1  C   -0.000045  -0.000000   0.000000  -0.000000   0.000000  -0.000000
     2  C   -0.004667  -0.000001  -0.000001  -0.000000   0.000000   0.000000
     3  C   -0.047321  -0.000058  -0.000066  -0.000000   0.000001   0.000000
     4  C    0.344186  -0.000031  -0.008249   0.000096  -0.000146  -0.000002
     5  S   -0.014691  -0.001989  -0.014675   0.003238   0.004006  -0.000002
     6  C   -0.008238   0.309359   0.344353  -0.051184  -0.052744  -0.004482
     7  C   -0.000067  -0.045392  -0.047384   0.371682   0.377273  -0.045557
     8  C   -0.000001  -0.005262  -0.004523  -0.043373  -0.047743   0.380443
     9  C    0.000000  -0.000011  -0.000061  -0.003743  -0.004140  -0.046140
    10  O    0.002140   0.001816   0.002136   0.009976  -0.000539  -0.000001
    11  H    0.000004   0.000000  -0.000000   0.000000  -0.000000  -0.000000
    12  H    0.000016   0.000000   0.000000   0.000000  -0.000000  -0.000000
    13  H    0.000001  -0.000000  -0.000000   0.000000   0.000000   0.000000
    14  H   -0.000181   0.000000   0.000000   0.000000   0.000000  -0.000000
    15  H    0.005360   0.000000  -0.000000   0.000000  -0.000000   0.000000
    16  H   -0.003314  -0.000006   0.000016  -0.000002   0.000000   0.000000
    17  H    0.006687   0.000011   0.000006   0.000000  -0.000000   0.000000
    18  H   -0.015827   0.000429   0.000249  -0.000006   0.000011   0.000000
    19  H    0.548143   0.000250   0.003298   0.000016   0.000006   0.000000
    20  H    0.000250   0.586959  -0.015836   0.007302  -0.003659   0.005875
    21  H    0.003298  -0.015836   0.547991  -0.003330   0.006669  -0.000191
    22  H    0.000016   0.007302  -0.003330   0.545230  -0.018147   0.005729
    23  H    0.000006  -0.003659   0.006669  -0.018147   0.586887  -0.004094
    24  H    0.000000   0.005875  -0.000191   0.005729  -0.004094   0.598397
    25  H   -0.000000  -0.000253   0.005316  -0.004195   0.006153  -0.021496
    26  H   -0.000000  -0.000004   0.000002  -0.000095   0.000741  -0.010882
    27  H   -0.000000   0.000002   0.000000   0.000562  -0.000065   0.003603
    28  H   -0.000000   0.000027   0.000021   0.003263   0.003043   0.004828
              25         26         27         28
     1  C   -0.000000   0.000000   0.000000  -0.000000
     2  C    0.000000  -0.000000  -0.000000   0.000000
     3  C    0.000000   0.000000   0.000000   0.000000
     4  C    0.000002  -0.000000  -0.000000   0.000000
     5  S    0.000063   0.000001   0.000002   0.000004
     6  C   -0.004668  -0.000144  -0.000145   0.000212
     7  C   -0.044317   0.001968   0.002286  -0.008209
     8  C    0.383460  -0.030982  -0.030857  -0.045537
     9  C   -0.045497   0.379730   0.380757   0.380264
    10  O   -0.000000  -0.000000  -0.000000  -0.000000
    11  H    0.000000  -0.000000  -0.000000   0.000000
    12  H    0.000000   0.000000   0.000000  -0.000000
    13  H    0.000000  -0.000000  -0.000000   0.000000
    14  H    0.000000  -0.000000   0.000000  -0.000000
    15  H   -0.000000   0.000000   0.000000  -0.000000
    16  H    0.000000   0.000000   0.000000   0.000000
    17  H   -0.000000  -0.000000  -0.000000  -0.000000
    18  H    0.000000   0.000000  -0.000000   0.000000
    19  H   -0.000000  -0.000000  -0.000000  -0.000000
    20  H   -0.000253  -0.000004   0.000002   0.000027
    21  H    0.005316   0.000002   0.000000   0.000021
    22  H   -0.004195  -0.000095   0.000562   0.003263
    23  H    0.006153   0.000741  -0.000065   0.003043
    24  H   -0.021496  -0.010882   0.003603   0.004828
    25  H    0.586419   0.003817  -0.010606   0.004433
    26  H    0.003817   0.565083  -0.029025  -0.027686
    27  H   -0.010606  -0.029025   0.560326  -0.027351
    28  H    0.004433  -0.027686  -0.027351   0.555696
 Mulliken charges:
               1
     1  C   -0.449465
     2  C   -0.249648
     3  C   -0.283088
     4  C   -0.449095
     5  S    0.749914
     6  C   -0.449124
     7  C   -0.286364
     8  C   -0.248327
     9  C   -0.453134
    10  O   -0.672875
    11  H    0.146488
    12  H    0.155542
    13  H    0.149565
    14  H    0.134117
    15  H    0.140158
    16  H    0.175883
    17  H    0.146246
    18  H    0.160446
    19  H    0.184243
    20  H    0.160474
    21  H    0.184258
    22  H    0.176981
    23  H    0.146487
    24  H    0.133970
    25  H    0.141369
    26  H    0.147476
    27  H    0.150511
    28  H    0.156993
 Sum of Mulliken charges =  -0.00000
 Mulliken charges with hydrogens summed into heavy atoms:
               1
     1  C    0.002131
     2  C    0.024627
     3  C    0.039040
     4  C   -0.104405
     5  S    0.749914
     6  C   -0.104393
     7  C    0.037103
     8  C    0.027012
     9  C    0.001846
    10  O   -0.672875
 Electronic spatial extent (au):  <R**2>=           3819.7078
 Charge=             -0.0000 electrons
 Dipole moment (field-independent basis, Debye):
    X=             -0.0085    Y=             -3.9395    Z=             -0.5815  Tot=              3.9822
 Quadrupole moment (field-independent basis, Debye-Ang):
   XX=            -63.0938   YY=            -78.3590   ZZ=            -70.7511
   XY=              0.0076   XZ=             -0.0029   YZ=              0.1825
 Traceless Quadrupole moment (field-independent basis, Debye-Ang):
   XX=              7.6408   YY=             -7.6244   ZZ=             -0.0165
   XY=              0.0076   XZ=             -0.0029   YZ=              0.1825
 Octapole moment (field-independent basis, Debye-Ang**2):
  XXX=             -0.0841  YYY=             -4.6682  ZZZ=              4.3106  XYY=             -0.1348
  XXY=             -0.8833  XXZ=              4.6564  XZZ=             -0.0472  YZZ=             -0.3894
  YYZ=             -5.9471  XYZ=             -0.2205
 Hexadecapole moment (field-independent basis, Debye-Ang**3):
 XXXX=          -4752.7850 YYYY=           -319.9089 ZZZZ=           -161.9031 XXXY=              0.9192
 XXXZ=              2.5835 YYYX=              1.4558 YYYZ=              5.7173 ZZZX=             -1.7755
 ZZZY=              3.1715 XXYY=           -854.3477 XXZZ=           -791.9639 YYZZ=            -79.6762
 XXYZ=             28.6738 YYXZ=              0.8207 ZZXY=             -1.4591
 N-N= 6.279085006656D+02 E-N=-3.107746699653D+03  KE= 7.838600942726D+02
 No NMR shielding tensors so no spin-rotation constants.
 Leave Link  601 at Mon Oct 14 01:45:17 2019, MaxMem= 10737418240 cpu:               2.4 elap:               0.1
 (Enter /apps/cent7/gaussian/g16-A.03/g16-haswell/g16/l701.exe)
 ... and contract with generalized density number  0.
 Compute integral first derivatives.
 Leave Link  701 at Mon Oct 14 01:45:17 2019, MaxMem= 10737418240 cpu:               2.7 elap:               0.1
 (Enter /apps/cent7/gaussian/g16-A.03/g16-haswell/g16/l702.exe)
 L702 exits ... SP integral derivatives will be done elsewhere.
 Leave Link  702 at Mon Oct 14 01:45:17 2019, MaxMem= 10737418240 cpu:               1.1 elap:               0.1
 (Enter /apps/cent7/gaussian/g16-A.03/g16-haswell/g16/l703.exe)
 Integral derivatives from FoFJK, PRISM(SPDF).
 Compute integral first derivatives, UseDBF=F ICtDFT=           0.
 Calling FoFJK, ICntrl=      2127 FMM=F ISym2X=0 I1Cent= 0 IOpClX= 0 NMat=1 NMatS=1 NMatT=0.
 FoFJK:  IHMeth= 1 ICntrl=    2127 DoSepK=F KAlg= 0 I1Cent=           0 FoldK=F
 IRaf=         0 NMat=       1 IRICut=       1 DoRegI=T DoRafI=F ISym2E= 0 IDoP0=0 IntGTp=1.
 FoFCou: FMM=F IPFlag=           0 FMFlag=      100000 FMFlg1=         800
         NFxFlg=           0 DoJE=F BraDBF=F KetDBF=F FulRan=T
         wScrn=  0.000000 ICntrl=      2127 IOpCl=  0 I1Cent=           0 NGrid=           0
         NMat0=    1 NMatS0=      1 NMatT0=    0 NMatD0=    1 NMtDS0=    0 NMtDT0=    0
 Symmetry not used in FoFCou.
 Leave Link  703 at Mon Oct 14 01:45:18 2019, MaxMem= 10737418240 cpu:              24.1 elap:               1.0
 (Enter /apps/cent7/gaussian/g16-A.03/g16-haswell/g16/l716.exe)
 Dipole        =-3.33773417D-03-1.54991654D+00-2.28782602D-01
 ***** Axes restored to original set *****
 -------------------------------------------------------------------
 Center     Atomic                   Forces (Hartrees/Bohr)
 Number     Number              X              Y              Z
 -------------------------------------------------------------------
      1        6           0.001038126   -0.004633936    0.009326988
      2        6          -0.020462423    0.006725250    0.007990581
      3        6           0.012326294   -0.005191318    0.001002890
      4        6          -0.004460510    0.009863178   -0.017181831
      5       16          -0.021751027    0.054389791    0.013476821
      6        6          -0.007782896   -0.000205038    0.018759224
      7        6           0.013206593   -0.003615953   -0.001596213
      8        6          -0.018318286    0.010065616   -0.007814255
      9        6           0.002415455    0.001504191   -0.008387597
     10        8           0.007231056   -0.050312060   -0.013642841
     11        1          -0.003984132    0.002221233   -0.004502283
     12        1          -0.003210751    0.004571992   -0.004058433
     13        1          -0.001542008    0.001719296   -0.004958727
     14        1           0.021860678   -0.000779486    0.002189264
     15        1           0.014127141   -0.013912799   -0.000918235
     16        1          -0.020158571   -0.000164268   -0.000654348
     17        1          -0.015602427    0.013175625    0.001217906
     18        1           0.014829589   -0.005357294    0.011363766
     19        1           0.011657431   -0.012919076    0.008584647
     20        1           0.016735132    0.000645828   -0.009791411
     21        1           0.013594373   -0.007031767   -0.011970526
     22        1          -0.020116887    0.000581054   -0.002958103
     23        1          -0.015582391    0.012488975    0.003433743
     24        1           0.021369921   -0.000207198    0.000514847
     25        1           0.014766472   -0.014095339   -0.004519666
     26        1          -0.003766713   -0.000286238    0.004963712
     27        1          -0.003466848   -0.000034424    0.005034426
     28        1          -0.004952391    0.000794164    0.005095656
 -------------------------------------------------------------------
 Cartesian Forces:  Max     0.054389791 RMS     0.012894535
 Leave Link  716 at Mon Oct 14 01:45:18 2019, MaxMem= 10737418240 cpu:               0.6 elap:               0.0
 (Enter /apps/cent7/gaussian/g16-A.03/g16-haswell/g16/l103.exe)

 GradGradGradGradGradGradGradGradGradGradGradGradGradGradGradGradGradGrad
 Berny optimization.
 FormGI is forming the generalized inverse of G from B-inverse, IUseBI=4.
 GSVD:  received Info=                   1 from GESDD.
 Internal  Forces:  Max     0.052609681 RMS     0.008457316
 Search for a local minimum.
 Step number   1 out of a maximum of  154
 All quantities printed in internal units (Hartrees-Bohrs-Radians)
 RMS Force = .84573D-02 SwitMx=.10000D-02 MixMth= 1
 Mixed Optimization -- RFO/linear search
 Second derivative matrix not updated -- first step.
 ITU=  0
     Eigenvalues ---    0.00230   0.00230   0.00230   0.00230   0.00230
     Eigenvalues ---    0.00230   0.00230   0.00230   0.03851   0.03852
     Eigenvalues ---    0.03980   0.03981   0.04772   0.04773   0.05111
     Eigenvalues ---    0.05111   0.05131   0.05150   0.05151   0.05714
     Eigenvalues ---    0.05714   0.05715   0.05715   0.05877   0.05877
     Eigenvalues ---    0.07737   0.07738   0.07939   0.07940   0.08231
     Eigenvalues ---    0.08231   0.11767   0.11768   0.11924   0.11924
     Eigenvalues ---    0.12167   0.12167   0.14547   0.16000   0.16000
     Eigenvalues ---    0.16000   0.16000   0.16000   0.16000   0.22497
     Eigenvalues ---    0.22497   0.22503   0.22504   0.22533   0.22533
     Eigenvalues ---    0.23664   0.23664   0.25000   0.27618   0.27622
     Eigenvalues ---    0.27772   0.27774   0.27978   0.27984   0.34802
     Eigenvalues ---    0.34804   0.34805   0.34805   0.34807   0.34807
     Eigenvalues ---    0.34809   0.34810   0.34811   0.34811   0.34812
     Eigenvalues ---    0.34813   0.34814   0.34814   0.34815   0.34815
     Eigenvalues ---    0.34818   0.34819   0.50702
 RFO step:  Lambda=-4.77478983D-02 EMin= 2.30000000D-03
 Linear search not attempted -- first point.
 Maximum step size (   0.300) exceeded in Quadratic search.
    -- Step size scaled by   0.733
 Iteration  1 RMS(Cart)=  0.08150825 RMS(Int)=  0.00168817
 Iteration  2 RMS(Cart)=  0.00387045 RMS(Int)=  0.00054720
 Iteration  3 RMS(Cart)=  0.00000396 RMS(Int)=  0.00054719
 Iteration  4 RMS(Cart)=  0.00000002 RMS(Int)=  0.00054719
 ITry= 1 IFail=0 DXMaxC= 2.68D-01 DCOld= 1.00D+10 DXMaxT= 3.00D-01 DXLimC= 3.00D+00 Rises=F
 Variable       Old X    -DE/DX   Delta X   Delta X   Delta X     New X
                                 (Linear)    (Quad)   (Total)
    R1        2.92186   0.00841   0.00000   0.01882   0.01882   2.94068
    R2        2.05977   0.00268   0.00000   0.00496   0.00496   2.06473
    R3        2.05980   0.00369   0.00000   0.00683   0.00683   2.06663
    R4        2.05986   0.00236   0.00000   0.00436   0.00436   2.06422
    R5        2.92973   0.00038   0.00000   0.00085   0.00085   2.93059
    R6        2.05989   0.00307   0.00000   0.00568   0.00568   2.06557
    R7        2.05971   0.00301   0.00000   0.00558   0.00558   2.06529
    R8        2.92635   0.00308   0.00000   0.00694   0.00694   2.93329
    R9        2.05982   0.00239   0.00000   0.00442   0.00442   2.06424
   R10        2.05989   0.00449   0.00000   0.00831   0.00831   2.06820
   R11        3.46431  -0.00328   0.00000  -0.00844  -0.00844   3.45586
   R12        2.05978   0.00389   0.00000   0.00719   0.00719   2.06697
   R13        2.05997   0.00309   0.00000   0.00572   0.00572   2.06569
   R14        3.46432  -0.00327   0.00000  -0.00844  -0.00844   3.45588
   R15        3.02863  -0.05261   0.00000  -0.06948  -0.06948   2.95915
   R16        2.92639   0.00307   0.00000   0.00690   0.00690   2.93329
   R17        2.05982   0.00389   0.00000   0.00720   0.00720   2.06701
   R18        2.05970   0.00318   0.00000   0.00589   0.00589   2.06558
   R19        2.92982   0.00050   0.00000   0.00113   0.00113   2.93095
   R20        2.05976   0.00250   0.00000   0.00462   0.00462   2.06438
   R21        2.05978   0.00435   0.00000   0.00805   0.00805   2.06783
   R22        2.92173   0.01117   0.00000   0.02498   0.02498   2.94670
   R23        2.05993   0.00289   0.00000   0.00535   0.00535   2.06528
   R24        2.05994   0.00258   0.00000   0.00477   0.00477   2.06470
   R25        2.05983   0.00232   0.00000   0.00429   0.00429   2.06411
   R26        2.05984   0.00217   0.00000   0.00402   0.00402   2.06386
   R27        2.05993   0.00355   0.00000   0.00657   0.00657   2.06650
    A1        1.91073   0.00609   0.00000   0.02162   0.02141   1.93213
    A2        1.91070   0.00612   0.00000   0.02172   0.02150   1.93220
    A3        1.91067   0.00448   0.00000   0.01550   0.01533   1.92600
    A4        1.91059  -0.00589   0.00000  -0.02021  -0.02046   1.89013
    A5        1.91051  -0.00538   0.00000  -0.01927  -0.01943   1.89107
    A6        1.91061  -0.00541   0.00000  -0.01937  -0.01953   1.89108
    A7        1.95868  -0.01225   0.00000  -0.02011  -0.02003   1.93865
    A8        1.85238   0.00653   0.00000   0.02823   0.02831   1.88068
    A9        1.85244   0.00672   0.00000   0.02909   0.02916   1.88160
   A10        1.85419   0.00538   0.00000   0.02123   0.02132   1.87552
   A11        1.85423   0.00519   0.00000   0.02038   0.02048   1.87471
   A12        2.09446  -0.01317   0.00000  -0.08108  -0.08099   2.01347
   A13        1.98103  -0.01931   0.00000  -0.04050  -0.04005   1.94097
   A14        1.84897   0.00827   0.00000   0.03077   0.03107   1.88004
   A15        1.84894   0.00702   0.00000   0.02629   0.02666   1.87560
   A16        1.84809   0.00662   0.00000   0.02331   0.02368   1.87176
   A17        1.84804   0.00835   0.00000   0.03188   0.03221   1.88025
   A18        2.09428  -0.01364   0.00000  -0.07801  -0.07809   2.01619
   A19        1.92392  -0.01612   0.00000  -0.03185  -0.03103   1.89289
   A20        1.80777   0.01479   0.00000   0.06839   0.06771   1.87548
   A21        1.80769   0.01444   0.00000   0.06572   0.06501   1.87270
   A22        1.91033  -0.00049   0.00000  -0.01344  -0.01321   1.89711
   A23        1.91034  -0.00090   0.00000  -0.01653  -0.01629   1.89405
   A24        2.09443  -0.01159   0.00000  -0.06314  -0.06661   2.02782
   A25        1.85583  -0.03269   0.00000  -0.08697  -0.08744   1.76840
   A26        1.83696   0.00578   0.00000   0.00186   0.00097   1.83793
   A27        1.83691   0.00581   0.00000   0.00200   0.00110   1.83800
   A28        1.92389  -0.01607   0.00000  -0.03171  -0.03090   1.89299
   A29        1.91037  -0.00048   0.00000  -0.01340  -0.01318   1.89719
   A30        1.91032  -0.00091   0.00000  -0.01653  -0.01629   1.89403
   A31        1.80774   0.01473   0.00000   0.06811   0.06743   1.87517
   A32        1.80776   0.01446   0.00000   0.06582   0.06511   1.87287
   A33        2.09440  -0.01159   0.00000  -0.06312  -0.06659   2.02781
   A34        1.98102  -0.01918   0.00000  -0.04013  -0.03969   1.94133
   A35        1.84809   0.00648   0.00000   0.02297   0.02333   1.87142
   A36        1.84805   0.00848   0.00000   0.03240   0.03272   1.88077
   A37        1.84888   0.00841   0.00000   0.03156   0.03185   1.88074
   A38        1.84888   0.00675   0.00000   0.02496   0.02533   1.87421
   A39        2.09443  -0.01361   0.00000  -0.07797  -0.07805   2.01639
   A40        1.95872  -0.01206   0.00000  -0.01940  -0.01934   1.93938
   A41        1.85420   0.00521   0.00000   0.02043   0.02050   1.87470
   A42        1.85422   0.00478   0.00000   0.01807   0.01815   1.87238
   A43        1.85247   0.00680   0.00000   0.03019   0.03024   1.88271
   A44        1.85246   0.00700   0.00000   0.03066   0.03072   1.88318
   A45        2.09431  -0.01329   0.00000  -0.08208  -0.08201   2.01230
   A46        1.91068   0.00590   0.00000   0.02080   0.02056   1.93125
   A47        1.91072   0.00573   0.00000   0.02005   0.01982   1.93054
   A48        1.91067   0.00661   0.00000   0.02346   0.02320   1.93387
   A49        1.91059  -0.00591   0.00000  -0.02111  -0.02131   1.88928
   A50        1.91061  -0.00615   0.00000  -0.02141  -0.02166   1.88895
   A51        1.91053  -0.00618   0.00000  -0.02180  -0.02203   1.88850
    D1       -1.75793   0.00061   0.00000   0.01029   0.01026  -1.74767
    D2        0.26028   0.00459   0.00000   0.04203   0.04200   0.30227
    D3        2.50697  -0.00326   0.00000  -0.02095  -0.02097   2.48600
    D4        0.33651   0.00087   0.00000   0.01209   0.01211   0.34862
    D5        2.35472   0.00485   0.00000   0.04383   0.04385   2.39857
    D6       -1.68177  -0.00300   0.00000  -0.01915  -0.01912  -1.70089
    D7        2.43094   0.00073   0.00000   0.01116   0.01116   2.44210
    D8       -1.83404   0.00472   0.00000   0.04290   0.04289  -1.79115
    D9        0.41265  -0.00314   0.00000  -0.02008  -0.02008   0.39258
   D10       -3.13902   0.00032   0.00000   0.00125   0.00127  -3.13775
   D11       -1.11857   0.00330   0.00000   0.02723   0.02714  -1.09143
   D12        1.12379  -0.00397   0.00000  -0.03234  -0.03227   1.09152
   D13        1.12706  -0.00434   0.00000  -0.03473  -0.03471   1.09235
   D14       -3.13568  -0.00137   0.00000  -0.00874  -0.00884   3.13867
   D15       -0.89332  -0.00864   0.00000  -0.06831  -0.06825  -0.96157
   D16       -1.12182   0.00511   0.00000   0.03775   0.03778  -1.08404
   D17        0.89862   0.00809   0.00000   0.06374   0.06365   0.96227
   D18        3.14098   0.00082   0.00000   0.00417   0.00424  -3.13796
   D19       -3.11296  -0.00036   0.00000  -0.00582  -0.00581  -3.11877
   D20       -1.07073  -0.00039   0.00000   0.00068  -0.00016  -1.07089
   D21        1.12802   0.00033   0.00000  -0.00730  -0.00640   1.12162
   D22        1.14925  -0.00432   0.00000  -0.03624  -0.03619   1.11306
   D23       -3.09170  -0.00435   0.00000  -0.02974  -0.03054  -3.12224
   D24       -0.89295  -0.00363   0.00000  -0.03771  -0.03678  -0.92973
   D25       -1.09205   0.00316   0.00000   0.02447   0.02437  -1.06768
   D26        0.95018   0.00313   0.00000   0.03097   0.03002   0.98020
   D27       -3.13425   0.00385   0.00000   0.02300   0.02378  -3.11047
   D28       -3.11448   0.00252   0.00000   0.01960   0.01937  -3.09511
   D29       -1.17120  -0.00185   0.00000  -0.01279  -0.01260  -1.18380
   D30        1.19126  -0.00614   0.00000  -0.03747  -0.03717   1.15409
   D31        3.13454  -0.01052   0.00000  -0.06986  -0.06914   3.06540
   D32       -1.13713   0.01055   0.00000   0.07177   0.07106  -1.06607
   D33        0.80615   0.00617   0.00000   0.03937   0.03910   0.84524
   D34        3.11450  -0.00251   0.00000  -0.01948  -0.01925   3.09526
   D35       -1.19127   0.00612   0.00000   0.03735   0.03706  -1.15421
   D36        1.13710  -0.01056   0.00000  -0.07183  -0.07113   1.06597
   D37        1.17119   0.00189   0.00000   0.01301   0.01281   1.18401
   D38       -3.13458   0.01051   0.00000   0.06984   0.06912  -3.06546
   D39       -0.80621  -0.00617   0.00000  -0.03935  -0.03907  -0.84528
   D40        3.11296   0.00024   0.00000   0.00501   0.00498   3.11794
   D41       -1.14937   0.00435   0.00000   0.03635   0.03631  -1.11306
[...]
 0097376,0.00046973,-0.00024632,0.00126484,-0.00225478,0.05061493,-0.28
 438438,-0.05720890,0.00314520,-0.01287603,-0.00191507,-0.00035410,0.00
 035827,-0.00090065,-0.00027564,0.00004876,0.00112546,-0.00000186,-0.00
 000086,-0.00000010,-0.00000154,0.00000313,0.00000049,0.00000020,0.0000
 0361,-0.00000908,-0.00000266,0.00000179,0.00000363,0.00000180,0.000000
 02,0.00000045,-0.00001370,0.00002236,0.00001560,-0.00000008,-0.0000071
 0,-0.00000086,0.00001464,0.00004975,-0.00005926,-0.00001898,0.00000400
 ,0.00001291,0.00029477,0.00102741,0.00110808,0.00014195,0.00063629,-0.
 00043673,-0.05872998,0.30727360,-0.00002092,0.00000456,0.00000585,0.00
 004872,-0.00001071,0.00002937,-0.00017745,0.00009850,0.00004734,0.0001
 0853,0.00017988,-0.00008473,0.00077397,-0.00501776,-0.00185798,0.00614
 792,-0.02936567,-0.01012396,0.01220897,-0.05456398,-0.06119881,-0.0054
 8522,0.02512162,0.00461835,-0.00018116,0.00092221,0.00174979,0.0000323
 1,0.00234157,0.00231556,0.00000436,-0.00000046,0.00000054,0.00000241,0
 .00000246,-0.00000330,-0.00000073,-0.00000537,0.00001287,-0.00001045,0
 .00000719,0.00001571,0.00000235,-0.00000211,-0.00000445,0.00000646,0.0
 0006495,-0.00010946,0.00001554,0.00001176,-0.00001302,-0.00016151,0.00
 014981,0.00027082,-0.00003031,-0.00005866,0.00009435,0.00310908,0.0005
 9146,-0.00549502,-0.00037087,0.00064692,0.00105172,-0.01420394,0.06073
 842,0.07262142,-0.00001179,0.00000112,0.00000043,0.00000184,-0.0000115
 1,-0.00001550,0.00002327,0.00003634,0.00003826,0.00033479,0.00018573,0
 .00028332,-0.00049925,0.00014935,-0.00005306,-0.01393530,-0.00819096,-
 0.00007616,-0.23491630,-0.10818438,-0.01768331,-0.01756020,-0.00944420
 ,-0.00305137,0.00068821,-0.00024272,0.00121277,0.00021318,-0.00044803,
 -0.00009512,0.00000582,0.00000097,0.00000186,0.00000066,0.00000038,-0.
 00000151,-0.00000207,-0.00000316,0.00000754,-0.00000605,0.00000369,0.0
 0000484,0.00000053,0.00000390,0.00000427,-0.00000031,0.00000683,-0.000
 01068,0.00000347,-0.00001043,0.00002632,-0.00004018,-0.00000219,0.0000
 0924,0.00015578,0.00006594,-0.00027722,0.00038885,0.00033735,-0.000319
 13,-0.00058077,0.00038698,0.00285251,0.00714239,0.00306837,0.00035718,
 0.25819459,-0.00000796,-0.00000125,0.00000008,0.00000621,-0.00000799,0
 .00000156,-0.00004355,0.00001189,0.00001230,0.00025856,0.00017357,0.00
 031228,-0.00128447,-0.00026140,-0.00040383,0.00172227,0.00006394,0.000
 66867,-0.10843068,-0.11636044,-0.01195571,0.01294140,0.00699406,0.0021
 3913,0.00009929,0.00033036,-0.00059844,0.00056694,-0.00014446,0.000480
 72,0.00000218,0.00000206,0.00000162,-0.00000061,-0.00000082,-0.0000006
 4,0.00000054,-0.00000133,0.00000292,0.00000026,-0.00000099,-0.00000039
 ,0.00000140,-0.00000021,0.00000082,-0.00000480,-0.00000398,-0.00000627
 ,0.00000373,0.00000809,0.00000981,-0.00000294,-0.00001789,-0.00001330,
 0.00009767,-0.00000979,-0.00012466,0.00041570,0.00065710,0.00073048,0.
 00042428,0.00144170,-0.00031689,-0.02800359,-0.01467824,-0.00255375,0.
 11940954,0.12075740,-0.00001160,0.00000291,0.00000752,0.00003666,-0.00
 002103,0.00004484,-0.00021949,-0.00004404,0.00002000,0.00015580,-0.000
 17991,-0.00010818,0.00136197,0.00016331,0.00128505,0.02773567,0.016855
 13,0.00093220,-0.01888167,-0.01260838,-0.05096677,-0.02216913,-0.01298
 026,-0.00373223,-0.00100685,-0.00101444,0.00145329,-0.00044676,0.00026
 170,0.00002625,-0.00000095,0.00000054,-0.00000121,0.00000007,-0.000000
 57,-0.00000026,0.00000259,-0.00000244,0.00000337,0.00000176,0.00000157
 ,-0.00000058,-0.00000223,-0.00000519,0.00000064,0.00000037,0.00000805,
 -0.00001858,-0.00001745,0.00002539,-0.00004818,0.00002400,0.00001279,0
 .00001218,-0.00029252,-0.00013407,0.00003570,-0.00079942,-0.00029897,0
 .00124506,0.00292506,-0.00019143,-0.00553503,-0.00701062,-0.00344766,-
 0.00101835,0.01954456,0.01032306,0.05918482,0.00000636,-0.00000136,-0.
 00000137,-0.00001211,0.00000337,-0.00000198,0.00001964,0.00000116,0.00
 000139,0.00001137,0.00000745,0.00000963,-0.00021925,0.00020521,0.00021
 263,0.00023114,-0.00046419,0.00099903,-0.00504349,0.01951918,0.0034557
 5,-0.06410626,0.05098435,0.01274374,-0.00411548,0.01589712,0.00483679,
 0.00007757,-0.00017200,-0.00028091,-0.00000199,0.00000029,-0.00000034,
 -0.00000108,-0.00000034,0.00000052,0.00000078,0.00000154,-0.00000425,0
 .00000328,-0.00000157,-0.00000205,0.00000003,-0.00000102,-0.00000007,-
 0.00000213,-0.00000591,0.00000531,-0.00000496,0.00000129,-0.00000208,0
 .00001259,-0.00000396,-0.00000341,0.00000444,-0.00000470,-0.00000914,0
 .00040064,-0.00022241,-0.00040460,0.00003584,-0.00011375,-0.00016063,-
 0.00147849,0.00156546,-0.00297842,0.00046658,-0.00012250,0.00089778,0.
 06637713,-0.00001359,0.00000301,0.00000626,0.00003067,-0.00002170,0.00
 000616,-0.00006852,0.00002030,0.00002286,0.00004180,-0.00010358,0.0000
 1505,0.00022151,-0.00023817,0.00007577,-0.00018932,0.00038483,-0.00114
 537,0.00315780,-0.01372955,-0.00212957,0.05147691,-0.27475669,-0.05641
 363,-0.00029840,0.00086670,0.00004268,-0.00012485,0.00040137,0.0002448
 9,0.00000252,-0.00000034,-0.00000062,0.00000019,0.00000334,-0.00000183
 ,-0.00000097,-0.00000407,0.00000863,-0.00000334,0.00000933,0.00000675,
 -0.00000044,-0.00000214,-0.00000120,-0.00000209,0.00001118,-0.00001130
 ,0.00000611,-0.00000070,-0.00000030,0.00000015,0.00002404,0.00002078,-
 0.00000609,-0.00000718,0.00000940,-0.00024805,0.00027928,0.00100526,0.
 00000949,-0.00006300,0.00001747,0.00174843,0.00066739,0.00234092,0.000
 20782,0.00098545,0.00011005,-0.05935170,0.29875788,-0.00000009,-0.0000
 0061,0.00000053,-0.00000027,-0.00000730,0.00000038,-0.00000818,0.00000
 386,0.00001034,0.00006759,-0.00002842,0.00004378,-0.00030253,0.0004400
 1,0.00051082,-0.00024402,0.00095959,0.00184292,-0.00565115,0.02561367,
 0.00429910,0.01271358,-0.05639272,-0.06237432,0.00709457,-0.02963068,-
 0.00884923,0.00009157,-0.00030738,-0.00053252,-0.00000033,0.00000016,-
 0.00000003,-0.00000050,0.00000003,0.00000051,0.00000051,-0.00000006,-0
 .00000077,0.00000190,0.00000021,-0.00000247,-0.00000044,-0.00000014,0.
 00000055,0.00000062,-0.00000811,0.00000824,-0.00000276,0.00000088,-0.0
 0000196,0.00001312,-0.00001323,-0.00002172,0.00000149,0.00000129,-0.00
 001388,0.00015725,-0.00051076,-0.00025029,0.00005591,-0.00001015,-0.00
 006275,-0.00296391,0.00196472,-0.00367522,0.00062106,-0.00078438,0.000
 88170,-0.01442214,0.06023702,0.07229489,0.00001263,-0.00000369,-0.0000
 0701,-0.00003599,0.00000995,-0.00001607,0.00006350,-0.00001721,-0.0000
 2174,-0.00004413,0.00013003,-0.00006822,0.00021252,0.00003359,0.000357
 28,0.00040130,-0.00020098,0.00129137,-0.01766707,-0.00931962,-0.003062
 90,-0.23550780,-0.10862326,-0.01787727,-0.01375093,-0.00804758,-0.0003
 6849,0.00009088,0.00005085,-0.00014982,0.00000163,0.00000096,0.0000027
 3,-0.00000252,0.00000126,0.00000049,0.,0.00000269,-0.00000753,0.000000
 04,-0.00000063,0.,0.00000748,0.00000346,0.00000207,-0.00000507,0.00000
 271,-0.00000131,0.00000066,0.00000027,0.00000251,-0.00000740,0.0000012
 4,0.00001137,0.00002741,0.00001133,-0.00004637,0.00004588,0.00006693,-
 0.00004871,0.00073863,0.00018953,-0.00084599,0.00046551,0.00009210,0.0
 0059239,-0.00113439,0.00209506,-0.00284393,0.00737370,0.00318177,0.000
 44452,0.25793188,0.00000273,0.00000096,-0.00000220,-0.00000970,0.00000
 258,-0.00000313,0.00003080,-0.00000144,-0.00001959,-0.00009932,-0.0000
 2539,-0.00007889,0.00023780,0.00014521,-0.00003967,0.00028860,0.000261
 87,-0.00047717,0.01302151,0.00716532,0.00205343,-0.10917418,-0.1166269
 2,-0.01148463,0.00139244,0.00054700,0.00014544,-0.00007454,-0.00007006
 ,-0.00009120,0.00000167,-0.00000008,0.00000155,0.00000008,-0.00000109,
 0.00000047,-0.00000047,0.00000035,-0.00000126,-0.00000073,-0.00000190,
 -0.00000161,0.00000382,0.00000403,0.00000055,-0.00000007,-0.00000216,0
 .00000374,0.00000476,-0.00000221,0.00000433,-0.00000404,-0.00000287,-0
 .00000304,-0.00001190,0.00001669,0.00001680,-0.00010705,-0.00005282,0.
 00008210,-0.00016695,0.00014945,-0.00025839,-0.00007771,0.00091563,-0.
 00068523,0.00212574,0.00002375,0.00253558,-0.02767419,-0.01618651,-0.0
 0263381,0.11947676,0.12187297,0.00000329,-0.00000050,-0.00000254,-0.00
 001321,0.00000032,-0.00000949,0.00002038,0.00000095,0.00000913,0.00007
 545,0.00007959,0.00001722,0.00003126,0.00021754,0.00038984,-0.00129127
 ,-0.00106890,0.00129430,-0.02221016,-0.01287892,-0.00423910,-0.0180785
 3,-0.01137580,-0.04998049,0.02769009,0.01638276,0.00123917,0.00007807,
 -0.00013038,-0.00017431,0.00000076,0.00000012,0.00000102,-0.00000050,0
 .00000001,0.00000015,0.00000002,0.00000077,-0.00000195,-0.00000056,-0.
 00000048,0.00000031,0.00000131,0.00000202,0.00000132,-0.00000142,0.000
 00164,-0.00000284,-0.00000197,-0.00000234,0.00000252,-0.00000537,-0.00
 000131,0.00000415,0.00004271,0.00001855,-0.00005850,0.00000767,0.00001
 851,-0.00006619,0.00064582,0.00039432,-0.00038823,0.00087620,0.0000526
 4,0.00092365,-0.00269383,0.00251131,-0.00359992,-0.00689984,-0.0039011
 4,-0.00104622,0.01983417,0.01011985,0.05872191,-0.00000827,0.00000177,
 0.00000388,0.00001641,-0.00001216,0.00001014,-0.00006035,0.00001200,0.
 00003078,0.00011584,-0.00007166,0.00008636,-0.00023522,0.00015615,0.00
 026514,0.00078992,-0.00023783,0.00071872,-0.00166790,0.00023638,0.0025
 7656,0.01066128,-0.00819390,0.01336440,-0.13593887,0.06133082,-0.10852
 561,0.00002456,-0.00008383,-0.00008849,0.00000025,0.00000034,0.0000001
 0,0.00000015,-0.00000070,-0.00000015,0.00000137,-0.00000174,0.00000276
 ,-0.00000002,0.00000083,0.00000008,-0.00000144,-0.00000071,-0.00000032
 ,0.00000027,-0.00000037,-0.00000232,-0.00000006,0.00000269,-0.00000221
 ,0.00000446,0.00000306,-0.00000283,-0.00000085,-0.00000447,-0.00000653
 ,0.00002395,0.00001963,-0.00003882,0.00003360,-0.00003793,-0.00009921,
 -0.00017364,-0.00005272,-0.00001658,0.00027372,0.00018904,0.00028969,0
 .00056820,-0.00005720,-0.00086856,0.00084753,-0.00016050,-0.00074351,0
 .14466034,-0.00000697,0.00000216,0.00000151,0.00001469,-0.00000496,0.0
 0000002,-0.00002019,0.00000574,-0.00000454,0.00001299,-0.00000174,0.00
 000781,-0.00003726,0.00003597,-0.00009478,0.00024685,0.00047229,0.0000
 2112,-0.00028083,0.00037876,-0.00015410,-0.00133632,-0.00044284,-0.001
 72175,0.06117802,-0.09333052,0.07639671,0.00000112,-0.00002247,0.00006
 181,0.00000115,-0.00000013,-0.00000044,0.00000144,-0.00000062,-0.00000
 078,-0.00000114,-0.00000165,0.00000555,-0.00000112,0.00000079,0.000000
 86,-0.00000174,-0.00000041,-0.00000016,0.00000256,-0.00000038,-0.00000
 250,0.00000131,0.00000005,0.00000080,-0.00000254,-0.00000233,-0.000000
 17,-0.00000225,0.00000078,-0.00000032,-0.00006252,-0.00000838,0.000105
 48,0.00001270,-0.00002264,-0.00002771,-0.00019886,0.00047234,-0.000325
 06,0.00031626,-0.00000899,0.00016633,-0.00050055,0.00040392,0.00004498
 ,-0.00002323,-0.00013711,0.00023943,-0.06768502,0.09597061,0.00004649,
 -0.00001384,-0.00001456,-0.00009285,0.00005287,-0.00001683,0.00020040,
 -0.00006800,-0.00005109,-0.00027439,0.00019447,-0.00019400,0.00061334,
 -0.00053525,-0.00022012,-0.00151234,0.00094508,-0.00087992,0.00497863,
 -0.00118391,-0.00417652,-0.01802733,0.01207061,-0.02031548,-0.10782542
 ,0.07609375,-0.18261450,-0.00004071,0.00033473,0.00005077,-0.00000728,
 -0.00000026,0.00000113,-0.00000535,0.00000308,0.00000360,0.00000270,0.
 00001170,-0.00002910,0.00000500,-0.00000788,-0.00000484,0.00000784,0.0
 0000166,0.00000026,-0.00000855,0.00000107,0.00001537,-0.00000863,-0.00
 000409,-0.00000003,0.00000107,-0.00000470,0.00000487,0.00000258,-0.000
 00172,0.00000945,-0.00003917,-0.00007527,-0.00003081,0.00004124,0.0000
 7787,-0.00003494,0.00016602,0.00004177,0.00025799,0.00014359,-0.000253
 35,0.00029942,-0.00040792,-0.00066343,0.00090897,0.00015850,0.00031360
 ,0.00119955,0.11668424,-0.08405815,0.19931283,-0.00000640,0.00000241,0
 .00000154,0.00001353,-0.00000378,0.00000158,-0.00002093,0.00000820,0.0
 0000146,0.00001754,-0.00000756,0.00000310,-0.00001201,0.00004053,-0.00
 005363,-0.00001962,-0.00009145,-0.00013493,0.00024120,-0.00027539,-0.0
 0093295,-0.00440157,0.01650668,0.00469457,-0.06224488,0.05226861,0.013
 90081,-0.00001749,-0.00008081,0.00002127,0.00000072,-0.00000036,-0.000
 00052,0.00000166,-0.00000123,-0.00000038,-0.00000074,-0.00000145,0.000
 00470,-0.00000099,-0.00000042,0.00000001,-0.00000251,0.00000006,0.0000
 0007,0.00000341,-0.00000061,-0.00000170,0.00000041,-0.00000056,-0.0000
 0033,-0.00000479,-0.00000258,-0.00000126,-0.00000576,0.00000267,0.0000
 0281,-0.00000212,-0.00002312,-0.00011632,-0.00003605,0.00001190,0.0000
 2886,0.00043863,-0.00028232,0.00017961,0.00005678,-0.00013498,0.000017
 21,-0.00088164,-0.00020219,0.00347098,0.00020539,0.00029624,-0.0007307
 4,-0.00431029,0.01826461,0.00597054,0.06314984,0.00000750,-0.00000360,
 -0.00000183,-0.00001316,0.00000566,-0.00000278,0.00002892,-0.00001192,
 -0.00000861,-0.00004394,0.00003050,-0.00002421,0.00008813,-0.00016573,
 -0.00005932,-0.00017287,0.00040748,0.00000725,-0.00022880,0.00058622,0
 .00035933,0.00024032,0.00070865,-0.00006392,0.05251044,-0.28150474,-0.
 06456565,-0.00001353,0.00013020,0.00004302,-0.00000105,-0.00000033,-0.
 00000015,-0.00000130,0.00000269,0.00000048,0.00000021,0.00000172,-0.00
 000463,0.,0.00000173,0.00000072,0.00000148,-0.00000059,-0.00000021,-0.
 00000162,0.00000272,0.00000115,-0.00000056,-0.00000115,-0.00000010,-0.
 00000124,0.00000256,0.00000502,0.00000053,-0.00000391,0.00000266,-0.00
 004042,-0.00006018,0.00017140,-0.00000351,-0.00000969,-0.00000023,-0.0
 0023391,0.00030600,-0.00061804,0.00005083,-0.00006106,-0.00001743,0.00
 010423,0.00169254,0.00046176,0.00043642,0.00069007,-0.00033636,0.00183
 067,-0.01167328,-0.00306758,-0.05849562,0.30425884,-0.00000252,0.00000
 001,0.00000118,0.00000654,-0.00000350,0.00000022,-0.00001034,0.0000006
 8,-0.00000005,-0.00000462,-0.00000779,0.00000941,0.00002948,-0.0001193
 0,-0.00006405,0.00006332,0.00027025,0.00008897,0.00023244,-0.00174324,
 0.00159720,0.00626840,-0.02945513,-0.00891055,0.01377132,-0.06387684,-
 0.06719983,-0.00002425,0.00016232,0.00012696,0.00000053,-0.00000016,-0
 .00000038,0.00000013,0.00000134,-0.00000061,-0.00000064,-0.00000072,0.
 00000216,-0.00000104,0.00000258,0.00000204,-0.00000015,-0.00000091,-0.
 00000037,-0.00000032,0.00000326,-0.00000336,0.00000153,-0.00000013,0.0
 0000033,-0.00000111,0.00000446,0.00000679,0.00000005,-0.00000387,0.000
 00243,-0.00012356,0.00015310,0.00023584,-0.00000444,-0.00003582,0.0000
 2257,-0.00034724,0.00093903,-0.00032709,-0.00005704,0.00006213,-0.0000
 8359,0.00319567,0.00030678,-0.00531375,-0.00043861,0.00052808,0.001285
 16,-0.00393195,0.02329327,0.00746150,-0.01866653,0.07126842,0.07236500
 ,-0.00001005,0.00000310,0.00000138,0.00001486,-0.00001233,0.00000005,-
 0.00003672,0.00001096,0.00000363,0.00003385,-0.00002469,0.00001179,-0.
 00005381,0.00009865,0.00002096,0.00036058,0.00019135,0.00004682,0.0005
 0581,0.00037970,-0.00100531,-0.01450658,-0.00817387,-0.00052721,-0.239
 00880,-0.11493460,-0.01274272,0.00003674,-0.00007465,0.00000925,0.0000
 0389,0.00000055,0.00000137,0.00000076,-0.00000066,-0.00000083,-0.00000
 102,-0.00000280,0.00000637,-0.00000218,0.00000194,0.00000119,0.0000020
 6,0.00000200,0.00000061,0.00000102,0.00000080,-0.00000458,0.00000558,0
 .00000104,0.00000324,-0.00000592,0.00000069,0.00000189,0.00000165,0.00
 000606,-0.00000388,-0.00003501,0.00000932,0.00001579,0.00008536,0.0000
 5192,-0.00023915,0.00004543,0.00003191,0.00004777,0.00073616,-0.000198
 00,0.00070944,0.00027760,0.00048156,-0.00026979,-0.00027125,0.00067842
 ,0.00336376,-0.01562494,-0.00989316,-0.00077222,0.00783868,0.00395182,
 0.00004495,0.25960626,-0.00000016,-0.00000041,-0.00000077,-0.00000282,
 -0.00000050,0.00000026,-0.00000444,-0.00000198,0.00000142,0.00001993,0
 .00000688,0.00001625,-0.00008519,0.00000934,0.00004921,0.00027875,0.00
 008521,0.00014955,-0.00042811,-0.00017572,-0.00025507,0.00178702,0.000
 54354,0.00031699,-0.11499979,-0.12069988,-0.00732392,0.00005567,-0.000
 01471,-0.00001079,0.00000086,0.00000077,0.00000110,-0.00000066,-0.0000
 0042,0.00000004,0.00000047,0.00000004,-0.00000078,0.00000022,-0.000000
 56,-0.00000048,0.00000221,0.00000078,0.00000023,-0.00000147,-0.0000006
 8,-0.00000035,0.00000134,0.00000196,0.00000170,-0.00000022,-0.00000072
 ,-0.00000067,0.00000697,-0.00000070,-0.00000681,0.00000726,-0.00001381
 ,-0.00002806,0.00006863,-0.00001163,-0.00011476,-0.00011862,-0.0000344
 5,-0.00001543,0.00018046,0.00010943,0.00047941,0.00034952,0.00060305,0
 .00059958,0.00044930,0.00131467,-0.00034420,0.01281735,0.00791506,-0.0
 0020483,-0.02779747,-0.01533140,-0.00174832,0.12741297,0.12569685,-0.0
 0000342,0.00000069,0.00000168,0.00000888,-0.00000308,0.00000280,-0.000
 01578,0.00000546,0.00000488,0.00001055,-0.00002724,0.00002797,-0.00010
 829,-0.00002924,-0.00008267,0.00003618,-0.00016669,0.00000663,0.001289
 25,0.00034190,0.00198813,0.02690430,0.01707072,0.00136924,-0.01324459,
 -0.00760150,-0.05009160,-0.00001044,0.00001928,0.00003825,-0.00000006,
 0.,-0.00000068,0.00000043,-0.00000004,-0.00000033,-0.00000029,-0.00000
 083,0.00000222,0.00000006,0.00000068,0.00000038,-0.00000151,-0.0000011
 5,-0.00000026,0.00000056,-0.00000058,-0.00000033,0.00000017,0.00000071
 ,-0.00000087,0.00000311,0.00000045,-0.00000221,-0.00000292,-0.00000504
 ,0.00001164,0.00002039,-0.00000016,0.00001489,-0.00024234,-0.00009309,
 0.00010608,-0.00010773,0.00003390,-0.00010395,-0.00077380,-0.00024528,
 -0.00031914,-0.00077909,-0.00020832,0.00134241,0.00310656,-0.00002569,
 -0.00551963,-0.01970576,-0.01395520,-0.00094298,-0.00765984,-0.0035501
 8,-0.00130413,0.01127542,0.00843950,0.05345158\\-0.00000173,0.00000522
 ,-0.00000658,0.00000019,-0.00000726,0.00000288,0.00000117,0.00000349,-
 0.00000095,0.00000483,0.00000582,0.00000159,-0.00001127,-0.00001510,-0
 .00000395,0.00000118,0.00000586,0.,-0.00000237,0.00000005,0.00000355,0
 .00000572,0.00000355,-0.00000063,-0.00000259,-0.00000376,0.00000463,0.
 00000600,0.00000323,0.00000159,0.00000120,0.00000082,-0.00000014,-0.00
 000119,0.00000118,-0.00000256,-0.00000148,0.00000183,-0.00000232,0.000
 00272,-0.00000098,0.00000242,-0.00000266,-0.00000099,0.00000210,-0.000
 00131,-0.00000279,-0.00000003,0.00000146,0.00000026,-0.00000244,-0.000
 00036,0.00000161,0.00000246,0.00000152,-0.00000058,-0.00000360,0.00000
 031,0.00000275,-0.00000247,0.00000073,-0.00000293,0.00000432,0.0000005
 4,-0.00000235,0.00000058,0.00000050,-0.00000066,0.00000025,-0.00000111
 ,0.00000111,0.00000029,-0.00000015,0.00000091,-0.00000163,-0.00000034,
 0.00000035,0.00000136,0.00000041,0.00000021,-0.00000109,-0.00000191,-0
 .00000084,0.00000036\\\@


 I WOULD TAKE COUNSEL OF MYSELF.
 I WOULD STOP AND LOOK WITHIN
 AND LOOKING WITHIN, LOOK BACK, ALSO
 THAT I MAY LOOK AHEAD WITH CLEARER UNDERSTANDING
 OF THE WAY I HAVE BEEN MOVING, AND IN WHAT DIRECTION.
 I NEED TO KNOW IF I AM GOING FORWARD OR RETREATING,
 WHETHER I HAVE BEEN WASTING, OR ENJOYING
 THE PRECIOUS MOMENTS OF LIFE.  THERE HAVE BEEN FRICTIONS,
 ANNOYANCES AND SOMETIMES WRATH,
 BUT WERE THEY BECAUSE I WAS RIGHT AND OTHERS WRONG.....
 HAVE I HAD MY THOUGHTS TOO SHARPLY FOCUSED
 ON THAT WHICH PLEASED ME, SERVED MY SELF-ESTEEM,
 UNDERGIRDED MY SECURITY,
 OF WHICH I DID NOT INQUIRE WHETHER IT SERVED OR HAMPERED OTHERS.....
 HAVE I BEEN TRYING TO STOP THE CLOCK
 TO HOLD THE WORLD
 IN PERPETUATION OF WHAT WAS AN IS ALREADY SLIPPING AWAY.....
 HAVE I BEEN CRITICAL OF OTHERS FOR WHAT REALLY NEEDED CHANGING IN ME...
 LET ME INDEED TAKE COUNSEL OF MYSELF
 AND SET MY DIRECTIONS STRAIGHT.

                          R.T. WESTON AS ADAPTED BY D. OSBORN 1967
 Job cpu time:       0 days  0 hours 13 minutes 23.3 seconds.
 Elapsed time:       0 days  0 hours  0 minutes 34.3 seconds.
 File lengths (MBytes):  RWF=    128 Int=      0 D2E=      0 Chk=      5 Scr=      1
 Normal termination of Gaussian 16 at Mon Oct 14 01:47:24 2019.
real 132.12
user 2958.13
sys 23.30
Machine:
brown-a155
brown-a155
brown-a155
brown-a155
brown-a155
brown-a155
brown-a155
brown-a155
brown-a155
brown-a155
brown-a155
brown-a155
brown-a155
brown-a155
brown-a155
brown-a155
brown-a155
brown-a155
brown-a155
brown-a155
brown-a155
brown-a155
brown-a155
brown-a155
