Title Card Required                                                     
Freq      RB3LYP                                                      6-31G(d)            
Number of atoms                            I               29
Info1-9                                    I   N=           9
          68          68        1002           0           0         100
           6          18        -502
Full Title                                 C   N=           2
Title Card Required     
Route                                      C   N=           6
#P opt freq b3lyp/6-31g(d) geom=connectivity temperature=0.0
01          
Charge                                     I                1
Multiplicity                               I                1
Number of electrons                        I               90
Number of alpha electrons                  I               45
Number of beta electrons                   I               45
Number of basis functions                  I              192
Number of independent functions            I              192
Number of point charges in /Mol/           I                0
Number of translation vectors              I                0
Atomic numbers                             I   N=          29
           6           6           6           6          16           6
           6           6           6           8           1           1
           1           1           1           1           1           1
           1           1           1           1           1           1
           1           1           1           1           1
Nuclear charges                            R   N=          29
  6.00000000E+00  6.00000000E+00  6.00000000E+00  6.00000000E+00  1.60000000E+01
  6.00000000E+00  6.00000000E+00  6.00000000E+00  6.00000000E+00  8.00000000E+00
  1.00000000E+00  1.00000000E+00  1.00000000E+00  1.00000000E+00  1.00000000E+00
  1.00000000E+00  1.00000000E+00  1.00000000E+00  1.00000000E+00  1.00000000E+00
  1.00000000E+00  1.00000000E+00  1.00000000E+00  1.00000000E+00  1.00000000E+00
  1.00000000E+00  1.00000000E+00  1.00000000E+00  1.00000000E+00
Current cartesian coordinates              R   N=          87
  9.99636341E+00 -8.14530067E-03  1.30225272E-01  7.47348814E+00 -1.37878108E+00
  5.03374921E-01  5.21520155E+00  2.51468674E-01 -3.40018989E-01  2.72251258E+00
 -1.16738847E+00  6.44116713E-02  3.38171112E-05  6.90704973E-01 -1.00894161E+00
 -2.72250410E+00 -1.16725439E+00  6.45317000E-02 -5.21522180E+00  2.51513507E-01
 -3.40018829E-01 -7.47347324E+00 -1.37879743E+00  5.03344489E-01 -9.99635392E+00
 -8.20377380E-03  1.30177882E-01  1.14332397E-04  3.18958075E+00  8.05960012E-01
  1.03067383E+01  4.70372177E-01 -1.86010902E+00  1.00726649E+01  1.74493492E+00
  1.22960607E+00  1.15663437E+01 -1.20545340E+00  7.43056682E-01  7.47480057E+00
 -3.15516168E+00 -5.68596058E-01  7.24398484E+00 -1.89239940E+00  2.50101497E+00
  5.19430580E+00  2.02614132E+00  7.28315679E-01  5.41820122E+00  7.47542915E-01
 -2.34242236E+00  2.62603390E+00 -2.89507824E+00 -1.08018678E+00  2.40083702E+00
 -1.68382093E+00  2.04589062E+00 -2.62603329E+00 -2.89508557E+00 -1.07984719E+00
 -2.40075142E+00 -1.68351800E+00  2.04605226E+00 -5.19444740E+00  2.02624557E+00
  7.28228579E-01 -5.41817921E+00  7.47516231E-01 -2.34244226E+00 -7.47471585E+00
 -3.15513986E+00 -5.68674546E-01 -7.24403058E+00 -1.89245692E+00  2.50098264E+00
 -1.03066782E+01  4.70406457E-01 -1.86014497E+00 -1.15663224E+01 -1.20557307E+00
  7.42903463E-01 -1.00726794E+01  1.74482282E+00  1.22963951E+00 -1.60411305E-03
  2.75130868E+00  2.60594961E+00
Number of symbols in /Mol/                 I                0
Force Field                                I                0
Atom Types                                 C   N=          29
                                                            
                                                            
                                                            
                                                            
                                                            
                                                
Int Atom Types                             I   N=          29
           0           0           0           0           0           0
           0           0           0           0           0           0
           0           0           0           0           0           0
           0           0           0           0           0           0
           0           0           0           0           0
MM charges                                 R   N=          29
  0.00000000E+00  0.00000000E+00  0.00000000E+00  0.00000000E+00  0.00000000E+00
  0.00000000E+00  0.00000000E+00  0.00000000E+00  0.00000000E+00  0.00000000E+00
  0.00000000E+00  0.00000000E+00  0.00000000E+00  0.00000000E+00  0.00000000E+00
  0.00000000E+00  0.00000000E+00  0.00000000E+00  0.00000000E+00  0.00000000E+00
  0.00000000E+00  0.00000000E+00  0.00000000E+00  0.00000000E+00  0.00000000E+00
  0.00000000E+00  0.00000000E+00  0.00000000E+00  0.00000000E+00
Integer atomic weights                     I   N=          29
          12          12          12          12          32          12
          12          12          12          16           1           1
           1           1           1           1           1           1
           1           1           1           1           1           1
           1           1           1           1           1
Real atomic weights                        R   N=          29
  1.20000000E+01  1.20000000E+01  1.20000000E+01  1.20000000E+01  3.19720718E+01
  1.20000000E+01  1.20000000E+01  1.20000000E+01  1.20000000E+01  1.59949146E+01
  1.00782504E+00  1.00782504E+00  1.00782504E+00  1.00782504E+00  1.00782504E+00
  1.00782504E+00  1.00782504E+00  1.00782504E+00  1.00782504E+00  1.00782504E+00
  1.00782504E+00  1.00782504E+00  1.00782504E+00  1.00782504E+00  1.00782504E+00
  1.00782504E+00  1.00782504E+00  1.00782504E+00  1.00782504E+00
Atom fragment info                         I   N=          29
           0           0           0           0           0           0
           0           0           0           0           0           0
           0           0           0           0           0           0
           0           0           0           0           0           0
           0           0           0           0           0
Atom residue num                           I   N=          29
           0           0           0           0           0           0
           0           0           0           0           0           0
           0           0           0           0           0           0
           0           0           0           0           0           0
           0           0           0           0           0
Nuclear spins                              I   N=          29
           0           0           0           0           0           0
           0           0           0           0           1           1
           1           1           1           1           1           1
           1           1           1           1           1           1
           1           1           1           1           1
Nuclear ZEff                               R   N=          29
 -3.60000000E+00 -3.60000000E+00 -3.60000000E+00 -3.60000000E+00 -1.36000000E+01
 -3.60000000E+00 -3.60000000E+00 -3.60000000E+00 -3.60000000E+00 -5.60000000E+00
 -1.00000000E+00 -1.00000000E+00 -1.00000000E+00 -1.00000000E+00 -1.00000000E+00
 -1.00000000E+00 -1.00000000E+00 -1.00000000E+00 -1.00000000E+00 -1.00000000E+00
 -1.00000000E+00 -1.00000000E+00 -1.00000000E+00 -1.00000000E+00 -1.00000000E+00
 -1.00000000E+00 -1.00000000E+00 -1.00000000E+00 -1.00000000E+00
Nuclear ZNuc                               R   N=          29
  6.00000000E+00  6.00000000E+00  6.00000000E+00  6.00000000E+00  1.60000000E+01
  6.00000000E+00  6.00000000E+00  6.00000000E+00  6.00000000E+00  8.00000000E+00
  1.00000000E+00  1.00000000E+00  1.00000000E+00  1.00000000E+00  1.00000000E+00
  1.00000000E+00  1.00000000E+00  1.00000000E+00  1.00000000E+00  1.00000000E+00
  1.00000000E+00  1.00000000E+00  1.00000000E+00  1.00000000E+00  1.00000000E+00
  1.00000000E+00  1.00000000E+00  1.00000000E+00  1.00000000E+00
Nuclear QMom                               R   N=          29
  0.00000000E+00  0.00000000E+00  0.00000000E+00  0.00000000E+00  0.00000000E+00
  0.00000000E+00  0.00000000E+00  0.00000000E+00  0.00000000E+00  0.00000000E+00
  0.00000000E+00  0.00000000E+00  0.00000000E+00  0.00000000E+00  0.00000000E+00
  0.00000000E+00  0.00000000E+00  0.00000000E+00  0.00000000E+00  0.00000000E+00
  0.00000000E+00  0.00000000E+00  0.00000000E+00  0.00000000E+00  0.00000000E+00
  0.00000000E+00  0.00000000E+00  0.00000000E+00  0.00000000E+00
Nuclear GFac                               R   N=          29
  0.00000000E+00  0.00000000E+00  0.00000000E+00  0.00000000E+00  0.00000000E+00
  0.00000000E+00  0.00000000E+00  0.00000000E+00  0.00000000E+00  0.00000000E+00
  2.79284600E+00  2.79284600E+00  2.79284600E+00  2.79284600E+00  2.79284600E+00
  2.79284600E+00  2.79284600E+00  2.79284600E+00  2.79284600E+00  2.79284600E+00
  2.79284600E+00  2.79284600E+00  2.79284600E+00  2.79284600E+00  2.79284600E+00
  2.79284600E+00  2.79284600E+00  2.79284600E+00  2.79284600E+00
MicOpt                                     I   N=          29
          -1          -1          -1          -1          -1          -1
          -1          -1          -1          -1          -1          -1
          -1          -1          -1          -1          -1          -1
          -1          -1          -1          -1          -1          -1
          -1          -1          -1          -1          -1
Number of residues                         I                0
Number of secondary structures             I                0
Redundant internal dimensions              I   N=           4
         148          28          52          68
Redundant internal coordinate indices      I   N=         592
           1           2           0           0           1          11
           0           0           1          12           0           0
           1          13           0           0           2           3
           0           0           2          14           0           0
           2          15           0           0           3           4
           0           0           3          16           0           0
           3          17           0           0           4           5
           0           0           4          18           0           0
           4          19           0           0           5           6
           0           0           5          10           0           0
           6           7           0           0           6          20
           0           0           6          21           0           0
           7           8           0           0           7          22
           0           0           7          23           0           0
           8           9           0           0           8          24
           0           0           8          25           0           0
           9          26           0           0           9          27
           0           0           9          28           0           0
          10          29           0           0           2           1
          11           0           2           1          12           0
           2           1          13           0          11           1
          12           0          11           1          13           0
          12           1          13           0           1           2
           3           0           1           2          14           0
           1           2          15           0           3           2
          14           0           3           2          15           0
          14           2          15           0           2           3
           4           0           2           3          16           0
           2           3          17           0           4           3
          16           0           4           3          17           0
          16           3          17           0           3           4
           5           0           3           4          18           0
           3           4          19           0           5           4
          18           0           5           4          19           0
          18           4          19           0           4           5
           6           0           4           5          10           0
           6           5          10           0           5           6
           7           0           5           6          20           0
           5           6          21           0           7           6
          20           0           7           6          21           0
          20           6          21           0           6           7
           8           0           6           7          22           0
           6           7          23           0           8           7
          22           0           8           7          23           0
          22           7          23           0           7           8
           9           0           7           8          24           0
           7           8          25           0           9           8
          24           0           9           8          25           0
          24           8          25           0           8           9
          26           0           8           9          27           0
           8           9          28           0          26           9
          27           0          26           9          28           0
          27           9          28           0           5          10
          29           0          11           1           2           3
          11           1           2          14          11           1
           2          15          12           1           2           3
          12           1           2          14          12           1
           2          15          13           1           2           3
          13           1           2          14          13           1
           2          15           1           2           3           4
           1           2           3          16           1           2
           3          17          14           2           3           4
          14           2           3          16          14           2
           3          17          15           2           3           4
          15           2           3          16          15           2
           3          17           2           3           4           5
           2           3           4          18           2           3
           4          19          16           3           4           5
          16           3           4          18          16           3
           4          19          17           3           4           5
          17           3           4          18          17           3
           4          19           3           4           5           6
           3           4           5          10          18           4
           5           6          18           4           5          10
          19           4           5           6          19           4
           5          10           4           5           6           7
           4           5           6          20           4           5
           6          21          10           5           6           7
          10           5           6          20          10           5
           6          21           4           5          10          29
           6           5          10          29           5           6
           7           8           5           6           7          22
           5           6           7          23          20           6
           7           8          20           6           7          22
          20           6           7          23          21           6
           7           8          21           6           7          22
          21           6           7          23           6           7
           8           9           6           7           8          24
           6           7           8          25          22           7
           8           9          22           7           8          24
          22           7           8          25          23           7
           8           9          23           7           8          24
          23           7           8          25           7           8
           9          26           7           8           9          27
           7           8           9          28          24           8
           9          26          24           8           9          27
          24           8           9          28          25           8
           9          26          25           8           9          27
          25           8           9          28
Redundant internal coordinates             R   N=         148
  2.89530357E+00  2.07044491E+00  2.07068836E+00  2.06735271E+00  2.91013503E+00
  2.07476542E+00  2.07534125E+00  2.89658731E+00  2.07153050E+00  2.07290081E+00
  3.46648080E+00  2.07468689E+00  2.07278472E+00  3.46649256E+00  3.08840542E+00
  2.89658506E+00  2.07468316E+00  2.07279441E+00  2.91013316E+00  2.07153518E+00
  2.07289894E+00  2.89529053E+00  2.07475752E+00  2.07534290E+00  2.07044777E+00
  2.06734776E+00  2.07068676E+00  1.85257872E+00  1.94328013E+00  1.94386054E+00
  1.92768063E+00  1.88513752E+00  1.88070682E+00  1.88068399E+00  1.95372609E+00
  1.91577529E+00  1.91513742E+00  1.90750775E+00  1.90899429E+00  1.86032749E+00
  1.93149847E+00  1.91588889E+00  1.91561375E+00  1.91660189E+00  1.91386083E+00
  1.86936398E+00  1.94987716E+00  1.95077387E+00  1.97041361E+00  1.81215143E+00
  1.88353379E+00  1.88883040E+00  1.80661864E+00  1.82525400E+00  1.82524207E+00
  1.94991948E+00  1.81217181E+00  1.88348300E+00  1.95077154E+00  1.97044273E+00
  1.88878694E+00  1.93149232E+00  1.91662528E+00  1.91386194E+00  1.91589482E+00
  1.91560936E+00  1.86934374E+00  1.95371607E+00  1.90748843E+00  1.90902597E+00
  1.91578055E+00  1.91512393E+00  1.86033429E+00  1.94328321E+00  1.92767859E+00
  1.94383837E+00  1.88070859E+00  1.88513924E+00  1.88070296E+00  1.96010915E+00
 -1.05288585E+00  1.06854916E+00  3.10742069E+00  1.05239737E+00 -3.10935293E+00
 -1.07048140E+00  3.14152333E+00 -1.02022697E+00  1.01864456E+00 -3.13849047E+00
 -1.02018857E+00  1.03000240E+00  1.01850914E+00  3.13681104E+00 -1.09618330E+00
 -1.01208356E+00  1.10621834E+00 -3.12677600E+00 -3.11265856E+00 -1.09055753E+00
  1.04379244E+00  1.05264592E+00  3.07474695E+00 -1.07408839E+00 -9.96929101E-01
  1.02517193E+00 -3.12366341E+00 -3.00753842E+00 -1.10045297E+00  1.17057703E+00
  3.07766248E+00 -8.31510279E-01  1.07557518E+00  3.00765042E+00 -1.17043334E+00
  8.31593029E-01  1.10055608E+00 -3.07752767E+00 -1.07550130E+00 -9.47744483E-01
  9.45715792E-01  3.11258999E+00 -1.05269561E+00  9.96869251E-01  1.09043799E+00
 -3.07484761E+00 -1.02528274E+00 -1.04387468E+00  1.07402503E+00  3.12358989E+00
  3.13844792E+00 -1.01856503E+00  1.01204280E+00  1.02011683E+00 -3.13689611E+00
 -1.10628828E+00 -1.03005043E+00  1.09612194E+00  3.12672976E+00  1.05283882E+00
 -3.14156747E+00 -1.05243349E+00 -1.06856861E+00  1.02021040E+00  3.10934438E+00
 -3.10744358E+00 -1.01866456E+00  1.07046942E+00
ZRed-IntVec                                I   N=         148
           0           0           0           0           0           0
           0           0           0           0           0           0
           0           0           0           0           0           0
           0           0           0           0           0           0
           0           0           0           0           0           0
           0           0           0           0           0           0
           0           0           0           0           0           0
           0           0           0           0           0           0
           0           0           0           0           0           0
           0           0           0           0           0           0
           0           0           0           0           0           0
           0           0           0           0           0           0
           0           0           0           0           0           0
           0           0           0           0           0           0
           0           0           0           0           0           0
           0           0           0           0           0           0
           0           0           0           0           0           0
           0           0           0           0           0           0
           0           0           0           0           0           0
           0           0           0           0           0           0
           0           0           0           0           0           0
           0           0           0           0           0           0
           0           0           0           0           0           0
           0           0           0           0           0           0
           0           0           0           0
ZRed-FPVec                                 R   N=         148
  0.00000000E+00  0.00000000E+00  0.00000000E+00  0.00000000E+00  0.00000000E+00
  0.00000000E+00  0.00000000E+00  0.00000000E+00  0.00000000E+00  0.00000000E+00
  0.00000000E+00  0.00000000E+00  0.00000000E+00  0.00000000E+00  0.00000000E+00
  0.00000000E+00  0.00000000E+00  0.00000000E+00  0.00000000E+00  0.00000000E+00
  0.00000000E+00  0.00000000E+00  0.00000000E+00  0.00000000E+00  0.00000000E+00
  0.00000000E+00  0.00000000E+00  0.00000000E+00  0.00000000E+00  0.00000000E+00
  0.00000000E+00  0.00000000E+00  0.00000000E+00  0.00000000E+00  0.00000000E+00
  0.00000000E+00  0.00000000E+00  0.00000000E+00  0.00000000E+00  0.00000000E+00
  0.00000000E+00  0.00000000E+00  0.00000000E+00  0.00000000E+00  0.00000000E+00
  0.00000000E+00  0.00000000E+00  0.00000000E+00  0.00000000E+00  0.00000000E+00
  0.00000000E+00  0.00000000E+00  0.00000000E+00  0.00000000E+00  0.00000000E+00
  0.00000000E+00  0.00000000E+00  0.00000000E+00  0.00000000E+00  0.00000000E+00
  0.00000000E+00  0.00000000E+00  0.00000000E+00  0.00000000E+00  0.00000000E+00
  0.00000000E+00  0.00000000E+00  0.00000000E+00  0.00000000E+00  0.00000000E+00
  0.00000000E+00  0.00000000E+00  0.00000000E+00  0.00000000E+00  0.00000000E+00
  0.00000000E+00  0.00000000E+00  0.00000000E+00  0.00000000E+00  0.00000000E+00
  0.00000000E+00  0.00000000E+00  0.00000000E+00  0.00000000E+00  0.00000000E+00
  0.00000000E+00  0.00000000E+00  0.00000000E+00  0.00000000E+00  0.00000000E+00
  0.00000000E+00  0.00000000E+00  0.00000000E+00  0.00000000E+00  0.00000000E+00
  0.00000000E+00  0.00000000E+00  0.00000000E+00  0.00000000E+00  0.00000000E+00
  0.00000000E+00  0.00000000E+00  0.00000000E+00  0.00000000E+00  0.00000000E+00
  0.00000000E+00  0.00000000E+00  0.00000000E+00  0.00000000E+00  0.00000000E+00
  0.00000000E+00  0.00000000E+00  0.00000000E+00  0.00000000E+00  0.00000000E+00
  0.00000000E+00  0.00000000E+00  0.00000000E+00  0.00000000E+00  0.00000000E+00
  0.00000000E+00  0.00000000E+00  0.00000000E+00  0.00000000E+00  0.00000000E+00
  0.00000000E+00  0.00000000E+00  0.00000000E+00  0.00000000E+00  0.00000000E+00
  0.00000000E+00  0.00000000E+00  0.00000000E+00  0.00000000E+00  0.00000000E+00
  0.00000000E+00  0.00000000E+00  0.00000000E+00  0.00000000E+00  0.00000000E+00
  0.00000000E+00  0.00000000E+00  0.00000000E+00  0.00000000E+00  0.00000000E+00
  0.00000000E+00  0.00000000E+00  0.00000000E+00
ZRed-Constraint1                           R   N=         148
  2.89530357E+00  2.07044491E+00  2.07068836E+00  2.06735271E+00  2.91013503E+00
  2.07476542E+00  2.07534125E+00  2.89658731E+00  2.07153050E+00  2.07290081E+00
  3.46648080E+00  2.07468689E+00  2.07278472E+00  3.46649256E+00  3.08840542E+00
  2.89658506E+00  2.07468316E+00  2.07279441E+00  2.91013316E+00  2.07153518E+00
  2.07289894E+00  2.89529053E+00  2.07475752E+00  2.07534290E+00  2.07044777E+00
  2.06734776E+00  2.07068676E+00  1.85257872E+00  1.94328013E+00  1.94386054E+00
  1.92768063E+00  1.88513752E+00  1.88070682E+00  1.88068399E+00  1.95372609E+00
  1.91577529E+00  1.91513742E+00  1.90750775E+00  1.90899429E+00  1.86032749E+00
  1.93149847E+00  1.91588889E+00  1.91561375E+00  1.91660189E+00  1.91386083E+00
  1.86936398E+00  1.94987716E+00  1.95077387E+00  1.97041361E+00  1.81215143E+00
  1.88353379E+00  1.88883040E+00  1.80661864E+00  1.82525400E+00  1.82524207E+00
  1.94991948E+00  1.81217181E+00  1.88348300E+00  1.95077154E+00  1.97044273E+00
  1.88878694E+00  1.93149232E+00  1.91662528E+00  1.91386194E+00  1.91589482E+00
  1.91560936E+00  1.86934374E+00  1.95371607E+00  1.90748843E+00  1.90902597E+00
  1.91578055E+00  1.91512393E+00  1.86033429E+00  1.94328321E+00  1.92767859E+00
  1.94383837E+00  1.88070859E+00  1.88513924E+00  1.88070296E+00  1.96010915E+00
 -1.05288585E+00  1.06854916E+00  3.10742069E+00  1.05239737E+00 -3.10935293E+00
 -1.07048140E+00  3.14152333E+00 -1.02022697E+00  1.01864456E+00 -3.13849047E+00
 -1.02018857E+00  1.03000240E+00  1.01850914E+00  3.13681104E+00 -1.09618330E+00
 -1.01208356E+00  1.10621834E+00 -3.12677600E+00 -3.11265856E+00 -1.09055753E+00
  1.04379244E+00  1.05264592E+00  3.07474695E+00 -1.07408839E+00 -9.96929101E-01
  1.02517193E+00 -3.12366341E+00 -3.00753842E+00 -1.10045297E+00  1.17057703E+00
  3.07766248E+00 -8.31510279E-01  1.07557518E+00  3.00765042E+00 -1.17043334E+00
  8.31593029E-01  1.10055608E+00 -3.07752767E+00 -1.07550130E+00 -9.47744483E-01
  9.45715792E-01  3.11258999E+00 -1.05269561E+00  9.96869251E-01  1.09043799E+00
 -3.07484761E+00 -1.02528274E+00 -1.04387468E+00  1.07402503E+00  3.12358989E+00
  3.13844792E+00 -1.01856503E+00  1.01204280E+00  1.02011683E+00 -3.13689611E+00
 -1.10628828E+00 -1.03005043E+00  1.09612194E+00  3.12672976E+00  1.05283882E+00
 -3.14156747E+00 -1.05243349E+00 -1.06856861E+00  1.02021040E+00  3.10934438E+00
 -3.10744358E+00 -1.01866456E+00  1.07046942E+00
ZRed-Constraint2                           R   N=         148
  2.92185672E+00  2.05976639E+00  2.05980210E+00  2.05986392E+00  2.92973437E+00
  2.05988643E+00  2.05971185E+00  2.92635039E+00  2.05982081E+00  2.05988577E+00
  3.46430547E+00  2.05977674E+00  2.05997056E+00  3.46431769E+00  3.02863395E+00
  2.92638681E+00  2.05981785E+00  2.05969697E+00  2.92982272E+00  2.05976370E+00
  2.05978151E+00  2.92172901E+00  2.05993180E+00  2.05993585E+00  2.05982570E+00
  2.05984109E+00  2.05993071E+00  1.81413708E+00  1.91072743E+00  1.91069727E+00
  1.91066619E+00  1.91059138E+00  1.91050589E+00  1.91061126E+00  1.95867751E+00
  1.85237671E+00  1.85243502E+00  1.85419370E+00  1.85423202E+00  2.09445871E+00
  1.98102887E+00  1.84896823E+00  1.84894309E+00  1.84808505E+00  1.84804264E+00
  2.09427856E+00  1.92392072E+00  1.80777123E+00  1.80768666E+00  1.91032859E+00
  1.91033875E+00  2.09442819E+00  1.85583238E+00  1.83695941E+00  1.83690585E+00
  1.92388969E+00  1.91036800E+00  1.91031808E+00  1.80773896E+00  1.80775607E+00
  2.09440101E+00  1.98101920E+00  1.84808528E+00  1.84804773E+00  1.84888300E+00
  1.84887931E+00  2.09443268E+00  1.95872050E+00  1.85419961E+00  1.85422265E+00
  1.85246877E+00  1.85245914E+00  2.09430980E+00  1.91068080E+00  1.91071981E+00
  1.91066675E+00  1.91058861E+00  1.91061154E+00  1.91053190E+00  2.09439511E+00
 -1.75792867E+00  2.60275750E-01  2.50697180E+00  3.36512063E-01  2.35471649E+00
 -1.68177277E+00  2.43093964E+00 -1.83404124E+00  4.12654813E-01 -3.13901853E+00
 -1.11857169E+00  1.12378689E+00  1.12706294E+00 -3.13567553E+00 -8.93316949E-01
 -1.12182213E+00  8.98624713E-01  3.14098329E+00 -3.11296338E+00 -1.07072924E+00
  1.12802140E+00  1.14925372E+00 -3.09169745E+00 -8.92946811E-01 -1.09205191E+00
  9.50182228E-01 -3.13425244E+00 -3.11447650E+00 -1.17120310E+00  1.19126319E+00
  3.13453659E+00 -1.13712643E+00  8.06146979E-01  3.11450479E+00 -1.19126856E+00
  1.13709999E+00  1.17119402E+00 -3.13457933E+00 -8.06210786E-01 -8.90833995E-01
  1.06587026E+00  3.11295866E+00 -1.14936657E+00  1.09212636E+00  1.07071036E+00
  3.09157043E+00 -9.50121945E-01 -1.12802708E+00  8.92832985E-01  3.13432591E+00
  3.13897996E+00 -1.12696542E+00  1.12173791E+00  1.11859083E+00  3.13583076E+00
 -8.98651209E-01 -1.12386399E+00  8.93375942E-01 -3.14110603E+00  2.06308175E+00
 -2.12568096E+00 -3.13364373E-02  4.47935134E-02  2.13921611E+00 -2.04962467E+00
 -2.20179344E+00 -1.07370844E-01  1.98697368E+00
SymInf integers                            I   N=          26
           1           1           1           1           1           0
           0           0           0           0           0           0
           0           0           0           0           0           0
           0           0           0           0           0           0
           0           0
RotTr to input orientation                 R   N=          12
  8.65013120E-02  2.70613321E-01 -9.58794010E-01 -7.76562987E-01  6.21183813E-01
  1.05264422E-01  6.24073274E-01  7.35458430E-01  2.63881503E-01 -6.35953251E-01
  3.76521635E+00 -2.03731215E+00
Number of contracted shells                I               79
Number of primitive shells                 I              192
Pure/Cartesian d shells                    I                1
Pure/Cartesian f shells                    I                0
Highest angular momentum                   I                2