 Entering Gaussian System, Link 0=/apps/cent7/gaussian/g16-A.03/g16-haswell/g16/g16
 Initial command:
 /apps/cent7/gaussian/g16-A.03/g16-haswell/g16/l1.exe "/scratch/brown/finej/gaussian/Gau-34866.inp" -scrdir="/scratch/brown/finej/gaussian/"
 Entering Link 1 = /apps/cent7/gaussian/g16-A.03/g16-haswell/g16/l1.exe PID=     34867.
  
 Copyright (c) 1988,1990,1992,1993,1995,1998,2003,2009,2016,
            Gaussian, Inc.  All Rights Reserved.
  
 This is part of the Gaussian(R) 16 program.  It is based on
 the Gaussian(R) 09 system (copyright 2009, Gaussian, Inc.),
 the Gaussian(R) 03 system (copyright 2003, Gaussian, Inc.),
 the Gaussian(R) 98 system (copyright 1998, Gaussian, Inc.),
 the Gaussian(R) 94 system (copyright 1995, Gaussian, Inc.),
 the Gaussian 92(TM) system (copyright 1992, Gaussian, Inc.),
 the Gaussian 90(TM) system (copyright 1990, Gaussian, Inc.),
 the Gaussian 88(TM) system (copyright 1988, Gaussian, Inc.),
 the Gaussian 86(TM) system (copyright 1986, Carnegie Mellon
 University), and the Gaussian 82(TM) system (copyright 1983,
 Carnegie Mellon University). Gaussian is a federally registered
 trademark of Gaussian, Inc.
  
 This software contains proprietary and confidential information,
 including trade secrets, belonging to Gaussian, Inc.
  
 This software is provided under written license and may be
 used, copied, transmitted, or stored only in accord with that
 written license.
  
 The following legend is applicable only to US Government
 contracts under FAR:
  
                    RESTRICTED RIGHTS LEGEND
  
 Use, reproduction and disclosure by the US Government is
 subject to restrictions as set forth in subparagraphs (a)
 and (c) of the Commercial Computer Software - Restricted
 Rights clause in FAR 52.227-19.
  
 Gaussian, Inc.
 340 Quinnipiac St., Bldg. 40, Wallingford CT 06492
  
  
 ---------------------------------------------------------------
 Warning -- This program may not be used in any manner that
 competes with the business of Gaussian, Inc. or will provide
 assistance to any competitor of Gaussian, Inc.  The licensee
 of this program is prohibited from giving any competitor of
 Gaussian, Inc. access to this program.  By using this program,
 the user acknowledges that Gaussian, Inc. is engaged in the
 business of creating and licensing software in the field of
 computational chemistry and represents and warrants to the
 licensee that it is not a competitor of Gaussian, Inc. and that
 it will not use this program in any manner prohibited above.
 ---------------------------------------------------------------
  

 Cite this work as:
 Gaussian 16, Revision A.03,
 M. J. Frisch, G. W. Trucks, H. B. Schlegel, G. E. Scuseria, 
 M. A. Robb, J. R. Cheeseman, G. Scalmani, V. Barone, 
 G. A. Petersson, H. Nakatsuji, X. Li, M. Caricato, A. V. Marenich, 
 J. Bloino, B. G. Janesko, R. Gomperts, B. Mennucci, H. P. Hratchian, 
 J. V. Ortiz, A. F. Izmaylov, J. L. Sonnenberg, D. Williams-Young, 
 F. Ding, F. Lipparini, F. Egidi, J. Goings, B. Peng, A. Petrone, 
 T. Henderson, D. Ranasinghe, V. G. Zakrzewski, J. Gao, N. Rega, 
 G. Zheng, W. Liang, M. Hada, M. Ehara, K. Toyota, R. Fukuda, 
 J. Hasegawa, M. Ishida, T. Nakajima, Y. Honda, O. Kitao, H. Nakai, 
 T. Vreven, K. Throssell, J. A. Montgomery, Jr., J. E. Peralta, 
 F. Ogliaro, M. J. Bearpark, J. J. Heyd, E. N. Brothers, K. N. Kudin, 
 V. N. Staroverov, T. A. Keith, R. Kobayashi, J. Normand, 
 K. Raghavachari, A. P. Rendell, J. C. Burant, S. S. Iyengar, 
 J. Tomasi, M. Cossi, J. M. Millam, M. Klene, C. Adamo, R. Cammi, 
 J. W. Ochterski, R. L. Martin, K. Morokuma, O. Farkas, 
 J. B. Foresman, and D. J. Fox, Gaussian, Inc., Wallingford CT, 2016.
 
 ******************************************
 Gaussian 16:  ES64L-G16RevA.03 25-Dec-2016
                14-Oct-2019 
 ******************************************
 %chk=31_p.chk
 %nprocshared=24
 Will use up to   24 processors via shared memory.
 %mem=80GB
 --------------------------------------------------------------
 #P opt freq b3lyp/6-31g(d) geom=connectivity temperature=0.001
 --------------------------------------------------------------
 1/18=20,19=15,26=3,38=1,57=2,112=-1000/1,3;
 2/9=110,12=2,17=6,18=5,40=1/2;
 3/5=1,6=6,7=1,11=2,25=1,30=1,71=1,74=-5/1,2,3;
 4//1;
 5/5=2,38=5/2;
 6/7=2,8=2,9=2,10=2,28=1/1;
 7//1,2,3,16;
 1/18=20,19=15,26=3/3(2);
 2/9=110/2;
 99//99;
 2/9=110/2;
 3/5=1,6=6,7=1,11=2,25=1,30=1,71=1,74=-5/1,2,3;
 4/5=5,16=3,69=1/1;
 5/5=2,38=5/2;
 7//1,2,3,16;
 1/18=20,19=15,26=3/3(-5);
 2/9=110/2;
 6/7=2,8=2,9=2,10=2,19=2,28=1/1;
 99/9=1/99;
 Leave Link    1 at Mon Oct 14 01:46:44 2019, MaxMem= 10737418240 cpu:               0.8 elap:               0.0
 (Enter /apps/cent7/gaussian/g16-A.03/g16-haswell/g16/l101.exe)
 -------------------
 Title Card Required
 -------------------
 Symbolic Z-matrix:
 Charge =  1 Multiplicity = 1
 C                    -0.019     3.4371   -6.2057 
 C                     0.6704    2.7497   -5.0045 
 C                    -0.2321    2.7281   -3.7441 
 C                     0.4315    2.0488   -2.5209 
 S                    -0.7273    2.0292   -1.1005 
 C                     0.1766    1.2507    0.2915 
 C                    -0.7128    1.2232    1.5589 
 C                    -0.0348    0.5419    2.7754 
 C                    -0.9462    0.534     4.0243 
 O                    -0.9055    3.5656   -0.6806 
 H                    -0.4084    2.6782   -6.8843 
 H                    -0.8392    4.0589   -5.8469 
 H                     0.7046    4.0589   -6.7329 
 H                     0.8153    1.7087   -5.2935 
 H                     1.5304    3.3703   -4.753 
 H                    -0.3788    3.771    -3.4631 
 H                    -1.0903    2.1071   -4.0011 
 H                     0.6079    1.0279   -2.8596 
 H                     1.2748    2.7007   -2.2925 
 H                     0.3422    0.1959    0.0722 
 H                     1.0143    1.8853    0.5805 
 H                    -0.8597    2.2652    1.843 
 H                    -1.5714    0.6006    1.3074 
 H                     0.1091   -0.5026    2.4987 
 H                     0.8249    1.1612    3.0316 
 H                    -1.1573   -0.4955    4.3136 
 H                    -0.4431    1.046     4.8446 
 H                    -1.8809    1.046     3.7953 
 H                    -0.13264   4.11492  -0.53047 
 
 ITRead=  0  0  0  0  0  0  0  0  0  0  0  0  0  0  0  0  0  0  0  0
 ITRead=  0  0  0  0  0  0  0  0  0
 MicOpt= -1 -1 -1 -1 -1 -1 -1 -1 -1 -1 -1 -1 -1 -1 -1 -1 -1 -1 -1 -1
 MicOpt= -1 -1 -1 -1 -1 -1 -1 -1 -1
 NAtoms=     29 NQM=       29 NQMF=       0 NMMI=      0 NMMIF=      0
                NMic=       0 NMicF=      0.
                    Isotopes and Nuclear Properties:
 (Nuclear quadrupole moments (NQMom) in fm**2, nuclear magnetic moments (NMagM)
  in nuclear magnetons)

  Atom         1           2           3           4           5           6           7           8           9          10
 IAtWgt=          12          12          12          12          32          12          12          12          12          16
 AtmWgt=  12.0000000  12.0000000  12.0000000  12.0000000  31.9720718  12.0000000  12.0000000  12.0000000  12.0000000  15.9949146
 NucSpn=           0           0           0           0           0           0           0           0           0           0
 AtZEff=  -0.0000000  -0.0000000  -0.0000000  -0.0000000  -0.0000000  -0.0000000  -0.0000000  -0.0000000  -0.0000000  -0.0000000
 NQMom=    0.0000000   0.0000000   0.0000000   0.0000000   0.0000000   0.0000000   0.0000000   0.0000000   0.0000000   0.0000000
 NMagM=    0.0000000   0.0000000   0.0000000   0.0000000   0.0000000   0.0000000   0.0000000   0.0000000   0.0000000   0.0000000
 AtZNuc=   6.0000000   6.0000000   6.0000000   6.0000000  16.0000000   6.0000000   6.0000000   6.0000000   6.0000000   8.0000000

  Atom        11          12          13          14          15          16          17          18          19          20
 IAtWgt=           1           1           1           1           1           1           1           1           1           1
 AtmWgt=   1.0078250   1.0078250   1.0078250   1.0078250   1.0078250   1.0078250   1.0078250   1.0078250   1.0078250   1.0078250
 NucSpn=           1           1           1           1           1           1           1           1           1           1
 AtZEff=  -0.0000000  -0.0000000  -0.0000000  -0.0000000  -0.0000000  -0.0000000  -0.0000000  -0.0000000  -0.0000000  -0.0000000
 NQMom=    0.0000000   0.0000000   0.0000000   0.0000000   0.0000000   0.0000000   0.0000000   0.0000000   0.0000000   0.0000000
 NMagM=    2.7928460   2.7928460   2.7928460   2.7928460   2.7928460   2.7928460   2.7928460   2.7928460   2.7928460   2.7928460
 AtZNuc=   1.0000000   1.0000000   1.0000000   1.0000000   1.0000000   1.0000000   1.0000000   1.0000000   1.0000000   1.0000000

  Atom        21          22          23          24          25          26          27          28          29
 IAtWgt=           1           1           1           1           1           1           1           1           1
 AtmWgt=   1.0078250   1.0078250   1.0078250   1.0078250   1.0078250   1.0078250   1.0078250   1.0078250   1.0078250
 NucSpn=           1           1           1           1           1           1           1           1           1
 AtZEff=  -0.0000000  -0.0000000  -0.0000000  -0.0000000  -0.0000000  -0.0000000  -0.0000000  -0.0000000  -0.0000000
 NQMom=    0.0000000   0.0000000   0.0000000   0.0000000   0.0000000   0.0000000   0.0000000   0.0000000   0.0000000
 NMagM=    2.7928460   2.7928460   2.7928460   2.7928460   2.7928460   2.7928460   2.7928460   2.7928460   2.7928460
 AtZNuc=   1.0000000   1.0000000   1.0000000   1.0000000   1.0000000   1.0000000   1.0000000   1.0000000   1.0000000
 Leave Link  101 at Mon Oct 14 01:46:44 2019, MaxMem= 10737418240 cpu:               8.6 elap:               0.4
 (Enter /apps/cent7/gaussian/g16-A.03/g16-haswell/g16/l103.exe)

 GradGradGradGradGradGradGradGradGradGradGradGradGradGradGradGradGradGrad
 Berny optimization.
 Initialization pass.
                           ----------------------------
                           !    Initial Parameters    !
                           ! (Angstroms and Degrees)  !
 --------------------------                            --------------------------
 ! Name  Definition              Value          Derivative Info.                !
 --------------------------------------------------------------------------------
 ! R1    R(1,2)                  1.5462         estimate D2E/DX2                !
 ! R2    R(1,11)                 1.09           estimate D2E/DX2                !
 ! R3    R(1,12)                 1.09           estimate D2E/DX2                !
 ! R4    R(1,13)                 1.09           estimate D2E/DX2                !
 ! R5    R(2,3)                  1.5503         estimate D2E/DX2                !
 ! R6    R(2,14)                 1.09           estimate D2E/DX2                !
 ! R7    R(2,15)                 1.09           estimate D2E/DX2                !
 ! R8    R(3,4)                  1.5486         estimate D2E/DX2                !
 ! R9    R(3,16)                 1.09           estimate D2E/DX2                !
 ! R10   R(3,17)                 1.09           estimate D2E/DX2                !
 ! R11   R(4,5)                  1.8332         estimate D2E/DX2                !
 ! R12   R(4,18)                 1.09           estimate D2E/DX2                !
 ! R13   R(4,19)                 1.0901         estimate D2E/DX2                !
 ! R14   R(5,6)                  1.8332         estimate D2E/DX2                !
 ! R15   R(5,10)                 1.6027         estimate D2E/DX2                !
 ! R16   R(6,7)                  1.5486         estimate D2E/DX2                !
 ! R17   R(6,20)                 1.09           estimate D2E/DX2                !
 ! R18   R(6,21)                 1.0899         estimate D2E/DX2                !
 ! R19   R(7,8)                  1.5504         estimate D2E/DX2                !
 ! R20   R(7,22)                 1.09           estimate D2E/DX2                !
 ! R21   R(7,23)                 1.09           estimate D2E/DX2                !
 ! R22   R(8,9)                  1.5461         estimate D2E/DX2                !
 ! R23   R(8,24)                 1.0901         estimate D2E/DX2                !
 ! R24   R(8,25)                 1.0901         estimate D2E/DX2                !
 ! R25   R(9,26)                 1.09           estimate D2E/DX2                !
 ! R26   R(9,27)                 1.09           estimate D2E/DX2                !
 ! R27   R(9,28)                 1.0901         estimate D2E/DX2                !
 ! R28   R(10,29)                0.96           estimate D2E/DX2                !
 ! A1    A(2,1,11)             109.4766         estimate D2E/DX2                !
 ! A2    A(2,1,12)             109.4749         estimate D2E/DX2                !
 ! A3    A(2,1,13)             109.4731         estimate D2E/DX2                !
 ! A4    A(11,1,12)            109.4688         estimate D2E/DX2                !
 ! A5    A(11,1,13)            109.4639         estimate D2E/DX2                !
 ! A6    A(12,1,13)            109.47           estimate D2E/DX2                !
 ! A7    A(1,2,3)              112.224          estimate D2E/DX2                !
 ! A8    A(1,2,14)             106.1334         estimate D2E/DX2                !
 ! A9    A(1,2,15)             106.1367         estimate D2E/DX2                !
 ! A10   A(3,2,14)             106.2375         estimate D2E/DX2                !
 ! A11   A(3,2,15)             106.2397         estimate D2E/DX2                !
 ! A12   A(14,2,15)            120.0036         estimate D2E/DX2                !
 ! A13   A(2,3,4)              113.5046         estimate D2E/DX2                !
 ! A14   A(2,3,16)             105.9381         estimate D2E/DX2                !
 ! A15   A(2,3,17)             105.9366         estimate D2E/DX2                !
 ! A16   A(4,3,16)             105.8875         estimate D2E/DX2                !
 ! A17   A(4,3,17)             105.885          estimate D2E/DX2                !
 ! A18   A(16,3,17)            119.9933         estimate D2E/DX2                !
 ! A19   A(3,4,5)              110.2325         estimate D2E/DX2                !
 ! A20   A(3,4,18)             103.5777         estimate D2E/DX2                !
 ! A21   A(3,4,19)             103.5728         estimate D2E/DX2                !
 ! A22   A(5,4,18)             109.4538         estimate D2E/DX2                !
 ! A23   A(5,4,19)             109.4543         estimate D2E/DX2                !
 ! A24   A(18,4,19)            120.0019         estimate D2E/DX2                !
 ! A25   A(4,5,6)              106.3314         estimate D2E/DX2                !
 ! A26   A(4,5,10)             105.25           estimate D2E/DX2                !
 ! A27   A(6,5,10)             105.247          estimate D2E/DX2                !
 ! A28   A(5,6,7)              110.2308         estimate D2E/DX2                !
 ! A29   A(5,6,20)             109.456          estimate D2E/DX2                !
 ! A30   A(5,6,21)             109.4532         estimate D2E/DX2                !
 ! A31   A(7,6,20)             103.5758         estimate D2E/DX2                !
 ! A32   A(7,6,21)             103.5768         estimate D2E/DX2                !
 ! A33   A(20,6,21)            120.0003         estimate D2E/DX2                !
 ! A34   A(6,7,8)              113.504          estimate D2E/DX2                !
 ! A35   A(6,7,22)             105.8875         estimate D2E/DX2                !
 ! A36   A(6,7,23)             105.8853         estimate D2E/DX2                !
 ! A37   A(8,7,22)             105.9332         estimate D2E/DX2                !
 ! A38   A(8,7,23)             105.933          estimate D2E/DX2                !
 ! A39   A(22,7,23)            120.0022         estimate D2E/DX2                !
 ! A40   A(7,8,9)              112.2264         estimate D2E/DX2                !
 ! A41   A(7,8,24)             106.2378         estimate D2E/DX2                !
 ! A42   A(7,8,25)             106.2391         estimate D2E/DX2                !
 ! A43   A(9,8,24)             106.1386         estimate D2E/DX2                !
 ! A44   A(9,8,25)             106.1381         estimate D2E/DX2                !
 ! A45   A(24,8,25)            119.9951         estimate D2E/DX2                !
 ! A46   A(8,9,26)             109.4739         estimate D2E/DX2                !
 ! A47   A(8,9,27)             109.4762         estimate D2E/DX2                !
 ! A48   A(8,9,28)             109.4731         estimate D2E/DX2                !
 ! A49   A(26,9,27)            109.4687         estimate D2E/DX2                !
 ! A50   A(26,9,28)            109.47           estimate D2E/DX2                !
 ! A51   A(27,9,28)            109.4654         estimate D2E/DX2                !
 ! A52   A(5,10,29)            120.0            estimate D2E/DX2                !
 ! D1    D(11,1,2,3)          -100.7219         estimate D2E/DX2                !
 ! D2    D(11,1,2,14)           14.9127         estimate D2E/DX2                !
 ! D3    D(11,1,2,15)          143.6389         estimate D2E/DX2                !
 ! D4    D(12,1,2,3)            19.2807         estimate D2E/DX2                !
 ! D5    D(12,1,2,14)          134.9153         estimate D2E/DX2                !
 ! D6    D(12,1,2,15)          -96.3585         estimate D2E/DX2                !
 ! D7    D(13,1,2,3)           139.2826         estimate D2E/DX2                !
 ! D8    D(13,1,2,14)         -105.0828         estimate D2E/DX2                !
 ! D9    D(13,1,2,15)           23.6434         estimate D2E/DX2                !
 ! D10   D(1,2,3,4)           -179.8525         estimate D2E/DX2                !
 ! D11   D(1,2,3,16)           -64.0894         estimate D2E/DX2                !
 ! D12   D(1,2,3,17)            64.3882         estimate D2E/DX2                !
 ! D13   D(14,2,3,4)            64.5759         estimate D2E/DX2                !
 ! D14   D(14,2,3,16)         -179.661          estimate D2E/DX2                !
 ! D15   D(14,2,3,17)          -51.1833         estimate D2E/DX2                !
 ! D16   D(15,2,3,4)           -64.2757         estimate D2E/DX2                !
 ! D17   D(15,2,3,16)           51.4874         estimate D2E/DX2                !
 ! D18   D(15,2,3,17)          179.9651         estimate D2E/DX2                !
 ! D19   D(2,3,4,5)           -178.3597         estimate D2E/DX2                !
 ! D20   D(2,3,4,18)           -61.3483         estimate D2E/DX2                !
 ! D21   D(2,3,4,19)            64.6309         estimate D2E/DX2                !
 ! D22   D(16,3,4,5)            65.8474         estimate D2E/DX2                !
 ! D23   D(16,3,4,18)         -177.1412         estimate D2E/DX2                !
 ! D24   D(16,3,4,19)          -51.1621         estimate D2E/DX2                !
 ! D25   D(17,3,4,5)           -62.57           estimate D2E/DX2                !
 ! D26   D(17,3,4,18)           54.4414         estimate D2E/DX2                !
 ! D27   D(17,3,4,19)         -179.5794         estimate D2E/DX2                !
 ! D28   D(3,4,5,6)           -178.4464         estimate D2E/DX2                !
 ! D29   D(3,4,5,10)           -67.105          estimate D2E/DX2                !
 ! D30   D(18,4,5,6)            68.2544         estimate D2E/DX2                !
 ! D31   D(18,4,5,10)          179.5957         estimate D2E/DX2                !
 ! D32   D(19,4,5,6)           -65.1525         estimate D2E/DX2                !
 ! D33   D(19,4,5,10)           46.1888         estimate D2E/DX2                !
 ! D34   D(4,5,6,7)            178.448          estimate D2E/DX2                !
 ! D35   D(4,5,6,20)           -68.2547         estimate D2E/DX2                !
 ! D36   D(4,5,6,21)            65.151          estimate D2E/DX2                !
 ! D37   D(10,5,6,7)            67.1045         estimate D2E/DX2                !
 ! D38   D(10,5,6,20)         -179.5982         estimate D2E/DX2                !
 ! D39   D(10,5,6,21)          -46.1925         estimate D2E/DX2                !
 ! D40   D(4,5,10,29)          -51.041          estimate D2E/DX2                !
 ! D41   D(6,5,10,29)           61.0699         estimate D2E/DX2                !
 ! D42   D(5,6,7,8)            178.3594         estimate D2E/DX2                !
 ! D43   D(5,6,7,22)           -65.8539         estimate D2E/DX2                !
 ! D44   D(5,6,7,23)            62.5742         estimate D2E/DX2                !
 ! D45   D(20,6,7,8)            61.3472         estimate D2E/DX2                !
 ! D46   D(20,6,7,22)          177.1339         estimate D2E/DX2                !
 ! D47   D(20,6,7,23)          -54.438          estimate D2E/DX2                !
 ! D48   D(21,6,7,8)           -64.6312         estimate D2E/DX2                !
 ! D49   D(21,6,7,22)           51.1556         estimate D2E/DX2                !
 ! D50   D(21,6,7,23)          179.5836         estimate D2E/DX2                !
 ! D51   D(6,7,8,9)            179.8503         estimate D2E/DX2                !
 ! D52   D(6,7,8,24)           -64.5704         estimate D2E/DX2                !
 ! D53   D(6,7,8,25)            64.2708         estimate D2E/DX2                !
 ! D54   D(22,7,8,9)            64.0905         estimate D2E/DX2                !
 ! D55   D(22,7,8,24)          179.6699         estimate D2E/DX2                !
 ! D56   D(22,7,8,25)          -51.4889         estimate D2E/DX2                !
 ! D57   D(23,7,8,9)           -64.3927         estimate D2E/DX2                !
 ! D58   D(23,7,8,24)           51.1867         estimate D2E/DX2                !
 ! D59   D(23,7,8,25)         -179.9721         estimate D2E/DX2                !
 ! D60   D(7,8,9,26)           118.2059         estimate D2E/DX2                !
 ! D61   D(7,8,9,27)          -121.7925         estimate D2E/DX2                !
 ! D62   D(7,8,9,28)            -1.7954         estimate D2E/DX2                !
 ! D63   D(24,8,9,26)            2.5665         estimate D2E/DX2                !
 ! D64   D(24,8,9,27)          122.5681         estimate D2E/DX2                !
 ! D65   D(24,8,9,28)         -117.4348         estimate D2E/DX2                !
 ! D66   D(25,8,9,26)         -126.1535         estimate D2E/DX2                !
 ! D67   D(25,8,9,27)           -6.1519         estimate D2E/DX2                !
 ! D68   D(25,8,9,28)          113.8452         estimate D2E/DX2                !
 --------------------------------------------------------------------------------
 Trust Radius=3.00D-01 FncErr=1.00D-07 GrdErr=1.00D-06 EigMax=2.50D+02 EigMin=1.00D-04
 Number of steps in this run=    158 maximum allowed number of steps=    174.
 GradGradGradGradGradGradGradGradGradGradGradGradGradGradGradGradGradGrad

 Leave Link  103 at Mon Oct 14 01:46:44 2019, MaxMem= 10737418240 cpu:               0.5 elap:               0.0
 (Enter /apps/cent7/gaussian/g16-A.03/g16-haswell/g16/l202.exe)
                          Input orientation:                          
 ---------------------------------------------------------------------
 Center     Atomic      Atomic             Coordinates (Angstroms)
 Number     Number       Type             X           Y           Z
 ---------------------------------------------------------------------
      1          6           0       -0.019000    3.437100   -6.205700
      2          6           0        0.670400    2.749700   -5.004500
      3          6           0       -0.232100    2.728100   -3.744100
      4          6           0        0.431500    2.048800   -2.520900
      5         16           0       -0.727300    2.029200   -1.100500
      6          6           0        0.176600    1.250700    0.291500
      7          6           0       -0.712800    1.223200    1.558900
      8          6           0       -0.034800    0.541900    2.775400
      9          6           0       -0.946200    0.534000    4.024300
     10          8           0       -0.905500    3.565600   -0.680600
     11          1           0       -0.408400    2.678200   -6.884300
     12          1           0       -0.839200    4.058900   -5.846900
     13          1           0        0.704600    4.058900   -6.732900
     14          1           0        0.815300    1.708700   -5.293500
     15          1           0        1.530400    3.370300   -4.753000
     16          1           0       -0.378800    3.771000   -3.463100
     17          1           0       -1.090300    2.107100   -4.001100
     18          1           0        0.607900    1.027900   -2.859600
     19          1           0        1.274800    2.700700   -2.292500
     20          1           0        0.342200    0.195900    0.072200
     21          1           0        1.014300    1.885300    0.580500
     22          1           0       -0.859700    2.265200    1.843000
     23          1           0       -1.571400    0.600600    1.307400
     24          1           0        0.109100   -0.502600    2.498700
     25          1           0        0.824900    1.161200    3.031600
     26          1           0       -1.157300   -0.495500    4.313600
     27          1           0       -0.443100    1.046000    4.844600
     28          1           0       -1.880900    1.046000    3.795300
     29          1           0       -0.132641    4.114918   -0.530471
 ---------------------------------------------------------------------
                    Distance matrix (angstroms):
                    1          2          3          4          5
     1  C    0.000000
     2  C    1.546180   0.000000
     3  C    2.570519   1.550349   0.000000
     4  C    3.963342   2.591641   1.548558   0.000000
     5  S    5.342933   4.208789   2.778904   1.833232   0.000000
     6  C    6.858004   5.526161   4.316922   2.934541   1.833238
     7  C    8.103809   6.879074   5.533318   4.316921   2.778894
     8  C    9.436238   8.117791   6.879119   5.526208   4.208826
     9  C   10.674296   9.436204   8.103829   6.858011   5.342950
    10  O    5.597243   4.673892   3.246522   2.734036   1.602684
    11  H    1.089981   2.168541   3.145541   4.487854   5.828828
    12  H    1.090000   2.168533   2.561517   4.088699   5.163382
    13  H    1.090033   2.168534   3.403140   4.675043   6.155806
    14  H    2.124978   1.090045   2.129991   2.819624   4.479239
    15  H    2.124956   1.089953   2.129955   2.817129   4.498501
    16  H    2.786180   2.125979   1.090010   2.123747   2.955875
    17  H    2.788699   2.125985   1.090045   2.123739   2.924264
    18  H    4.170568   2.751199   2.092515   1.089987   2.424829
    19  H    4.186805   2.778965   2.092520   1.090089   2.424908
    20  H    7.074452   5.692319   4.615843   3.188319   2.424880
    21  H    7.037635   5.661950   4.578863   3.159916   2.424797
    22  H    8.176900   7.033079   5.641263   4.556056   2.955912
    23  H    8.179386   7.034513   5.642485   4.556838   2.924275
    24  H    9.555324   8.196983   7.037499   5.640033   4.479265
    25  H    9.550895   8.193052   7.034382   5.636741   4.498555
    26  H   11.287902  10.034879   8.727779   7.463788   5.989281
    27  H   11.313989  10.057199   8.754413   7.484726   6.032551
    28  H   10.450073   9.319238   7.898769   6.800528   5.125069
    29  H    5.716693   4.746118   3.501510   2.923852   2.242493
                    6          7          8          9         10
     6  C    0.000000
     7  C    1.548577   0.000000
     8  C    2.591688   1.550395   0.000000
     9  C    3.963349   2.570539   1.546112   0.000000
    10  O    2.733986   3.246434   4.673844   5.597172   0.000000
    11  H    7.339761   8.573057   9.900160  11.130336   6.286532
    12  H    6.826257   7.931144   9.346679  10.482221   5.190221
    13  H    7.583335   8.877171  10.164830  11.439730   6.282205
    14  H    5.640029   7.037484   8.197026   9.555323   5.261946
    15  H    5.636706   7.034349   8.193077   9.550871   4.749336
    16  H    4.556029   5.641217   7.033086   8.176874   2.839350
    17  H    4.556849   5.642463   7.034549   8.179392   3.631404
    18  H    3.188274   4.615792   5.692318   7.074408   3.671286
    19  H    3.160000   4.578956   5.662074   7.037712   2.846047
    20  H    1.090009   2.092522   2.751206   4.170537   3.671286
    21  H    1.089945   2.092491   2.779014   4.186804   2.845947
    22  H    2.123742   1.089980   2.125933   2.786145   2.839312
    23  H    2.123720   1.089989   2.125937   2.788702   3.631362
    24  H    2.819636   2.130054   1.090069   2.125007   5.261902
    25  H    2.817171   2.130073   1.090071   2.125001   4.749300
    26  H    4.583208   3.277176   2.168470   1.090013   6.441892
    27  H    4.599636   3.301509   2.168505   1.090021   6.090159
    28  H    4.068393   2.529297   2.168501   1.090068   5.228142
    29  H    2.995832   3.614428   4.868759   5.850708   0.960000
                   11         12         13         14         15
    11  H    0.000000
    12  H    1.779921   0.000000
    13  H    1.779894   1.779976   0.000000
    14  H    2.228905   2.926954   2.758182   0.000000
    15  H    2.963172   2.699221   2.253025   1.887968   0.000000
    16  H    3.591615   2.444863   3.456622   3.004883   2.338685
    17  H    3.017281   2.698065   3.807088   2.336735   3.004845
    18  H    4.467053   4.495000   4.919224   2.535818   3.150049
    19  H    4.890633   4.352868   4.678353   3.193933   2.562763
    20  H    7.424157   7.166186   7.833485   5.594919   5.896710
    21  H    7.640419   7.033596   7.635854   5.880022   5.560378
    22  H    8.748715   7.896350   8.900026   7.351527   7.102186
    23  H    8.530706   7.979973   9.043586   7.106061   7.349888
    24  H    9.920987   9.558012  10.314279   8.130618   8.343057
    25  H   10.106799   9.486499  10.186098   8.343089   8.122675
    26  H   11.663027  11.139098  12.092741  10.052165  10.216231
    27  H   11.841975  11.114973  12.018040  10.237373  10.070303
    28  H   10.903494  10.155527  11.251905   9.503418   9.492775
    29  H    6.520073   5.363468   6.258933   5.419864   4.598904
                   16         17         18         19         20
    16  H    0.000000
    17  H    1.887919   0.000000
    18  H    2.976976   2.313348   0.000000
    19  H    2.291340   2.977478   1.888020   0.000000
    20  H    5.079323   4.721919   3.059129   3.568693   0.000000
    21  H    4.674109   5.046741   3.568555   2.997810   1.887898
    22  H    5.536551   5.850784   5.079292   4.674196   2.976961
    23  H    5.850761   5.539059   4.721845   5.046836   2.313302
    24  H    7.351514   7.106089   5.594874   5.880101   2.535772
    25  H    7.102188   7.349938   5.896702   5.560442   3.150056
    26  H    8.904277   8.712764   7.542644   7.731194   4.551484
    27  H    8.743434   8.932593   7.775579   7.525119   4.910720
    28  H    7.897234   7.907897   7.105079   7.053920   4.418859
    29  H    2.962970   4.122343   3.937376   2.661889   3.993418
                   21         22         23         24         25
    21  H    0.000000
    22  H    2.291311   0.000000
    23  H    2.977362   1.887929   0.000000
    24  H    3.193892   3.004868   2.336734   0.000000
    25  H    2.562827   2.338688   3.004895   1.888010   0.000000
    26  H    4.931540   3.716705   3.226477   2.213071   2.883972
    27  H    4.583774   3.266436   3.739415   2.864670   2.215415
    28  H    4.406988   2.518089   2.546334   2.835389   2.813870
    29  H    2.742431   3.095712   4.218795   5.527729   4.725429
                   26         27         28         29
    26  H    0.000000
    27  H    1.779962   0.000000
    28  H    1.780015   1.779972   0.000000
    29  H    6.765420   6.197260   5.584529   0.000000
 Stoichiometry    C8H19OS(1+)
 Framework group  C1[X(C8H19OS)]
 Deg. of freedom    81
 Full point group                 C1      NOp   1
 Largest Abelian subgroup         C1      NOp   1
 Largest concise Abelian subgroup C1      NOp   1
                         Standard orientation:                         
 ---------------------------------------------------------------------
 Center     Atomic      Atomic             Coordinates (Angstroms)
 Number     Number       Type             X           Y           Z
 ---------------------------------------------------------------------
      1          6           0        5.336340    0.076897   -0.207942
      2          6           0        4.058020   -0.651427    0.267572
      3          6           0        2.765860    0.063186   -0.204902
      4          6           0        1.466419   -0.640172    0.258535
      5         16           0       -0.000795    0.248640   -0.388021
      6          6           0       -1.468122   -0.639769    0.258851
      7          6           0       -2.767458    0.063966   -0.204371
      8          6           0       -4.059771   -0.650295    0.268369
      9          6           0       -5.337955    0.078333   -0.206824
     10          8           0       -0.000571    1.664615    0.362718
     11          1           0        5.746312   -0.438281   -1.076605
     12          1           0        5.090451    1.104064   -0.477324
     13          1           0        6.073647    0.078401    0.594896
     14          1           0        4.064273   -1.625211   -0.222228
     15          1           0        4.060598   -0.588620    1.355710
     16          1           0        2.767634    1.038089    0.282626
     17          1           0        2.768600   -0.001937   -1.292996
     18          1           0        1.528508   -1.624291   -0.205928
     19          1           0        1.498202   -0.546820    1.344155
     20          1           0       -1.530621   -1.623897   -0.205590
     21          1           0       -1.499609   -0.546432    1.344335
     22          1           0       -2.768917    1.038807    0.283213
     23          1           0       -2.770458   -0.001244   -1.292404
     24          1           0       -4.066345   -1.624150   -0.221339
     25          1           0       -4.062077   -0.587531    1.356630
     26          1           0       -5.913701   -0.582922   -0.854425
     27          1           0       -5.941034    0.355479    0.657833
     28          1           0       -5.060365    0.976296   -0.758962
     29          1           0        0.072185    1.700736    1.319275
 ---------------------------------------------------------------------
 Rotational constants (GHZ):           4.3971491           0.3076160           0.2971612
 Leave Link  202 at Mon Oct 14 01:46:44 2019, MaxMem= 10737418240 cpu:               0.4 elap:               0.0
 (Enter /apps/cent7/gaussian/g16-A.03/g16-haswell/g16/l301.exe)
 Standard basis: 6-31G(d) (6D, 7F)
 Ernie: Thresh=  0.10000D-02 Tol=  0.10000D-05 Strict=F.
 There are   192 symmetry adapted cartesian basis functions of A   symmetry.
 There are   192 symmetry adapted basis functions of A   symmetry.
   192 basis functions,   380 primitive gaussians,   192 cartesian basis functions
    45 alpha electrons       45 beta electrons
       nuclear repulsion energy       644.6492561104 Hartrees.
 IExCor=  402 DFT=T Ex+Corr=B3LYP ExCW=0 ScaHFX=  0.200000
 ScaDFX=  0.800000  0.720000  1.000000  0.810000 ScalE2=  1.000000  1.000000
 IRadAn=      5 IRanWt=     -1 IRanGd=            0 ICorTp=0 IEmpDi=  4
 NAtoms=   29 NActive=   29 NUniq=   29 SFac= 1.00D+00 NAtFMM=   60 NAOKFM=F Big=F
 Integral buffers will be    131072 words long.
 Raffenetti 2 integral format.
 Two-electron integral symmetry is turned on.
 Leave Link  301 at Mon Oct 14 01:46:44 2019, MaxMem= 10737418240 cpu:               1.6 elap:               0.1
 (Enter /apps/cent7/gaussian/g16-A.03/g16-haswell/g16/l302.exe)
 NPDir=0 NMtPBC=     1 NCelOv=     1 NCel=       1 NClECP=     1 NCelD=      1
         NCelK=      1 NCelE2=     1 NClLst=     1 CellRange=     0.0.
 One-electron integrals computed using PRISM.
 One-electron integral symmetry used in STVInt
 NBasis=   192 RedAO= T EigKep=  3.48D-03  NBF=   192
 NBsUse=   192 1.00D-06 EigRej= -1.00D+00 NBFU=   192
 Precomputing XC quadrature grid using
 IXCGrd= 4 IRadAn=           5 IRanWt=          -1 IRanGd=           0 AccXCQ= 0.00D+00.
 Generated NRdTot=       0 NPtTot=           0 NUsed=           0 NTot=          32
 NSgBfM=   189   189   189   189   189 MxSgAt=    29 MxSgA2=    29.
 Leave Link  302 at Mon Oct 14 01:46:44 2019, MaxMem= 10737418240 cpu:               4.7 elap:               0.2
 (Enter /apps/cent7/gaussian/g16-A.03/g16-haswell/g16/l303.exe)
 DipDrv:  MaxL=1.
 Leave Link  303 at Mon Oct 14 01:46:44 2019, MaxMem= 10737418240 cpu:               0.8 elap:               0.1
 (Enter /apps/cent7/gaussian/g16-A.03/g16-haswell/g16/l401.exe)
 ExpMin= 1.17D-01 ExpMax= 2.19D+04 ExpMxC= 3.30D+03 IAcc=3 IRadAn=         5 AccDes= 0.00D+00
 Harris functional with IExCor=  402 and IRadAn=       5 diagonalized for initial guess.
 HarFok:  IExCor=  402 AccDes= 0.00D+00 IRadAn=         5 IDoV= 1 UseB2=F ITyADJ=14
 ICtDFT=  3500011 ScaDFX=  1.000000  1.000000  1.000000  1.000000
 FoFCou: FMM=F IPFlag=           0 FMFlag=      100000 FMFlg1=           0
         NFxFlg=           0 DoJE=T BraDBF=F KetDBF=T FulRan=T
         wScrn=  0.000000 ICntrl=       500 IOpCl=  0 I1Cent=   200000004 NGrid=           0
         NMat0=    1 NMatS0=      1 NMatT0=    0 NMatD0=    1 NMtDS0=    0 NMtDT0=    0
 Petite list used in FoFCou.
 Harris En= -789.517524805634    
 JPrj=0 DoOrth=F DoCkMO=F.
 Leave Link  401 at Mon Oct 14 01:46:45 2019, MaxMem= 10737418240 cpu:              10.0 elap:               0.5
 (Enter /apps/cent7/gaussian/g16-A.03/g16-haswell/g16/l502.exe)
 Integral symmetry usage will be decided dynamically.
 Closed shell SCF:
 Using DIIS extrapolation, IDIIS=  1040.
 NGot= 10737418240 LenX= 10737337410 LenY= 10737300105
 Requested convergence on RMS density matrix=1.00D-08 within 128 cycles.
 Requested convergence on MAX density matrix=1.00D-06.
 Requested convergence on             energy=1.00D-06.
 No special actions if energy rises.
 Fock matrices will be formed incrementally for  20 cycles.
 Integral accuracy reduced to 1.0D-05 until final iterations.

 Cycle   1  Pass 0  IDiag  1:
 FoFJK:  IHMeth= 1 ICntrl=       0 DoSepK=F KAlg= 0 I1Cent=           0 FoldK=F
 IRaf= 820000000 NMat=       1 IRICut=       1 DoRegI=T DoRafI=F ISym2E= 0 IDoP0=0 IntGTp=1.
 FoFCou: FMM=F IPFlag=           0 FMFlag=      100000 FMFlg1=           0
         NFxFlg=           0 DoJE=F BraDBF=F KetDBF=F FulRan=T
         wScrn=  0.000000 ICntrl=         0 IOpCl=  0 I1Cent=           0 NGrid=           0
         NMat0=    1 NMatS0=      1 NMatT0=    0 NMatD0=    1 NMtDS0=    0 NMtDT0=    0
 Symmetry not used in FoFCou.
 E= -788.923796281679    
 DIIS: error= 3.74D-02 at cycle   1 NSaved=   1.
 NSaved= 1 IEnMin= 1 EnMin= -788.923796281679     IErMin= 1 ErrMin= 3.74D-02
 ErrMax= 3.74D-02  0.00D+00 EMaxC= 1.00D-01 BMatC= 4.48D-01 BMatP= 4.48D-01
 IDIUse=3 WtCom= 6.26D-01 WtEn= 3.74D-01
 Coeff-Com:  0.100D+01
 Coeff-En:   0.100D+01
 Coeff:      0.100D+01
 Gap=     0.344 Goal=   None    Shift=    0.000
 GapD=    0.344 DampG=1.000 DampE=0.500 DampFc=0.5000 IDamp=-1.
 Damping current iteration by 5.00D-01
 RMSDP=8.97D-03 MaxDP=3.52D-01              OVMax= 3.20D-01

 Cycle   2  Pass 0  IDiag  1:
 RMSU=  4.47D-03    CP:  9.86D-01
 E= -789.078651246413     Delta-E=       -0.154854964733 Rises=F Damp=T
 DIIS: error= 1.12D-02 at cycle   2 NSaved=   2.
 NSaved= 2 IEnMin= 2 EnMin= -789.078651246413     IErMin= 2 ErrMin= 1.12D-02
 ErrMax= 1.12D-02  0.00D+00 EMaxC= 1.00D-01 BMatC= 3.41D-02 BMatP= 4.48D-01
 IDIUse=3 WtCom= 8.88D-01 WtEn= 1.12D-01
 Coeff-Com:  0.154D+00 0.846D+00
 Coeff-En:   0.287D+00 0.713D+00
 Coeff:      0.169D+00 0.831D+00
 Gap=     0.240 Goal=   None    Shift=    0.000
 RMSDP=2.21D-03 MaxDP=9.46D-02 DE=-1.55D-01 OVMax= 2.98D-01

 Cycle   3  Pass 0  IDiag  1:
 RMSU=  1.77D-03    CP:  9.83D-01  7.05D-01
 E= -789.378820294880     Delta-E=       -0.300169048467 Rises=F Damp=F
 DIIS: error= 8.66D-03 at cycle   3 NSaved=   3.
 NSaved= 3 IEnMin= 3 EnMin= -789.378820294880     IErMin= 3 ErrMin= 8.66D-03
 ErrMax= 8.66D-03  0.00D+00 EMaxC= 1.00D-01 BMatC= 1.20D-02 BMatP= 3.41D-02
 IDIUse=3 WtCom= 9.13D-01 WtEn= 8.66D-02
 Coeff-Com:  0.366D-01 0.364D+00 0.600D+00
 Coeff-En:   0.000D+00 0.000D+00 0.100D+01
 Coeff:      0.335D-01 0.332D+00 0.634D+00
 Gap=     0.238 Goal=   None    Shift=    0.000
 RMSDP=8.59D-04 MaxDP=2.53D-02 DE=-3.00D-01 OVMax= 2.61D-02

 Cycle   4  Pass 0  IDiag  1:
 RMSU=  7.01D-04    CP:  9.86D-01  7.52D-01  7.49D-01
 E= -789.387615950240     Delta-E=       -0.008795655360 Rises=F Damp=F
 DIIS: error= 4.30D-03 at cycle   4 NSaved=   4.
 NSaved= 4 IEnMin= 4 EnMin= -789.387615950240     IErMin= 4 ErrMin= 4.30D-03
 ErrMax= 4.30D-03  0.00D+00 EMaxC= 1.00D-01 BMatC= 3.56D-03 BMatP= 1.20D-02
 IDIUse=3 WtCom= 9.57D-01 WtEn= 4.30D-02
 Coeff-Com: -0.539D-02 0.611D-01 0.357D+00 0.587D+00
 Coeff-En:   0.000D+00 0.000D+00 0.207D+00 0.793D+00
 Coeff:     -0.515D-02 0.585D-01 0.350D+00 0.596D+00
 Gap=     0.232 Goal=   None    Shift=    0.000
 RMSDP=3.47D-04 MaxDP=1.27D-02 DE=-8.80D-03 OVMax= 1.61D-02

 Cycle   5  Pass 0  IDiag  1:
 RMSU=  2.17D-04    CP:  9.85D-01  7.57D-01  8.33D-01  6.81D-01
 E= -789.390565145643     Delta-E=       -0.002949195403 Rises=F Damp=F
 DIIS: error= 1.68D-03 at cycle   5 NSaved=   5.
 NSaved= 5 IEnMin= 5 EnMin= -789.390565145643     IErMin= 5 ErrMin= 1.68D-03
 ErrMax= 1.68D-03  0.00D+00 EMaxC= 1.00D-01 BMatC= 3.63D-04 BMatP= 3.56D-03
 IDIUse=3 WtCom= 9.83D-01 WtEn= 1.68D-02
 Coeff-Com: -0.566D-02 0.116D-01 0.144D+00 0.328D+00 0.522D+00
 Coeff-En:   0.000D+00 0.000D+00 0.000D+00 0.000D+00 0.100D+01
 Coeff:     -0.556D-02 0.114D-01 0.142D+00 0.323D+00 0.530D+00
 Gap=     0.237 Goal=   None    Shift=    0.000
 RMSDP=1.12D-04 MaxDP=5.06D-03 DE=-2.95D-03 OVMax= 4.06D-03

 Cycle   6  Pass 0  IDiag  1:
 RMSU=  4.71D-05    CP:  9.84D-01  7.50D-01  8.40D-01  7.06D-01  5.69D-01
 E= -789.390860779742     Delta-E=       -0.000295634099 Rises=F Damp=F
 DIIS: error= 2.19D-04 at cycle   6 NSaved=   6.
 NSaved= 6 IEnMin= 6 EnMin= -789.390860779742     IErMin= 6 ErrMin= 2.19D-04
 ErrMax= 2.19D-04  0.00D+00 EMaxC= 1.00D-01 BMatC= 1.17D-05 BMatP= 3.63D-04
 IDIUse=3 WtCom= 9.98D-01 WtEn= 2.19D-03
 Coeff-Com: -0.195D-02-0.281D-03 0.304D-01 0.903D-01 0.222D+00 0.660D+00
 Coeff-En:   0.000D+00 0.000D+00 0.000D+00 0.000D+00 0.000D+00 0.100D+01
 Coeff:     -0.195D-02-0.281D-03 0.303D-01 0.901D-01 0.221D+00 0.660D+00
 Gap=     0.237 Goal=   None    Shift=    0.000
 RMSDP=1.89D-05 MaxDP=5.22D-04 DE=-2.96D-04 OVMax= 5.50D-04

 Cycle   7  Pass 0  IDiag  1:
 RMSU=  1.31D-05    CP:  9.84D-01  7.51D-01  8.42D-01  7.09D-01  6.06D-01
                    CP:  8.05D-01
 E= -789.390870816295     Delta-E=       -0.000010036553 Rises=F Damp=F
 DIIS: error= 3.66D-05 at cycle   7 NSaved=   7.
 NSaved= 7 IEnMin= 7 EnMin= -789.390870816295     IErMin= 7 ErrMin= 3.66D-05
 ErrMax= 3.66D-05  0.00D+00 EMaxC= 1.00D-01 BMatC= 7.25D-07 BMatP= 1.17D-05
 IDIUse=1 WtCom= 1.00D+00 WtEn= 0.00D+00
 Coeff-Com: -0.523D-03-0.711D-03 0.400D-02 0.188D-01 0.601D-01 0.278D+00
 Coeff-Com:  0.641D+00
 Coeff:     -0.523D-03-0.711D-03 0.400D-02 0.188D-01 0.601D-01 0.278D+00
 Coeff:      0.641D+00
 Gap=     0.237 Goal=   None    Shift=    0.000
 RMSDP=5.68D-06 MaxDP=2.16D-04 DE=-1.00D-05 OVMax= 1.66D-04

 Initial convergence to 1.0D-05 achieved.  Increase integral accuracy.
 Cycle   8  Pass 1  IDiag  1:
 E= -789.390852866187     Delta-E=        0.000017950108 Rises=F Damp=F
 DIIS: error= 1.05D-05 at cycle   1 NSaved=   1.
 NSaved= 1 IEnMin= 1 EnMin= -789.390852866187     IErMin= 1 ErrMin= 1.05D-05
 ErrMax= 1.05D-05  0.00D+00 EMaxC= 1.00D-01 BMatC= 6.50D-08 BMatP= 6.50D-08
 IDIUse=1 WtCom= 1.00D+00 WtEn= 0.00D+00
 Coeff-Com:  0.100D+01
 Coeff:      0.100D+01
 Gap=     0.237 Goal=   None    Shift=    0.000
 RMSDP=5.68D-06 MaxDP=2.16D-04 DE= 1.80D-05 OVMax= 7.55D-05

 Cycle   9  Pass 1  IDiag  1:
 RMSU=  3.97D-06    CP:  1.00D+00
 E= -789.390852866305     Delta-E=       -0.000000000118 Rises=F Damp=F
 DIIS: error= 1.18D-05 at cycle   2 NSaved=   2.
 NSaved= 2 IEnMin= 2 EnMin= -789.390852866305     IErMin= 1 ErrMin= 1.05D-05
 ErrMax= 1.18D-05  0.00D+00 EMaxC= 1.00D-01 BMatC= 6.78D-08 BMatP= 6.50D-08
 IDIUse=1 WtCom= 1.00D+00 WtEn= 0.00D+00
 Coeff-Com:  0.506D+00 0.494D+00
 Coeff:      0.506D+00 0.494D+00
 Gap=     0.237 Goal=   None    Shift=    0.000
 RMSDP=1.54D-06 MaxDP=8.07D-05 DE=-1.18D-10 OVMax= 4.72D-05

 Cycle  10  Pass 1  IDiag  1:
 RMSU=  1.20D-06    CP:  1.00D+00  7.61D-01
 E= -789.390852933429     Delta-E=       -0.000000067124 Rises=F Damp=F
 DIIS: error= 1.64D-06 at cycle   3 NSaved=   3.
 NSaved= 3 IEnMin= 3 EnMin= -789.390852933429     IErMin= 3 ErrMin= 1.64D-06
 ErrMax= 1.64D-06  0.00D+00 EMaxC= 1.00D-01 BMatC= 1.25D-09 BMatP= 6.50D-08
 IDIUse=1 WtCom= 1.00D+00 WtEn= 0.00D+00
 Coeff-Com:  0.720D-01 0.143D+00 0.785D+00
 Coeff:      0.720D-01 0.143D+00 0.785D+00
 Gap=     0.237 Goal=   None    Shift=    0.000
 RMSDP=2.44D-07 MaxDP=7.29D-06 DE=-6.71D-08 OVMax= 7.68D-06

 Cycle  11  Pass 1  IDiag  1:
 RMSU=  2.22D-07    CP:  1.00D+00  7.76D-01  9.36D-01
 E= -789.390852934408     Delta-E=       -0.000000000978 Rises=F Damp=F
 DIIS: error= 7.18D-07 at cycle   4 NSaved=   4.
 NSaved= 4 IEnMin= 4 EnMin= -789.390852934408     IErMin= 4 ErrMin= 7.18D-07
 ErrMax= 7.18D-07  0.00D+00 EMaxC= 1.00D-01 BMatC= 2.50D-10 BMatP= 1.25D-09
 IDIUse=1 WtCom= 1.00D+00 WtEn= 0.00D+00
 Coeff-Com: -0.112D-02 0.337D-01 0.378D+00 0.589D+00
 Coeff:     -0.112D-02 0.337D-01 0.378D+00 0.589D+00
 Gap=     0.237 Goal=   None    Shift=    0.000
 RMSDP=1.03D-07 MaxDP=4.83D-06 DE=-9.78D-10 OVMax= 3.03D-06

 Cycle  12  Pass 1  IDiag  1:
 RMSU=  4.25D-08    CP:  1.00D+00  7.84D-01  9.42D-01  6.06D-01
 E= -789.390852934655     Delta-E=       -0.000000000247 Rises=F Damp=F
 DIIS: error= 1.02D-07 at cycle   5 NSaved=   5.
 NSaved= 5 IEnMin= 5 EnMin= -789.390852934655     IErMin= 5 ErrMin= 1.02D-07
 ErrMax= 1.02D-07  0.00D+00 EMaxC= 1.00D-01 BMatC= 4.30D-12 BMatP= 2.50D-10
 IDIUse=1 WtCom= 1.00D+00 WtEn= 0.00D+00
 Coeff-Com: -0.290D-02 0.703D-02 0.108D+00 0.211D+00 0.677D+00
 Coeff:     -0.290D-02 0.703D-02 0.108D+00 0.211D+00 0.677D+00
 Gap=     0.237 Goal=   None    Shift=    0.000
 RMSDP=1.42D-08 MaxDP=3.62D-07 DE=-2.47D-10 OVMax= 4.42D-07

 Cycle  13  Pass 1  IDiag  1:
 RMSU=  1.09D-08    CP:  1.00D+00  7.84D-01  9.44D-01  6.28D-01  8.27D-01
 E= -789.390852934654     Delta-E=        0.000000000001 Rises=F Damp=F
 DIIS: error= 3.06D-08 at cycle   6 NSaved=   6.
 NSaved= 6 IEnMin= 5 EnMin= -789.390852934655     IErMin= 6 ErrMin= 3.06D-08
 ErrMax= 3.06D-08  0.00D+00 EMaxC= 1.00D-01 BMatC= 4.83D-13 BMatP= 4.30D-12
 IDIUse=1 WtCom= 1.00D+00 WtEn= 0.00D+00
 Coeff-Com: -0.126D-02 0.148D-02 0.299D-01 0.667D-01 0.307D+00 0.596D+00
 Coeff:     -0.126D-02 0.148D-02 0.299D-01 0.667D-01 0.307D+00 0.596D+00
 Gap=     0.237 Goal=   None    Shift=    0.000
 RMSDP=4.81D-09 MaxDP=1.24D-07 DE= 1.36D-12 OVMax= 1.82D-07

 SCF Done:  E(RB3LYP) =  -789.390852935     A.U. after   13 cycles
            NFock= 13  Conv=0.48D-08     -V/T= 2.0064
 KE= 7.843709152870D+02 PE=-3.126516508714D+03 EE= 9.081054843816D+02
 Leave Link  502 at Mon Oct 14 01:46:49 2019, MaxMem= 10737418240 cpu:              89.3 elap:               3.8
 (Enter /apps/cent7/gaussian/g16-A.03/g16-haswell/g16/l601.exe)
 Copying SCF densities to generalized density rwf, IOpCl= 0 IROHF=0.

 **********************************************************************

            Population analysis using the SCF density.

 **********************************************************************

 Orbital symmetries:
       Occupied  (A) (A) (A) (A) (A) (A) (A) (A) (A) (A) (A) (A)
                 (A) (A) (A) (A) (A) (A) (A) (A) (A) (A) (A) (A)
                 (A) (A) (A) (A) (A) (A) (A) (A) (A) (A) (A) (A)
                 (A) (A) (A) (A) (A) (A) (A) (A) (A)
       Virtual   (A) (A) (A) (A) (A) (A) (A) (A) (A) (A) (A) (A)
                 (A) (A) (A) (A) (A) (A) (A) (A) (A) (A) (A) (A)
                 (A) (A) (A) (A) (A) (A) (A) (A) (A) (A) (A) (A)
                 (A) (A) (A) (A) (A) (A) (A) (A) (A) (A) (A) (A)
                 (A) (A) (A) (A) (A) (A) (A) (A) (A) (A) (A) (A)
                 (A) (A) (A) (A) (A) (A) (A) (A) (A) (A) (A) (A)
                 (A) (A) (A) (A) (A) (A) (A) (A) (A) (A) (A) (A)
                 (A) (A) (A) (A) (A) (A) (A) (A) (A) (A) (A) (A)
                 (A) (A) (A) (A) (A) (A) (A) (A) (A) (A) (A) (A)
                 (A) (A) (A) (A) (A) (A) (A) (A) (A) (A) (A) (A)
                 (A) (A) (A) (A) (A) (A) (A) (A) (A) (A) (A) (A)
                 (A) (A) (A) (A) (A) (A) (A) (A) (A) (A) (A) (A)
                 (A) (A) (A)
 The electronic state is 1-A.
 Alpha  occ. eigenvalues --  -89.19781 -19.39920 -10.40188 -10.40000 -10.34116
 Alpha  occ. eigenvalues --  -10.33959 -10.31268 -10.31124 -10.28123 -10.27990
 Alpha  occ. eigenvalues --   -8.24832  -6.21469  -6.20939  -6.20401  -1.27868
 Alpha  occ. eigenvalues --   -1.02361  -0.96316  -0.92356  -0.87713  -0.85409
 Alpha  occ. eigenvalues --   -0.79530  -0.77523  -0.71593  -0.70936  -0.70788
 Alpha  occ. eigenvalues --   -0.67948  -0.66311  -0.64786  -0.61404  -0.58390
 Alpha  occ. eigenvalues --   -0.57817  -0.57081  -0.55066  -0.53586  -0.52493
 Alpha  occ. eigenvalues --   -0.51941  -0.51902  -0.50354  -0.48653  -0.47513
 Alpha  occ. eigenvalues --   -0.46147  -0.45898  -0.45681  -0.44684  -0.44530
 Alpha virt. eigenvalues --   -0.20848  -0.14662  -0.12296  -0.10999  -0.06534
 Alpha virt. eigenvalues --   -0.05559  -0.03046  -0.01466  -0.01144   0.00003
 Alpha virt. eigenvalues --    0.00686   0.01692   0.01818   0.02842   0.03093
 Alpha virt. eigenvalues --    0.03781   0.04305   0.04428   0.05142   0.06698
 Alpha virt. eigenvalues --    0.07817   0.10416   0.10662   0.11131   0.12879
 Alpha virt. eigenvalues --    0.13098   0.13608   0.13929   0.17664   0.21043
 Alpha virt. eigenvalues --    0.24445   0.27209   0.29646   0.32649   0.34849
 Alpha virt. eigenvalues --    0.36583   0.40491   0.42557   0.44300   0.44370
 Alpha virt. eigenvalues --    0.47496   0.47964   0.48648   0.50009   0.50884
 Alpha virt. eigenvalues --    0.51518   0.52651   0.53670   0.55536   0.58951
 Alpha virt. eigenvalues --    0.59753   0.60891   0.64557   0.65676   0.66575
 Alpha virt. eigenvalues --    0.67370   0.67538   0.68940   0.69609   0.70598
 Alpha virt. eigenvalues --    0.71438   0.72178   0.73069   0.74131   0.76080
 Alpha virt. eigenvalues --    0.76655   0.76855   0.77351   0.78241   0.79951
 Alpha virt. eigenvalues --    0.80085   0.80564   0.80946   0.81485   0.82858
 Alpha virt. eigenvalues --    0.85900   0.86264   0.86937   0.87272   0.89833
 Alpha virt. eigenvalues --    0.94272   0.96574   0.97386   0.98545   1.04301
 Alpha virt. eigenvalues --    1.16537   1.17916   1.23154   1.24704   1.26514
 Alpha virt. eigenvalues --    1.27868   1.31623   1.37669   1.41542   1.48624
 Alpha virt. eigenvalues --    1.49656   1.54780   1.61795   1.65417   1.68822
 Alpha virt. eigenvalues --    1.69600   1.73690   1.74040   1.76072   1.76586
 Alpha virt. eigenvalues --    1.76823   1.82320   1.84486   1.85159   1.89400
 Alpha virt. eigenvalues --    1.89882   1.92152   1.92547   1.94437   1.96997
 Alpha virt. eigenvalues --    1.97803   1.99984   2.01304   2.06163   2.07439
 Alpha virt. eigenvalues --    2.08710   2.12906   2.13626   2.15261   2.16309
 Alpha virt. eigenvalues --    2.21682   2.22077   2.24029   2.27135   2.27697
 Alpha virt. eigenvalues --    2.36199   2.43981   2.45793   2.50292   2.52699
 Alpha virt. eigenvalues --    2.60639   2.61768   3.53412   3.73467   3.98044
 Alpha virt. eigenvalues --    3.98452   4.08816   4.09601   4.22185   4.23243
 Alpha virt. eigenvalues --    4.37336   4.38478
          Condensed to atoms (all electrons):
               1          2          3          4          5          6
     1  C    5.069009   0.354197  -0.033623   0.004113  -0.000148   0.000000
     2  C    0.354197   4.995992   0.355243  -0.030360   0.002973  -0.000039
     3  C   -0.033623   0.355243   5.124651   0.298739  -0.028894   0.001811
     4  C    0.004113  -0.030360   0.298739   5.466678   0.219980  -0.022536
     5  S   -0.000148   0.002973  -0.028894   0.219980  14.681375   0.213977
     6  C    0.000000  -0.000039   0.001811  -0.022536   0.213977   5.472125
     7  C   -0.000000   0.000000  -0.000021   0.001754  -0.028201   0.298719
     8  C    0.000000  -0.000000   0.000000  -0.000039   0.002948  -0.030814
     9  C   -0.000000   0.000000  -0.000000   0.000000  -0.000146   0.004251
    10  O    0.000001   0.000018  -0.001046  -0.021098   0.177303  -0.022789
    11  H    0.385099  -0.031270  -0.000293  -0.000120   0.000004  -0.000000
    12  H    0.381097  -0.045620  -0.009014   0.000297   0.000015   0.000000
    13  H    0.383722  -0.029658   0.003266  -0.000139   0.000003  -0.000000
    14  H   -0.039667   0.385937  -0.046994  -0.005424   0.000018   0.000000
    15  H   -0.041735   0.386305  -0.046588  -0.006121   0.000105   0.000002
    16  H   -0.003847  -0.040302   0.381842  -0.053717  -0.004304   0.000083
    17  H   -0.002380  -0.041356   0.385329  -0.055354   0.002306  -0.000019
    18  H   -0.000041  -0.002823  -0.034376   0.348540  -0.022257   0.000717
    19  H   -0.000079  -0.002591  -0.041889   0.351693  -0.028727  -0.003161
    20  H    0.000000  -0.000001   0.000004   0.000592  -0.021414   0.347532
    21  H    0.000000  -0.000001  -0.000003  -0.003068  -0.027915   0.352128
    22  H   -0.000000   0.000000   0.000001   0.000072  -0.004041  -0.053965
    23  H    0.000000   0.000000   0.000001  -0.000015   0.002209  -0.055254
    24  H   -0.000000   0.000000   0.000000   0.000000   0.000018  -0.005684
    25  H   -0.000000   0.000000   0.000000   0.000002   0.000104  -0.005839
    26  H    0.000000  -0.000000   0.000000  -0.000000   0.000003  -0.000136
    27  H    0.000000  -0.000000   0.000000  -0.000000   0.000003  -0.000141
    28  H   -0.000000   0.000000   0.000000   0.000000   0.000017   0.000344
    29  H    0.000000  -0.000025  -0.000116  -0.004930  -0.006456  -0.004351
               7          8          9         10         11         12
     1  C   -0.000000   0.000000  -0.000000   0.000001   0.385099   0.381097
     2  C    0.000000  -0.000000   0.000000   0.000018  -0.031270  -0.045620
     3  C   -0.000021   0.000000  -0.000000  -0.001046  -0.000293  -0.009014
     4  C    0.001754  -0.000039   0.000000  -0.021098  -0.000120   0.000297
     5  S   -0.028201   0.002948  -0.000146   0.177303   0.000004   0.000015
     6  C    0.298719  -0.030814   0.004251  -0.022789  -0.000000   0.000000
     7  C    5.122842   0.356792  -0.031416  -0.001163   0.000000   0.000000
     8  C    0.356792   4.997776   0.347888   0.000016  -0.000000   0.000000
     9  C   -0.031416   0.347888   5.076530   0.000001   0.000000  -0.000000
    10  O   -0.001163   0.000016   0.000001   8.240410  -0.000000  -0.000001
    11  H    0.000000  -0.000000   0.000000  -0.000000   0.527041  -0.025890
    12  H    0.000000   0.000000  -0.000000  -0.000001  -0.025890   0.550514
    13  H    0.000000  -0.000000   0.000000  -0.000000  -0.025294  -0.026064
    14  H    0.000000   0.000000  -0.000000  -0.000001  -0.009593   0.005037
    15  H    0.000000   0.000000  -0.000000  -0.000001   0.004266   0.002651
    16  H    0.000001   0.000000  -0.000000   0.005738  -0.000214   0.004726
    17  H    0.000001   0.000000   0.000000  -0.000357   0.001657   0.000945
    18  H    0.000006  -0.000001   0.000000   0.001335  -0.000012   0.000023
    19  H   -0.000004  -0.000001   0.000000  -0.002051   0.000005   0.000017
    20  H   -0.034871  -0.002757  -0.000047   0.001347  -0.000000   0.000000
    21  H   -0.041503  -0.002540  -0.000090  -0.001744  -0.000000   0.000000
    22  H    0.382875  -0.040665  -0.003278   0.005759   0.000000   0.000000
    23  H    0.385496  -0.040987  -0.003414  -0.000329  -0.000000   0.000000
    24  H   -0.046729   0.387759  -0.040626  -0.000001   0.000000  -0.000000
    25  H   -0.046583   0.387000  -0.041036  -0.000001   0.000000  -0.000000
    26  H    0.001649  -0.030478   0.385165  -0.000000  -0.000000   0.000000
    27  H    0.002038  -0.030525   0.384811  -0.000000  -0.000000   0.000000
    28  H   -0.009045  -0.047270   0.381638  -0.000000   0.000000  -0.000000
    29  H   -0.000102  -0.000015   0.000000   0.234370  -0.000000   0.000000
              13         14         15         16         17         18
     1  C    0.383722  -0.039667  -0.041735  -0.003847  -0.002380  -0.000041
     2  C   -0.029658   0.385937   0.386305  -0.040302  -0.041356  -0.002823
     3  C    0.003266  -0.046994  -0.046588   0.381842   0.385329  -0.034376
     4  C   -0.000139  -0.005424  -0.006121  -0.053717  -0.055354   0.348540
     5  S    0.000003   0.000018   0.000105  -0.004304   0.002306  -0.022257
     6  C   -0.000000   0.000000   0.000002   0.000083  -0.000019   0.000717
     7  C    0.000000   0.000000   0.000000   0.000001   0.000001   0.000006
     8  C   -0.000000   0.000000   0.000000   0.000000   0.000000  -0.000001
     9  C    0.000000  -0.000000  -0.000000  -0.000000   0.000000   0.000000
    10  O   -0.000000  -0.000001  -0.000001   0.005738  -0.000357   0.001335
    11  H   -0.025294  -0.009593   0.004266  -0.000214   0.001657  -0.000012
    12  H   -0.026064   0.005037   0.002651   0.004726   0.000945   0.000023
    13  H    0.520540   0.002001  -0.009043   0.000285  -0.000070   0.000002
    14  H    0.002001   0.559284  -0.019306   0.005508  -0.004006   0.005377
    15  H   -0.009043  -0.019306   0.566333  -0.004045   0.005638  -0.000317
    16  H    0.000285   0.005508  -0.004045   0.551861  -0.017072   0.005927
    17  H   -0.000070  -0.004006   0.005638  -0.017072   0.536784  -0.003170
    18  H    0.000002   0.005377  -0.000317   0.005927  -0.003170   0.467810
    19  H   -0.000003  -0.000242   0.005271  -0.003474   0.005810  -0.008854
    20  H   -0.000000   0.000000   0.000000  -0.000003   0.000004   0.000336
    21  H    0.000000   0.000000  -0.000000   0.000001   0.000002   0.000074
    22  H    0.000000  -0.000000   0.000000  -0.000001   0.000000  -0.000003
    23  H    0.000000   0.000000  -0.000000   0.000000  -0.000000   0.000004
    24  H    0.000000  -0.000000  -0.000000  -0.000000   0.000000   0.000000
    25  H    0.000000  -0.000000  -0.000000   0.000000  -0.000000   0.000000
    26  H   -0.000000   0.000000   0.000000   0.000000   0.000000  -0.000000
    27  H   -0.000000   0.000000   0.000000   0.000000   0.000000  -0.000000
    28  H    0.000000  -0.000000  -0.000000   0.000000   0.000000   0.000000
    29  H   -0.000000   0.000001  -0.000000   0.000354   0.000043   0.000062
              19         20         21         22         23         24
     1  C   -0.000079   0.000000   0.000000  -0.000000   0.000000  -0.000000
     2  C   -0.002591  -0.000001  -0.000001   0.000000   0.000000   0.000000
     3  C   -0.041889   0.000004  -0.000003   0.000001   0.000001   0.000000
     4  C    0.351693   0.000592  -0.003068   0.000072  -0.000015   0.000000
     5  S   -0.028727  -0.021414  -0.027915  -0.004041   0.002209   0.000018
     6  C   -0.003161   0.347532   0.352128  -0.053965  -0.055254  -0.005684
     7  C   -0.000004  -0.034871  -0.041503   0.382875   0.385496  -0.046729
     8  C   -0.000001  -0.002757  -0.002540  -0.040665  -0.040987   0.387759
     9  C    0.000000  -0.000047  -0.000090  -0.003278  -0.003414  -0.040626
    10  O   -0.002051   0.001347  -0.001744   0.005759  -0.000329  -0.000001
    11  H    0.000005  -0.000000  -0.000000   0.000000  -0.000000   0.000000
    12  H    0.000017   0.000000   0.000000   0.000000   0.000000  -0.000000
    13  H   -0.000003  -0.000000   0.000000   0.000000   0.000000   0.000000
    14  H   -0.000242   0.000000   0.000000  -0.000000   0.000000  -0.000000
    15  H    0.005271   0.000000  -0.000000   0.000000  -0.000000  -0.000000
    16  H   -0.003474  -0.000003   0.000001  -0.000001   0.000000  -0.000000
    17  H    0.005810   0.000004   0.000002   0.000000  -0.000000   0.000000
    18  H   -0.008854   0.000336   0.000074  -0.000003   0.000004   0.000000
    19  H    0.503300   0.000097   0.002180   0.000002   0.000002   0.000000
    20  H    0.000097   0.470035  -0.008770   0.005907  -0.003146   0.005423
    21  H    0.002180  -0.008770   0.501166  -0.003340   0.005764  -0.000262
    22  H    0.000002   0.005907  -0.003340   0.547202  -0.017019   0.005484
    23  H    0.000002  -0.003146   0.005764  -0.017019   0.537527  -0.003952
    24  H    0.000000   0.005423  -0.000262   0.005484  -0.003952   0.559257
    25  H   -0.000000  -0.000310   0.005194  -0.004016   0.005549  -0.019111
    26  H   -0.000000  -0.000010   0.000004  -0.000136   0.000824  -0.010166
    27  H    0.000000   0.000003  -0.000005   0.000682  -0.000109   0.003256
    28  H   -0.000000   0.000025   0.000021   0.002964   0.002496   0.004347
    29  H    0.004003   0.000039   0.003297   0.000162   0.000033   0.000000
              25         26         27         28         29
     1  C   -0.000000   0.000000   0.000000  -0.000000   0.000000
     2  C    0.000000  -0.000000  -0.000000   0.000000  -0.000025
     3  C    0.000000   0.000000   0.000000   0.000000  -0.000116
     4  C    0.000002  -0.000000  -0.000000   0.000000  -0.004930
     5  S    0.000104   0.000003   0.000003   0.000017  -0.006456
     6  C   -0.005839  -0.000136  -0.000141   0.000344  -0.004351
     7  C   -0.046583   0.001649   0.002038  -0.009045  -0.000102
     8  C    0.387000  -0.030478  -0.030525  -0.047270  -0.000015
     9  C   -0.041036   0.385165   0.384811   0.381638   0.000000
    10  O   -0.000001  -0.000000  -0.000000  -0.000000   0.234370
    11  H    0.000000  -0.000000  -0.000000   0.000000  -0.000000
    12  H   -0.000000   0.000000   0.000000  -0.000000   0.000000
    13  H    0.000000  -0.000000  -0.000000   0.000000  -0.000000
    14  H   -0.000000   0.000000   0.000000  -0.000000   0.000001
    15  H   -0.000000   0.000000   0.000000  -0.000000  -0.000000
    16  H    0.000000   0.000000   0.000000   0.000000   0.000354
    17  H   -0.000000   0.000000   0.000000   0.000000   0.000043
    18  H    0.000000  -0.000000  -0.000000   0.000000   0.000062
    19  H   -0.000000  -0.000000   0.000000  -0.000000   0.004003
    20  H   -0.000310  -0.000010   0.000003   0.000025   0.000039
    21  H    0.005194   0.000004  -0.000005   0.000021   0.003297
    22  H   -0.004016  -0.000136   0.000682   0.002964   0.000162
    23  H    0.005549   0.000824  -0.000109   0.002496   0.000033
    24  H   -0.019111  -0.010166   0.003256   0.004347   0.000000
    25  H    0.563728   0.003473  -0.010208   0.004171  -0.000000
    26  H    0.003473   0.522181  -0.025261  -0.025469  -0.000000
    27  H   -0.010208  -0.025261   0.523846  -0.025751  -0.000000
    28  H    0.004171  -0.025469  -0.025751   0.548150   0.000000
    29  H   -0.000000  -0.000000  -0.000000   0.000000   0.311595
 Mulliken charges:
               1
     1  C   -0.455719
     2  C   -0.256620
     3  C   -0.308030
     4  C   -0.489536
     5  S    0.869140
     6  C   -0.486961
     7  C   -0.312533
     8  C   -0.254087
     9  C   -0.460230
    10  O   -0.615714
    11  H    0.174616
    12  H    0.161266
    13  H    0.180453
    14  H    0.162071
    15  H    0.156584
    16  H    0.170653
    17  H    0.185263
    18  H    0.241638
    19  H    0.218695
    20  H    0.239983
    21  H    0.219411
    22  H    0.175355
    23  H    0.184320
    24  H    0.160986
    25  H    0.157883
    26  H    0.178356
    27  H    0.177360
    28  H    0.163363
    29  H    0.462035
 Sum of Mulliken charges =   1.00000
 Mulliken charges with hydrogens summed into heavy atoms:
               1
     1  C    0.060617
     2  C    0.062035
     3  C    0.047886
     4  C   -0.029203
     5  S    0.869140
     6  C   -0.027568
     7  C    0.047141
     8  C    0.064782
     9  C    0.058848
    10  O   -0.153679
 Electronic spatial extent (au):  <R**2>=           3803.7185
 Charge=              1.0000 electrons
 Dipole moment (field-independent basis, Debye):
    X=              0.1506    Y=             -1.0534    Z=              1.8622  Tot=              2.1448
 Quadrupole moment (field-independent basis, Debye-Ang):
   XX=            -37.8643   YY=            -66.8160   ZZ=            -63.4919
   XY=              0.1978   XZ=              0.1943   YZ=              5.8984
 Traceless Quadrupole moment (field-independent basis, Debye-Ang):
   XX=             18.1931   YY=            -10.7586   ZZ=             -7.4345
   XY=              0.1978   XZ=              0.1943   YZ=              5.8984
 Octapole moment (field-independent basis, Debye-Ang**2):
  XXX=              0.9290  YYY=              4.7503  ZZZ=             10.1131  XYY=              0.2025
  XXY=            -10.6375  XXZ=              1.8688  XZZ=              0.4400  YZZ=              7.5668
  YYZ=              2.7006  XYZ=              0.0734
 Hexadecapole moment (field-independent basis, Debye-Ang**3):
 XXXX=          -3979.5150 YYYY=           -283.0075 ZZZZ=           -149.3601 XXXY=              0.9667
 XXXZ=              4.2533 YYYX=              2.4952 YYYZ=             24.3743 ZZZX=             -1.3753
 ZZZY=             16.0362 XXYY=           -815.2078 XXZZ=           -764.6832 YYZZ=            -65.5798
 XXYZ=             32.2970 YYXZ=              1.2311 ZZXY=             -1.3655
 N-N= 6.446492561104D+02 E-N=-3.126516513870D+03  KE= 7.843709152870D+02
 No NMR shielding tensors so no spin-rotation constants.
 Leave Link  601 at Mon Oct 14 01:46:49 2019, MaxMem= 10737418240 cpu:               2.4 elap:               0.1
 (Enter /apps/cent7/gaussian/g16-A.03/g16-haswell/g16/l701.exe)
 ... and contract with generalized density number  0.
 Compute integral first derivatives.
 Leave Link  701 at Mon Oct 14 01:46:49 2019, MaxMem= 10737418240 cpu:               5.4 elap:               0.3
 (Enter /apps/cent7/gaussian/g16-A.03/g16-haswell/g16/l702.exe)
 L702 exits ... SP integral derivatives will be done elsewhere.
 Leave Link  702 at Mon Oct 14 01:46:49 2019, MaxMem= 10737418240 cpu:               0.5 elap:               0.0
 (Enter /apps/cent7/gaussian/g16-A.03/g16-haswell/g16/l703.exe)
 Integral derivatives from FoFJK, PRISM(SPDF).
 Compute integral first derivatives, UseDBF=F ICtDFT=           0.
 Calling FoFJK, ICntrl=      2127 FMM=F ISym2X=0 I1Cent= 0 IOpClX= 0 NMat=1 NMatS=1 NMatT=0.
 FoFJK:  IHMeth= 1 ICntrl=    2127 DoSepK=F KAlg= 0 I1Cent=           0 FoldK=F
 IRaf=         0 NMat=       1 IRICut=       1 DoRegI=T DoRafI=F ISym2E= 0 IDoP0=0 IntGTp=1.
 FoFCou: FMM=F IPFlag=           0 FMFlag=      100000 FMFlg1=         800
         NFxFlg=           0 DoJE=F BraDBF=F KetDBF=F FulRan=T
         wScrn=  0.000000 ICntrl=      2127 IOpCl=  0 I1Cent=           0 NGrid=           0
         NMat0=    1 NMatS0=      1 NMatT0=    0 NMatD0=    1 NMtDS0=    0 NMtDT0=    0
 Symmetry not used in FoFCou.
 Leave Link  703 at Mon Oct 14 01:46:50 2019, MaxMem= 10737418240 cpu:              25.2 elap:               1.1
 (Enter /apps/cent7/gaussian/g16-A.03/g16-haswell/g16/l716.exe)
 Dipole        = 5.92636220D-02-4.14427969D-01 7.32657261D-01
 ***** Axes restored to original set *****
 -------------------------------------------------------------------
 Center     Atomic                   Forces (Hartrees/Bohr)
 Number     Number              X              Y              Z
 -------------------------------------------------------------------
      1        6          -0.000828268   -0.004324855    0.009255871
      2        6          -0.015991182    0.005714245    0.007071487
      3        6           0.006629321   -0.004423343   -0.000844749
      4        6          -0.007957135    0.019026529   -0.023253885
      5       16           0.005541158   -0.019260289   -0.004996264
      6        6          -0.011837161    0.004993673    0.027961321
      7        6           0.007007555   -0.003585884   -0.000547191
      8        6          -0.014068889    0.008555948   -0.006953578
      9        6           0.000938501    0.002184044   -0.008270687
     10        8          -0.025232790    0.005092262    0.000618601
     11        1          -0.003520764    0.002539398   -0.003634504
     12        1          -0.003256372    0.004785250   -0.004717343
     13        1          -0.001632162    0.001022894   -0.003678148
     14        1           0.021366100   -0.000420525    0.002603079
     15        1           0.014053352   -0.013893613   -0.001136756
     16        1          -0.019950618    0.000991566   -0.003227603
     17        1          -0.014915238    0.013824377    0.001098159
     18        1           0.012076493   -0.005778542    0.015607053
     19        1           0.012838444   -0.014860052    0.009968653
     20        1           0.014636043    0.002502749   -0.014092288
     21        1           0.014883463   -0.008034744   -0.013849335
     22        1          -0.020306596    0.000214734   -0.000282122
     23        1          -0.014955795    0.012893198    0.003938706
     24        1           0.020954120    0.000305291    0.000290082
     25        1           0.014636974   -0.014179114   -0.004316197
     26        1          -0.003337297    0.000481025    0.004032628
     27        1          -0.003378476   -0.000247366    0.003885971
     28        1          -0.005154751    0.000539518    0.005695686
     29        1           0.020761969    0.003341626    0.001773351
 -------------------------------------------------------------------
 Cartesian Forces:  Max     0.027961321 RMS     0.010616271
 Leave Link  716 at Mon Oct 14 01:46:50 2019, MaxMem= 10737418240 cpu:               0.6 elap:               0.0
 (Enter /apps/cent7/gaussian/g16-A.03/g16-haswell/g16/l103.exe)

 GradGradGradGradGradGradGradGradGradGradGradGradGradGradGradGradGradGrad
 Berny optimization.
 FormGI is forming the generalized inverse of G from B-inverse, IUseBI=4.
 Internal  Forces:  Max     0.023335793 RMS     0.007290267
 Search for a local minimum.
 Step number   1 out of a maximum of  158
 All quantities printed in internal units (Hartrees-Bohrs-Radians)
 RMS Force = .72903D-02 SwitMx=.10000D-02 MixMth= 1
 Mixed Optimization -- RFO/linear search
 Second derivative matrix not updated -- first step.
 ITU=  0
     Eigenvalues ---    0.00230   0.00230   0.00230   0.00230   0.00230
     Eigenvalues ---    0.00230   0.00230   0.00230   0.02583   0.03851
     Eigenvalues ---    0.03852   0.03980   0.03981   0.04772   0.04773
     Eigenvalues ---    0.04924   0.05111   0.05111   0.05150   0.05151
     Eigenvalues ---    0.05714   0.05714   0.05715   0.05715   0.05877
     Eigenvalues ---    0.05877   0.07737   0.07738   0.07939   0.07940
     Eigenvalues ---    0.08231   0.08231   0.11767   0.11768   0.11924
     Eigenvalues ---    0.11924   0.12167   0.12167   0.14547   0.16000
     Eigenvalues ---    0.16000   0.16000   0.16000   0.16000   0.16000
     Eigenvalues ---    0.16000   0.19539   0.22497   0.22497   0.22503
     Eigenvalues ---    0.22504   0.22533   0.22533   0.23664   0.23664
     Eigenvalues ---    0.27618   0.27622   0.27772   0.27774   0.27978
     Eigenvalues ---    0.27984   0.34802   0.34804   0.34805   0.34805
     Eigenvalues ---    0.34807   0.34807   0.34809   0.34810   0.34811
     Eigenvalues ---    0.34811   0.34812   0.34813   0.34814   0.34814
     Eigenvalues ---    0.34815   0.34815   0.34818   0.34819   0.50702
     Eigenvalues ---    0.55473
 RFO step:  Lambda=-4.61482261D-02 EMin= 2.30000000D-03
 Linear search not attempted -- first point.
 Maximum step size (   0.300) exceeded in Quadratic search.
    -- Step size scaled by   0.716
 Iteration  1 RMS(Cart)=  0.05570010 RMS(Int)=  0.00145849
 Iteration  2 RMS(Cart)=  0.00188019 RMS(Int)=  0.00072473
 Iteration  3 RMS(Cart)=  0.00000267 RMS(Int)=  0.00072473
 Iteration  4 RMS(Cart)=  0.00000001 RMS(Int)=  0.00072473
 ITry= 1 IFail=0 DXMaxC= 1.66D-01 DCOld= 1.00D+10 DXMaxT= 3.00D-01 DXLimC= 3.00D+00 Rises=F
 Variable       Old X    -DE/DX   Delta X   Delta X   Delta X     New X
                                 (Linear)    (Quad)   (Total)
    R1        2.92186   0.00806   0.00000   0.01771   0.01771   2.93956
    R2        2.05977   0.00175   0.00000   0.00318   0.00318   2.06295
    R3        2.05980   0.00363   0.00000   0.00659   0.00659   2.06639
    R4        2.05986   0.00128   0.00000   0.00232   0.00232   2.06219
    R5        2.92973   0.00118   0.00000   0.00263   0.00263   2.93236
    R6        2.05989   0.00255   0.00000   0.00463   0.00463   2.06452
    R7        2.05971   0.00292   0.00000   0.00529   0.00529   2.06500
    R8        2.92635   0.00808   0.00000   0.01786   0.01786   2.94421
    R9        2.05982   0.00280   0.00000   0.00509   0.00509   2.06491
   R10        2.05989   0.00361   0.00000   0.00655   0.00655   2.06644
   R11        3.46431  -0.00460   0.00000  -0.01165  -0.01165   3.45265
   R12        2.05978   0.00252   0.00000   0.00457   0.00457   2.06435
   R13        2.05997   0.00313   0.00000   0.00569   0.00569   2.06566
   R14        3.46432  -0.00471   0.00000  -0.01191  -0.01191   3.45240
   R15        3.02863   0.00921   0.00000   0.01192   0.01192   3.04055
   R16        2.92639   0.00795   0.00000   0.01757   0.01757   2.94396
   R17        2.05982   0.00264   0.00000   0.00479   0.00479   2.06460
   R18        2.05970   0.00309   0.00000   0.00561   0.00561   2.06530
   R19        2.92982   0.00125   0.00000   0.00277   0.00277   2.93259
   R20        2.05976   0.00287   0.00000   0.00521   0.00521   2.06497
   R21        2.05978   0.00351   0.00000   0.00637   0.00637   2.06615
   R22        2.92173   0.01075   0.00000   0.02359   0.02359   2.94532
   R23        2.05993   0.00240   0.00000   0.00436   0.00436   2.06429
   R24        2.05994   0.00247   0.00000   0.00449   0.00449   2.06443
   R25        2.05983   0.00126   0.00000   0.00229   0.00229   2.06212
   R26        2.05984   0.00125   0.00000   0.00227   0.00227   2.06211
   R27        2.05993   0.00348   0.00000   0.00631   0.00631   2.06624
   R28        1.81414   0.01890   0.00000   0.02252   0.02252   1.83666
    A1        1.91073   0.00550   0.00000   0.01928   0.01908   1.92981
    A2        1.91070   0.00750   0.00000   0.02651   0.02628   1.93698
    A3        1.91067   0.00294   0.00000   0.00952   0.00941   1.92008
    A4        1.91059  -0.00602   0.00000  -0.01954  -0.01985   1.89074
    A5        1.91051  -0.00456   0.00000  -0.01680  -0.01687   1.89363
    A6        1.91061  -0.00536   0.00000  -0.01898  -0.01911   1.89150
    A7        1.95868  -0.01452   0.00000  -0.02596  -0.02577   1.93291
    A8        1.85238   0.00724   0.00000   0.02953   0.02966   1.88204
    A9        1.85244   0.00716   0.00000   0.02981   0.02995   1.88238
   A10        1.85419   0.00559   0.00000   0.02028   0.02047   1.87466
   A11        1.85423   0.00599   0.00000   0.02268   0.02286   1.87709
   A12        2.09446  -0.01336   0.00000  -0.07939  -0.07936   2.01510
   A13        1.98103  -0.02334   0.00000  -0.05066  -0.05002   1.93101
   A14        1.84897   0.00752   0.00000   0.02428   0.02484   1.87381
   A15        1.84894   0.00797   0.00000   0.02635   0.02690   1.87584
   A16        1.84809   0.00960   0.00000   0.03558   0.03592   1.88401
   A17        1.84804   0.00921   0.00000   0.03401   0.03437   1.88242
   A18        2.09428  -0.01418   0.00000  -0.07712  -0.07737   2.01691
   A19        1.92392  -0.00922   0.00000  -0.01145  -0.01077   1.91315
   A20        1.80777   0.01512   0.00000   0.07133   0.07061   1.87839
   A21        1.80769   0.01450   0.00000   0.07543   0.07460   1.88229
   A22        1.91033  -0.00628   0.00000  -0.04225  -0.04276   1.86757
   A23        1.91034  -0.00170   0.00000  -0.01498  -0.01588   1.89445
   A24        2.09443  -0.01078   0.00000  -0.06303  -0.06804   2.02639
   A25        1.85583  -0.00521   0.00000  -0.01987  -0.01998   1.83585
   A26        1.83696   0.00002   0.00000  -0.00709  -0.00732   1.82964
   A27        1.83691  -0.00043   0.00000  -0.00877  -0.00897   1.82793
   A28        1.92389  -0.00960   0.00000  -0.01259  -0.01189   1.91199
   A29        1.91037  -0.00621   0.00000  -0.04212  -0.04258   1.86779
   A30        1.91032  -0.00157   0.00000  -0.01453  -0.01537   1.89495
   A31        1.80774   0.01518   0.00000   0.07129   0.07056   1.87830
   A32        1.80776   0.01450   0.00000   0.07515   0.07431   1.88207
   A33        2.09440  -0.01073   0.00000  -0.06241  -0.06739   2.02701
   A34        1.98102  -0.02326   0.00000  -0.05050  -0.04986   1.93116
   A35        1.84809   0.00938   0.00000   0.03472   0.03508   1.88316
   A36        1.84805   0.00935   0.00000   0.03452   0.03487   1.88292
   A37        1.84888   0.00772   0.00000   0.02528   0.02583   1.87472
   A38        1.84888   0.00773   0.00000   0.02527   0.02581   1.87469
   A39        2.09443  -0.01413   0.00000  -0.07683  -0.07708   2.01735
   A40        1.95872  -0.01439   0.00000  -0.02545  -0.02526   1.93346
   A41        1.85420   0.00543   0.00000   0.01954   0.01972   1.87392
   A42        1.85422   0.00561   0.00000   0.02054   0.02072   1.87495
   A43        1.85247   0.00752   0.00000   0.03148   0.03160   1.88407
   A44        1.85246   0.00743   0.00000   0.03128   0.03140   1.88386
   A45        2.09431  -0.01348   0.00000  -0.08037  -0.08036   2.01395
   A46        1.91068   0.00483   0.00000   0.01656   0.01637   1.92705
   A47        1.91072   0.00468   0.00000   0.01604   0.01586   1.92658
   A48        1.91067   0.00795   0.00000   0.02805   0.02779   1.93846
   A49        1.91059  -0.00508   0.00000  -0.01850  -0.01861   1.89198
   A50        1.91061  -0.00624   0.00000  -0.02122  -0.02147   1.88914
   A51        1.91053  -0.00616   0.00000  -0.02095  -0.02120   1.88933
   A52        2.09440  -0.01695   0.00000  -0.05886  -0.05886   2.03554
    D1       -1.75793   0.00056   0.00000   0.00974   0.00968  -1.74825
    D2        0.26028   0.00403   0.00000   0.03808   0.03798   0.29826
    D3        2.50697  -0.00335   0.00000  -0.02165  -0.02168   2.48529
    D4        0.33651   0.00115   0.00000   0.01385   0.01390   0.35042
    D5        2.35472   0.00462   0.00000   0.04220   0.04220   2.39692
    D6       -1.68177  -0.00276   0.00000  -0.01754  -0.01745  -1.69923
    D7        2.43094   0.00098   0.00000   0.01268   0.01269   2.44363
    D8       -1.83404   0.00445   0.00000   0.04102   0.04100  -1.79305
    D9        0.41265  -0.00293   0.00000  -0.01871  -0.01866   0.39399
   D10       -3.13902  -0.00019   0.00000  -0.00200  -0.00201  -3.14103
   D11       -1.11857   0.00380   0.00000   0.02946   0.02939  -1.08918
   D12        1.12379  -0.00400   0.00000  -0.03285  -0.03277   1.09102
   D13        1.12706  -0.00466   0.00000  -0.03594  -0.03594   1.09112
   D14       -3.13568  -0.00066   0.00000  -0.00447  -0.00453  -3.14021
   D15       -0.89332  -0.00846   0.00000  -0.06679  -0.06670  -0.96001
   D16       -1.12182   0.00441   0.00000   0.03370   0.03367  -1.08815
   D17        0.89862   0.00841   0.00000   0.06516   0.06508   0.96371
   D18        3.14098   0.00061   0.00000   0.00285   0.00292  -3.13928
   D19       -3.11296   0.00146   0.00000   0.00933   0.00946  -3.10351
   D20       -1.07073  -0.00194   0.00000  -0.00666  -0.00755  -1.07828
   D21        1.12802  -0.00012   0.00000  -0.00853  -0.00780   1.12022
   D22        1.14925  -0.00132   0.00000  -0.01549  -0.01517   1.13409
   D23       -3.09170  -0.00472   0.00000  -0.03149  -0.03217  -3.12387
   D24       -0.89295  -0.00290   0.00000  -0.03335  -0.03242  -0.92537
[...]
 0020559,-0.00014542,0.00007690,-0.00078931,-0.00012999,0.00108014,0.00
 310057,-0.00005360,-0.00515377,-0.00634539,-0.00403015,-0.00109117,0.0
 2872312,0.02203103,0.06315870,0.00001226,-0.00000254,-0.00000216,-0.00
 002360,0.00000715,-0.00000276,0.00004246,-0.00000054,-0.00000818,-0.00
 003022,0.00002979,0.00000893,-0.00016378,0.00010412,0.00017985,0.00034
 563,-0.00033067,0.00095791,-0.00766044,0.01847244,0.00273888,-0.079069
 96,0.07536655,0.01779059,-0.00625238,0.01656534,0.00517137,0.00005622,
 -0.00015816,-0.00019216,-0.00000222,0.00000028,-0.00000014,-0.00000120
 ,-0.00000053,0.00000071,-0.00000103,0.00000215,-0.00000453,0.00000359,
 -0.00000083,-0.00000143,-0.00000008,-0.00000141,0.00000022,-0.00000202
 ,-0.00000520,0.00000294,-0.00000397,0.00000224,0.00000018,0.00000737,0
 .00000521,0.00000493,0.00000225,-0.00000579,-0.00001202,0.00047945,-0.
 00009076,-0.00045172,0.00002736,-0.00011299,-0.00017885,-0.00142275,0.
 00137755,-0.00307568,0.00038494,-0.00003452,0.00086270,0.08338030,-0.0
 0001189,0.00000221,0.00000524,0.00002844,-0.00001333,0.00000514,-0.000
 06450,0.00000447,0.00003017,0.00008150,-0.00008152,-0.00000320,0.00014
 953,-0.00000506,0.00024880,0.00000488,0.00009966,-0.00091087,0.0036614
 0,-0.01050094,-0.00110895,0.07616537,-0.26641116,-0.05309646,-0.000925
 92,0.00283205,0.00015439,-0.00016402,0.00036877,0.00001594,0.00000113,
 -0.00000039,-0.00000073,-0.00000038,0.00000235,-0.00000125,0.00000162,
 -0.00000263,0.00000417,-0.00000205,0.00000543,0.00000395,0.00000002,-0
 .00000229,-0.00000143,-0.00000206,0.00000739,-0.00000662,0.00000277,-0
 .00000066,-0.00000377,0.00000976,0.00000535,0.00001202,-0.00000313,-0.
 00001240,0.00001282,-0.00015063,-0.00001746,0.00106217,0.00003896,-0.0
 0010333,-0.00004295,0.00109134,0.00093825,0.00182850,0.00001077,0.0008
 9558,0.00020749,-0.08582002,0.28736015,-0.00000105,-0.00000089,0.00000
 086,0.00000342,-0.00000889,0.00000084,-0.00001590,0.00000884,0.0000109
 1,0.00007039,-0.00001483,0.00008579,-0.00024516,0.00010506,0.00080281,
 -0.00073169,0.00132078,0.00129648,-0.00922894,0.02603549,0.00293841,0.
 01789650,-0.05384515,-0.06117780,0.01024395,-0.02777369,-0.00802845,0.
 00010609,-0.00020586,-0.00040050,-0.00000012,0.00000029,-0.00000009,-0
 .00000043,-0.00000030,0.00000056,0.00000043,-0.00000040,-0.00000013,0.
 00000187,0.00000075,-0.00000268,-0.00000090,-0.00000024,0.00000112,0.0
 0000096,-0.00000720,0.00000558,-0.00000206,0.00000116,-0.00000142,0.00
 000537,-0.00000261,-0.00001095,0.00000148,0.00000356,-0.00002020,0.000
 31654,-0.00036637,-0.00027515,0.00004124,-0.00000424,-0.00006912,-0.00
 302906,0.00198955,-0.00407854,0.00073698,-0.00060318,0.00098425,-0.020
 10002,0.05593058,0.07180993,0.00001739,-0.00000472,-0.00000543,-0.0000
 4311,0.00001089,-0.00001545,0.00007914,-0.00000863,-0.00003046,-0.0001
 1507,0.00012304,-0.00002102,0.00023744,-0.00002044,0.00021861,0.000255
 29,-0.00029792,0.00113161,-0.01586197,-0.01030967,-0.00399818,-0.21032
 380,-0.11909860,-0.02625332,-0.01421823,-0.01068626,-0.00090689,0.0000
 1168,0.00009662,-0.00002198,0.00000036,0.00000085,0.00000147,-0.000002
 35,0.00000086,0.00000052,-0.00000238,0.00000247,-0.00000632,-0.0000000
 9,-0.00000046,0.00000052,0.00000385,0.00000184,0.00000298,-0.00000508,
 0.00000188,-0.00000100,-0.00000209,-0.00000013,0.00000193,-0.00001133,
 -0.00000183,0.00001421,0.00001462,0.00000823,-0.00004359,0.00000453,0.
 00008415,-0.00008194,0.00056561,0.00017626,-0.00088292,0.00039116,0.00
 002116,0.00055977,-0.00102940,0.00171661,-0.00273086,0.01009241,0.0060
 8680,0.00152657,0.22947790,0.00000303,0.00000170,-0.00000356,-0.000011
 46,0.00000072,-0.00000268,0.00004140,0.00000610,-0.00002669,-0.0001127
 3,-0.00003052,-0.00009918,0.00019651,0.00022431,-0.00024953,0.00028806
 ,0.00037220,-0.00012983,0.01113949,0.00739545,0.00257500,-0.11964938,-
 0.14288154,-0.02009815,-0.00030162,-0.00032014,0.00016743,-0.00003092,
 -0.00007260,-0.00005475,0.00000164,0.,0.00000141,0.00000022,-0.0000010
 1,0.00000049,-0.00000116,0.00000013,-0.00000079,-0.00000087,-0.0000020
 3,-0.00000193,0.00000311,0.00000490,0.00000059,0.00000027,-0.00000228,
 0.00000356,0.00000433,-0.00000312,0.00000553,-0.00000864,-0.00000482,-
 0.00000433,-0.00001790,0.00001896,0.00001540,-0.00014471,-0.00012478,0
 .00012568,-0.00018219,0.00016740,-0.00044067,-0.00009556,0.00096220,-0
 .00067757,0.00190141,0.00023744,0.00251900,-0.02480947,-0.01786623,-0.
 00398197,0.13129146,0.14989987,0.00000248,-0.00000118,-0.00000040,-0.0
 0001080,-0.00000049,-0.00001335,0.00000726,0.00000462,0.00000705,0.000
 04563,0.00008621,0.00006891,0.00020225,0.00002087,0.00070228,-0.001581
 41,-0.00107296,0.00072209,-0.02124692,-0.01543416,-0.00652451,-0.02631
 764,-0.01961259,-0.05210568,0.02496125,0.01869675,0.00291682,0.0000277
 0,-0.00005919,-0.00009826,0.00000050,0.00000023,0.00000028,-0.00000020
 ,-0.00000010,-0.00000006,-0.00000021,0.00000045,-0.00000108,-0.0000011
 2,-0.00000057,0.00000087,-0.00000140,0.00000102,0.00000315,-0.00000118
 ,0.00000103,-0.00000228,-0.00000457,-0.00000236,-0.00000289,-0.0000071
 7,-0.00000454,-0.00000005,0.00002890,0.00002183,-0.00005956,-0.0000290
 4,-0.00003438,-0.00007068,0.00048455,0.00036244,-0.00049350,0.00088684
 ,0.00008848,0.00091327,-0.00265696,0.00233714,-0.00383920,-0.00573632,
 -0.00420446,-0.00126451,0.02899016,0.01923678,0.06202162,-0.00001378,0
 .00000336,0.00000168,0.00002484,-0.00001190,-0.00000040,-0.00004669,0.
 00000835,0.00000878,0.00005170,-0.00002507,0.00000382,-0.00000145,0.00
 001786,0.00007937,0.00021381,0.00029143,-0.00014626,0.00060316,0.00030
 664,-0.00084743,-0.01445095,-0.01000837,-0.00141451,-0.21401900,-0.126
 27342,-0.02059331,0.00001137,-0.00004210,0.00002785,0.00000280,0.00000
 026,0.00000033,0.00000097,-0.00000017,-0.00000072,0.00000110,-0.000002
 73,0.00000504,-0.00000226,0.00000089,0.00000028,0.00000055,0.00000183,
 0.00000062,0.00000129,0.00000139,-0.00000221,0.00000246,-0.00000100,-0
 .00000104,-0.00000430,-0.00000608,-0.00000248,-0.00000157,0.00000560,0
 .00000014,-0.00004074,-0.00000775,0.00000342,0.00006171,0.00004942,-0.
 00022619,0.00004952,0.00003788,0.00007069,0.00062192,-0.00018434,0.000
 74175,0.00023109,0.00034099,-0.00036414,-0.00061661,0.00038076,0.00339
 771,0.23113732,0.00000186,-0.00000088,-0.00000080,-0.00000562,0.000000
 38,0.00000060,0.00000009,-0.00000338,0.00000157,0.00001008,0.00000922,
 0.00002658,-0.00004777,-0.00003186,0.00010641,0.00024705,0.00018234,0.
 00005970,-0.00029633,-0.00011909,-0.00026829,0.00065268,-0.00022256,0.
 00048125,-0.12678439,-0.14856198,-0.01603021,0.00002113,-0.00000173,-0
 .00001222,0.00000015,0.00000081,0.00000090,-0.00000082,-0.00000055,0.0
 0000019,0.00000020,0.00000032,-0.00000129,0.00000034,-0.00000056,-0.00
 000053,0.00000147,0.00000065,0.00000032,-0.00000167,-0.00000116,-0.000
 00008,-0.00000036,0.00000198,0.00000102,-0.00000101,0.00000119,-0.0000
 0016,0.00000367,-0.00000065,-0.00000718,0.00000705,-0.00000364,-0.0000
 3692,0.00006517,-0.00000603,-0.00012953,-0.00012235,-0.00006379,-0.000
 04792,0.00009450,0.00004935,0.00061894,0.00032364,0.00062530,0.0005767
 4,0.00036885,0.00136985,-0.00016014,0.13980668,0.15582965,-0.00000689,
 0.00000136,0.00000176,0.00001516,-0.00000442,0.00000363,-0.00002690,0.
 00000548,0.00000631,0.00003431,-0.00003136,0.00002869,-0.00017790,-0.0
 0001876,-0.00013240,0.00013375,-0.00017546,0.00028694,0.00118954,0.000
 53022,0.00185618,0.02425313,0.01937599,0.00172926,-0.02141637,-0.01645
 741,-0.05217628,0.00000214,0.00000562,0.00002386,0.00000043,0.00000002
 ,-0.00000059,0.00000060,0.,-0.00000046,0.00000058,-0.00000119,0.000002
 60,-0.00000009,0.00000062,0.00000012,-0.00000068,-0.00000077,-0.000000
 57,0.00000082,-0.00000027,-0.00000033,0.00000112,0.00000082,-0.0000005
 0,0.00000403,0.00000053,-0.00000336,0.00000135,-0.00000394,0.00000990,
 0.00005213,0.00000095,0.00002997,-0.00019423,-0.00009188,0.00010145,-0
 .00009511,0.00002220,-0.00010359,-0.00061158,-0.00020261,-0.00035579,-
 0.00082040,-0.00016832,0.00125946,0.00338069,0.00036469,-0.00513563,0.
 01986327,0.01746191,0.05577003,-0.00003230,0.00000639,0.00000966,0.000
 06779,-0.00002859,0.00001640,-0.00016420,0.00001719,0.00006393,0.00026
 001,-0.00014661,0.00017798,-0.00029318,0.00013677,0.00061512,0.0008353
 8,-0.00016909,0.00042477,-0.00184934,-0.00022152,0.00346867,0.01120580
 ,-0.00744494,0.01523515,-0.13989526,0.05495058,-0.11711970,-0.00001712
 ,-0.00008989,-0.00009052,0.00000220,0.00000043,-0.00000057,0.00000199,
 -0.00000115,-0.00000135,0.00000481,-0.00000540,0.00001075,-0.00000188,
 0.00000237,0.00000059,-0.00000347,-0.00000114,-0.00000090,0.00000287,-
 0.00000046,-0.00000527,0.00000006,0.00000252,-0.00000771,0.00001115,-0
 .00000025,-0.00001400,0.00000066,-0.00000455,-0.00000455,0.00008102,0.
 00001272,-0.00004302,0.00004900,-0.00005748,-0.00004916,-0.00021969,-0
 .00008797,-0.00000885,0.00006603,0.00019939,0.00023185,0.00074025,-0.0
 0000131,-0.00076662,0.00091862,-0.00012910,-0.00068655,-0.01441626,0.0
 1031021,-0.01861678,0.14882695,-0.00000513,0.00000131,0.00000045,0.000
 01049,-0.00000073,-0.00000150,-0.00001071,0.00000058,-0.00000558,0.000
 01144,0.00000768,-0.00002068,-0.00003274,0.00003983,-0.00007353,0.0001
 7782,0.00045711,0.00013965,-0.00038850,0.00026245,-0.00018454,-0.00011
 461,-0.00134252,-0.00017401,0.05459948,-0.08219333,0.06996928,0.000004
 79,-0.00001704,0.00004110,0.00000030,-0.00000020,-0.00000043,0.0000010
 4,-0.00000022,-0.00000043,0.00000035,-0.00000056,0.00000224,-0.0000005
 3,-0.00000034,0.00000020,-0.00000106,-0.00000024,-0.00000016,0.0000019
 1,0.00000019,-0.00000020,-0.00000007,-0.00000047,-0.00000077,-0.000000
 78,-0.00000398,-0.00000105,-0.00000069,0.00000081,0.00000218,-0.000065
 67,-0.00000296,0.00005855,0.00003442,-0.00002779,-0.00002154,-0.000234
 93,0.00038581,-0.00028471,0.00029879,0.00001751,0.00020749,-0.00043050
 ,0.00032071,-0.00013448,0.00008110,-0.00011574,0.00015614,-0.01173294,
 0.00808723,-0.01658246,-0.05974322,0.08383631,0.00006122,-0.00001365,-
 0.00001396,-0.00012489,0.00004771,-0.00001235,0.00024580,-0.00004526,-
 0.00006432,-0.00036639,0.00016072,-0.00015039,0.00045478,-0.00018673,-
 0.00053739,-0.00103008,0.00052462,-0.00055964,0.00429142,-0.00042272,-
 0.00364088,-0.01619325,0.00949787,-0.02089836,-0.11569037,0.06952425,-
 0.19610158,-0.00000780,0.00019997,0.00000542,-0.00000589,-0.00000005,0
 .00000203,-0.00000521,0.00000132,0.00000320,-0.00000698,0.00001053,-0.
 00002201,0.00000489,-0.00000416,-0.00000158,0.00000625,0.00000074,0.00
 000037,-0.00000814,-0.00000086,0.00000806,-0.00000342,0.00000007,0.000
 01085,-0.00000552,0.00001071,0.00001738,-0.00000426,-0.00000481,0.0000
 0047,-0.00010560,-0.00001414,-0.00001482,-0.00000082,0.00008220,-0.000
 06157,0.00017359,0.00005292,0.00017856,0.00023469,-0.00018699,0.000253
 65,-0.00046267,-0.00052441,0.00083370,-0.00007542,0.00026761,0.0011269
 1,-0.00129435,0.00023293,-0.00159060,0.12406880,-0.07640390,0.21324610
 ,-0.00001156,0.00000313,0.00000177,0.00002341,-0.00000559,0.00000100,-
 0.00003629,0.00000850,0.00000632,0.00004299,-0.00001437,-0.00000462,0.
 00000013,0.00000983,-0.00002630,-0.00002511,-0.00006252,-0.00025468,0.
 00039498,-0.00015198,-0.00087153,-0.00704646,0.01688053,0.00468710,-0.
 07749589,0.07667311,0.02119994,0.00001011,-0.00009034,0.00004034,0.000
 00095,-0.00000041,-0.00000069,0.00000204,-0.00000079,-0.00000052,0.000
 00095,-0.00000168,0.00000471,-0.00000104,-0.00000070,-0.00000027,-0.00
 000229,0.00000029,-0.00000003,0.00000363,0.00000010,-0.00000076,0.0000
 0022,-0.00000139,-0.00000211,-0.00000322,-0.00000405,-0.00000469,-0.00
 000327,0.00000419,0.00000450,0.00001240,-0.00000105,-0.00015290,-0.000
 03623,0.00001431,0.00002990,0.00049427,-0.00031545,0.00028676,0.000050
 42,-0.00014731,0.00004398,-0.00114632,-0.00052229,0.00354842,0.0002207
 4,0.00025468,-0.00070606,0.01060713,-0.02464661,-0.00698191,-0.0061841
 4,0.01752940,0.00586451,0.08011469,0.00000893,-0.00000296,-0.00000160,
 -0.00001684,0.00000589,-0.00000258,0.00003599,-0.00000864,-0.00001157,
 -0.00005755,0.00003252,-0.00002807,0.00004824,-0.00010693,-0.00013441,
 -0.00016380,0.00037080,0.00007485,-0.00031074,0.00056284,0.00010419,-0
 .00085927,0.00315202,0.00096820,0.07736939,-0.27028221,-0.06138460,0.0
 0001163,0.00006610,0.00003247,-0.00000059,-0.00000039,-0.00000004,-0.0
 0000105,0.00000167,0.00000042,-0.00000122,0.00000127,-0.00000307,-0.00
 000008,0.00000120,0.00000066,0.00000111,-0.00000063,-0.00000005,-0.000
 00100,0.00000209,0.00000064,0.00000053,-0.00000080,0.00000150,-0.00000
 174,-0.00000115,0.00000631,0.00000092,-0.00000353,0.00000238,-0.000038
 12,-0.00008036,0.00016190,-0.00000571,-0.00000330,0.00000423,-0.000127
 80,0.00025827,-0.00069302,0.00007169,-0.00008819,0.00001962,-0.0003889
 2,0.00156117,0.00103923,0.00038657,0.00075824,-0.00044077,0.00701627,-
 0.01712824,-0.00403563,0.00246961,-0.00972621,-0.00271558,-0.08545347,
 0.29067586,-0.00000657,0.00000125,0.00000185,0.00001410,-0.00000394,0.
 00000071,-0.00002322,-0.00000033,0.00000272,0.00002187,-0.00002462,0.0
 0000400,-0.00005565,0.00003489,-0.00009700,0.00011105,0.00011944,0.000
 36942,0.00045613,-0.00177057,0.00135666,0.00938954,-0.02727193,-0.0091
 3093,0.02100044,-0.06069532,-0.06636631,-0.00004098,0.00011651,0.00005
 838,0.00000078,-0.00000028,-0.00000060,0.00000054,0.00000089,-0.000000
 77,0.00000036,-0.00000117,0.00000277,-0.00000127,0.00000157,0.00000155
 ,-0.00000034,-0.00000077,-0.00000050,0.00000046,0.00000288,-0.00000220
 ,0.00000129,-0.00000051,-0.00000089,0.00000338,-0.00000305,0.00000134,
 0.00000109,-0.00000355,0.00000432,-0.00013449,0.00010249,0.00019806,0.
 00001647,-0.00004359,0.00003528,-0.00040135,0.00078972,-0.00042839,-0.
 00004698,0.00002241,-0.00008515,0.00325664,0.00066246,-0.00480203,-0.0
 0064101,0.00044217,0.00116731,0.00071743,-0.00285581,-0.00161476,-0.00
 691910,0.02333374,0.00795056,-0.02673016,0.06704580,0.07142957,-0.0000
 3865,-0.00003611,0.00000445,0.00008824,0.00001883,0.00012239,-0.000369
 14,-0.00023208,-0.00006596,0.00308811,0.00169735,0.00004889,0.00919394
 ,0.02075608,0.00640529,0.00257743,0.00109477,0.00140652,-0.00026293,-0
 .00035822,-0.00011592,0.00010766,0.00010568,-0.00003554,-0.00004901,-0
 .00002923,-0.00002328,-0.32028270,-0.21003350,-0.08803494,-0.00001167,
 0.00000040,-0.00002129,0.00001315,0.00000441,0.00000502,0.00000172,0.0
 0000269,0.00000803,-0.00000764,-0.00001767,-0.00001944,-0.00008324,-0.
 00002708,0.00003112,0.00014155,0.00000419,-0.00004925,-0.00010170,0.00
 008553,-0.00017956,-0.00060005,-0.00042773,0.00014060,-0.00085054,-0.0
 0066783,-0.00066964,-0.00050007,-0.00017476,-0.00038816,-0.00082484,-0
 .00084806,-0.00002216,0.00004357,-0.00001951,0.00017528,-0.00013190,0.
 00004859,0.00016959,-0.00002560,-0.00000707,-0.00001412,-0.00005925,-0
 .00001067,-0.00004770,-0.00000913,-0.00000789,0.00001581,0.00000223,0.
 00001075,-0.00001488,0.00001278,0.00000702,0.00000954,0.30893770,-0.00
 015926,0.00004839,0.00001458,0.00030644,-0.00005026,0.00005167,-0.0004
 2006,0.00045967,-0.00027158,0.00053160,0.00454506,0.00074406,-0.022294
 89,-0.03828784,-0.01377838,-0.00081505,0.00351888,0.00199602,-0.000165
 56,-0.00017444,0.00043405,0.00031724,0.00006276,0.00011417,-0.00019852
 ,0.00004885,0.00000408,-0.16714050,-0.15666337,-0.05787391,0.00000934,
 -0.00001421,-0.00001311,0.00003986,-0.00003471,0.00002169,0.00001608,-
 0.00003140,0.00005544,-0.00001175,-0.00005596,-0.00003732,-0.00008359,
 0.00002547,0.00000655,0.00016788,0.00007740,-0.00008934,0.00007620,-0.
 00016190,0.00008331,-0.00083061,-0.00020880,0.00117784,0.00100267,0.00
 025398,-0.00115752,-0.00046512,0.00074987,-0.00107800,0.00108152,-0.00
 033226,0.00096626,-0.00012682,0.00003933,0.00047906,0.00010374,0.00010
 112,-0.00016885,-0.00006361,-0.00001146,-0.00006173,-0.00003099,0.0000
 0535,0.00001390,0.00002623,-0.00001219,0.00000407,0.00002451,0.0000148
 0,-0.00009090,0.00004193,-0.00001640,-0.00000080,0.18906110,0.18610429
 ,-0.00012121,0.00001946,-0.00004465,0.00013690,0.00027157,-0.00009426,
 0.00049628,-0.00061387,-0.00048511,-0.00181656,0.00051844,-0.00119281,
 -0.00575469,-0.00983519,-0.00000607,0.00240339,0.00249735,0.00036220,-
 0.00067684,0.00077735,0.00004420,0.00009073,-0.00015228,-0.00022717,0.
 00001986,0.00002563,-0.00003480,-0.07591821,-0.06179706,-0.03018873,0.
 00003573,0.00000509,0.00000928,0.00001633,0.00002595,-0.00003693,-0.00
 001015,-0.00001684,0.00007891,-0.00012041,0.00001593,0.00012717,0.0000
 7512,-0.00001879,-0.00003492,-0.00035384,0.00042621,-0.00063085,-0.000
 00058,0.00026162,0.00025306,0.00001932,0.00050314,0.00041444,0.0006605
 6,-0.00015594,0.00029706,-0.00046177,-0.00033850,-0.00064419,-0.000337
 78,-0.00036393,0.00085665,0.00049513,-0.00004412,-0.00049645,0.0000035
 8,-0.00035131,0.00002040,0.00007319,-0.00011040,0.00010083,-0.00011327
 ,0.00004628,-0.00003890,-0.00002912,-0.00001801,0.00000468,0.00001100,
 -0.00002103,0.00003218,0.00001800,-0.00001144,-0.00005496,0.08115931,0
 .06845469,0.03160973\\-0.00000038,0.00000111,-0.00000135,-0.00000071,-
 0.00000172,0.00000119,0.00000033,0.00000116,-0.00000012,0.00000112,0.0
 0000011,0.00000106,-0.00000051,-0.00000124,0.00000219,0.00000259,0.000
 00093,0.00000105,-0.00000101,-0.00000092,0.00000177,-0.00000002,-0.000
 00122,-0.00000170,0.00000253,0.00000072,0.00000185,0.00000111,0.000005
 00,-0.00000906,0.00000002,0.00000075,0.00000016,0.00000029,0.00000045,
 -0.00000019,-0.00000008,0.00000006,0.00000019,-0.00000055,-0.00000108,
 -0.00000031,0.00000061,-0.00000157,-0.00000026,0.00000041,0.00000078,0
 .00000019,-0.00000096,0.00000110,0.00000011,-0.00000220,-0.00000138,-0
 .00000023,-0.00000030,-0.00000100,-0.00000121,-0.00000032,-0.00000072,
 -0.00000011,0.00000058,-0.00000117,-0.00000189,-0.00000048,0.00000055,
 0.00000028,-0.00000138,0.00000155,0.00000087,-0.00000247,0.00000103,-0
 .00000037,0.00000124,-0.00000175,0.00000216,-0.00000079,0.00000021,-0.
 00000004,-0.00000028,-0.00000045,-0.00000200,0.00000068,0.00000062,-0.
 00000230,0.00000091,-0.00000191,0.00000809\\\@


 THOUGH I SPEAK WITH THE TONGUES OF MEN AND OF ANGELS, 
 AND HAVE NOT LOVE,
 I AM BECOME AS SOUNDING BRASS, A TINKLING CYMBAL.
 AND THOUGH I HAVE THE GIFT OF PROPHECY,
 AND UNDERSTAND ALL MYSTERIES, AND ALL KNOWLEDGE.
 AND THOUGH I HAVE ALL FAITH, SO THAT I COULD REMOVE MOUNTAINS,
 AND HAVE NOT LOVE, I AM NOTHING.
 AND THOUGH I BESTOW ALL MY GOODS TO FEED THE POOR,
 AND THOUGH I GIVE MY BODY TO BE BURNED,
 AND HAVE NOT LOVE IT PROFITETH ME NOTHING.
 LOVE SUFFERETH LONG, AND IS KIND,
 LOVE ENVIETH NOT,
 LOVE VAUNTETH NOT ITSELF, IS NOT PUFFED UP,
 DOTH NOT BEHAVE ITSELF UNSEEMLY, SEEKETH NOT HER OWN,
 IS NOT EASILY PROVOKED, THINKETH NO EVIL,
 REJOICETH NOT IN INIQUITY, BUT REJOICETH IN THE TRUTH,
 BEARETH ALL THINGS, BELIEVETH ALL THINGS,
 HOPETH ALL THINGS, ENDURETH ALL THINGS.
 LOVE NEVER FAILETH, BUT WHETHER THERE BE PROPHECIES, THEY SHALL FAIL, 
 WHETHER THERE BE TONGUES, THEY SHALL CEASE,
 WHETHER THERE BE KNOWLEDGE, IT SHALL VANISH AWAY.
 FOR WE KNOW IN PART, AND WE PROPHESY IN PART.
 BUT WHEN THAT WHICH IS PERFECT IS COME, THEN THAT WHICH IS IN PART 
 SHALL BE DONE AWAY. 
 WHEN I WAS A CHILD, I SPAKE AS A CHILD, I UNDERSTOOD AS A CHILD, 
 I THOUGHT AS A CHILD.
 BUT WHEN I BECAME A MAN, I PUT AWAY CHILDISH THINGS.
 FOR NOW WE SEE THROUGH A GLASS, DARKLY, BUT THEN FACE TO FACE.
 NOW I KNOW IN PART. BUT THEN SHALL I KNOW EVEN AS ALSO I AM KNOWN.
 AND NOW ABIDETH FAITH, HOPE AND LOVE, THESE THREE.
 BUT THE GREATEST OF THESE IS LOVE.

                     I CORINTHIANS 13
 Job cpu time:       0 days  0 hours 14 minutes 38.9 seconds.
 Elapsed time:       0 days  0 hours  0 minutes 37.2 seconds.
 File lengths (MBytes):  RWF=    134 Int=      0 D2E=      0 Chk=      5 Scr=      1
 Normal termination of Gaussian 16 at Mon Oct 14 01:49:05 2019.
real 141.76
user 3183.19
sys 24.07
Machine:
brown-a471
brown-a471
brown-a471
brown-a471
brown-a471
brown-a471
brown-a471
brown-a471
brown-a471
brown-a471
brown-a471
brown-a471
brown-a471
brown-a471
brown-a471
brown-a471
brown-a471
brown-a471
brown-a471
brown-a471
brown-a471
brown-a471
brown-a471
brown-a471
