Title Card Required                                                     
Freq      RB3LYP                                                      6-31G(d)            
Number of atoms                            I               24
Info1-9                                    I   N=           9
          58          58        1002           0           0         100
           6          18        -502
Full Title                                 C   N=           2
Title Card Required     
Route                                      C   N=           6
#P opt freq b3lyp/6-31g(d) geom=connectivity temperature=0.0
01          
Charge                                     I                0
Multiplicity                               I                1
Number of electrons                        I              106
Number of alpha electrons                  I               53
Number of beta electrons                   I               53
Number of basis functions                  I              234
Number of independent functions            I              234
Number of point charges in /Mol/           I                0
Number of translation vectors              I                0
Atomic numbers                             I   N=          24
           8          16           6           6           6           6
           6           6           6           6           6           6
           6           6           1           1           1           1
           1           1           1           1           1           1
Nuclear charges                            R   N=          24
  8.00000000E+00  1.60000000E+01  6.00000000E+00  6.00000000E+00  6.00000000E+00
  6.00000000E+00  6.00000000E+00  6.00000000E+00  6.00000000E+00  6.00000000E+00
  6.00000000E+00  6.00000000E+00  6.00000000E+00  6.00000000E+00  1.00000000E+00
  1.00000000E+00  1.00000000E+00  1.00000000E+00  1.00000000E+00  1.00000000E+00
  1.00000000E+00  1.00000000E+00  1.00000000E+00  1.00000000E+00
Current cartesian coordinates              R   N=          72
  4.04990132E-07  4.78477641E+00  6.00276141E-01 -3.04524522E-08  2.25985998E+00
  1.95129355E+00 -2.60893361E+00  4.31101655E-01  6.00440598E-01 -3.42986500E+00
 -1.78942695E+00  1.76016544E+00 -5.47575001E+00 -3.09445771E+00  7.26762191E-01
 -6.69363823E+00 -2.15905452E+00 -1.42116878E+00 -5.87501069E+00  8.89781744E-02
 -2.53650550E+00 -3.82611083E+00  1.40324311E+00 -1.52059667E+00  2.60893378E+00
  4.31101410E-01  6.00441153E-01  3.42986317E+00 -1.78942879E+00  1.76016440E+00
  5.47574812E+00 -3.09445974E+00  7.26761136E-01  6.69363821E+00 -2.15905524E+00
 -1.42116815E+00  5.87501227E+00  8.89787758E-02 -2.53650362E+00  3.82611247E+00
  1.40324372E+00 -1.52059488E+00 -2.49965633E+00 -2.49561602E+00  3.45073095E+00
 -6.12912963E+00 -4.82987179E+00  1.60884060E+00 -8.29407931E+00 -3.17355509E+00
 -2.21209313E+00 -6.83817499E+00  8.24255041E-01 -4.19460898E+00 -3.16433068E+00
  3.17451260E+00 -2.31891517E+00  2.49965355E+00 -2.49561888E+00  3.45072886E+00
  6.12912599E+00 -4.82987500E+00  1.60883823E+00  8.29407931E+00 -3.17355558E+00
 -2.21209249E+00  6.83817771E+00  8.24256188E-01 -4.19460622E+00  3.16433367E+00
  3.17451415E+00 -2.31891248E+00
Number of symbols in /Mol/                 I                0
Force Field                                I                0
Atom Types                                 C   N=          24
                                                            
                                                            
                                                            
                                                            
                                                
Int Atom Types                             I   N=          24
           0           0           0           0           0           0
           0           0           0           0           0           0
           0           0           0           0           0           0
           0           0           0           0           0           0
MM charges                                 R   N=          24
  0.00000000E+00  0.00000000E+00  0.00000000E+00  0.00000000E+00  0.00000000E+00
  0.00000000E+00  0.00000000E+00  0.00000000E+00  0.00000000E+00  0.00000000E+00
  0.00000000E+00  0.00000000E+00  0.00000000E+00  0.00000000E+00  0.00000000E+00
  0.00000000E+00  0.00000000E+00  0.00000000E+00  0.00000000E+00  0.00000000E+00
  0.00000000E+00  0.00000000E+00  0.00000000E+00  0.00000000E+00
Integer atomic weights                     I   N=          24
          16          32          12          12          12          12
          12          12          12          12          12          12
          12          12           1           1           1           1
           1           1           1           1           1           1
Real atomic weights                        R   N=          24
  1.59949146E+01  3.19720718E+01  1.20000000E+01  1.20000000E+01  1.20000000E+01
  1.20000000E+01  1.20000000E+01  1.20000000E+01  1.20000000E+01  1.20000000E+01
  1.20000000E+01  1.20000000E+01  1.20000000E+01  1.20000000E+01  1.00782504E+00
  1.00782504E+00  1.00782504E+00  1.00782504E+00  1.00782504E+00  1.00782504E+00
  1.00782504E+00  1.00782504E+00  1.00782504E+00  1.00782504E+00
Atom fragment info                         I   N=          24
           0           0           0           0           0           0
           0           0           0           0           0           0
           0           0           0           0           0           0
           0           0           0           0           0           0
Atom residue num                           I   N=          24
           0           0           0           0           0           0
           0           0           0           0           0           0
           0           0           0           0           0           0
           0           0           0           0           0           0
Nuclear spins                              I   N=          24
           0           0           0           0           0           0
           0           0           0           0           0           0
           0           0           1           1           1           1
           1           1           1           1           1           1
Nuclear ZEff                               R   N=          24
 -5.60000000E+00 -1.36000000E+01 -3.60000000E+00 -3.60000000E+00 -3.60000000E+00
 -3.60000000E+00 -3.60000000E+00 -3.60000000E+00 -3.60000000E+00 -3.60000000E+00
 -3.60000000E+00 -3.60000000E+00 -3.60000000E+00 -3.60000000E+00 -1.00000000E+00
 -1.00000000E+00 -1.00000000E+00 -1.00000000E+00 -1.00000000E+00 -1.00000000E+00
 -1.00000000E+00 -1.00000000E+00 -1.00000000E+00 -1.00000000E+00
Nuclear ZNuc                               R   N=          24
  8.00000000E+00  1.60000000E+01  6.00000000E+00  6.00000000E+00  6.00000000E+00
  6.00000000E+00  6.00000000E+00  6.00000000E+00  6.00000000E+00  6.00000000E+00
  6.00000000E+00  6.00000000E+00  6.00000000E+00  6.00000000E+00  1.00000000E+00
  1.00000000E+00  1.00000000E+00  1.00000000E+00  1.00000000E+00  1.00000000E+00
  1.00000000E+00  1.00000000E+00  1.00000000E+00  1.00000000E+00
Nuclear QMom                               R   N=          24
  0.00000000E+00  0.00000000E+00  0.00000000E+00  0.00000000E+00  0.00000000E+00
  0.00000000E+00  0.00000000E+00  0.00000000E+00  0.00000000E+00  0.00000000E+00
  0.00000000E+00  0.00000000E+00  0.00000000E+00  0.00000000E+00  0.00000000E+00
  0.00000000E+00  0.00000000E+00  0.00000000E+00  0.00000000E+00  0.00000000E+00
  0.00000000E+00  0.00000000E+00  0.00000000E+00  0.00000000E+00
Nuclear GFac                               R   N=          24
  0.00000000E+00  0.00000000E+00  0.00000000E+00  0.00000000E+00  0.00000000E+00
  0.00000000E+00  0.00000000E+00  0.00000000E+00  0.00000000E+00  0.00000000E+00
  0.00000000E+00  0.00000000E+00  0.00000000E+00  0.00000000E+00  2.79284600E+00
  2.79284600E+00  2.79284600E+00  2.79284600E+00  2.79284600E+00  2.79284600E+00
  2.79284600E+00  2.79284600E+00  2.79284600E+00  2.79284600E+00
MicOpt                                     I   N=          24
          -1          -1          -1          -1          -1          -1
          -1          -1          -1          -1          -1          -1
          -1          -1          -1          -1          -1          -1
          -1          -1          -1          -1          -1          -1
Number of residues                         I                0
Number of secondary structures             I                0
Redundant internal dimensions              I   N=           4
         120          25          39          56
Redundant internal coordinate indices      I   N=         480
           1           2           0           0           2           3
           0           0           2           9           0           0
           3           4           0           0           3           8
           0           0           4           5           0           0
           4          15           0           0           5           6
           0           0           5          16           0           0
           6           7           0           0           6          17
           0           0           7           8           0           0
           7          18           0           0           8          19
           0           0           9          10           0           0
           9          14           0           0          10          11
           0           0          10          20           0           0
          11          12           0           0          11          21
           0           0          12          13           0           0
          12          22           0           0          13          14
           0           0          13          23           0           0
          14          24           0           0           1           2
           3           0           1           2           9           0
           3           2           9           0           2           3
           4           0           2           3           8           0
           4           3           8           0           3           4
           5           0           3           4          15           0
           5           4          15           0           4           5
           6           0           4           5          16           0
           6           5          16           0           5           6
           7           0           5           6          17           0
           7           6          17           0           6           7
           8           0           6           7          18           0
           8           7          18           0           3           8
           7           0           3           8          19           0
           7           8          19           0           2           9
          10           0           2           9          14           0
          10           9          14           0           9          10
          11           0           9          10          20           0
          11          10          20           0          10          11
          12           0          10          11          21           0
          12          11          21           0          11          12
          13           0          11          12          22           0
          13          12          22           0          12          13
          14           0          12          13          23           0
          14          13          23           0           9          14
          13           0           9          14          24           0
          13          14          24           0           1           2
           3           4           1           2           3           8
           9           2           3           4           9           2
           3           8           1           2           9          10
           1           2           9          14           3           2
           9          10           3           2           9          14
           2           3           4           5           2           3
           4          15           8           3           4           5
           8           3           4          15           2           3
           8           7           2           3           8          19
           4           3           8           7           4           3
           8          19           3           4           5           6
           3           4           5          16          15           4
           5           6          15           4           5          16
           4           5           6           7           4           5
           6          17          16           5           6           7
          16           5           6          17           5           6
           7           8           5           6           7          18
          17           6           7           8          17           6
           7          18           6           7           8           3
           6           7           8          19          18           7
           8           3          18           7           8          19
           2           9          10          11           2           9
          10          20          14           9          10          11
          14           9          10          20           2           9
          14          13           2           9          14          24
          10           9          14          13          10           9
          14          24           9          10          11          12
           9          10          11          21          20          10
          11          12          20          10          11          21
          10          11          12          13          10          11
          12          22          21          11          12          13
          21          11          12          22          11          12
          13          14          11          12          13          23
          22          12          13          14          22          12
          13          23          12          13          14           9
          12          13          14          24          23          13
          14           9          23          13          14          24
Redundant internal coordinates             R   N=         120
  2.86364297E+00  3.46059173E+00  3.46059182E+00  2.63621649E+00  2.63161139E+00
  2.63755057E+00  2.05475129E+00  2.64042389E+00  2.05344328E+00  2.63965491E+00
  2.05333495E+00  2.63767960E+00  2.05368564E+00  2.05247680E+00  2.63621650E+00
  2.63161139E+00  2.63755062E+00  2.05475122E+00  2.64042384E+00  2.05344314E+00
  2.63965501E+00  2.05333484E+00  2.63767953E+00  2.05368565E+00  2.05247682E+00
  1.85644782E+00  1.85644772E+00  1.70795074E+00  2.10385238E+00  2.05793291E+00
  2.11963471E+00  2.07825282E+00  2.10652078E+00  2.09840154E+00  2.09580209E+00
  2.09054800E+00  2.09678875E+00  2.09714453E+00  2.09188481E+00  2.09409704E+00
  2.09728885E+00  2.09509531E+00  2.09079173E+00  2.07789266E+00  2.07505282E+00
  2.13016348E+00  2.10385252E+00  2.05793283E+00  2.11963468E+00  2.07825281E+00
  2.10652091E+00  2.09840142E+00  2.09580211E+00  2.09054794E+00  2.09678879E+00
  2.09714453E+00  2.09188496E+00  2.09409689E+00  2.09728882E+00  2.09509523E+00
  2.09079185E+00  2.07789274E+00  2.07505285E+00  2.13016336E+00 -2.92492129E+00
  1.53768087E-01  1.44373732E+00 -1.76075861E+00  2.92492244E+00 -1.53767475E-01
 -1.44373609E+00  1.76075930E+00  3.10598427E+00 -3.07719768E-02  2.95502347E-02
 -3.10720601E+00 -3.10448506E+00  2.41036561E-02 -2.63957106E-02  3.10219301E+00
 -1.39810209E-02  3.13795636E+00  3.12279827E+00 -8.44966217E-03 -4.09432435E-03
 -3.13401968E+00  3.12711633E+00 -2.80903154E-03  7.29388761E-03 -3.12962576E+00
  3.13720438E+00  2.84733806E-04  7.69366014E-03 -3.12046633E+00 -3.13856044E+00
  1.64648763E-02 -3.10598448E+00  3.07715000E-02 -2.95498958E-02  3.10720609E+00
  3.10448519E+00 -2.41033682E-02  2.63952919E-02 -3.10219327E+00  1.39810225E-02
 -3.13795627E+00 -3.12279800E+00  8.45000731E-03  4.09407169E-03  3.13401953E+00
 -3.12711666E+00  2.80879963E-03 -7.29371680E-03  3.12962615E+00 -3.13720431E+00
 -2.84446675E-04 -7.69350013E-03  3.12046632E+00  3.13856038E+00 -1.64651007E-02
ZRed-IntVec                                I   N=         120
           0           0           0           0           0           0
           0           0           0           0           0           0
           0           0           0           0           0           0
           0           0           0           0           0           0
           0           0           0           0           0           0
           0           0           0           0           0           0
           0           0           0           0           0           0
           0           0           0           0           0           0
           0           0           0           0           0           0
           0           0           0           0           0           0
           0           0           0           0           0           0
           0           0           0           0           0           0
           0           0           0           0           0           0
           0           0           0           0           0           0
           0           0           0           0           0           0
           0           0           0           0           0           0
           0           0           0           0           0           0
           0           0           0           0           0           0
           0           0           0           0           0           0
           0           0           0           0           0           0
ZRed-FPVec                                 R   N=         120
  0.00000000E+00  0.00000000E+00  0.00000000E+00  0.00000000E+00  0.00000000E+00
  0.00000000E+00  0.00000000E+00  0.00000000E+00  0.00000000E+00  0.00000000E+00
  0.00000000E+00  0.00000000E+00  0.00000000E+00  0.00000000E+00  0.00000000E+00
  0.00000000E+00  0.00000000E+00  0.00000000E+00  0.00000000E+00  0.00000000E+00
  0.00000000E+00  0.00000000E+00  0.00000000E+00  0.00000000E+00  0.00000000E+00
  0.00000000E+00  0.00000000E+00  0.00000000E+00  0.00000000E+00  0.00000000E+00
  0.00000000E+00  0.00000000E+00  0.00000000E+00  0.00000000E+00  0.00000000E+00
  0.00000000E+00  0.00000000E+00  0.00000000E+00  0.00000000E+00  0.00000000E+00
  0.00000000E+00  0.00000000E+00  0.00000000E+00  0.00000000E+00  0.00000000E+00
  0.00000000E+00  0.00000000E+00  0.00000000E+00  0.00000000E+00  0.00000000E+00
  0.00000000E+00  0.00000000E+00  0.00000000E+00  0.00000000E+00  0.00000000E+00
  0.00000000E+00  0.00000000E+00  0.00000000E+00  0.00000000E+00  0.00000000E+00
  0.00000000E+00  0.00000000E+00  0.00000000E+00  0.00000000E+00  0.00000000E+00
  0.00000000E+00  0.00000000E+00  0.00000000E+00  0.00000000E+00  0.00000000E+00
  0.00000000E+00  0.00000000E+00  0.00000000E+00  0.00000000E+00  0.00000000E+00
  0.00000000E+00  0.00000000E+00  0.00000000E+00  0.00000000E+00  0.00000000E+00
  0.00000000E+00  0.00000000E+00  0.00000000E+00  0.00000000E+00  0.00000000E+00
  0.00000000E+00  0.00000000E+00  0.00000000E+00  0.00000000E+00  0.00000000E+00
  0.00000000E+00  0.00000000E+00  0.00000000E+00  0.00000000E+00  0.00000000E+00
  0.00000000E+00  0.00000000E+00  0.00000000E+00  0.00000000E+00  0.00000000E+00
  0.00000000E+00  0.00000000E+00  0.00000000E+00  0.00000000E+00  0.00000000E+00
  0.00000000E+00  0.00000000E+00  0.00000000E+00  0.00000000E+00  0.00000000E+00
  0.00000000E+00  0.00000000E+00  0.00000000E+00  0.00000000E+00  0.00000000E+00
  0.00000000E+00  0.00000000E+00  0.00000000E+00  0.00000000E+00  0.00000000E+00
ZRed-Constraint1                           R   N=         120
  2.86364297E+00  3.46059173E+00  3.46059182E+00  2.63621649E+00  2.63161139E+00
  2.63755057E+00  2.05475129E+00  2.64042389E+00  2.05344328E+00  2.63965491E+00
  2.05333495E+00  2.63767960E+00  2.05368564E+00  2.05247680E+00  2.63621650E+00
  2.63161139E+00  2.63755062E+00  2.05475122E+00  2.64042384E+00  2.05344314E+00
  2.63965501E+00  2.05333484E+00  2.63767953E+00  2.05368565E+00  2.05247682E+00
  1.85644782E+00  1.85644772E+00  1.70795074E+00  2.10385238E+00  2.05793291E+00
  2.11963471E+00  2.07825282E+00  2.10652078E+00  2.09840154E+00  2.09580209E+00
  2.09054800E+00  2.09678875E+00  2.09714453E+00  2.09188481E+00  2.09409704E+00
  2.09728885E+00  2.09509531E+00  2.09079173E+00  2.07789266E+00  2.07505282E+00
  2.13016348E+00  2.10385252E+00  2.05793283E+00  2.11963468E+00  2.07825281E+00
  2.10652091E+00  2.09840142E+00  2.09580211E+00  2.09054794E+00  2.09678879E+00
  2.09714453E+00  2.09188496E+00  2.09409689E+00  2.09728882E+00  2.09509523E+00
  2.09079185E+00  2.07789274E+00  2.07505285E+00  2.13016336E+00 -2.92492129E+00
  1.53768087E-01  1.44373732E+00 -1.76075861E+00  2.92492244E+00 -1.53767475E-01
 -1.44373609E+00  1.76075930E+00  3.10598427E+00 -3.07719768E-02  2.95502347E-02
 -3.10720601E+00 -3.10448506E+00  2.41036561E-02 -2.63957106E-02  3.10219301E+00
 -1.39810209E-02  3.13795636E+00  3.12279827E+00 -8.44966217E-03 -4.09432435E-03
 -3.13401968E+00  3.12711633E+00 -2.80903154E-03  7.29388761E-03 -3.12962576E+00
  3.13720438E+00  2.84733806E-04  7.69366014E-03 -3.12046633E+00 -3.13856044E+00
  1.64648763E-02 -3.10598448E+00  3.07715000E-02 -2.95498958E-02  3.10720609E+00
  3.10448519E+00 -2.41033682E-02  2.63952919E-02 -3.10219327E+00  1.39810225E-02
 -3.13795627E+00 -3.12279800E+00  8.45000731E-03  4.09407169E-03  3.13401953E+00
 -3.12711666E+00  2.80879963E-03 -7.29371680E-03  3.12962615E+00 -3.13720431E+00
 -2.84446675E-04 -7.69350013E-03  3.12046632E+00  3.13856038E+00 -1.64651007E-02
ZRed-Constraint2                           R   N=         120
  3.03386099E+00  3.35052932E+00  3.35053695E+00  2.66489843E+00  2.66716463E+00
  2.65985823E+00  2.05976925E+00  2.66050643E+00  2.05975367E+00  2.65889415E+00
  2.05976032E+00  2.65930965E+00  2.05985257E+00  2.05971414E+00  2.66485329E+00
  2.66697476E+00  2.65982517E+00  2.05986966E+00  2.66046145E+00  2.05994089E+00
  2.65892950E+00  2.05994188E+00  2.65940164E+00  2.05975200E+00  2.05974618E+00
  1.84178226E+00  1.84175621E+00  1.87760901E+00  2.07854078E+00  2.11907543E+00
  2.08535405E+00  2.09805516E+00  2.09422910E+00  2.09090104E+00  2.09544802E+00
  2.09368674E+00  2.09405054E+00  2.09370006E+00  2.09515826E+00  2.09432697E+00
  2.09377722E+00  2.09458069E+00  2.09482739E+00  2.09982773E+00  2.09416368E+00
  2.08919389E+00  2.07854822E+00  2.11911068E+00  2.08531489E+00  2.09808510E+00
  2.09423949E+00  2.09086071E+00  2.09545636E+00  2.09373507E+00  2.09399387E+00
  2.09370676E+00  2.09523837E+00  2.09424017E+00  2.09367093E+00  2.09457539E+00
  2.09493899E+00  2.09993171E+00  2.09424523E+00  2.08900836E+00 -2.40985165E+00
  7.09335238E-01  1.91336802E+00 -1.25063040E+00  2.40995701E+00 -7.09413337E-01
 -1.91324502E+00  1.25056994E+00  3.11272812E+00 -2.90336529E-02 -6.89864901E-03
  3.13452488E+00 -3.11053410E+00  3.11033695E-02  8.56698978E-03 -3.13298085E+00
 -7.98011802E-03  3.13377449E+00  3.13378134E+00 -7.64936480E-03  2.12545461E-02
 -3.12050212E+00 -3.12050009E+00  2.09285438E-02 -1.95786615E-02  3.12219133E+00
  3.12217793E+00 -1.92373844E-02  4.65441555E-03 -3.13698292E+00 -3.13711560E+00
  4.43236381E-03 -3.11265827E+00  2.88577264E-02  7.14931571E-03 -3.13452000E+00
  3.11051177E+00 -3.10254722E-02 -8.77406770E-03  3.13287400E+00  7.67886515E-03
 -3.13377409E+00 -3.13383728E+00  7.89507266E-03 -2.09487254E-02  3.12053305E+00
  3.12050421E+00 -2.11993224E-02  1.93160425E-02 -3.12218766E+00 -3.12216579E+00
  1.95158123E-02 -4.44030885E-03  3.13709710E+00  3.13706337E+00 -4.58452658E-03
SymInf integers                            I   N=          26
           1           1           1           1           1           0
           0           0           0           0           0           0
           0           0           0           0           0           0
           0           0           0           0           0           0
           0           0
RotTr to input orientation                 R   N=          12
  3.04365939E-01  7.90354424E-01  5.31696585E-01 -7.66381765E-01 -1.28310627E-01
  6.29440524E-01  5.65703425E-01 -5.99062824E-01  5.66659834E-01 -1.60410359E+00
 -1.57647970E+00 -1.89216987E+00
Number of contracted shells                I               77
Number of primitive shells                 I              200
Pure/Cartesian d shells                    I                1
Pure/Cartesian f shells                    I                0
Highest angular momentum                   I                2
Largest degree of contraction              I                6
Shell types                                I   N=          77
           0          -1          -1           2           0          -1
          -1          -1           2           0          -1          -1
           2           0          -1          -1           2           0
          -1          -1           2           0          -1          -1
           2           0          -1          -1           2           0
          -1          -1           2           0          -1          -1
           2           0          -1          -1           2           0
          -1          -1           2           0          -1          -1
           2           0          -1          -1           2           0
          -1          -1           2           0           0           0
           0           0           0           0           0           0
           0           0           0           0           0           0
           0           0           0           0           0
Number of primitives per shell             I   N=          77
           6           3           1           1           6           6
           3           1           1           6           3           1
           1           6           3           1           1           6
           3           1           1           6           3           1
           1           6           3           1           1           6
           3           1           1           6           3           1
           1           6           3           1           1           6
           3           1           1           6           3           1
           1           6           3           1           1           6
           3           1           1           3           1           3
           1           3           1           3           1           3
           1           3           1           3           1           3
           1           3           1           3           1
Shell to atom map                          I   N=          77
           1           1           1           1           2           2
           2           2           2           3           3           3
           3           4           4           4           4           5
           5           5           5           6           6           6
           6           7           7           7           7           8
           8           8           8           9           9           9
           9          10          10          10          10          11
          11          11          11          12          12          12
          12          13          13          13          13          14
          14          14          14          15          15          16
          16          17          17          18          18          19
          19          20          20          21          21          22
          22          23          23          24          24
Primitive exponents                        R   N=         200
  5.48467166E+03  8.25234946E+02  1.88046958E+02  5.29645000E+01  1.68975704E+01
  5.79963534E+00  1.55396162E+01  3.59993359E+00  1.01376175E+00  2.70005823E-01
  8.00000000E-01  2.19171000E+04  3.30149000E+03  7.54146000E+02  2.12711000E+02
  6.79896000E+01  2.30515000E+01  4.23735000E+02  1.00710000E+02  3.21599000E+01
  1.18079000E+01  4.63110000E+00  1.87025000E+00  2.61584000E+00  9.22167000E-01
  3.41287000E-01  1.17167000E-01  6.50000000E-01  3.04752488E+03  4.57369518E+02
  1.03948685E+02  2.92101553E+01  9.28666296E+00  3.16392696E+00  7.86827235E+00
  1.88128854E+00  5.44249258E-01  1.68714478E-01  8.00000000E-01  3.04752488E+03
  4.57369518E+02  1.03948685E+02  2.92101553E+01  9.28666296E+00  3.16392696E+00
  7.86827235E+00  1.88128854E+00  5.44249258E-01  1.68714478E-01  8.00000000E-01
  3.04752488E+03  4.57369518E+02  1.03948685E+02  2.92101553E+01  9.28666296E+00
  3.16392696E+00  7.86827235E+00  1.88128854E+00  5.44249258E-01  1.68714478E-01
  8.00000000E-01  3.04752488E+03  4.57369518E+02  1.03948685E+02  2.92101553E+01
  9.28666296E+00  3.16392696E+00  7.86827235E+00  1.88128854E+00  5.44249258E-01
  1.68714478E-01  8.00000000E-01  3.04752488E+03  4.57369518E+02  1.03948685E+02
  2.92101553E+01  9.28666296E+00  3.16392696E+00  7.86827235E+00  1.88128854E+00
  5.44249258E-01  1.68714478E-01  8.00000000E-01  3.04752488E+03  4.57369518E+02
  1.03948685E+02  2.92101553E+01  9.28666296E+00  3.16392696E+00  7.86827235E+00
  1.88128854E+00  5.44249258E-01  1.68714478E-01  8.00000000E-01  3.04752488E+03
  4.57369518E+02  1.03948685E+02  2.92101553E+01  9.28666296E+00  3.16392696E+00
  7.86827235E+00  1.88128854E+00  5.44249258E-01  1.68714478E-01  8.00000000E-01