 Entering Gaussian System, Link 0=/apps/cent7/gaussian/g16-A.03/g16-haswell/g16/g16
 Initial command:
 /apps/cent7/gaussian/g16-A.03/g16-haswell/g16/l1.exe "/scratch/brown/finej/gaussian/Gau-258835.inp" -scrdir="/scratch/brown/finej/gaussian/"
 Entering Link 1 = /apps/cent7/gaussian/g16-A.03/g16-haswell/g16/l1.exe PID=    258836.
  
 Copyright (c) 1988,1990,1992,1993,1995,1998,2003,2009,2016,
            Gaussian, Inc.  All Rights Reserved.
  
 This is part of the Gaussian(R) 16 program.  It is based on
 the Gaussian(R) 09 system (copyright 2009, Gaussian, Inc.),
 the Gaussian(R) 03 system (copyright 2003, Gaussian, Inc.),
 the Gaussian(R) 98 system (copyright 1998, Gaussian, Inc.),
 the Gaussian(R) 94 system (copyright 1995, Gaussian, Inc.),
 the Gaussian 92(TM) system (copyright 1992, Gaussian, Inc.),
 the Gaussian 90(TM) system (copyright 1990, Gaussian, Inc.),
 the Gaussian 88(TM) system (copyright 1988, Gaussian, Inc.),
 the Gaussian 86(TM) system (copyright 1986, Carnegie Mellon
 University), and the Gaussian 82(TM) system (copyright 1983,
 Carnegie Mellon University). Gaussian is a federally registered
 trademark of Gaussian, Inc.
  
 This software contains proprietary and confidential information,
 including trade secrets, belonging to Gaussian, Inc.
  
 This software is provided under written license and may be
 used, copied, transmitted, or stored only in accord with that
 written license.
  
 The following legend is applicable only to US Government
 contracts under FAR:
  
                    RESTRICTED RIGHTS LEGEND
  
 Use, reproduction and disclosure by the US Government is
 subject to restrictions as set forth in subparagraphs (a)
 and (c) of the Commercial Computer Software - Restricted
 Rights clause in FAR 52.227-19.
  
 Gaussian, Inc.
 340 Quinnipiac St., Bldg. 40, Wallingford CT 06492
  
  
 ---------------------------------------------------------------
 Warning -- This program may not be used in any manner that
 competes with the business of Gaussian, Inc. or will provide
 assistance to any competitor of Gaussian, Inc.  The licensee
 of this program is prohibited from giving any competitor of
 Gaussian, Inc. access to this program.  By using this program,
 the user acknowledges that Gaussian, Inc. is engaged in the
 business of creating and licensing software in the field of
 computational chemistry and represents and warrants to the
 licensee that it is not a competitor of Gaussian, Inc. and that
 it will not use this program in any manner prohibited above.
 ---------------------------------------------------------------
  

 Cite this work as:
 Gaussian 16, Revision A.03,
 M. J. Frisch, G. W. Trucks, H. B. Schlegel, G. E. Scuseria, 
 M. A. Robb, J. R. Cheeseman, G. Scalmani, V. Barone, 
 G. A. Petersson, H. Nakatsuji, X. Li, M. Caricato, A. V. Marenich, 
 J. Bloino, B. G. Janesko, R. Gomperts, B. Mennucci, H. P. Hratchian, 
 J. V. Ortiz, A. F. Izmaylov, J. L. Sonnenberg, D. Williams-Young, 
 F. Ding, F. Lipparini, F. Egidi, J. Goings, B. Peng, A. Petrone, 
 T. Henderson, D. Ranasinghe, V. G. Zakrzewski, J. Gao, N. Rega, 
 G. Zheng, W. Liang, M. Hada, M. Ehara, K. Toyota, R. Fukuda, 
 J. Hasegawa, M. Ishida, T. Nakajima, Y. Honda, O. Kitao, H. Nakai, 
 T. Vreven, K. Throssell, J. A. Montgomery, Jr., J. E. Peralta, 
 F. Ogliaro, M. J. Bearpark, J. J. Heyd, E. N. Brothers, K. N. Kudin, 
 V. N. Staroverov, T. A. Keith, R. Kobayashi, J. Normand, 
 K. Raghavachari, A. P. Rendell, J. C. Burant, S. S. Iyengar, 
 J. Tomasi, M. Cossi, J. M. Millam, M. Klene, C. Adamo, R. Cammi, 
 J. W. Ochterski, R. L. Martin, K. Morokuma, O. Farkas, 
 J. B. Foresman, and D. J. Fox, Gaussian, Inc., Wallingford CT, 2016.
 
 ******************************************
 Gaussian 16:  ES64L-G16RevA.03 25-Dec-2016
                14-Oct-2019 
 ******************************************
 %chk=32.chk
 %nprocshared=24
 Will use up to   24 processors via shared memory.
 %mem=80GB
 --------------------------------------------------------------
 #P opt freq b3lyp/6-31g(d) geom=connectivity temperature=0.001
 --------------------------------------------------------------
 1/18=20,19=15,26=3,38=1,57=2,112=-1000/1,3;
 2/9=110,12=2,17=6,18=5,40=1/2;
 3/5=1,6=6,7=1,11=2,25=1,30=1,71=1,74=-5/1,2,3;
 4//1;
 5/5=2,38=5/2;
 6/7=2,8=2,9=2,10=2,28=1/1;
 7//1,2,3,16;
 1/18=20,19=15,26=3/3(2);
 2/9=110/2;
 99//99;
 2/9=110/2;
 3/5=1,6=6,7=1,11=2,25=1,30=1,71=1,74=-5/1,2,3;
 4/5=5,16=3,69=1/1;
 5/5=2,38=5/2;
 7//1,2,3,16;
 1/18=20,19=15,26=3/3(-5);
 2/9=110/2;
 6/7=2,8=2,9=2,10=2,19=2,28=1/1;
 99/9=1/99;
 Leave Link    1 at Mon Oct 14 01:49:31 2019, MaxMem= 10737418240 cpu:               0.8 elap:               0.0
 (Enter /apps/cent7/gaussian/g16-A.03/g16-haswell/g16/l101.exe)
 -------------------
 Title Card Required
 -------------------
 Symbolic Z-matrix:
 Charge =  0 Multiplicity = 1
 O                    -2.0464   -1.695     0.9637 
 S                    -0.6744   -1.6629    0.1306 
 C                    -1.0971   -2.2123   -1.5013 
 C                    -0.2335   -3.1047   -2.1695 
 C                    -0.5633   -3.5831   -3.4515 
 C                    -1.7629   -3.1792   -4.0679 
 C                    -2.6204   -2.2765   -3.4125 
 C                    -2.2896   -1.7967   -2.1316 
 C                    -0.2263    0.049     0.02 
 C                     1.1229    0.4176    0.2 
 C                     1.4993    1.773     0.1518 
 C                     0.5272    2.7675   -0.0674 
 C                    -0.8179    2.4042   -0.2636 
 C                    -1.1937    1.0488   -0.2173 
 H                     0.6928   -3.4259   -1.6932 
 H                     0.1107   -4.267    -3.9673 
 H                    -2.0275   -3.5652   -5.0523 
 H                    -3.5405   -1.9492   -3.8967 
 H                    -2.9591   -1.1009   -1.626 
 H                     1.878    -0.3483    0.3772 
 H                     2.5445    2.0528    0.2842 
 H                     0.8159    3.8185   -0.0851 
 H                    -1.5682    3.1722   -0.4514 
 H                    -2.2376    0.7726   -0.3657 
 
 ITRead=  0  0  0  0  0  0  0  0  0  0  0  0  0  0  0  0  0  0  0  0
 ITRead=  0  0  0  0
 MicOpt= -1 -1 -1 -1 -1 -1 -1 -1 -1 -1 -1 -1 -1 -1 -1 -1 -1 -1 -1 -1
 MicOpt= -1 -1 -1 -1
 NAtoms=     24 NQM=       24 NQMF=       0 NMMI=      0 NMMIF=      0
                NMic=       0 NMicF=      0.
                    Isotopes and Nuclear Properties:
 (Nuclear quadrupole moments (NQMom) in fm**2, nuclear magnetic moments (NMagM)
  in nuclear magnetons)

  Atom         1           2           3           4           5           6           7           8           9          10
 IAtWgt=          16          32          12          12          12          12          12          12          12          12
 AtmWgt=  15.9949146  31.9720718  12.0000000  12.0000000  12.0000000  12.0000000  12.0000000  12.0000000  12.0000000  12.0000000
 NucSpn=           0           0           0           0           0           0           0           0           0           0
 AtZEff=  -0.0000000  -0.0000000  -0.0000000  -0.0000000  -0.0000000  -0.0000000  -0.0000000  -0.0000000  -0.0000000  -0.0000000
 NQMom=    0.0000000   0.0000000   0.0000000   0.0000000   0.0000000   0.0000000   0.0000000   0.0000000   0.0000000   0.0000000
 NMagM=    0.0000000   0.0000000   0.0000000   0.0000000   0.0000000   0.0000000   0.0000000   0.0000000   0.0000000   0.0000000
 AtZNuc=   8.0000000  16.0000000   6.0000000   6.0000000   6.0000000   6.0000000   6.0000000   6.0000000   6.0000000   6.0000000

  Atom        11          12          13          14          15          16          17          18          19          20
 IAtWgt=          12          12          12          12           1           1           1           1           1           1
 AtmWgt=  12.0000000  12.0000000  12.0000000  12.0000000   1.0078250   1.0078250   1.0078250   1.0078250   1.0078250   1.0078250
 NucSpn=           0           0           0           0           1           1           1           1           1           1
 AtZEff=  -0.0000000  -0.0000000  -0.0000000  -0.0000000  -0.0000000  -0.0000000  -0.0000000  -0.0000000  -0.0000000  -0.0000000
 NQMom=    0.0000000   0.0000000   0.0000000   0.0000000   0.0000000   0.0000000   0.0000000   0.0000000   0.0000000   0.0000000
 NMagM=    0.0000000   0.0000000   0.0000000   0.0000000   2.7928460   2.7928460   2.7928460   2.7928460   2.7928460   2.7928460
 AtZNuc=   6.0000000   6.0000000   6.0000000   6.0000000   1.0000000   1.0000000   1.0000000   1.0000000   1.0000000   1.0000000

  Atom        21          22          23          24
 IAtWgt=           1           1           1           1
 AtmWgt=   1.0078250   1.0078250   1.0078250   1.0078250
 NucSpn=           1           1           1           1
 AtZEff=  -0.0000000  -0.0000000  -0.0000000  -0.0000000
 NQMom=    0.0000000   0.0000000   0.0000000   0.0000000
 NMagM=    2.7928460   2.7928460   2.7928460   2.7928460
 AtZNuc=   1.0000000   1.0000000   1.0000000   1.0000000
 Leave Link  101 at Mon Oct 14 01:49:31 2019, MaxMem= 10737418240 cpu:               8.2 elap:               0.4
 (Enter /apps/cent7/gaussian/g16-A.03/g16-haswell/g16/l103.exe)

 GradGradGradGradGradGradGradGradGradGradGradGradGradGradGradGradGradGrad
 Berny optimization.
 Initialization pass.
                           ----------------------------
                           !    Initial Parameters    !
                           ! (Angstroms and Degrees)  !
 --------------------------                            --------------------------
 ! Name  Definition              Value          Derivative Info.                !
 --------------------------------------------------------------------------------
 ! R1    R(1,2)                  1.6055         estimate D2E/DX2                !
 ! R2    R(2,3)                  1.773          estimate D2E/DX2                !
 ! R3    R(2,9)                  1.773          estimate D2E/DX2                !
 ! R4    R(3,4)                  1.4102         estimate D2E/DX2                !
 ! R5    R(3,8)                  1.4114         estimate D2E/DX2                !
 ! R6    R(4,5)                  1.4075         estimate D2E/DX2                !
 ! R7    R(4,15)                 1.09           estimate D2E/DX2                !
 ! R8    R(5,6)                  1.4079         estimate D2E/DX2                !
 ! R9    R(5,16)                 1.09           estimate D2E/DX2                !
 ! R10   R(6,7)                  1.407          estimate D2E/DX2                !
 ! R11   R(6,17)                 1.09           estimate D2E/DX2                !
 ! R12   R(7,8)                  1.4072         estimate D2E/DX2                !
 ! R13   R(7,18)                 1.09           estimate D2E/DX2                !
 ! R14   R(8,19)                 1.09           estimate D2E/DX2                !
 ! R15   R(9,10)                 1.4102         estimate D2E/DX2                !
 ! R16   R(9,14)                 1.4113         estimate D2E/DX2                !
 ! R17   R(10,11)                1.4075         estimate D2E/DX2                !
 ! R18   R(10,20)                1.09           estimate D2E/DX2                !
 ! R19   R(11,12)                1.4079         estimate D2E/DX2                !
 ! R20   R(11,21)                1.0901         estimate D2E/DX2                !
 ! R21   R(12,13)                1.407          estimate D2E/DX2                !
 ! R22   R(12,22)                1.0901         estimate D2E/DX2                !
 ! R23   R(13,14)                1.4073         estimate D2E/DX2                !
 ! R24   R(13,23)                1.09           estimate D2E/DX2                !
 ! R25   R(14,24)                1.09           estimate D2E/DX2                !
 ! A1    A(1,2,3)              105.5264         estimate D2E/DX2                !
 ! A2    A(1,2,9)              105.5249         estimate D2E/DX2                !
 ! A3    A(3,2,9)              107.5791         estimate D2E/DX2                !
 ! A4    A(2,3,4)              119.0916         estimate D2E/DX2                !
 ! A5    A(2,3,8)              121.4141         estimate D2E/DX2                !
 ! A6    A(4,3,8)              119.482          estimate D2E/DX2                !
 ! A7    A(3,4,5)              120.2097         estimate D2E/DX2                !
 ! A8    A(3,4,15)             119.9905         estimate D2E/DX2                !
 ! A9    A(5,4,15)             119.7998         estimate D2E/DX2                !
 ! A10   A(4,5,6)              120.0603         estimate D2E/DX2                !
 ! A11   A(4,5,16)             119.9594         estimate D2E/DX2                !
 ! A12   A(6,5,16)             119.9803         estimate D2E/DX2                !
 ! A13   A(5,6,7)              119.9602         estimate D2E/DX2                !
 ! A14   A(5,6,17)             120.0437         estimate D2E/DX2                !
 ! A15   A(7,6,17)             119.9961         estimate D2E/DX2                !
 ! A16   A(6,7,8)              119.9646         estimate D2E/DX2                !
 ! A17   A(6,7,18)             120.0106         estimate D2E/DX2                !
 ! A18   A(8,7,18)             120.0248         estimate D2E/DX2                !
 ! A19   A(3,8,7)              120.3113         estimate D2E/DX2                !
 ! A20   A(3,8,19)             119.9867         estimate D2E/DX2                !
 ! A21   A(7,8,19)             119.702          estimate D2E/DX2                !
 ! A22   A(2,9,10)             119.092          estimate D2E/DX2                !
 ! A23   A(2,9,14)             121.4161         estimate D2E/DX2                !
 ! A24   A(10,9,14)            119.4797         estimate D2E/DX2                !
 ! A25   A(9,10,11)            120.2114         estimate D2E/DX2                !
 ! A26   A(9,10,20)            119.9911         estimate D2E/DX2                !
 ! A27   A(11,10,20)           119.7975         estimate D2E/DX2                !
 ! A28   A(10,11,12)           120.0608         estimate D2E/DX2                !
 ! A29   A(10,11,21)           119.9622         estimate D2E/DX2                !
 ! A30   A(12,11,21)           119.977          estimate D2E/DX2                !
 ! A31   A(11,12,13)           119.9606         estimate D2E/DX2                !
 ! A32   A(11,12,22)           120.0483         estimate D2E/DX2                !
 ! A33   A(13,12,22)           119.9911         estimate D2E/DX2                !
 ! A34   A(12,13,14)           119.9585         estimate D2E/DX2                !
 ! A35   A(12,13,23)           120.0103         estimate D2E/DX2                !
 ! A36   A(14,13,23)           120.0312         estimate D2E/DX2                !
 ! A37   A(9,14,13)            120.3172         estimate D2E/DX2                !
 ! A38   A(9,14,24)            119.9914         estimate D2E/DX2                !
 ! A39   A(13,14,24)           119.6914         estimate D2E/DX2                !
 ! D1    D(1,2,3,4)           -138.0743         estimate D2E/DX2                !
 ! D2    D(1,2,3,8)             40.6419         estimate D2E/DX2                !
 ! D3    D(9,2,3,4)            109.6279         estimate D2E/DX2                !
 ! D4    D(9,2,3,8)            -71.6558         estimate D2E/DX2                !
 ! D5    D(1,2,9,10)           138.0804         estimate D2E/DX2                !
 ! D6    D(1,2,9,14)           -40.6464         estimate D2E/DX2                !
 ! D7    D(3,2,9,10)          -109.6209         estimate D2E/DX2                !
 ! D8    D(3,2,9,14)            71.6524         estimate D2E/DX2                !
 ! D9    D(2,3,4,5)            178.3462         estimate D2E/DX2                !
 ! D10   D(2,3,4,15)            -1.6635         estimate D2E/DX2                !
 ! D11   D(8,3,4,5)             -0.3953         estimate D2E/DX2                !
 ! D12   D(8,3,4,15)           179.595          estimate D2E/DX2                !
 ! D13   D(2,3,8,7)           -178.2205         estimate D2E/DX2                !
 ! D14   D(2,3,8,19)             1.7821         estimate D2E/DX2                !
 ! D15   D(4,3,8,7)              0.4909         estimate D2E/DX2                !
 ! D16   D(4,3,8,19)          -179.5066         estimate D2E/DX2                !
 ! D17   D(3,4,5,6)             -0.4572         estimate D2E/DX2                !
 ! D18   D(3,4,5,16)           179.5521         estimate D2E/DX2                !
 ! D19   D(15,4,5,6)           179.5524         estimate D2E/DX2                !
 ! D20   D(15,4,5,16)           -0.4383         estimate D2E/DX2                !
 ! D21   D(4,5,6,7)              1.2178         estimate D2E/DX2                !
 ! D22   D(4,5,6,17)          -178.7916         estimate D2E/DX2                !
 ! D23   D(16,5,6,7)          -178.7915         estimate D2E/DX2                !
 ! D24   D(16,5,6,17)            1.1991         estimate D2E/DX2                !
 ! D25   D(5,6,7,8)             -1.1218         estimate D2E/DX2                !
 ! D26   D(5,6,7,18)           178.8884         estimate D2E/DX2                !
 ! D27   D(17,6,7,8)           178.8876         estimate D2E/DX2                !
 ! D28   D(17,6,7,18)           -1.1022         estimate D2E/DX2                !
 ! D29   D(6,7,8,3)              0.2667         estimate D2E/DX2                !
 ! D30   D(6,7,8,19)          -179.7359         estimate D2E/DX2                !
 ! D31   D(18,7,8,3)          -179.7435         estimate D2E/DX2                !
 ! D32   D(18,7,8,19)            0.254          estimate D2E/DX2                !
 ! D33   D(2,9,10,11)         -178.3422         estimate D2E/DX2                !
 ! D34   D(2,9,10,20)            1.6534         estimate D2E/DX2                !
 ! D35   D(14,9,10,11)           0.4096         estimate D2E/DX2                !
 ! D36   D(14,9,10,20)        -179.5948         estimate D2E/DX2                !
 ! D37   D(2,9,14,13)          178.2192         estimate D2E/DX2                !
 ! D38   D(2,9,14,24)           -1.7776         estimate D2E/DX2                !
 ! D39   D(10,9,14,13)          -0.5027         estimate D2E/DX2                !
 ! D40   D(10,9,14,24)         179.5005         estimate D2E/DX2                !
 ! D41   D(9,10,11,12)           0.44           estimate D2E/DX2                !
 ! D42   D(9,10,11,21)        -179.552          estimate D2E/DX2                !
 ! D43   D(20,10,11,12)       -179.5556         estimate D2E/DX2                !
 ! D44   D(20,10,11,21)          0.4524         estimate D2E/DX2                !
 ! D45   D(10,11,12,13)         -1.2003         estimate D2E/DX2                !
 ! D46   D(10,11,12,22)        178.7934         estimate D2E/DX2                !
 ! D47   D(21,11,12,13)        178.7917         estimate D2E/DX2                !
 ! D48   D(21,11,12,22)         -1.2146         estimate D2E/DX2                !
 ! D49   D(11,12,13,14)          1.1067         estimate D2E/DX2                !
 ! D50   D(11,12,13,23)       -178.8882         estimate D2E/DX2                !
 ! D51   D(22,12,13,14)       -178.8869         estimate D2E/DX2                !
 ! D52   D(22,12,13,23)          1.1182         estimate D2E/DX2                !
 ! D53   D(12,13,14,9)          -0.2544         estimate D2E/DX2                !
 ! D54   D(12,13,14,24)        179.7424         estimate D2E/DX2                !
 ! D55   D(23,13,14,9)         179.7405         estimate D2E/DX2                !
 ! D56   D(23,13,14,24)         -0.2627         estimate D2E/DX2                !
 --------------------------------------------------------------------------------
 Trust Radius=3.00D-01 FncErr=1.00D-07 GrdErr=1.00D-06 EigMax=2.50D+02 EigMin=1.00D-04
 Number of steps in this run=    130 maximum allowed number of steps=    144.
 GradGradGradGradGradGradGradGradGradGradGradGradGradGradGradGradGradGrad

 Leave Link  103 at Mon Oct 14 01:49:31 2019, MaxMem= 10737418240 cpu:               0.3 elap:               0.0
 (Enter /apps/cent7/gaussian/g16-A.03/g16-haswell/g16/l202.exe)
                          Input orientation:                          
 ---------------------------------------------------------------------
 Center     Atomic      Atomic             Coordinates (Angstroms)
 Number     Number       Type             X           Y           Z
 ---------------------------------------------------------------------
      1          8           0       -2.046400   -1.695000    0.963700
      2         16           0       -0.674400   -1.662900    0.130600
      3          6           0       -1.097100   -2.212300   -1.501300
      4          6           0       -0.233500   -3.104700   -2.169500
      5          6           0       -0.563300   -3.583100   -3.451500
      6          6           0       -1.762900   -3.179200   -4.067900
      7          6           0       -2.620400   -2.276500   -3.412500
      8          6           0       -2.289600   -1.796700   -2.131600
      9          6           0       -0.226300    0.049000    0.020000
     10          6           0        1.122900    0.417600    0.200000
     11          6           0        1.499300    1.773000    0.151800
     12          6           0        0.527200    2.767500   -0.067400
     13          6           0       -0.817900    2.404200   -0.263600
     14          6           0       -1.193700    1.048800   -0.217300
     15          1           0        0.692800   -3.425900   -1.693200
     16          1           0        0.110700   -4.267000   -3.967300
     17          1           0       -2.027500   -3.565200   -5.052300
     18          1           0       -3.540500   -1.949200   -3.896700
     19          1           0       -2.959100   -1.100900   -1.626000
     20          1           0        1.878000   -0.348300    0.377200
     21          1           0        2.544500    2.052800    0.284200
     22          1           0        0.815900    3.818500   -0.085100
     23          1           0       -1.568200    3.172200   -0.451400
     24          1           0       -2.237600    0.772600   -0.365700
 ---------------------------------------------------------------------
                    Distance matrix (angstroms):
                    1          2          3          4          5
     1  O    0.000000
     2  S    1.605450   0.000000
     3  C    2.691653   1.773024   0.000000
     4  C    3.884688   2.750207   1.410204   0.000000
     5  C    5.025783   4.065827   2.442809   1.407536   0.000000
     6  C    5.253591   4.594714   2.822343   2.438962   1.407879
     7  C    4.451825   4.088640   2.444842   2.815716   2.437290
     8  C    3.106505   2.782862   1.411403   2.437180   2.813090
     9  C    2.691630   1.773028   2.861140   3.839243   5.035577
    10  C    3.884685   2.750197   3.839166   4.456562   5.672947
    11  C    5.025753   4.065812   5.035539   5.673005   6.776865
    12  C    5.253617   4.594724   5.430730   6.283329   7.278148
    13  C    4.451844   4.088678   4.787685   5.858494   6.787878
    14  C    3.106493   2.782809   3.506103   4.688777   5.684360
    15  H    4.190268   2.881606   2.171035   1.089983   2.166591
    16  H    5.965151   4.918384   3.429538   2.168294   1.089975
    17  H    6.300021   5.684371   3.912235   3.426519   2.169507
    18  H    5.091212   4.951327   3.431817   3.905720   3.425135
    19  H    2.809363   2.936212   2.172051   3.426296   3.903028
    20  H    4.190286   2.881619   3.981768   4.306025   5.575197
    21  H    5.965240   4.918469   5.885604   6.351199   7.441589
    22  H    6.300113   5.684476   6.483498   7.305933   8.247334
    23  H    5.091249   4.951343   5.506093   6.643250   7.459524
    24  H    2.809433   2.936251   3.391158   4.722665   5.594423
                    6          7          8          9         10
     6  C    0.000000
     7  C    1.407026   0.000000
     8  C    2.436796   1.407246   0.000000
     9  C    5.430777   4.787663   3.506166   0.000000
    10  C    6.283294   5.858381   4.688778   1.410180   0.000000
    11  C    7.278194   6.787828   5.684403   2.442794   1.407519
    12  C    7.524081   6.821951   5.746930   2.822347   2.438932
    13  C    6.822029   5.922291   4.827306   2.444869   2.815708
    14  C    5.746920   4.827256   3.600335   1.411302   2.437045
    15  H    3.424985   3.905689   3.426543   3.981800   4.306006
    16  H    2.168826   3.424734   3.903027   5.885574   6.351096
    17  H    1.089978   2.168230   3.424438   6.483440   7.305777
    18  H    2.168426   1.090027   2.168775   5.506111   6.643191
    19  H    3.422441   2.165256   1.089954   3.391133   4.722589
    20  H    6.405393   6.189942   5.075513   2.171064   1.090036
    21  H    8.054085   7.686652   6.635003   3.429628   2.168390
    22  H    8.454627   7.747824   6.735188   3.912334   3.426609
    23  H    7.311447   6.289958   5.294663   3.431806   3.905658
    24  H    5.435839   4.327417   3.118078   2.172024   3.426223
                   11         12         13         14         15
    11  C    0.000000
    12  C    1.407856   0.000000
    13  C    2.437291   1.407045   0.000000
    14  C    2.812997   2.436780   1.407295   0.000000
    15  H    5.575216   6.405377   6.189995   5.075441   0.000000
    16  H    7.441559   8.053998   7.686651   6.634884   2.493556
    17  H    8.247263   8.454514   7.747807   6.735090   4.324695
    18  H    7.459538   7.311428   6.289997   5.294663   4.995687
    19  H    5.594390   5.435811   4.327424   3.118058   4.329725
    20  H    2.166595   3.424988   3.905734   3.426465   3.893954
    21  H    1.090074   2.168852   3.424807   3.903032   6.111878
    22  H    2.169615   1.090074   2.168273   3.424501   7.421757
    23  H    3.425079   2.168396   1.089974   2.168843   7.084427
    24  H    3.902951   3.422386   2.165200   1.089971   5.289320
                   16         17         18         19         20
    16  H    0.000000
    17  H    2.498329   0.000000
    18  H    4.325326   2.497206   0.000000
    19  H    4.992950   4.322058   2.492733   0.000000
    20  H    6.111811   7.421647   7.084437   5.289306   0.000000
    21  H    7.996156   8.996852   8.397806   6.624523   2.493622
    22  H    8.996894   9.342217   8.171467   6.389483   4.324812
    23  H    8.397735   8.171401   6.479876   4.644747   4.995677
    24  H    6.624470   6.389434   4.644750   2.370426   4.329721
                   21         22         23         24
    21  H    0.000000
    22  H    2.498427   0.000000
    23  H    4.325328   2.497161   0.000000
    24  H    4.992971   4.322049   2.492694   0.000000
 Stoichiometry    C12H10OS
 Framework group  C1[X(C12H10OS)]
 Deg. of freedom    66
 Full point group                 C1      NOp   1
 Largest Abelian subgroup         C1      NOp   1
 Largest concise Abelian subgroup C1      NOp   1
                         Standard orientation:                         
 ---------------------------------------------------------------------
 Center     Atomic      Atomic             Coordinates (Angstroms)
 Number     Number       Type             X           Y           Z
 ---------------------------------------------------------------------
      1          8           0       -0.000009    1.821364   -1.731822
      2         16           0       -0.000008    1.393008   -0.184572
      3          6           0       -1.430561    0.366480    0.023692
      4          6           0       -2.228304    0.527594    1.175352
      5          6           0       -3.388425   -0.250564    1.347829
      6          6           0       -3.762054   -1.186960    0.365135
      7          6           0       -2.961118   -1.363154   -0.778186
      8          6           0       -1.800172   -0.586514   -0.949574
      9          6           0        1.430580    0.366516    0.023656
     10          6           0        2.228258    0.527538    1.175345
     11          6           0        3.388440   -0.250506    1.347782
     12          6           0        3.762027   -1.186982    0.365182
     13          6           0        2.961172   -1.363126   -0.778225
     14          6           0        1.800163   -0.586464   -0.949490
     15          1           0       -1.946987    1.256464    1.935400
     16          1           0       -3.998057   -0.127846    2.243002
     17          1           0       -4.671068   -1.775387    0.489631
     18          1           0       -3.239928   -2.100746   -1.530770
     19          1           0       -1.185189   -0.723512   -1.838971
     20          1           0        1.946967    1.256467    1.935421
     21          1           0        3.998099   -0.127861    2.243067
     22          1           0        4.671149   -1.775437    0.489603
     23          1           0        3.239948   -2.100759   -1.530704
     24          1           0        1.185238   -0.723558   -1.838933
 ---------------------------------------------------------------------
 Rotational constants (GHZ):           1.1825990           0.3685598           0.3571007
 Leave Link  202 at Mon Oct 14 01:49:31 2019, MaxMem= 10737418240 cpu:               0.7 elap:               0.0
 (Enter /apps/cent7/gaussian/g16-A.03/g16-haswell/g16/l301.exe)
 Standard basis: 6-31G(d) (6D, 7F)
 Ernie: Thresh=  0.10000D-02 Tol=  0.10000D-05 Strict=F.
 There are   234 symmetry adapted cartesian basis functions of A   symmetry.
 There are   234 symmetry adapted basis functions of A   symmetry.
   234 basis functions,   456 primitive gaussians,   234 cartesian basis functions
    53 alpha electrons       53 beta electrons
       nuclear repulsion energy       908.6032709926 Hartrees.
 IExCor=  402 DFT=T Ex+Corr=B3LYP ExCW=0 ScaHFX=  0.200000
 ScaDFX=  0.800000  0.720000  1.000000  0.810000 ScalE2=  1.000000  1.000000
 IRadAn=      5 IRanWt=     -1 IRanGd=            0 ICorTp=0 IEmpDi=  4
 NAtoms=   24 NActive=   24 NUniq=   24 SFac= 1.00D+00 NAtFMM=   60 NAOKFM=F Big=F
 Integral buffers will be    131072 words long.
 Raffenetti 2 integral format.
 Two-electron integral symmetry is turned on.
 Leave Link  301 at Mon Oct 14 01:49:31 2019, MaxMem= 10737418240 cpu:               1.3 elap:               0.1
 (Enter /apps/cent7/gaussian/g16-A.03/g16-haswell/g16/l302.exe)
 NPDir=0 NMtPBC=     1 NCelOv=     1 NCel=       1 NClECP=     1 NCelD=      1
         NCelK=      1 NCelE2=     1 NClLst=     1 CellRange=     0.0.
 One-electron integrals computed using PRISM.
 One-electron integral symmetry used in STVInt
 NBasis=   234 RedAO= T EigKep=  5.25D-04  NBF=   234
 NBsUse=   234 1.00D-06 EigRej= -1.00D+00 NBFU=   234
 Precomputing XC quadrature grid using
 IXCGrd= 4 IRadAn=           5 IRanWt=          -1 IRanGd=           0 AccXCQ= 0.00D+00.
 Generated NRdTot=       0 NPtTot=           0 NUsed=           0 NTot=          32
 NSgBfM=   232   232   232   232   232 MxSgAt=    24 MxSgA2=    24.
 Leave Link  302 at Mon Oct 14 01:49:32 2019, MaxMem= 10737418240 cpu:               4.2 elap:               0.2
 (Enter /apps/cent7/gaussian/g16-A.03/g16-haswell/g16/l303.exe)
 DipDrv:  MaxL=1.
 Leave Link  303 at Mon Oct 14 01:49:32 2019, MaxMem= 10737418240 cpu:               0.8 elap:               0.1
 (Enter /apps/cent7/gaussian/g16-A.03/g16-haswell/g16/l401.exe)
 ExpMin= 1.17D-01 ExpMax= 2.19D+04 ExpMxC= 3.30D+03 IAcc=3 IRadAn=         5 AccDes= 0.00D+00
 Harris functional with IExCor=  402 and IRadAn=       5 diagonalized for initial guess.
 HarFok:  IExCor=  402 AccDes= 0.00D+00 IRadAn=         5 IDoV= 1 UseB2=F ITyADJ=14
 ICtDFT=  3500011 ScaDFX=  1.000000  1.000000  1.000000  1.000000
 FoFCou: FMM=F IPFlag=           0 FMFlag=      100000 FMFlg1=           0
         NFxFlg=           0 DoJE=T BraDBF=F KetDBF=T FulRan=T
         wScrn=  0.000000 ICntrl=       500 IOpCl=  0 I1Cent=   200000004 NGrid=           0
         NMat0=    1 NMatS0=      1 NMatT0=    0 NMatD0=    1 NMtDS0=    0 NMtDT0=    0
 Petite list used in FoFCou.
 Harris En= -936.664796080445    
 JPrj=0 DoOrth=F DoCkMO=F.
 Leave Link  401 at Mon Oct 14 01:49:32 2019, MaxMem= 10737418240 cpu:              10.0 elap:               0.5
 (Enter /apps/cent7/gaussian/g16-A.03/g16-haswell/g16/l502.exe)
 Integral symmetry usage will be decided dynamically.
 Closed shell SCF:
 Using DIIS extrapolation, IDIIS=  1040.
 NGot= 10737418240 LenX= 10737300529 LenY= 10737245332
 Requested convergence on RMS density matrix=1.00D-08 within 128 cycles.
 Requested convergence on MAX density matrix=1.00D-06.
 Requested convergence on             energy=1.00D-06.
 No special actions if energy rises.
 Fock matrices will be formed incrementally for  20 cycles.
 Integral accuracy reduced to 1.0D-05 until final iterations.

 Cycle   1  Pass 0  IDiag  1:
 FoFJK:  IHMeth= 1 ICntrl=       0 DoSepK=F KAlg= 0 I1Cent=           0 FoldK=F
 IRaf= 860000000 NMat=       1 IRICut=       1 DoRegI=T DoRafI=F ISym2E= 0 IDoP0=0 IntGTp=1.
 FoFCou: FMM=F IPFlag=           0 FMFlag=      100000 FMFlg1=           0
         NFxFlg=           0 DoJE=F BraDBF=F KetDBF=F FulRan=T
         wScrn=  0.000000 ICntrl=         0 IOpCl=  0 I1Cent=           0 NGrid=           0
         NMat0=    1 NMatS0=      1 NMatT0=    0 NMatD0=    1 NMtDS0=    0 NMtDT0=    0
 Symmetry not used in FoFCou.
 E= -936.206708759136    
 DIIS: error= 3.25D-02 at cycle   1 NSaved=   1.
 NSaved= 1 IEnMin= 1 EnMin= -936.206708759136     IErMin= 1 ErrMin= 3.25D-02
 ErrMax= 3.25D-02  0.00D+00 EMaxC= 1.00D-01 BMatC= 4.45D-01 BMatP= 4.45D-01
 IDIUse=3 WtCom= 6.75D-01 WtEn= 3.25D-01
 Coeff-Com:  0.100D+01
 Coeff-En:   0.100D+01
 Coeff:      0.100D+01
 Gap=     0.238 Goal=   None    Shift=    0.000
 GapD=    0.238 DampG=1.000 DampE=0.500 DampFc=0.5000 IDamp=-1.
 Damping current iteration by 5.00D-01
 RMSDP=1.37D-02 MaxDP=4.81D-01              OVMax= 4.94D-01

 Cycle   2  Pass 0  IDiag  1:
 RMSU=  6.86D-03    CP:  9.94D-01
 E= -936.105621413736     Delta-E=        0.101087345400 Rises=F Damp=T
 DIIS: error= 3.79D-02 at cycle   2 NSaved=   2.
 NSaved= 2 IEnMin= 1 EnMin= -936.206708759136     IErMin= 1 ErrMin= 3.25D-02
 ErrMax= 3.79D-02  0.00D+00 EMaxC= 1.00D-01 BMatC= 2.16D-01 BMatP= 4.45D-01
 IDIUse=3 WtCom= 6.21D-01 WtEn= 3.79D-01
 Coeff-Com:  0.382D+00 0.618D+00
 Coeff-En:   0.577D+00 0.423D+00
 Coeff:      0.456D+00 0.544D+00
 Gap=     0.153 Goal=   None    Shift=    0.000
 RMSDP=5.95D-03 MaxDP=2.53D-01 DE= 1.01D-01 OVMax= 3.75D-01

 Cycle   3  Pass 0  IDiag  1:
 RMSU=  3.25D-03    CP:  9.73D-01  2.78D-01
 E= -936.515111685513     Delta-E=       -0.409490271777 Rises=F Damp=F
 DIIS: error= 2.34D-02 at cycle   3 NSaved=   3.
 NSaved= 3 IEnMin= 3 EnMin= -936.515111685513     IErMin= 3 ErrMin= 2.34D-02
 ErrMax= 2.34D-02  0.00D+00 EMaxC= 1.00D-01 BMatC= 1.19D-01 BMatP= 2.16D-01
 IDIUse=3 WtCom= 7.66D-01 WtEn= 2.34D-01
 Coeff-Com:  0.181D+00 0.378D+00 0.440D+00
 Coeff-En:   0.305D-01 0.000D+00 0.970D+00
 Coeff:      0.146D+00 0.290D+00 0.564D+00
 Gap=     0.226 Goal=   None    Shift=    0.000
 RMSDP=3.07D-03 MaxDP=9.64D-02 DE=-4.09D-01 OVMax= 1.31D-01

 Cycle   4  Pass 0  IDiag  1:
 RMSU=  1.72D-03    CP:  9.88D-01  4.81D-01  3.57D-01
 E= -936.610066786264     Delta-E=       -0.094955100752 Rises=F Damp=F
 DIIS: error= 1.29D-02 at cycle   4 NSaved=   4.
 NSaved= 4 IEnMin= 4 EnMin= -936.610066786264     IErMin= 4 ErrMin= 1.29D-02
 ErrMax= 1.29D-02  0.00D+00 EMaxC= 1.00D-01 BMatC= 3.19D-02 BMatP= 1.19D-01
 IDIUse=3 WtCom= 8.71D-01 WtEn= 1.29D-01
 Coeff-Com:  0.430D-01 0.224D-01 0.328D+00 0.606D+00
 Coeff-En:   0.000D+00 0.000D+00 0.224D+00 0.776D+00
 Coeff:      0.375D-01 0.195D-01 0.315D+00 0.628D+00
 Gap=     0.166 Goal=   None    Shift=    0.000
 RMSDP=1.22D-03 MaxDP=4.78D-02 DE=-9.50D-02 OVMax= 5.43D-02

 Cycle   5  Pass 0  IDiag  1:
 RMSU=  3.51D-04    CP:  9.84D-01  3.85D-01  5.82D-01  6.36D-01
 E= -936.638993469025     Delta-E=       -0.028926682761 Rises=F Damp=F
 DIIS: error= 1.67D-03 at cycle   5 NSaved=   5.
 NSaved= 5 IEnMin= 5 EnMin= -936.638993469025     IErMin= 5 ErrMin= 1.67D-03
 ErrMax= 1.67D-03  0.00D+00 EMaxC= 1.00D-01 BMatC= 8.06D-04 BMatP= 3.19D-02
 IDIUse=3 WtCom= 9.83D-01 WtEn= 1.67D-02
 Coeff-Com:  0.376D-02-0.839D-02 0.934D-01 0.262D+00 0.649D+00
 Coeff-En:   0.000D+00 0.000D+00 0.000D+00 0.000D+00 0.100D+01
 Coeff:      0.369D-02-0.825D-02 0.919D-01 0.258D+00 0.655D+00
 Gap=     0.160 Goal=   None    Shift=    0.000
 RMSDP=2.02D-04 MaxDP=9.39D-03 DE=-2.89D-02 OVMax= 1.08D-02

 Cycle   6  Pass 0  IDiag  1:
 RMSU=  1.14D-04    CP:  9.84D-01  3.96D-01  5.68D-01  6.93D-01  7.10D-01
 E= -936.639606046506     Delta-E=       -0.000612577481 Rises=F Damp=F
 DIIS: error= 8.20D-04 at cycle   6 NSaved=   6.
 NSaved= 6 IEnMin= 6 EnMin= -936.639606046506     IErMin= 6 ErrMin= 8.20D-04
 ErrMax= 8.20D-04  0.00D+00 EMaxC= 1.00D-01 BMatC= 1.71D-04 BMatP= 8.06D-04
 IDIUse=3 WtCom= 9.92D-01 WtEn= 8.20D-03
 Coeff-Com: -0.123D-03-0.789D-02 0.272D-01 0.957D-01 0.388D+00 0.497D+00
 Coeff-En:   0.000D+00 0.000D+00 0.000D+00 0.000D+00 0.192D+00 0.808D+00
 Coeff:     -0.122D-03-0.783D-02 0.270D-01 0.949D-01 0.387D+00 0.500D+00
 Gap=     0.159 Goal=   None    Shift=    0.000
 RMSDP=7.29D-05 MaxDP=1.62D-03 DE=-6.13D-04 OVMax= 5.67D-03

 Cycle   7  Pass 0  IDiag  1:
 RMSU=  4.61D-05    CP:  9.84D-01  3.92D-01  5.69D-01  6.90D-01  7.36D-01
                    CP:  5.55D-01
 E= -936.639781929389     Delta-E=       -0.000175882883 Rises=F Damp=F
 DIIS: error= 2.07D-04 at cycle   7 NSaved=   7.
 NSaved= 7 IEnMin= 7 EnMin= -936.639781929389     IErMin= 7 ErrMin= 2.07D-04
 ErrMax= 2.07D-04  0.00D+00 EMaxC= 1.00D-01 BMatC= 1.53D-05 BMatP= 1.71D-04
 IDIUse=3 WtCom= 9.98D-01 WtEn= 2.07D-03
 Coeff-Com:  0.225D-03-0.335D-02 0.466D-02 0.193D-01 0.132D+00 0.283D+00
 Coeff-Com:  0.563D+00
 Coeff-En:   0.000D+00 0.000D+00 0.000D+00 0.000D+00 0.000D+00 0.241D-01
 Coeff-En:   0.976D+00
 Coeff:      0.225D-03-0.334D-02 0.465D-02 0.193D-01 0.132D+00 0.283D+00
 Coeff:      0.564D+00
 Gap=     0.160 Goal=   None    Shift=    0.000
 RMSDP=2.74D-05 MaxDP=7.17D-04 DE=-1.76D-04 OVMax= 1.50D-03

 Cycle   8  Pass 0  IDiag  1:
 RMSU=  1.37D-05    CP:  9.84D-01  3.91D-01  5.71D-01  6.87D-01  7.56D-01
                    CP:  6.22D-01  5.92D-01
 E= -936.639798639104     Delta-E=       -0.000016709716 Rises=F Damp=F
 DIIS: error= 5.67D-05 at cycle   8 NSaved=   8.
 NSaved= 8 IEnMin= 8 EnMin= -936.639798639104     IErMin= 8 ErrMin= 5.67D-05
 ErrMax= 5.67D-05  0.00D+00 EMaxC= 1.00D-01 BMatC= 1.20D-06 BMatP= 1.53D-05
 IDIUse=1 WtCom= 1.00D+00 WtEn= 0.00D+00
 Coeff-Com:  0.292D-03-0.130D-02 0.171D-03 0.106D-02 0.317D-01 0.972D-01
 Coeff-Com:  0.285D+00 0.585D+00
 Coeff:      0.292D-03-0.130D-02 0.171D-03 0.106D-02 0.317D-01 0.972D-01
 Coeff:      0.285D+00 0.585D+00
 Gap=     0.160 Goal=   None    Shift=    0.000
 RMSDP=5.74D-06 MaxDP=1.57D-04 DE=-1.67D-05 OVMax= 3.64D-04

 Initial convergence to 1.0D-05 achieved.  Increase integral accuracy.
 Cycle   9  Pass 1  IDiag  1:
 E= -936.639869372290     Delta-E=       -0.000070733185 Rises=F Damp=F
 DIIS: error= 3.70D-05 at cycle   1 NSaved=   1.
 NSaved= 1 IEnMin= 1 EnMin= -936.639869372290     IErMin= 1 ErrMin= 3.70D-05
 ErrMax= 3.70D-05  0.00D+00 EMaxC= 1.00D-01 BMatC= 3.38D-07 BMatP= 3.38D-07
 IDIUse=1 WtCom= 1.00D+00 WtEn= 0.00D+00
 Coeff-Com:  0.100D+01
 Coeff:      0.100D+01
 Gap=     0.160 Goal=   None    Shift=    0.000
 RMSDP=5.74D-06 MaxDP=1.57D-04 DE=-7.07D-05 OVMax= 2.36D-04

 Cycle  10  Pass 1  IDiag  1:
 RMSU=  2.38D-05    CP:  1.00D+00
 E= -936.639869412624     Delta-E=       -0.000000040335 Rises=F Damp=F
 DIIS: error= 2.95D-05 at cycle   2 NSaved=   2.
 NSaved= 2 IEnMin= 2 EnMin= -936.639869412624     IErMin= 2 ErrMin= 2.95D-05
 ErrMax= 2.95D-05  0.00D+00 EMaxC= 1.00D-01 BMatC= 3.26D-07 BMatP= 3.38D-07
 IDIUse=1 WtCom= 1.00D+00 WtEn= 0.00D+00
 Coeff-Com:  0.494D+00 0.506D+00
 Coeff:      0.494D+00 0.506D+00
 Gap=     0.160 Goal=   None    Shift=    0.000
 RMSDP=3.95D-06 MaxDP=1.47D-04 DE=-4.03D-08 OVMax= 1.95D-04

 Cycle  11  Pass 1  IDiag  1:
 RMSU=  3.90D-06    CP:  1.00D+00  9.88D-01
 E= -936.639869647318     Delta-E=       -0.000000234694 Rises=F Damp=F
 DIIS: error= 1.85D-05 at cycle   3 NSaved=   3.
 NSaved= 3 IEnMin= 3 EnMin= -936.639869647318     IErMin= 3 ErrMin= 1.85D-05
 ErrMax= 1.85D-05  0.00D+00 EMaxC= 1.00D-01 BMatC= 6.82D-08 BMatP= 3.26D-07
 IDIUse=1 WtCom= 1.00D+00 WtEn= 0.00D+00
 Coeff-Com:  0.740D-01 0.310D+00 0.616D+00
 Coeff:      0.740D-01 0.310D+00 0.616D+00
 Gap=     0.160 Goal=   None    Shift=    0.000
 RMSDP=2.17D-06 MaxDP=7.48D-05 DE=-2.35D-07 OVMax= 1.08D-04

 Cycle  12  Pass 1  IDiag  1:
 RMSU=  1.16D-06    CP:  1.00D+00  9.99D-01  5.42D-01
 E= -936.639869684492     Delta-E=       -0.000000037174 Rises=F Damp=F
 DIIS: error= 1.04D-05 at cycle   4 NSaved=   4.
 NSaved= 4 IEnMin= 4 EnMin= -936.639869684492     IErMin= 4 ErrMin= 1.04D-05
 ErrMax= 1.04D-05  0.00D+00 EMaxC= 1.00D-01 BMatC= 2.29D-08 BMatP= 6.82D-08
 IDIUse=1 WtCom= 1.00D+00 WtEn= 0.00D+00
 Coeff-Com: -0.213D-02 0.167D+00 0.449D+00 0.386D+00
 Coeff:     -0.213D-02 0.167D+00 0.449D+00 0.386D+00
 Gap=     0.160 Goal=   None    Shift=    0.000
 RMSDP=8.85D-07 MaxDP=3.33D-05 DE=-3.72D-08 OVMax= 4.05D-05

 Cycle  13  Pass 1  IDiag  1:
 RMSU=  2.28D-07    CP:  1.00D+00  1.00D+00  6.69D-01  4.10D-01
 E= -936.639869703768     Delta-E=       -0.000000019275 Rises=F Damp=F
 DIIS: error= 1.26D-06 at cycle   5 NSaved=   5.
 NSaved= 5 IEnMin= 5 EnMin= -936.639869703768     IErMin= 5 ErrMin= 1.26D-06
 ErrMax= 1.26D-06  0.00D+00 EMaxC= 1.00D-01 BMatC= 4.43D-10 BMatP= 2.29D-08
 IDIUse=1 WtCom= 1.00D+00 WtEn= 0.00D+00
 Coeff-Com: -0.389D-02 0.855D-01 0.237D+00 0.228D+00 0.453D+00
 Coeff:     -0.389D-02 0.855D-01 0.237D+00 0.228D+00 0.453D+00
 Gap=     0.160 Goal=   None    Shift=    0.000
 RMSDP=1.40D-07 MaxDP=7.54D-06 DE=-1.93D-08 OVMax= 8.24D-06

 Cycle  14  Pass 1  IDiag  1:
 RMSU=  6.44D-08    CP:  1.00D+00  1.00D+00  6.65D-01  4.20D-01  4.66D-01
 E= -936.639869704250     Delta-E=       -0.000000000482 Rises=F Damp=F
 DIIS: error= 3.50D-07 at cycle   6 NSaved=   6.
 NSaved= 6 IEnMin= 6 EnMin= -936.639869704250     IErMin= 6 ErrMin= 3.50D-07
 ErrMax= 3.50D-07  0.00D+00 EMaxC= 1.00D-01 BMatC= 3.19D-11 BMatP= 4.43D-10
 IDIUse=1 WtCom= 1.00D+00 WtEn= 0.00D+00
 Coeff-Com: -0.226D-02 0.409D-01 0.115D+00 0.113D+00 0.274D+00 0.460D+00
 Coeff:     -0.226D-02 0.409D-01 0.115D+00 0.113D+00 0.274D+00 0.460D+00
 Gap=     0.160 Goal=   None    Shift=    0.000
 RMSDP=3.09D-08 MaxDP=6.23D-07 DE=-4.82D-10 OVMax= 2.37D-06

 Cycle  15  Pass 1  IDiag  1:
 RMSU=  2.42D-08    CP:  1.00D+00  1.00D+00  6.65D-01  4.19D-01  5.07D-01
                    CP:  7.44D-01
 E= -936.639869704287     Delta-E=       -0.000000000037 Rises=F Damp=F
 DIIS: error= 7.22D-08 at cycle   7 NSaved=   7.
 NSaved= 7 IEnMin= 7 EnMin= -936.639869704287     IErMin= 7 ErrMin= 7.22D-08
 ErrMax= 7.22D-08  0.00D+00 EMaxC= 1.00D-01 BMatC= 1.86D-12 BMatP= 3.19D-11
 IDIUse=1 WtCom= 1.00D+00 WtEn= 0.00D+00
 Coeff-Com: -0.269D-03 0.225D-02 0.759D-02 0.714D-02 0.396D-01 0.208D+00
 Coeff-Com:  0.735D+00
 Coeff:     -0.269D-03 0.225D-02 0.759D-02 0.714D-02 0.396D-01 0.208D+00
 Coeff:      0.735D+00
 Gap=     0.160 Goal=   None    Shift=    0.000
 RMSDP=7.99D-09 MaxDP=3.73D-07 DE=-3.71D-11 OVMax= 4.88D-07

 SCF Done:  E(RB3LYP) =  -936.639869704     A.U. after   15 cycles
            NFock= 15  Conv=0.80D-08     -V/T= 2.0075
 KE= 9.296271073444D+02 PE=-4.011990362261D+03 EE= 1.237120114220D+03
 Leave Link  502 at Mon Oct 14 01:49:38 2019, MaxMem= 10737418240 cpu:             134.0 elap:               5.6
 (Enter /apps/cent7/gaussian/g16-A.03/g16-haswell/g16/l601.exe)
 Copying SCF densities to generalized density rwf, IOpCl= 0 IROHF=0.

 **********************************************************************

            Population analysis using the SCF density.

 **********************************************************************

 Orbital symmetries:
       Occupied  (A) (A) (A) (A) (A) (A) (A) (A) (A) (A) (A) (A)
                 (A) (A) (A) (A) (A) (A) (A) (A) (A) (A) (A) (A)
                 (A) (A) (A) (A) (A) (A) (A) (A) (A) (A) (A) (A)
                 (A) (A) (A) (A) (A) (A) (A) (A) (A) (A) (A) (A)
                 (A) (A) (A) (A) (A)
       Virtual   (A) (A) (A) (A) (A) (A) (A) (A) (A) (A) (A) (A)
                 (A) (A) (A) (A) (A) (A) (A) (A) (A) (A) (A) (A)
                 (A) (A) (A) (A) (A) (A) (A) (A) (A) (A) (A) (A)
                 (A) (A) (A) (A) (A) (A) (A) (A) (A) (A) (A) (A)
                 (A) (A) (A) (A) (A) (A) (A) (A) (A) (A) (A) (A)
                 (A) (A) (A) (A) (A) (A) (A) (A) (A) (A) (A) (A)
                 (A) (A) (A) (A) (A) (A) (A) (A) (A) (A) (A) (A)
                 (A) (A) (A) (A) (A) (A) (A) (A) (A) (A) (A) (A)
                 (A) (A) (A) (A) (A) (A) (A) (A) (A) (A) (A) (A)
                 (A) (A) (A) (A) (A) (A) (A) (A) (A) (A) (A) (A)
                 (A) (A) (A) (A) (A) (A) (A) (A) (A) (A) (A) (A)
                 (A) (A) (A) (A) (A) (A) (A) (A) (A) (A) (A) (A)
                 (A) (A) (A) (A) (A) (A) (A) (A) (A) (A) (A) (A)
                 (A) (A) (A) (A) (A) (A) (A) (A) (A) (A) (A) (A)
                 (A) (A) (A) (A) (A) (A) (A) (A) (A) (A) (A) (A)
                 (A)
 The electronic state is 1-A.
 Alpha  occ. eigenvalues --  -88.98104 -19.08942 -10.22528 -10.22526 -10.21505
 Alpha  occ. eigenvalues --  -10.21505 -10.21144 -10.21143 -10.21060 -10.21059
 Alpha  occ. eigenvalues --  -10.20948 -10.20947 -10.20846 -10.20846  -8.02810
 Alpha  occ. eigenvalues --   -5.99182  -5.99178  -5.98536  -0.95460  -0.86485
 Alpha  occ. eigenvalues --   -0.86285  -0.78818  -0.76096  -0.75798  -0.75584
 Alpha  occ. eigenvalues --   -0.69037  -0.62183  -0.61895  -0.61487  -0.58344
 Alpha  occ. eigenvalues --   -0.53509  -0.51759  -0.48112  -0.46961  -0.46236
 Alpha  occ. eigenvalues --   -0.45853  -0.44189  -0.43674  -0.43137  -0.41904
 Alpha  occ. eigenvalues --   -0.38277  -0.37782  -0.36848  -0.36275  -0.36251
 Alpha  occ. eigenvalues --   -0.35722  -0.33508  -0.27753  -0.26607  -0.26500
 Alpha  occ. eigenvalues --   -0.26272  -0.23363  -0.21019
 Alpha virt. eigenvalues --   -0.05001  -0.02186  -0.02107  -0.01292   0.05380
 Alpha virt. eigenvalues --    0.06296   0.06891   0.10399   0.11504   0.11816
 Alpha virt. eigenvalues --    0.13308   0.13778   0.14387   0.14711   0.16343
 Alpha virt. eigenvalues --    0.16624   0.17113   0.17996   0.22394   0.22679
 Alpha virt. eigenvalues --    0.27463   0.28153   0.28637   0.29176   0.29752
 Alpha virt. eigenvalues --    0.30942   0.31438   0.36605   0.37008   0.39375
 Alpha virt. eigenvalues --    0.41187   0.46936   0.49652   0.50972   0.52244
 Alpha virt. eigenvalues --    0.52613   0.52721   0.53139   0.54125   0.54135
 Alpha virt. eigenvalues --    0.54824   0.57686   0.57720   0.57744   0.58091
 Alpha virt. eigenvalues --    0.58271   0.59324   0.59532   0.59578   0.60449
 Alpha virt. eigenvalues --    0.60833   0.61354   0.63040   0.63175   0.65058
 Alpha virt. eigenvalues --    0.67680   0.70400   0.72236   0.79815   0.80494
 Alpha virt. eigenvalues --    0.81005   0.81364   0.81958   0.82093   0.82462
 Alpha virt. eigenvalues --    0.83135   0.84107   0.84577   0.87094   0.87552
 Alpha virt. eigenvalues --    0.89011   0.89417   0.90789   0.91226   0.91317
 Alpha virt. eigenvalues --    0.92955   0.94369   0.96500   0.98889   0.98927
 Alpha virt. eigenvalues --    0.99876   1.04964   1.05582   1.08528   1.08668
 Alpha virt. eigenvalues --    1.09165   1.09582   1.12429   1.14068   1.14245
 Alpha virt. eigenvalues --    1.16554   1.16920   1.23713   1.24065   1.25710
 Alpha virt. eigenvalues --    1.30796   1.37620   1.38205   1.40178   1.40353
 Alpha virt. eigenvalues --    1.42176   1.43253   1.44999   1.46386   1.47115
 Alpha virt. eigenvalues --    1.47452   1.48960   1.49534   1.49553   1.55652
 Alpha virt. eigenvalues --    1.57590   1.62196   1.73720   1.77315   1.77486
 Alpha virt. eigenvalues --    1.78331   1.81983   1.82827   1.87523   1.88098
 Alpha virt. eigenvalues --    1.90098   1.91686   1.95115   1.95581   1.97528
 Alpha virt. eigenvalues --    1.98030   1.99645   1.99811   2.04368   2.05344
 Alpha virt. eigenvalues --    2.08504   2.10426   2.11443   2.11867   2.11995
 Alpha virt. eigenvalues --    2.12664   2.13544   2.14443   2.14520   2.14655
 Alpha virt. eigenvalues --    2.27082   2.27136   2.28003   2.28042   2.29194
 Alpha virt. eigenvalues --    2.29943   2.49328   2.53661   2.53717   2.56255
 Alpha virt. eigenvalues --    2.60446   2.61010   2.61051   2.64355   2.65401
 Alpha virt. eigenvalues --    2.67226   2.67548   2.70832   2.71538   2.73519
 Alpha virt. eigenvalues --    2.74296   2.74644   2.78481   3.00149   3.01352
 Alpha virt. eigenvalues --    3.32232   3.34126   3.84766   3.95994   4.06243
 Alpha virt. eigenvalues --    4.06893   4.09213   4.10011   4.13902   4.17419
 Alpha virt. eigenvalues --    4.30403   4.31758   4.32611   4.36268   4.62502
 Alpha virt. eigenvalues --    4.66393
          Condensed to atoms (all electrons):
               1          2          3          4          5          6
     1  O    8.455488   0.286440  -0.044854   0.000790  -0.000052  -0.000004
     2  S    0.286440  15.016755   0.032039  -0.018215   0.002241  -0.000425
     3  C   -0.044854   0.032039   5.342863   0.490953  -0.029369  -0.034832
     4  C    0.000790  -0.018215   0.490953   4.946735   0.510241  -0.030968
     5  C   -0.000052   0.002241  -0.029369   0.510241   4.874541   0.545770
     6  C   -0.000004  -0.000425  -0.034832  -0.030968   0.545770   4.853455
     7  C    0.000304   0.005119  -0.031204  -0.037788  -0.031558   0.535148
     8  C    0.000489  -0.034202   0.489829  -0.033353  -0.036143  -0.026723
     9  C   -0.044851   0.032037   0.009141  -0.001420  -0.000210   0.000020
    10  C    0.000791  -0.018203  -0.001422   0.000006   0.000000  -0.000000
    11  C   -0.000052   0.002239  -0.000210   0.000000  -0.000000  -0.000000
    12  C   -0.000004  -0.000424   0.000020  -0.000000  -0.000000  -0.000000
    13  C    0.000304   0.005116  -0.000096   0.000005  -0.000000   0.000000
    14  C    0.000487  -0.034204  -0.009643   0.000173  -0.000004  -0.000001
    15  H   -0.000019   0.006303  -0.051627   0.359483  -0.038940   0.004231
    16  H    0.000000  -0.000075   0.004276  -0.040543   0.361120  -0.041531
    17  H   -0.000000   0.000011   0.000509   0.004606  -0.041290   0.359368
    18  H    0.000005  -0.000090   0.004666   0.000638   0.004241  -0.042131
    19  H    0.007117  -0.002461  -0.048247   0.004857   0.000432   0.004029
    20  H   -0.000019   0.006308  -0.000497   0.000068   0.000002  -0.000000
    21  H    0.000000  -0.000075   0.000001   0.000000   0.000000  -0.000000
    22  H   -0.000000   0.000011   0.000000  -0.000000  -0.000000   0.000000
    23  H    0.000005  -0.000090  -0.000003   0.000000   0.000000  -0.000000
    24  H    0.007117  -0.002461  -0.001863   0.000012   0.000001  -0.000002
               7          8          9         10         11         12
     1  O    0.000304   0.000489  -0.044851   0.000791  -0.000052  -0.000004
     2  S    0.005119  -0.034202   0.032037  -0.018203   0.002239  -0.000424
     3  C   -0.031204   0.489829   0.009141  -0.001422  -0.000210   0.000020
     4  C   -0.037788  -0.033353  -0.001420   0.000006   0.000000  -0.000000
     5  C   -0.031558  -0.036143  -0.000210   0.000000  -0.000000  -0.000000
     6  C    0.535148  -0.026723   0.000020  -0.000000  -0.000000  -0.000000
     7  C    4.874421   0.520323  -0.000097   0.000005  -0.000000   0.000000
     8  C    0.520323   4.926904  -0.009640   0.000173  -0.000004  -0.000001
     9  C   -0.000097  -0.009640   5.342848   0.490904  -0.029370  -0.034831
    10  C    0.000005   0.000173   0.490904   4.946782   0.510253  -0.030966
    11  C   -0.000000  -0.000004  -0.029370   0.510253   4.874527   0.545775
    12  C    0.000000  -0.000001  -0.034831  -0.030966   0.545775   4.853470
    13  C    0.000001  -0.000018  -0.031210  -0.037789  -0.031573   0.535159
    14  C   -0.000018   0.000537   0.489847  -0.033344  -0.036149  -0.026723
    15  H    0.000452   0.004819  -0.000497   0.000068   0.000002  -0.000000
    16  H    0.004378   0.000476   0.000001   0.000000   0.000000  -0.000000
    17  H   -0.041613   0.004550   0.000000  -0.000000  -0.000000   0.000000
    18  H    0.362542  -0.042922  -0.000003   0.000000   0.000000  -0.000000
    19  H   -0.038825   0.357109  -0.001862   0.000012   0.000001  -0.000002
    20  H    0.000000   0.000011  -0.051630   0.359475  -0.038937   0.004231
    21  H    0.000000   0.000000   0.004275  -0.040535   0.361110  -0.041527
    22  H   -0.000000  -0.000000   0.000509   0.004605  -0.041280   0.359351
    23  H    0.000000   0.000005   0.004665   0.000638   0.004241  -0.042132
    24  H    0.000120   0.001122  -0.048251   0.004859   0.000433   0.004030
              13         14         15         16         17         18
     1  O    0.000304   0.000487  -0.000019   0.000000  -0.000000   0.000005
     2  S    0.005116  -0.034204   0.006303  -0.000075   0.000011  -0.000090
     3  C   -0.000096  -0.009643  -0.051627   0.004276   0.000509   0.004666
     4  C    0.000005   0.000173   0.359483  -0.040543   0.004606   0.000638
     5  C   -0.000000  -0.000004  -0.038940   0.361120  -0.041290   0.004241
     6  C    0.000000  -0.000001   0.004231  -0.041531   0.359368  -0.042131
     7  C    0.000001  -0.000018   0.000452   0.004378  -0.041613   0.362542
     8  C   -0.000018   0.000537   0.004819   0.000476   0.004550  -0.042922
     9  C   -0.031210   0.489847  -0.000497   0.000001   0.000000  -0.000003
    10  C   -0.037789  -0.033344   0.000068   0.000000  -0.000000   0.000000
    11  C   -0.031573  -0.036149   0.000002   0.000000  -0.000000   0.000000
    12  C    0.535159  -0.026723  -0.000000  -0.000000   0.000000  -0.000000
    13  C    4.874410   0.520328   0.000000   0.000000  -0.000000   0.000000
    14  C    0.520328   4.926918   0.000011   0.000000  -0.000000   0.000005
    15  H    0.000000   0.000011   0.570472  -0.005218  -0.000153   0.000014
    16  H    0.000000   0.000000  -0.005218   0.579527  -0.005043  -0.000165
    17  H   -0.000000  -0.000000  -0.000153  -0.005043   0.581520  -0.005031
    18  H    0.000000   0.000005   0.000014  -0.000165  -0.005031   0.579141
    19  H    0.000120   0.001123  -0.000136   0.000013  -0.000149  -0.004575
    20  H    0.000453   0.004820   0.000063  -0.000000  -0.000000   0.000000
    21  H    0.004377   0.000476  -0.000000  -0.000000   0.000000  -0.000000
    22  H   -0.041610   0.004550  -0.000000   0.000000  -0.000000  -0.000000
    23  H    0.362547  -0.042915   0.000000  -0.000000  -0.000000   0.000000
    24  H   -0.038831   0.357103   0.000000   0.000000  -0.000000   0.000001
              19         20         21         22         23         24
     1  O    0.007117  -0.000019   0.000000  -0.000000   0.000005   0.007117
     2  S   -0.002461   0.006308  -0.000075   0.000011  -0.000090  -0.002461
     3  C   -0.048247  -0.000497   0.000001   0.000000  -0.000003  -0.001863
     4  C    0.004857   0.000068   0.000000  -0.000000   0.000000   0.000012
     5  C    0.000432   0.000002   0.000000  -0.000000   0.000000   0.000001
     6  C    0.004029  -0.000000  -0.000000   0.000000  -0.000000  -0.000002
     7  C   -0.038825   0.000000   0.000000  -0.000000   0.000000   0.000120
     8  C    0.357109   0.000011   0.000000  -0.000000   0.000005   0.001122
     9  C   -0.001862  -0.051630   0.004275   0.000509   0.004665  -0.048251
    10  C    0.000012   0.359475  -0.040535   0.004605   0.000638   0.004859
    11  C    0.000001  -0.038937   0.361110  -0.041280   0.004241   0.000433
    12  C   -0.000002   0.004231  -0.041527   0.359351  -0.042132   0.004030
    13  C    0.000120   0.000453   0.004377  -0.041610   0.362547  -0.038831
    14  C    0.001123   0.004820   0.000476   0.004550  -0.042915   0.357103
    15  H   -0.000136   0.000063  -0.000000  -0.000000   0.000000   0.000000
    16  H    0.000013  -0.000000  -0.000000   0.000000  -0.000000   0.000000
    17  H   -0.000149  -0.000000   0.000000  -0.000000  -0.000000  -0.000000
    18  H   -0.004575   0.000000  -0.000000  -0.000000   0.000000   0.000001
    19  H    0.552433   0.000000   0.000000  -0.000000   0.000001   0.004067
    20  H    0.000000   0.570478  -0.005218  -0.000153   0.000014  -0.000136
    21  H    0.000000  -0.005218   0.579529  -0.005043  -0.000165   0.000013
    22  H   -0.000000  -0.000153  -0.005043   0.581530  -0.005030  -0.000149
    23  H    0.000001   0.000014  -0.000165  -0.005030   0.579123  -0.004575
    24  H    0.004067  -0.000136   0.000013  -0.000149  -0.004575   0.552460
 Mulliken charges:
               1
     1  O   -0.669481
     2  S    0.716305
     3  C   -0.120430
     4  C   -0.156278
     5  C   -0.121022
     6  C   -0.125404
     7  C   -0.121709
     8  C   -0.123340
     9  C   -0.120376
    10  C   -0.156310
    11  C   -0.121002
    12  C   -0.125425
    13  C   -0.121691
    14  C   -0.123376
    15  H    0.150672
    16  H    0.142785
    17  H    0.142715
    18  H    0.143664
    19  H    0.164943
    20  H    0.150668
    21  H    0.142782
    22  H    0.142710
    23  H    0.143670
    24  H    0.164930
 Sum of Mulliken charges =  -0.00000
 Mulliken charges with hydrogens summed into heavy atoms:
               1
     1  O   -0.669481
     2  S    0.716305
     3  C   -0.120430
     4  C   -0.005606
     5  C    0.021763
     6  C    0.017312
     7  C    0.021954
     8  C    0.041602
     9  C   -0.120376
    10  C   -0.005642
    11  C    0.021780
    12  C    0.017285
    13  C    0.021979
    14  C    0.041553
 Electronic spatial extent (au):  <R**2>=           3331.2826
 Charge=             -0.0000 electrons
 Dipole moment (field-independent basis, Debye):
    X=             -0.0002    Y=             -3.7673    Z=              3.2985  Tot=              5.0073
 Quadrupole moment (field-independent basis, Debye-Ang):
   XX=            -72.0154   YY=            -91.0120   ZZ=            -86.3355
   XY=             -0.0003   XZ=             -0.0007   YZ=             12.0016
 Traceless Quadrupole moment (field-independent basis, Debye-Ang):
   XX=             11.1056   YY=             -7.8911   ZZ=             -3.2146
   XY=             -0.0003   XZ=             -0.0007   YZ=             12.0016
 Octapole moment (field-independent basis, Debye-Ang**2):
  XXX=             -0.0052  YYY=             -6.2726  ZZZ=              8.5982  XYY=              0.0005
  XXY=            -32.4134  XXZ=             20.5227  XZZ=             -0.0012  YZZ=            -10.2495
  YYZ=              4.9814  XYZ=              0.0005
 Hexadecapole moment (field-independent basis, Debye-Ang**3):
 XXXX=          -3000.5118 YYYY=           -702.7145 ZZZZ=           -601.4732 XXXY=             -0.0035
 XXXZ=             -0.0127 YYYX=             -0.0023 YYYZ=             29.5131 ZZZX=             -0.0028
 ZZZY=             35.8590 XXYY=           -603.5752 XXZZ=           -585.9883 YYZZ=           -227.7246
 XXYZ=             18.7964 YYXZ=             -0.0044 ZZXY=             -0.0007
 N-N= 9.086032709926D+02 E-N=-4.011990364718D+03  KE= 9.296271073444D+02
 No NMR shielding tensors so no spin-rotation constants.
 Leave Link  601 at Mon Oct 14 01:49:38 2019, MaxMem= 10737418240 cpu:               2.4 elap:               0.1
 (Enter /apps/cent7/gaussian/g16-A.03/g16-haswell/g16/l701.exe)
 ... and contract with generalized density number  0.
 Compute integral first derivatives.
 Leave Link  701 at Mon Oct 14 01:49:38 2019, MaxMem= 10737418240 cpu:               3.5 elap:               0.2
 (Enter /apps/cent7/gaussian/g16-A.03/g16-haswell/g16/l702.exe)
 L702 exits ... SP integral derivatives will be done elsewhere.
 Leave Link  702 at Mon Oct 14 01:49:38 2019, MaxMem= 10737418240 cpu:               0.5 elap:               0.0
 (Enter /apps/cent7/gaussian/g16-A.03/g16-haswell/g16/l703.exe)
 Integral derivatives from FoFJK, PRISM(SPDF).
 Compute integral first derivatives, UseDBF=F ICtDFT=           0.
 Calling FoFJK, ICntrl=      2127 FMM=F ISym2X=0 I1Cent= 0 IOpClX= 0 NMat=1 NMatS=1 NMatT=0.
 FoFJK:  IHMeth= 1 ICntrl=    2127 DoSepK=F KAlg= 0 I1Cent=           0 FoldK=F
 IRaf=         0 NMat=       1 IRICut=       1 DoRegI=T DoRafI=F ISym2E= 0 IDoP0=0 IntGTp=1.
 FoFCou: FMM=F IPFlag=           0 FMFlag=      100000 FMFlg1=         800
         NFxFlg=           0 DoJE=F BraDBF=F KetDBF=F FulRan=T
         wScrn=  0.000000 ICntrl=      2127 IOpCl=  0 I1Cent=           0 NGrid=           0
         NMat0=    1 NMatS0=      1 NMatT0=    0 NMatD0=    1 NMtDS0=    0 NMtDT0=    0
 Symmetry not used in FoFCou.
 Leave Link  703 at Mon Oct 14 01:49:40 2019, MaxMem= 10737418240 cpu:              35.9 elap:               1.5
 (Enter /apps/cent7/gaussian/g16-A.03/g16-haswell/g16/l716.exe)
 Dipole        =-6.85914309D-05-1.48217751D+00 1.29774154D+00
 ***** Axes restored to original set *****
 -------------------------------------------------------------------
 Center     Atomic                   Forces (Hartrees/Bohr)
 Number     Number              X              Y              Z
 -------------------------------------------------------------------
      1        8           0.044789479    0.003438239   -0.030752094
      2       16          -0.043126379   -0.021355638    0.056431284
      3        6          -0.005347303    0.002066627   -0.032289752
      4        6          -0.004025924    0.002321067   -0.001677364
      5        6          -0.006949989    0.005178152    0.003385612
      6        6           0.004274402    0.002177222    0.007107456
      7        6           0.007719739   -0.002057642    0.007142976
      8        6           0.000797604   -0.002958881   -0.005173617
      9        6           0.005132320    0.029155148   -0.014052160
     10        6          -0.003799946    0.002738728   -0.001336005
     11        6          -0.009166503   -0.000771757   -0.000654388
     12        6           0.000101197   -0.008492148   -0.000100980
     13        6           0.005035235   -0.009265249    0.002322421
     14        6           0.003659721    0.004790381   -0.000024243
     15        1          -0.001999870    0.000802367   -0.000181801
     16        1          -0.001646480    0.001121453    0.002083506
     17        1           0.001103929    0.001272772    0.001958132
     18        1           0.001926140   -0.000759666    0.001877138
     19        1           0.001869132   -0.003959556    0.000403097
     20        1          -0.001981533    0.000937551   -0.000114938
     21        1          -0.002617578   -0.001261887    0.000492958
     22        1          -0.000353187   -0.002558070   -0.000578006
     23        1           0.001297938   -0.002298222    0.000829415
     24        1           0.003307855   -0.000260993    0.002901352
 -------------------------------------------------------------------
 Cartesian Forces:  Max     0.056431284 RMS     0.012570428
 Leave Link  716 at Mon Oct 14 01:49:40 2019, MaxMem= 10737418240 cpu:               0.6 elap:               0.1
 (Enter /apps/cent7/gaussian/g16-A.03/g16-haswell/g16/l103.exe)

 GradGradGradGradGradGradGradGradGradGradGradGradGradGradGradGradGradGrad
 Berny optimization.
 FormGI is forming the generalized inverse of G from B-inverse, IUseBI=4.
 GSVD:  received Info=                   1 from GESDD.
 Internal  Forces:  Max     0.054303666 RMS     0.006952939
 Search for a local minimum.
 Step number   1 out of a maximum of  130
 All quantities printed in internal units (Hartrees-Bohrs-Radians)
 RMS Force = .69529D-02 SwitMx=.10000D-02 MixMth= 1
 Mixed Optimization -- RFO/linear search
 Second derivative matrix not updated -- first step.
 ITU=  0
     Eigenvalues ---    0.00727   0.00727   0.01571   0.01572   0.01951
     Eigenvalues ---    0.01951   0.01965   0.01966   0.01971   0.01972
     Eigenvalues ---    0.01981   0.01981   0.01987   0.01987   0.01990
     Eigenvalues ---    0.01990   0.01991   0.01992   0.01994   0.01994
     Eigenvalues ---    0.06953   0.16000   0.16000   0.16000   0.16000
     Eigenvalues ---    0.16000   0.16000   0.16000   0.16000   0.16000
     Eigenvalues ---    0.16000   0.17365   0.21998   0.21998   0.21999
     Eigenvalues ---    0.21999   0.23478   0.23478   0.24994   0.24994
     Eigenvalues ---    0.25000   0.28362   0.28362   0.34804   0.34804
     Eigenvalues ---    0.34808   0.34810   0.34815   0.34815   0.34816
     Eigenvalues ---    0.34816   0.34816   0.34818   0.40373   0.40377
     Eigenvalues ---    0.40486   0.40488   0.43954   0.43964   0.44171
     Eigenvalues ---    0.44174   0.44407   0.44408   0.44424   0.44427
     Eigenvalues ---    0.50178
 RFO step:  Lambda=-1.61227095D-02 EMin= 7.27091987D-03
 Linear search not attempted -- first point.
 Iteration  1 RMS(Cart)=  0.09474338 RMS(Int)=  0.00198522
 Iteration  2 RMS(Cart)=  0.00480100 RMS(Int)=  0.00036922
 Iteration  3 RMS(Cart)=  0.00001543 RMS(Int)=  0.00036918
 Iteration  4 RMS(Cart)=  0.00000005 RMS(Int)=  0.00036918
 ITry= 1 IFail=0 DXMaxC= 2.88D-01 DCOld= 1.00D+10 DXMaxT= 3.00D-01 DXLimC= 3.00D+00 Rises=F
 Variable       Old X    -DE/DX   Delta X   Delta X   Delta X     New X
                                 (Linear)    (Quad)   (Total)
    R1        3.03386  -0.05430   0.00000  -0.10485  -0.10485   2.92901
    R2        3.35053   0.01307   0.00000   0.04361   0.04361   3.39414
    R3        3.35054   0.01307   0.00000   0.04362   0.04362   3.39416
    R4        2.66490  -0.01177   0.00000  -0.02583  -0.02579   2.63911
    R5        2.66716  -0.01136   0.00000  -0.02503  -0.02497   2.64219
    R6        2.65986  -0.01161   0.00000  -0.02521  -0.02523   2.63463
    R7        2.05977  -0.00202   0.00000  -0.00553  -0.00553   2.05424
    R8        2.66051  -0.01140   0.00000  -0.02479  -0.02484   2.63566
    R9        2.05975  -0.00271   0.00000  -0.00743  -0.00743   2.05232
   R10        2.65889  -0.00804   0.00000  -0.01745  -0.01749   2.64140
   R11        2.05976  -0.00249   0.00000  -0.00683  -0.00683   2.05293
   R12        2.65931  -0.01371   0.00000  -0.02978  -0.02976   2.62954
   R13        2.05985  -0.00269   0.00000  -0.00738  -0.00738   2.05247
   R14        2.05971  -0.00349   0.00000  -0.00958  -0.00958   2.05014
   R15        2.66485  -0.01175   0.00000  -0.02577  -0.02573   2.63912
   R16        2.66697  -0.01129   0.00000  -0.02487  -0.02482   2.64216
   R17        2.65983  -0.01160   0.00000  -0.02519  -0.02521   2.63461
   R18        2.05987  -0.00205   0.00000  -0.00563  -0.00563   2.05424
   R19        2.66046  -0.01138   0.00000  -0.02474  -0.02480   2.63567
   R20        2.05994  -0.00277   0.00000  -0.00762  -0.00762   2.05232
   R21        2.65893  -0.00805   0.00000  -0.01748  -0.01752   2.64141
   R22        2.05994  -0.00255   0.00000  -0.00700  -0.00700   2.05294
   R23        2.65940  -0.01374   0.00000  -0.02985  -0.02984   2.62957
   R24        2.05975  -0.00266   0.00000  -0.00729  -0.00729   2.05246
   R25        2.05975  -0.00350   0.00000  -0.00960  -0.00960   2.05015
    A1        1.84178   0.00352   0.00000  -0.00838  -0.01050   1.83128
    A2        1.84176   0.00352   0.00000  -0.00836  -0.01048   1.83127
    A3        1.87761  -0.02456   0.00000  -0.10397  -0.10504   1.77256
    A4        2.07854  -0.00495   0.00000  -0.01898  -0.01922   2.05932
    A5        2.11908   0.00081   0.00000   0.00265   0.00238   2.12145
    A6        2.08535   0.00411   0.00000   0.01560   0.01548   2.10083
    A7        2.09806  -0.00191   0.00000  -0.00761  -0.00760   2.09046
    A8        2.09423   0.00020   0.00000  -0.00050  -0.00052   2.09371
    A9        2.09090   0.00171   0.00000   0.00812   0.00810   2.09901
   A10        2.09545  -0.00048   0.00000  -0.00154  -0.00161   2.09384
   A11        2.09369  -0.00040   0.00000  -0.00288  -0.00285   2.09084
   A12        2.09405   0.00088   0.00000   0.00441   0.00445   2.09850
   A13        2.09370   0.00059   0.00000   0.00300   0.00288   2.09658
   A14        2.09516  -0.00052   0.00000  -0.00276  -0.00275   2.09241
   A15        2.09433  -0.00007   0.00000  -0.00023  -0.00022   2.09410
   A16        2.09378   0.00050   0.00000   0.00253   0.00251   2.09629
   A17        2.09458   0.00041   0.00000   0.00250   0.00250   2.09708
   A18        2.09483  -0.00091   0.00000  -0.00503  -0.00503   2.08980
   A19        2.09983  -0.00280   0.00000  -0.01147  -0.01151   2.08831
   A20        2.09416  -0.00001   0.00000  -0.00224  -0.00241   2.09175
   A21        2.08919   0.00280   0.00000   0.01371   0.01353   2.10273
   A22        2.07855  -0.00495   0.00000  -0.01900  -0.01923   2.05931
   A23        2.11911   0.00081   0.00000   0.00263   0.00236   2.12147
   A24        2.08531   0.00412   0.00000   0.01563   0.01551   2.10083
   A25        2.09809  -0.00192   0.00000  -0.00764  -0.00763   2.09046
   A26        2.09424   0.00020   0.00000  -0.00050  -0.00052   2.09372
   A27        2.09086   0.00172   0.00000   0.00815   0.00813   2.09899
   A28        2.09546  -0.00048   0.00000  -0.00154  -0.00161   2.09384
   A29        2.09374  -0.00041   0.00000  -0.00292  -0.00288   2.09085
   A30        2.09399   0.00089   0.00000   0.00446   0.00449   2.09849
   A31        2.09371   0.00060   0.00000   0.00300   0.00288   2.09659
   A32        2.09524  -0.00053   0.00000  -0.00282  -0.00281   2.09242
   A33        2.09424  -0.00007   0.00000  -0.00018  -0.00017   2.09407
   A34        2.09367   0.00052   0.00000   0.00260   0.00259   2.09626
   A35        2.09458   0.00041   0.00000   0.00252   0.00252   2.09709
   A36        2.09494  -0.00093   0.00000  -0.00512  -0.00512   2.08982
   A37        2.09993  -0.00282   0.00000  -0.01155  -0.01159   2.08834
   A38        2.09425  -0.00001   0.00000  -0.00228  -0.00244   2.09180
   A39        2.08901   0.00283   0.00000   0.01382   0.01364   2.10265
    D1       -2.40985  -0.00387   0.00000  -0.09432  -0.09373  -2.50358
    D2        0.70934  -0.00504   0.00000  -0.13252  -0.13157   0.57776
    D3        1.91337   0.00109   0.00000  -0.03629  -0.03723   1.87613
    D4       -1.25063  -0.00007   0.00000  -0.07449  -0.07508  -1.32571
    D5        2.40996   0.00387   0.00000   0.09426   0.09368   2.50363
    D6       -0.70941   0.00505   0.00000   0.13255   0.13161  -0.57781
    D7       -1.91325  -0.00110   0.00000   0.03623   0.03717  -1.87607
    D8        1.25057   0.00007   0.00000   0.07451   0.07510   1.32567
    D9        3.11273  -0.00058   0.00000  -0.01892  -0.01874   3.09399
   D10       -0.02903  -0.00040   0.00000  -0.01387  -0.01375  -0.04278
   D11       -0.00690   0.00060   0.00000   0.01868   0.01880   0.01190
   D12        3.13452   0.00079   0.00000   0.02374   0.02380  -3.12486
   D13       -3.11053   0.00064   0.00000   0.01894   0.01921  -3.09133
   D14        0.03110  -0.00045   0.00000  -0.01109  -0.01073   0.02037
   D15        0.00857  -0.00065   0.00000  -0.01984  -0.01997  -0.01140
   D16       -3.13298  -0.00174   0.00000  -0.04988  -0.04991   3.10030
   D17       -0.00798   0.00010   0.00000   0.00211   0.00219  -0.00579
   D18        3.13377   0.00018   0.00000   0.00466   0.00469   3.13846
   D19        3.13378  -0.00008   0.00000  -0.00294  -0.00282   3.13096
   D20       -0.00765  -0.00000   0.00000  -0.00038  -0.00032  -0.00797
   D21        0.02125  -0.00079   0.00000  -0.02201  -0.02201  -0.00075
   D22       -3.12050  -0.00025   0.00000  -0.00662  -0.00663  -3.12714
   D23       -3.12050  -0.00087   0.00000  -0.02456  -0.02451   3.13817
   D24        0.02093  -0.00033   0.00000  -0.00918  -0.00914   0.01179
   D25       -0.01958   0.00073   0.00000   0.02083   0.02082   0.00125
   D26        3.12219   0.00095   0.00000   0.02695   0.02700  -3.13399
   D27        3.12218   0.00019   0.00000   0.00546   0.00544   3.12761
   D28       -0.01924   0.00041   0.00000   0.01157   0.01162  -0.00762
   D29        0.00465  -0.00001   0.00000   0.00015   0.00014   0.00480
   D30       -3.13698   0.00107   0.00000   0.03010   0.03028  -3.10671
   D31       -3.13712  -0.00023   0.00000  -0.00597  -0.00601   3.14006
   D32        0.00443   0.00085   0.00000   0.02398   0.02412   0.02855
   D33       -3.11266   0.00058   0.00000   0.01886   0.01867  -3.09399
   D34        0.02886   0.00040   0.00000   0.01395   0.01383   0.04269
   D35        0.00715  -0.00061   0.00000  -0.01883  -0.01895  -0.01180
   D36       -3.13452  -0.00078   0.00000  -0.02374  -0.02380   3.12487
   D37        3.11051  -0.00063   0.00000  -0.01891  -0.01918   3.09133
   D38       -0.03103   0.00045   0.00000   0.01107   0.01071  -0.02032
   D39       -0.00877   0.00065   0.00000   0.01996   0.02008   0.01131
   D40        3.13287   0.00174   0.00000   0.04993   0.04996  -3.10035
   D41        0.00768  -0.00009   0.00000  -0.00190  -0.00198   0.00570
   D42       -3.13377  -0.00018   0.00000  -0.00464  -0.00466  -3.13844
   D43       -3.13384   0.00009   0.00000   0.00300   0.00288  -3.13095
   D44        0.00790   0.00000   0.00000   0.00026   0.00020   0.00809
   D45       -0.02095   0.00078   0.00000   0.02177   0.02177   0.00082
   D46        3.12053   0.00025   0.00000   0.00657   0.00658   3.12712
   D47        3.12050   0.00087   0.00000   0.02452   0.02447  -3.13821
   D48       -0.02120   0.00033   0.00000   0.00932   0.00928  -0.01192
   D49        0.01932  -0.00073   0.00000  -0.02064  -0.02063  -0.00131
   D50       -3.12219  -0.00095   0.00000  -0.02691  -0.02697   3.13403
   D51       -3.12217  -0.00019   0.00000  -0.00544  -0.00543  -3.12759
   D52        0.01952  -0.00042   0.00000  -0.01172  -0.01177   0.00775
   D53       -0.00444   0.00001   0.00000  -0.00029  -0.00028  -0.00472
   D54        3.13710  -0.00107   0.00000  -0.03017  -0.03036   3.10674
   D55        3.13706   0.00023   0.00000   0.00599   0.00603  -3.14009
   D56       -0.00458  -0.00085   0.00000  -0.02389  -0.02404  -0.02862
         Item               Value     Threshold  Converged?
 Maximum Force            0.054304     0.000450     NO 
 RMS     Force            0.006953     0.000300     NO 
 Maximum Displacement     0.288118     0.001800     NO 
 RMS     Displacement     0.098206     0.001200     NO 
 Predicted change in Energy=-8.991837D-03
 Lowest energy point so far.  Saving SCF results.
 GradGradGradGradGradGradGradGradGradGradGradGradGradGradGradGradGradGrad

 Leave Link  103 at Mon Oct 14 01:49:40 2019, MaxMem= 10737418240 cpu:               1.5 elap:               0.1
 (Enter /apps/cent7/gaussian/g16-A.03/g16-haswell/g16/l202.exe)
                          Input orientation:                          
 ---------------------------------------------------------------------
 Center     Atomic      Atomic             Coordinates (Angstroms)
 Number     Number       Type             X           Y           Z
 ---------------------------------------------------------------------
      1          8           0       -2.111345   -1.656551    0.943730
      2         16           0       -0.738509   -1.702152    0.225657
      3          6           0       -1.115856   -2.180812   -1.463863
      4          6           0       -0.217240   -3.022580   -2.122862
      5          6           0       -0.501506   -3.463395   -3.414615
      6          6           0       -1.683486   -3.068795   -4.041106
      7          6           0       -2.584650   -2.232569   -3.375981
      8          6           0       -2.304876   -1.789639   -2.086873
      9          6           0       -0.268829    0.018720    0.015864
     10          6           0        1.081587    0.350107    0.146044
     11          6           0        1.480159    1.682433    0.047177
     12          6           0        0.530101    2.679260   -0.174205
     13          6           0       -0.821704    2.345348   -0.296262
     14          6           0       -1.224080    1.016853   -0.198857
     15          1           0        0.697859   -3.335127   -1.626277
     16          1           0        0.198447   -4.115652   -3.928532
     17          1           0       -1.910026   -3.423927   -5.042481
     18          1           0       -3.508548   -1.930711   -3.860702
     19          1           0       -3.014763   -1.166876   -1.552828
     20          1           0        1.816791   -0.429586    0.328386
     21          1           0        2.530578    1.940225    0.145421
     22          1           0        0.840478    3.718417   -0.237566
     23          1           0       -1.562752    3.121971   -0.461646
     24          1           0       -2.274929    0.754339   -0.260425
 ---------------------------------------------------------------------
                    Distance matrix (angstroms):
                    1          2          3          4          5
     1  O    0.000000
     2  S    1.549964   0.000000
     3  C    2.657508   1.796102   0.000000
     4  C    3.854563   2.744229   1.396554   0.000000
     5  C    4.985122   4.050892   2.414100   1.394185   0.000000
     6  C    5.198663   4.578861   2.784404   2.414886   1.394732
     7  C    4.383573   4.081835   2.411686   2.792679   2.419900
     8  C    3.039691   2.794451   1.398187   2.424802   2.795801
     9  C    2.657505   1.796110   2.782981   3.718375   4.893613
    10  C    3.854581   2.744240   3.718347   4.267306   5.452272
    11  C    4.985130   4.050895   4.893587   5.452282   6.510802
    12  C    5.198680   4.578867   5.290812   6.071800   7.021159
    13  C    4.383600   4.081859   4.683582   5.702323   6.600617
    14  C    3.039710   2.794455   3.440497   4.586125   5.562000
    15  H    4.161031   2.856469   2.156011   1.087055   2.157101
    16  H    5.926319   4.894911   3.397881   2.151290   1.086041
    17  H    6.244907   5.664824   3.870730   3.398643   2.153005
    18  H    5.010979   4.942033   3.395934   3.878785   3.404470
    19  H    2.699768   2.937833   2.154490   3.405101   3.880298
    20  H    4.161051   2.856490   3.857379   4.107252   5.346827
    21  H    5.926344   4.894923   5.733169   6.109423   7.146083
    22  H    6.244918   5.664833   6.334978   7.079134   7.966993
    23  H    5.011019   4.942057   5.415133   6.505809   7.294746
    24  H    2.699841   2.937892   3.377399   4.686990   5.557268
                    6          7          8          9         10
     6  C    0.000000
     7  C    1.397771   0.000000
     8  C    2.416898   1.391495   0.000000
     9  C    5.290842   4.683581   3.440516   0.000000
    10  C    6.071799   5.702295   4.586128   1.396564   0.000000
    11  C    7.021174   6.600600   5.562009   2.414101   1.394176
    12  C    7.272759   6.639209   5.627295   2.784401   2.414881
    13  C    6.639237   5.792233   4.743860   2.411699   2.792694
    14  C    5.627296   4.743840   3.550934   1.398170   2.424790
    15  H    3.401932   3.879686   3.408387   3.857382   4.107227
    16  H    2.156445   3.405429   3.881839   5.733205   6.109428
    17  H    1.086365   2.156774   3.400356   6.334997   7.079115
    18  H    2.158386   1.086122   2.148301   5.415148   6.505804
    19  H    3.403105   2.155130   1.084886   3.377363   4.686948
    20  H    6.189494   6.028745   4.967028   2.156029   1.087057
    21  H    7.770176   7.481847   6.502049   3.397889   2.151291
    22  H    8.179460   7.549529   6.606956   3.870730   3.398647
    23  H    7.152112   6.181321   5.226474   3.395942   3.878795
    24  H    5.409225   4.327151   3.131874   2.154509   3.405117
                   11         12         13         14         15
    11  C    0.000000
    12  C    1.394734   0.000000
    13  C    2.419913   1.397774   0.000000
    14  C    2.795788   2.416889   1.391507   0.000000
    15  H    5.346807   6.189466   6.028748   4.967002   0.000000
    16  H    7.146107   7.770186   7.481886   6.502052   2.481736
    17  H    7.966987   8.179438   7.549541   6.606947   4.298767
    18  H    7.294760   7.152117   6.181346   5.226476   4.965773
    19  H    5.557238   5.409197   4.327144   3.131846   4.300031
[...]
 00061443,0.00178767,-0.00134351,0.00159166,0.00587138,-0.00143026,-0.0
 0025613,-0.00018474,0.00032534,0.00002588,0.00001367,0.00001974,0.0000
 0499,-0.00009387,-0.00000526,-0.00000205,0.00003579,0.00000456,0.00002
 782,-0.00003640,0.00000796,-0.00003059,-0.00002591,0.00000483,-0.00003
 877,0.00002629,0.00001053,-0.00130189,-0.00306698,0.00143765,-0.103888
 64,0.07966493,0.00057473,-0.00013969,-0.00066584,0.00078915,-0.0002641
 9,0.00066867,-0.00211118,-0.00350760,-0.00427931,0.02521011,-0.0118585
 3,-0.00965005,0.09929130,-0.05837683,-0.11596101,-0.01330201,0.0071039
 1,0.01121059,-0.00346222,-0.00170909,-0.00051066,-0.00082641,0.0001135
 4,-0.00086568,-0.00008420,0.00014394,-0.00006303,0.00006212,-0.0001521
 2,0.00004357,-0.00001690,0.00000225,0.00001834,-0.00002598,-0.00002870
 ,0.00000259,0.00000381,0.00002821,0.00000389,-0.00006941,-0.00005139,0
 .00000540,0.00028252,0.00154648,0.00066372,-0.10647763,0.06522655,0.11
 863919,0.00021384,-0.00005432,0.00005711,-0.00009873,-0.00017315,0.000
 16405,-0.00141123,0.00037172,0.00008526,-0.00417502,0.00232253,-0.0025
 6482,0.00256560,-0.01001017,-0.02723887,-0.06069268,-0.00119236,-0.022
 29118,0.00666537,0.00811921,0.02526338,-0.00363728,0.00345624,0.001393
 01,0.00000323,-0.00003676,-0.00005650,-0.00005436,0.00002470,-0.000003
 44,0.00002282,-0.00000204,0.00000177,-0.00000052,-0.00000518,0.0000024
 9,0.00000580,-0.00000793,0.00000655,-0.00000969,-0.00000610,0.00000525
 ,0.00001271,-0.00043916,-0.00144902,0.00067872,-0.00100767,0.00082251,
 0.05889853,-0.00013832,-0.00003903,-0.00009804,-0.00001685,-0.00077798
 ,0.00008339,0.00034669,-0.00016241,0.00057731,0.00201210,0.00582286,-0
 .00134083,0.00061946,0.00358288,0.00320542,-0.00113001,-0.06963322,-0.
 09222812,-0.00257616,-0.00070843,-0.01140048,0.00372737,0.00501843,-0.
 00276499,0.00000374,-0.00001674,-0.00016024,-0.00002380,-0.00001935,0.
 00000764,0.00000065,-0.00000792,0.00002848,-0.00001972,-0.00000975,0.0
 0000403,0.00001579,0.00001802,0.00002085,-0.00002774,-0.00005313,0.000
 01091,0.00015147,0.00023327,0.00017366,-0.00125466,-0.00298834,0.00128
 543,-0.00047273,0.06273771,0.00001929,-0.00005534,-0.00017884,0.000106
 28,0.00038484,0.00005611,0.00005593,0.00029989,0.00068083,-0.00341248,
 -0.00114258,0.00108951,0.00131988,-0.00511030,-0.01035510,-0.02230206,
 -0.09197633,-0.30668955,-0.00333367,-0.00361818,-0.00973462,0.00230676
 ,-0.00274516,0.00126448,0.00000087,0.00004707,0.00006167,-0.00000094,-
 0.00003004,-0.00000348,0.00001393,0.00000261,-0.00001412,0.,-0.0000122
 4,0.00000470,-0.00000934,0.00000448,-0.00000671,-0.00002257,-0.0000056
 7,-0.00000527,0.00007714,-0.00030550,-0.00058324,0.00019680,0.00145951
 ,0.00035238,0.02466593,0.10159266,0.32412374,0.00011934,-0.00004536,-0
 .00008434,0.00000746,0.00024479,0.00037612,0.00196299,0.00116076,-0.00
 067385,0.00026924,0.00012731,0.00079480,-0.00168102,0.00356300,0.00313
 016,-0.01740326,0.00036744,-0.01433769,-0.27225868,0.02196840,-0.11895
 068,0.00186837,0.00047855,0.00044773,-0.00000338,0.00002102,-0.0000047
 9,0.00002172,-0.00001397,0.00000185,0.00000849,-0.00002531,0.00000493,
 -0.00002221,-0.00000442,0.00000649,0.00000981,0.00001320,0.00000497,-0
 .00004800,-0.00002936,-0.00000086,-0.00010568,-0.00033883,-0.00001130,
 -0.00094980,0.00008135,-0.00081419,0.00067348,-0.00103976,0.00060251,0
 .28708704,0.00022234,0.00011332,0.00010155,-0.00037567,0.00007357,-0.0
 0041445,0.00158249,0.00542000,-0.00372069,-0.00000943,-0.00045155,-0.0
 0024729,0.00319822,0.00493323,-0.00350699,0.01075670,0.00224645,0.0069
 9584,0.02159528,-0.04165237,0.00219106,-0.00964026,0.00365026,-0.00536
 755,-0.00004133,0.00010032,0.00005097,0.00002634,0.00002528,0.00003140
 ,0.00000581,-0.00005761,0.00001342,-0.00005036,0.00000732,0.00001146,0
 .00002584,0.00003128,-0.00000608,-0.00002551,-0.00004839,-0.00000519,-
 0.00036691,-0.00103945,0.00047514,0.00061146,0.00020862,0.00027830,-0.
 00125973,-0.00302634,0.00135333,-0.02536534,0.03269467,0.00063040,-0.0
 0010096,0.00019150,-0.00163858,0.00024743,-0.00029690,-0.00032570,-0.0
 0405131,-0.00424920,0.00079673,-0.00045260,-0.00082946,0.00204416,-0.0
 0318604,-0.00028843,0.01431297,-0.00091571,0.01115627,-0.11939334,0.00
 227604,-0.12208876,-0.02710491,0.00263890,-0.01046230,0.00006088,0.000
 14582,-0.00005815,0.00001178,-0.00013967,0.00001804,0.00001065,0.00004
 075,0.00000555,0.00001187,-0.00005686,0.00000029,-0.00002937,-0.000001
 59,0.00001528,-0.00008252,-0.00001757,0.00001842,0.00000999,0.00047193
 ,0.00000157,0.00080878,-0.00019199,0.00049236,-0.00001843,0.00152554,0
 .00035447,0.12933324,0.00022848,0.12533588,0.00231743,-0.00030135,0.00
 205639,-0.00364432,0.00072654,0.00270475,-0.01956176,0.01058901,0.0117
 2856,-0.00296935,0.00074802,-0.00413181,0.00010867,-0.00037556,-0.0008
 0359,0.00133293,0.00068109,-0.00181597,0.00746503,-0.00219138,-0.00294
 425,-0.23317285,0.08848066,0.10673169,-0.00011894,-0.00019780,-0.00038
 440,-0.00006898,0.00004543,-0.00000394,0.00005122,0.00003167,0.0000237
 6,0.00003596,-0.00001483,-0.00001312,0.00000242,-0.00007518,0.00004433
 ,-0.00004496,0.00008326,0.00004619,-0.00079289,0.00070159,0.00077169,-
 0.00003071,-0.00021139,0.00018308,0.00030965,-0.00015794,-0.00030397,0
 .00043320,-0.00089458,0.00058470,0.24823026,-0.00096709,-0.00142186,-0
 .00039807,0.00020467,-0.00183227,0.00027292,0.00272493,0.00279828,0.00
 149432,0.00147361,0.00486436,-0.00159518,-0.00040062,-0.00024231,0.000
 00614,0.00075001,0.00570636,-0.00343983,0.00739142,-0.00025932,-0.0034
 9487,0.08764191,-0.08103063,-0.05826658,-0.00010050,-0.00033325,-0.000
 79215,0.00001619,-0.00009314,0.00003271,0.00001940,0.00004660,0.000045
 40,0.00004517,-0.00003374,-0.00001654,0.00001503,-0.00007084,0.0001246
 6,-0.00015167,-0.00003096,0.00005647,-0.00004857,0.00047150,-0.0002753
 3,-0.00023990,-0.00092175,0.00034468,0.00039536,0.00004277,-0.00014783
 ,-0.00115557,-0.00321579,0.00153964,-0.09754341,0.07572818,0.00255968,
 -0.00054821,-0.00017154,-0.00409292,0.00100335,-0.00044966,-0.00871866
 ,0.00698847,0.01387259,-0.00354786,-0.00182717,-0.00178125,-0.00064125
 ,0.00008450,-0.00077249,-0.00236774,-0.00321341,-0.00368749,0.02330404
 ,-0.01047497,-0.00832210,0.10676290,-0.05861530,-0.12384454,0.00049980
 ,-0.00020380,-0.00022013,-0.00004519,0.00033527,-0.00005607,0.00007674
 ,-0.00002553,-0.00001577,0.00002342,0.00005764,-0.00000755,0.00002386,
 -0.00003857,-0.00001408,0.00003174,0.00006968,-0.00000139,-0.00108008,
 0.00033158,0.00055032,0.00019533,0.00031169,-0.00005629,0.00116177,-0.
 00047119,-0.00045208,0.00018472,0.00157465,0.00071380,-0.11433437,0.06
 481214,0.12462771,0.00035530,-0.00036925,0.00041827,0.00004149,0.00152
 863,-0.00114835,-0.00017337,-0.00018858,0.00017456,-0.00054974,0.00035
 603,-0.00005730,0.00024407,-0.00001609,-0.00011343,0.00002828,-0.00003
 577,0.00004689,0.00002794,0.00004773,0.00004210,-0.00000551,-0.0000626
 5,-0.00004473,-0.01434992,0.02591838,-0.00067693,-0.15666381,0.1324725
 0,0.00135951,0.01161348,-0.01134517,-0.00006793,-0.00035401,-0.0026059
 3,0.00101123,-0.00050456,-0.00097851,0.00007430,-0.00530810,-0.0025770
 8,0.00157358,0.00038722,-0.00045103,0.00001447,-0.00000800,0.00001810,
 -0.00000225,0.00002708,-0.00000687,0.00002932,0.00001666,0.00000669,0.
 00000374,0.00002752,-0.00001198,0.00001243,0.16431151,0.00063389,-0.00
 018546,-0.00022632,-0.00069264,0.00037212,-0.00015543,-0.00002276,-0.0
 0008221,0.00011447,0.00015644,-0.00047312,-0.00020594,-0.00005777,0.00
 002533,-0.00001366,0.00004091,0.00002389,0.00002535,-0.00004523,0.0000
 2731,0.00001443,-0.00003322,0.00003226,-0.00003945,-0.00159527,0.00707
 270,-0.00033729,0.13076598,-0.23844216,0.00477780,0.01963380,-0.018725
 62,-0.00065305,-0.00392134,-0.00339496,0.00139272,-0.00098149,0.000007
 68,0.00007260,-0.00086128,0.00079487,0.00069962,-0.00037619,-0.0002198
 6,-0.00035438,-0.00000534,0.00001937,0.00001953,-0.00000763,-0.0000065
 5,0.00000611,0.00000003,-0.00000830,0.00001400,-0.00001542,0.00000470,
 -0.00002730,-0.14314837,0.25279350,0.00005696,0.00026256,-0.00012354,-
 0.00117994,-0.00066231,-0.00174297,-0.00004551,-0.00018678,0.00043642,
 -0.00007329,0.00006994,-0.00029227,0.00009642,0.00004999,-0.00023393,0
 .00014081,-0.00007517,-0.00001456,-0.00003031,0.00011897,0.00012100,0.
 00000326,-0.00008436,-0.00029581,0.00228523,-0.00338349,0.00086523,0.0
 0139486,0.00504298,-0.03494238,-0.00281192,0.00293445,0.00289731,0.001
 14891,0.00119951,0.00698378,0.00013954,0.00007491,-0.00038162,0.001630
 04,0.00054196,0.00630353,-0.00005828,-0.00067403,0.00005183,-0.0000027
 3,-0.00000279,-0.00003955,0.00000757,-0.00002599,0.00002223,0.00000051
 ,-0.00001616,-0.00000644,0.00000157,-0.00001484,0.00003160,-0.00200889
 ,-0.00461625,0.02473953,-0.00037746,-0.00017738,0.00010160,0.00016530,
 0.00075003,-0.00003194,0.00000264,-0.00002065,0.00006513,-0.00007402,-
 0.00000064,-0.00008261,0.00001013,0.00001180,0.00000670,-0.00001197,-0
 .00000399,-0.00002974,0.00001127,0.00000183,-0.00000472,0.00004525,-0.
 00004040,-0.00004156,0.00100933,-0.00253350,0.00092232,-0.00827906,0.0
 0077915,0.00111889,-0.33245609,-0.02781363,0.03572763,-0.01400377,-0.0
 0462818,0.00219664,0.00005191,0.00365397,0.00047501,0.00060775,0.00029
 777,-0.00014393,-0.00000605,0.00000195,0.00002668,0.00000779,-0.000019
 06,-0.00002068,-0.00000188,-0.00000742,-0.00000999,-0.00000645,-0.0000
 0191,-0.00001482,0.00001552,0.00000503,0.00003203,0.00079267,-0.000228
 18,-0.00051823,0.35250366,-0.00075193,-0.00036236,0.00026059,-0.000648
 29,0.00075460,0.00002692,0.00011527,-0.00002992,0.00009250,-0.00009662
 ,0.00001629,-0.00012190,0.00002632,0.00000740,-0.00000123,-0.00000453,
 -0.00000981,-0.00003052,0.00001293,0.00000231,0.00000876,0.00003333,-0
 .00002086,-0.00004295,-0.00142284,-0.00498563,0.00107388,-0.03000526,0
 .00088383,0.00344647,-0.02794979,-0.06282333,0.00539279,0.02667794,0.0
 0747097,-0.00338638,0.00242863,-0.00421029,0.00054933,0.00022306,-0.00
 125179,0.00009315,-0.00000142,-0.00002557,0.00003061,0.00000383,-0.000
 01577,-0.00002373,0.00000078,-0.00000500,-0.00000475,-0.00000453,-0.00
 000404,-0.00001183,0.00001357,-0.00000123,0.00003749,0.00031050,0.0011
 5068,-0.00048946,0.03016855,0.06215111,-0.00000730,-0.00010132,-0.0002
 4409,0.00014325,0.00000269,0.00062015,-0.00004537,0.00005930,-0.000051
 30,0.00001044,-0.00003472,-0.00000578,0.00001062,0.00000505,0.00002917
 ,-0.00003655,0.00001828,-0.00000373,0.00000640,-0.00002210,-0.00004008
 ,0.00002089,0.00002545,0.00004245,0.00111236,0.00109666,0.00683986,0.0
 0338277,-0.00015396,0.00200621,0.03547970,0.00561865,-0.03997705,0.000
 01277,-0.00002834,0.00246613,0.00051716,0.00037988,0.00678904,-0.00014
 625,0.00032480,-0.00039685,-0.00000365,0.00001979,0.00000343,-0.000000
 86,-0.00001223,0.00000209,-0.00000206,-0.00000152,0.00000071,0.0000027
 6,0.00000003,0.00000055,-0.00000074,-0.00000358,0.00000104,-0.00048588
 ,-0.00042815,-0.00386990,-0.03930807,-0.00631815,0.03030468,0.00014565
 ,-0.00023835,-0.00000367,-0.00016363,-0.00003910,-0.00002403,0.0000147
 2,-0.00000034,0.00003585,-0.00004361,0.00001039,-0.00002470,0.00001308
 ,-0.00000049,-0.00000890,0.00000572,-0.00000427,-0.00000728,0.00000892
 ,0.00000618,0.00001280,-0.00000063,-0.00001235,-0.00002266,-0.00108524
 ,0.00093159,0.00000706,-0.00181891,0.00321578,0.00072911,0.01166652,0.
 01852484,-0.00238710,-0.10454646,-0.10093283,0.01566311,-0.00705358,-0
 .03031098,0.00335997,-0.00576968,0.00059817,0.00159057,0.00001165,-0.0
 0001603,0.00000409,0.00000248,-0.00000268,-0.00000606,0.00000188,-0.00
 000398,-0.00000331,-0.00000409,-0.00000218,-0.00000457,0.00001427,0.00
 000854,0.00001572,0.00045533,0.00103839,-0.00012709,0.00084114,-0.0005
 0939,-0.00050218,0.10657280,-0.00015624,-0.00010361,0.00002216,0.00003
 910,0.00015305,-0.00001285,0.00000094,-0.00000690,0.00002257,0.0000171
 6,-0.00002260,-0.00002476,-0.00002025,0.00000751,0.00000846,-0.0000011
 2,-0.00000111,-0.00001713,0.00000393,0.00000284,0.00000219,0.00001507,
 -0.00001923,-0.00002784,0.00087734,0.00047124,-0.00017752,0.00412728,-
 0.00225224,0.00021976,-0.01278866,-0.01850402,0.00303227,-0.10086928,-
 0.29192193,0.03102450,0.00089063,0.00100782,0.00001064,-0.00028121,0.0
 0156631,0.00041838,-0.00002425,0.00003058,0.00000461,0.00000649,-0.000
 00723,-0.00000736,-0.00000368,-0.00000519,-0.00001040,-0.00000838,-0.0
 0000246,-0.00000932,0.00000812,0.00000556,0.00001658,-0.00065605,-0.00
 101141,0.00018789,0.00018018,0.00093624,-0.00038468,0.10882331,0.30889
 439,0.00003695,-0.00002163,-0.00004607,-0.00031483,-0.00018006,-0.0008
 1002,-0.00008362,-0.00016082,0.00004035,0.00003481,-0.00001097,-0.0000
 1097,0.00000432,0.00002455,-0.00001981,0.00001215,-0.00000738,-0.00001
 018,-0.00000323,0.00003085,0.00000535,-0.00000343,-0.00000796,-0.00004
 822,0.00015426,0.00005451,-0.00027881,0.00068329,0.00036558,0.00680850
 ,-0.00019979,-0.00049238,0.00263089,0.01548686,0.03084478,-0.04054715,
 0.00147499,0.00396703,0.00226809,0.00158097,0.00005036,0.00684899,-0.0
 0000657,-0.00003176,0.00000054,0.00000040,-0.00000357,-0.00000142,-0.0
 0000168,-0.00000670,0.00000172,-0.00000284,-0.00000555,-0.00000152,-0.
 00000629,-0.00001597,0.00000479,-0.00001246,0.00003518,0.00021882,-0.0
 0053436,-0.00030541,-0.00373461,-0.01779371,-0.03399496,0.03029288,-0.
 00008777,0.00026842,0.00004058,0.00034907,-0.00087186,-0.00004108,0.00
 003870,0.00002884,0.00006249,-0.00000314,0.00001036,-0.00002704,0.0000
 0485,0.00000475,0.00000306,-0.00000345,-0.00000365,-0.00001036,0.00000
 529,-0.00000320,0.00000242,-0.00000118,0.00000230,-0.00000601,0.000090
 47,-0.00256538,0.00112648,-0.00058756,-0.00097006,0.00006791,-0.005061
 01,-0.00231144,0.00172598,-0.01327021,0.02734237,0.00006253,-0.1566792
 1,0.13297575,0.00598022,0.01118470,-0.01195388,-0.00021460,0.00000437,
 -0.00001291,0.00000194,-0.00000129,-0.00000247,-0.00000100,0.00000033,
 0.00000033,0.00000284,0.00000168,0.00000082,-0.00000028,0.00000016,-0.
 00000912,0.00000067,0.00011387,0.00014056,-0.00019171,-0.00078729,0.00
 143675,-0.00000891,0.00097927,-0.00035607,-0.00059195,0.16300572,-0.00
 051418,0.00041210,0.00007878,0.00130528,-0.00076460,-0.00011100,0.0000
 3144,0.00002586,0.00016194,-0.00007088,0.00000365,-0.00010068,-0.00000
 473,0.00001761,0.00000665,-0.00001031,-0.00001314,-0.00004741,0.000021
 62,0.00000822,0.00000043,0.00006525,-0.00004618,-0.00007239,-0.0031482
 7,-0.00391390,0.00118425,-0.00097870,-0.00004062,0.00005863,-0.0011363
 0,0.00121462,0.00060716,-0.00381309,0.00659014,0.00018886,0.13353746,-
 0.24206298,-0.00213963,0.01819193,-0.01918057,-0.00072829,-0.00000875,
 0.00000086,0.00001631,0.00000733,-0.00000948,-0.00001701,-0.00000213,-
 0.00000955,-0.00001079,-0.00001583,-0.00000883,-0.00002433,0.00001390,
 -0.00001431,0.00004265,0.00013384,0.00002530,-0.00011450,-0.00030988,0
 .00023991,0.00002269,0.00031714,0.00078176,-0.00038087,-0.14354302,0.2
 5562178,0.00009122,-0.00001346,0.00009984,-0.00034036,0.00011823,0.000
 19966,0.00008564,0.00003290,-0.00002577,0.00002386,0.00004696,0.000064
 53,-0.00003482,-0.00000829,-0.00006604,0.00006246,-0.00000921,0.000002
 00,-0.00001893,0.00001739,0.00004287,-0.00002366,-0.00002176,-0.000030
 62,0.00101791,0.00142260,0.00695722,0.00028210,0.00018071,-0.00038358,
 0.00160740,0.00075010,0.00681018,0.00228035,-0.00378708,0.00267953,0.0
 0614255,-0.00211665,-0.03725761,-0.00243161,0.00272960,0.00305221,-0.0
 0001736,-0.00000766,-0.00000332,-0.00000188,0.00000196,0.00000083,-0.0
 0000099,-0.00000488,0.00000115,-0.00000394,-0.00000474,0.00000132,-0.0
 0000342,0.00000244,0.00000389,-0.00016126,-0.00013122,-0.00128273,0.00
 017646,-0.00020341,0.00029855,-0.00064475,-0.00029363,-0.00375942,-0.0
 0733741,0.00174775,0.02649009,0.00032378,-0.00250294,-0.00017577,-0.00
 269044,-0.00131189,0.00056252,-0.00024774,-0.00003203,0.00007381,-0.00
 002711,0.00003107,0.00003806,-0.00000029,-0.00000875,-0.00001110,0.000
 00706,0.00000386,0.00001207,0.00000273,0.00002613,0.00000816,-0.000011
 25,-0.00003671,-0.00005427,-0.01557510,0.00203637,0.00234013,-0.000410
 28,0.00293630,0.00071962,0.00063447,0.00016145,-0.00015321,0.00132556,
 -0.00158127,0.00107912,-0.00555912,0.00032145,0.00102884,-0.33003677,-
 0.03444568,0.04441621,0.00002315,-0.00000861,-0.00000357,-0.00000013,-
 0.00000047,0.00000080,0.00000234,-0.00000166,0.00000084,0.00000308,0.0
 0000122,-0.00000736,0.00006052,-0.00006283,-0.00005675,-0.00052540,-0.
 00041788,0.00014222,-0.00006032,-0.00005685,-0.00015130,-0.00024757,0.
 00017563,0.00008575,0.00070363,-0.00006912,-0.00074956,0.35230521,-0.0
 0268520,0.00184296,-0.00015209,0.00486448,-0.00145726,-0.00147663,-0.0
 0062702,-0.00040155,0.00006217,0.00017638,0.00000327,0.00023171,-0.000
 07090,0.00005454,0.00003082,-0.00002891,0.00001731,0.00005056,-0.00004
 870,0.00002460,-0.00008204,0.00008180,0.00003642,0.00005052,0.02441734
 ,0.01003674,-0.00307476,0.00205508,-0.00519913,0.00040992,0.00006127,-
 0.00119391,0.00011673,-0.00107420,-0.00485567,0.00092460,-0.02816296,0
 .00176241,0.00379256,-0.03422026,-0.06352733,0.00643171,-0.00002326,0.
 00002253,-0.00002810,-0.00001100,0.00002624,0.00004341,-0.00000981,0.0
 0001297,0.00002464,0.00002080,0.00001081,0.00003125,-0.00014403,-0.000
 16692,-0.00022024,0.00166091,0.00019992,-0.00013702,-0.00006543,0.0001
 3225,-0.00008452,-0.00140139,0.00000062,0.00025312,0.00039181,0.001122
 37,-0.00044864,0.03484319,0.06149582,0.00058146,-0.00048738,-0.0014427
 0,-0.00104508,0.00102982,-0.00177856,-0.00007058,-0.00081108,-0.000023
 02,-0.00009321,-0.00000441,-0.00019434,0.00004654,0.00005915,0.0000278
 0,-0.00006493,-0.00000804,-0.00002970,0.00000577,0.00008999,-0.0001098
 4,0.00013322,-0.00002932,-0.00010249,0.00120835,-0.00025879,0.00264747
 ,0.00036700,0.00055282,0.00572316,-0.00012937,-0.00003333,-0.00034669,
 0.00077470,0.00102790,0.00688190,0.00287734,-0.00004747,0.00268032,0.0
 4529670,0.00642933,-0.04448389,0.00000224,-0.00002206,0.00001814,-0.00
 000361,-0.00000859,-0.00001078,-0.00000967,-0.00001233,0.00000931,-0.0
 0000634,-0.00001093,-0.00002414,-0.00013082,-0.00027074,0.00004670,0.0
 0001902,0.00001663,0.00055440,-0.00010842,-0.00007278,-0.00108068,0.00
 014174,-0.00000954,0.00014730,-0.00064677,-0.00036919,-0.00389478,-0.0
 4914526,-0.00674968,0.03478510\\-0.00001491,-0.00000076,0.00000967,-0.
 00000089,-0.00000804,0.00001244,-0.00000274,-0.00002827,-0.00004795,0.
 00000538,-0.00000330,-0.00000318,-0.00000035,-0.00000218,0.00001747,-0
 .00001293,0.00001048,0.00000567,0.00001164,-0.00000325,-0.00001536,-0.
 00000970,0.00000761,0.00001570,0.00002687,0.00004867,0.00000385,0.0000
 0702,0.00000086,-0.00000037,-0.00000485,-0.00001395,0.00000953,-0.0000
 1734,-0.00000114,-0.00000216,0.00001596,0.00000810,-0.00000769,-0.0000
 1661,-0.00001042,0.00000354,-0.00000287,0.00000075,-0.00000026,-0.0000
 0139,0.00000264,-0.00000491,0.00000139,-0.00000123,0.00000121,0.000000
 86,-0.00000303,0.00000069,0.00000828,-0.00000266,0.00000181,-0.0000026
 2,0.00000144,0.00000020,-0.00000087,0.00000413,-0.00000391,0.00000130,
 -0.00000141,0.00000112,0.00000194,-0.00000023,0.00000255,0.00000743,-0
 .00000483,0.00000035\\\@


 ADAM SMITH SAID, "THE REAL PRICE OF ANYTHING IS THE TOIL AND TROUBLE
 OF ACQUIRING IT."  BUT IN ALL UNDERTAKINGS WITH NATURE WE SHOULD FIRST
 READ CAREFULLY THE SMALL PRINT IN THE CONTRACT. THIS MIGHT DISCLOSE
 THAT THE REAL PRICE IS TO BE PAID BY THOSE WHO INHERIT THE DEPLETION
 AND DESPOILATION THAT FOLLOWS.
                               -- E. R. HARRISON IN "COSMOLOGY" (1980)
 Job cpu time:       0 days  0 hours 21 minutes 52.4 seconds.
 Elapsed time:       0 days  0 hours  0 minutes 55.3 seconds.
 File lengths (MBytes):  RWF=    167 Int=      0 D2E=      0 Chk=      6 Scr=      1
 Normal termination of Gaussian 16 at Mon Oct 14 01:51:29 2019.
real 118.67
user 2723.02
sys 15.94
Machine:
brown-a065
brown-a065
brown-a065
brown-a065
brown-a065
brown-a065
brown-a065
brown-a065
brown-a065
brown-a065
brown-a065
brown-a065
brown-a065
brown-a065
brown-a065
brown-a065
brown-a065
brown-a065
brown-a065
brown-a065
brown-a065
brown-a065
brown-a065
brown-a065
