Title Card Required                                                     
Freq      RB3LYP                                                      6-31G(d)            
Number of atoms                            I               25
Info1-9                                    I   N=           9
          60          60        1002           0           0         100
           6          18        -502
Full Title                                 C   N=           2
Title Card Required     
Route                                      C   N=           6
#p opt freq b3lyp/6-31g(d) geom=connectivity temperature=0.0
01          
Charge                                     I                1
Multiplicity                               I                1
Number of electrons                        I              106
Number of alpha electrons                  I               53
Number of beta electrons                   I               53
Number of basis functions                  I              236
Number of independent functions            I              236
Number of point charges in /Mol/           I                0
Number of translation vectors              I                0
Atomic numbers                             I   N=          25
           8          16           6           6           6           6
           6           6           6           6           6           6
           6           6           1           1           1           1
           1           1           1           1           1           1
           1
Nuclear charges                            R   N=          25
  8.00000000E+00  1.60000000E+01  6.00000000E+00  6.00000000E+00  6.00000000E+00
  6.00000000E+00  6.00000000E+00  6.00000000E+00  6.00000000E+00  6.00000000E+00
  6.00000000E+00  6.00000000E+00  6.00000000E+00  6.00000000E+00  1.00000000E+00
  1.00000000E+00  1.00000000E+00  1.00000000E+00  1.00000000E+00  1.00000000E+00
  1.00000000E+00  1.00000000E+00  1.00000000E+00  1.00000000E+00  1.00000000E+00
Current cartesian coordinates              R   N=          75
 -1.53594746E-01  3.86036455E+00  2.47134272E+00 -1.06251520E-01  2.53536359E+00
 -3.70706180E-01  2.71316925E+00  6.87245106E-01 -2.48597510E-01  3.86929156E+00
  1.94559914E-01 -2.57591069E+00  6.07609359E+00 -1.24618812E+00 -2.59586732E+00
  7.10268927E+00 -2.12633750E+00 -3.29004170E-01  5.93940600E+00 -1.57514933E+00
  1.97939753E+00  3.71935880E+00 -1.58853451E-01  2.04649847E+00 -2.70846360E+00
  4.36245755E-01 -1.82950547E-01 -4.90147232E+00  1.26039026E+00 -1.42635238E+00
 -7.05204841E+00 -2.54848726E-01 -1.32848449E+00 -6.98977201E+00 -2.54607332E+00
 -1.88922102E-02 -4.78202487E+00 -3.34882054E+00  1.19775224E+00 -2.61187280E+00
 -1.86620507E+00  1.12253754E+00  3.08214609E+00  9.15938029E-01 -4.32946705E+00
  7.00217966E+00 -1.65363230E+00 -4.37966454E+00  8.83251133E+00 -3.22883068E+00
 -3.56815471E-01  6.76559956E+00 -2.23924006E+00  3.73547998E+00  2.82859435E+00
  3.21181732E-01  3.82910137E+00 -4.92692560E+00  3.03941264E+00 -2.44989150E+00
 -8.76499700E+00  3.49058154E-01 -2.28032489E+00 -8.66761377E+00 -3.72515075E+00
  4.50842211E-02 -4.75102172E+00 -5.13827649E+00  2.19929641E+00 -8.89001521E-01
 -2.49464561E+00  2.03607341E+00  1.71184163E-01  5.66966156E+00  2.27092642E+00
Number of symbols in /Mol/                 I                0
Force Field                                I                0
Atom Types                                 C   N=          25
                                                            
                                                            
                                                            
                                                            
                                                            
Int Atom Types                             I   N=          25
           0           0           0           0           0           0
           0           0           0           0           0           0
           0           0           0           0           0           0
           0           0           0           0           0           0
           0
MM charges                                 R   N=          25
  0.00000000E+00  0.00000000E+00  0.00000000E+00  0.00000000E+00  0.00000000E+00
  0.00000000E+00  0.00000000E+00  0.00000000E+00  0.00000000E+00  0.00000000E+00
  0.00000000E+00  0.00000000E+00  0.00000000E+00  0.00000000E+00  0.00000000E+00
  0.00000000E+00  0.00000000E+00  0.00000000E+00  0.00000000E+00  0.00000000E+00
  0.00000000E+00  0.00000000E+00  0.00000000E+00  0.00000000E+00  0.00000000E+00
Integer atomic weights                     I   N=          25
          16          32          12          12          12          12
          12          12          12          12          12          12
          12          12           1           1           1           1
           1           1           1           1           1           1
           1
Real atomic weights                        R   N=          25
  1.59949146E+01  3.19720718E+01  1.20000000E+01  1.20000000E+01  1.20000000E+01
  1.20000000E+01  1.20000000E+01  1.20000000E+01  1.20000000E+01  1.20000000E+01
  1.20000000E+01  1.20000000E+01  1.20000000E+01  1.20000000E+01  1.00782504E+00
  1.00782504E+00  1.00782504E+00  1.00782504E+00  1.00782504E+00  1.00782504E+00
  1.00782504E+00  1.00782504E+00  1.00782504E+00  1.00782504E+00  1.00782504E+00
Atom fragment info                         I   N=          25
           0           0           0           0           0           0
           0           0           0           0           0           0
           0           0           0           0           0           0
           0           0           0           0           0           0
           0
Atom residue num                           I   N=          25
           0           0           0           0           0           0
           0           0           0           0           0           0
           0           0           0           0           0           0
           0           0           0           0           0           0
           0
Nuclear spins                              I   N=          25
           0           0           0           0           0           0
           0           0           0           0           0           0
           0           0           1           1           1           1
           1           1           1           1           1           1
           1
Nuclear ZEff                               R   N=          25
 -5.60000000E+00 -1.36000000E+01 -3.60000000E+00 -3.60000000E+00 -3.60000000E+00
 -3.60000000E+00 -3.60000000E+00 -3.60000000E+00 -3.60000000E+00 -3.60000000E+00
 -3.60000000E+00 -3.60000000E+00 -3.60000000E+00 -3.60000000E+00 -1.00000000E+00
 -1.00000000E+00 -1.00000000E+00 -1.00000000E+00 -1.00000000E+00 -1.00000000E+00
 -1.00000000E+00 -1.00000000E+00 -1.00000000E+00 -1.00000000E+00 -1.00000000E+00
Nuclear ZNuc                               R   N=          25
  8.00000000E+00  1.60000000E+01  6.00000000E+00  6.00000000E+00  6.00000000E+00
  6.00000000E+00  6.00000000E+00  6.00000000E+00  6.00000000E+00  6.00000000E+00
  6.00000000E+00  6.00000000E+00  6.00000000E+00  6.00000000E+00  1.00000000E+00
  1.00000000E+00  1.00000000E+00  1.00000000E+00  1.00000000E+00  1.00000000E+00
  1.00000000E+00  1.00000000E+00  1.00000000E+00  1.00000000E+00  1.00000000E+00
Nuclear QMom                               R   N=          25
  0.00000000E+00  0.00000000E+00  0.00000000E+00  0.00000000E+00  0.00000000E+00
  0.00000000E+00  0.00000000E+00  0.00000000E+00  0.00000000E+00  0.00000000E+00
  0.00000000E+00  0.00000000E+00  0.00000000E+00  0.00000000E+00  0.00000000E+00
  0.00000000E+00  0.00000000E+00  0.00000000E+00  0.00000000E+00  0.00000000E+00
  0.00000000E+00  0.00000000E+00  0.00000000E+00  0.00000000E+00  0.00000000E+00
Nuclear GFac                               R   N=          25
  0.00000000E+00  0.00000000E+00  0.00000000E+00  0.00000000E+00  0.00000000E+00
  0.00000000E+00  0.00000000E+00  0.00000000E+00  0.00000000E+00  0.00000000E+00
  0.00000000E+00  0.00000000E+00  0.00000000E+00  0.00000000E+00  2.79284600E+00
  2.79284600E+00  2.79284600E+00  2.79284600E+00  2.79284600E+00  2.79284600E+00
  2.79284600E+00  2.79284600E+00  2.79284600E+00  2.79284600E+00  2.79284600E+00
MicOpt                                     I   N=          25
          -1          -1          -1          -1          -1          -1
          -1          -1          -1          -1          -1          -1
          -1          -1          -1          -1          -1          -1
          -1          -1          -1          -1          -1          -1
          -1
Number of residues                         I                0
Number of secondary structures             I                0
Redundant internal dimensions              I   N=           4
         124          26          40          58
Redundant internal coordinate indices      I   N=         496
           1           2           0           0           1          25
           0           0           2           3           0           0
           2           9           0           0           3           4
           0           0           3           8           0           0
           4           5           0           0           4          15
           0           0           5           6           0           0
           5          16           0           0           6           7
           0           0           6          17           0           0
           7           8           0           0           7          18
           0           0           8          19           0           0
           9          10           0           0           9          14
           0           0          10          11           0           0
          10          20           0           0          11          12
           0           0          11          21           0           0
          12          13           0           0          12          22
           0           0          13          14           0           0
          13          23           0           0          14          24
           0           0           2           1          25           0
           1           2           3           0           1           2
           9           0           3           2           9           0
           2           3           4           0           2           3
           8           0           4           3           8           0
           3           4           5           0           3           4
          15           0           5           4          15           0
           4           5           6           0           4           5
          16           0           6           5          16           0
           5           6           7           0           5           6
          17           0           7           6          17           0
           6           7           8           0           6           7
          18           0           8           7          18           0
           3           8           7           0           3           8
          19           0           7           8          19           0
           2           9          10           0           2           9
          14           0          10           9          14           0
           9          10          11           0           9          10
          20           0          11          10          20           0
          10          11          12           0          10          11
          21           0          12          11          21           0
          11          12          13           0          11          12
          22           0          13          12          22           0
          12          13          14           0          12          13
          23           0          14          13          23           0
           9          14          13           0           9          14
          24           0          13          14          24           0
          25           1           2           3          25           1
           2           9           1           2           3           4
           1           2           3           8           9           2
           3           4           9           2           3           8
           1           2           9          10           1           2
           9          14           3           2           9          10
           3           2           9          14           2           3
           4           5           2           3           4          15
           8           3           4           5           8           3
           4          15           2           3           8           7
           2           3           8          19           4           3
           8           7           4           3           8          19
           3           4           5           6           3           4
           5          16          15           4           5           6
          15           4           5          16           4           5
           6           7           4           5           6          17
          16           5           6           7          16           5
           6          17           5           6           7           8
           5           6           7          18          17           6
           7           8          17           6           7          18
           6           7           8           3           6           7
           8          19          18           7           8           3
          18           7           8          19           2           9
          10          11           2           9          10          20
          14           9          10          11          14           9
          10          20           2           9          14          13
           2           9          14          24          10           9
          14          13          10           9          14          24
           9          10          11          12           9          10
          11          21          20          10          11          12
          20          10          11          21          10          11
          12          13          10          11          12          22
          21          11          12          13          21          11
          12          22          11          12          13          14
          11          12          13          23          22          12
          13          14          22          12          13          23
          12          13          14           9          12          13
          14          24          23          13          14           9
          23          13          14          24
Redundant internal coordinates             R   N=         124
  3.13609804E+00  1.84910889E+00  3.37336419E+00  3.34859009E+00  2.64494690E+00
  2.64495099E+00  2.63555086E+00  2.05303295E+00  2.63955113E+00  2.05075077E+00
  2.64305784E+00  2.05147484E+00  2.63419933E+00  2.05120401E+00  2.04977271E+00
  2.65227252E+00  2.64856730E+00  2.63258520E+00  2.05260830E+00  2.63981447E+00
  2.05058443E+00  2.64551965E+00  2.05169918E+00  2.62932803E+00  2.05090334E+00
  2.04884620E+00  1.88865051E+00  1.78368326E+00  1.77450910E+00  1.87972184E+00
  2.02142221E+00  2.12305879E+00  2.13844402E+00  2.06518008E+00  2.11591074E+00
  2.10208772E+00  2.09605448E+00  2.08669598E+00  2.10032821E+00  2.10522694E+00
  2.08921162E+00  2.08866967E+00  2.10052827E+00  2.09778112E+00  2.08486069E+00
  2.06065092E+00  2.11109670E+00  2.11099994E+00  2.00586318E+00  2.14628362E+00
  2.13099585E+00  2.07051209E+00  2.10986831E+00  2.10280145E+00  2.09293712E+00
  2.08936278E+00  2.10087154E+00  2.10737929E+00  2.08859976E+00  2.08717856E+00
  2.09963253E+00  2.09665216E+00  2.08689006E+00  2.06483814E+00  2.11424066E+00
  2.10404655E+00  1.93088781E+00 -2.41078875E+00 -2.68749450E+00  4.30166706E-01
  1.73458253E+00 -1.43094158E+00  1.79311546E+00 -1.33873064E+00 -2.62254598E+00
  5.28793229E-01 -3.13904441E+00  6.48290356E-03  2.67116715E-02 -3.11094632E+00
 -3.13245687E+00 -2.23629298E-02 -1.64140172E-02  3.09367993E+00 -1.73621121E-02
  3.13986963E+00  3.12032821E+00 -5.62535104E-03 -1.33649819E-03 -3.12954286E+00
  3.12449373E+00 -3.71262629E-03  1.19140361E-02 -3.12371720E+00  3.14012453E+00
  4.49329446E-03 -3.19059822E-03 -3.11328637E+00  3.13248463E+00  2.23888600E-02
 -3.11933732E+00  2.50687591E-02  1.26033784E-02 -3.12617585E+00  3.11771638E+00
 -3.55822477E-02 -1.34429182E-02  3.11644376E+00 -4.14180332E-03 -3.14009654E+00
  3.13464920E+00 -1.30553980E-03 -3.05497665E-03 -3.13661486E+00  3.13286211E+00
 -6.97767296E-04  2.16179986E-03 -3.13447085E+00  3.13572817E+00 -9.04480582E-04
  5.88794845E-03 -3.12406978E+00 -3.14063700E+00  1.25905821E-02
ZRed-IntVec                                I   N=         124
           0           0           0           0           0           0
           0           0           0           0           0           0
           0           0           0           0           0           0
           0           0           0           0           0           0
           0           0           0           0           0           0
           0           0           0           0           0           0
           0           0           0           0           0           0
           0           0           0           0           0           0
           0           0           0           0           0           0
           0           0           0           0           0           0
           0           0           0           0           0           0
           0           0           0           0           0           0
           0           0           0           0           0           0
           0           0           0           0           0           0
           0           0           0           0           0           0
           0           0           0           0           0           0
           0           0           0           0           0           0
           0           0           0           0           0           0
           0           0           0           0           0           0
           0           0           0           0           0           0
           0           0           0           0
ZRed-FPVec                                 R   N=         124
  0.00000000E+00  0.00000000E+00  0.00000000E+00  0.00000000E+00  0.00000000E+00
  0.00000000E+00  0.00000000E+00  0.00000000E+00  0.00000000E+00  0.00000000E+00
  0.00000000E+00  0.00000000E+00  0.00000000E+00  0.00000000E+00  0.00000000E+00
  0.00000000E+00  0.00000000E+00  0.00000000E+00  0.00000000E+00  0.00000000E+00
  0.00000000E+00  0.00000000E+00  0.00000000E+00  0.00000000E+00  0.00000000E+00
  0.00000000E+00  0.00000000E+00  0.00000000E+00  0.00000000E+00  0.00000000E+00
  0.00000000E+00  0.00000000E+00  0.00000000E+00  0.00000000E+00  0.00000000E+00
  0.00000000E+00  0.00000000E+00  0.00000000E+00  0.00000000E+00  0.00000000E+00
  0.00000000E+00  0.00000000E+00  0.00000000E+00  0.00000000E+00  0.00000000E+00
  0.00000000E+00  0.00000000E+00  0.00000000E+00  0.00000000E+00  0.00000000E+00
  0.00000000E+00  0.00000000E+00  0.00000000E+00  0.00000000E+00  0.00000000E+00
  0.00000000E+00  0.00000000E+00  0.00000000E+00  0.00000000E+00  0.00000000E+00
  0.00000000E+00  0.00000000E+00  0.00000000E+00  0.00000000E+00  0.00000000E+00
  0.00000000E+00  0.00000000E+00  0.00000000E+00  0.00000000E+00  0.00000000E+00
  0.00000000E+00  0.00000000E+00  0.00000000E+00  0.00000000E+00  0.00000000E+00
  0.00000000E+00  0.00000000E+00  0.00000000E+00  0.00000000E+00  0.00000000E+00
  0.00000000E+00  0.00000000E+00  0.00000000E+00  0.00000000E+00  0.00000000E+00
  0.00000000E+00  0.00000000E+00  0.00000000E+00  0.00000000E+00  0.00000000E+00
  0.00000000E+00  0.00000000E+00  0.00000000E+00  0.00000000E+00  0.00000000E+00
  0.00000000E+00  0.00000000E+00  0.00000000E+00  0.00000000E+00  0.00000000E+00
  0.00000000E+00  0.00000000E+00  0.00000000E+00  0.00000000E+00  0.00000000E+00
  0.00000000E+00  0.00000000E+00  0.00000000E+00  0.00000000E+00  0.00000000E+00
  0.00000000E+00  0.00000000E+00  0.00000000E+00  0.00000000E+00  0.00000000E+00
  0.00000000E+00  0.00000000E+00  0.00000000E+00  0.00000000E+00  0.00000000E+00
  0.00000000E+00  0.00000000E+00  0.00000000E+00  0.00000000E+00
ZRed-Constraint1                           R   N=         124
  3.13609804E+00  1.84910889E+00  3.37336419E+00  3.34859009E+00  2.64494690E+00
  2.64495099E+00  2.63555086E+00  2.05303295E+00  2.63955113E+00  2.05075077E+00
  2.64305784E+00  2.05147484E+00  2.63419933E+00  2.05120401E+00  2.04977271E+00
  2.65227252E+00  2.64856730E+00  2.63258520E+00  2.05260830E+00  2.63981447E+00
  2.05058443E+00  2.64551965E+00  2.05169918E+00  2.62932803E+00  2.05090334E+00
  2.04884620E+00  1.88865051E+00  1.78368326E+00  1.77450910E+00  1.87972184E+00
  2.02142221E+00  2.12305879E+00  2.13844402E+00  2.06518008E+00  2.11591074E+00
  2.10208772E+00  2.09605448E+00  2.08669598E+00  2.10032821E+00  2.10522694E+00
  2.08921162E+00  2.08866967E+00  2.10052827E+00  2.09778112E+00  2.08486069E+00
  2.06065092E+00  2.11109670E+00  2.11099994E+00  2.00586318E+00  2.14628362E+00
  2.13099585E+00  2.07051209E+00  2.10986831E+00  2.10280145E+00  2.09293712E+00
  2.08936278E+00  2.10087154E+00  2.10737929E+00  2.08859976E+00  2.08717856E+00
  2.09963253E+00  2.09665216E+00  2.08689006E+00  2.06483814E+00  2.11424066E+00
  2.10404655E+00  1.93088781E+00 -2.41078875E+00 -2.68749450E+00  4.30166706E-01
  1.73458253E+00 -1.43094158E+00  1.79311546E+00 -1.33873064E+00 -2.62254598E+00
  5.28793229E-01 -3.13904441E+00  6.48290356E-03  2.67116715E-02 -3.11094632E+00
 -3.13245687E+00 -2.23629298E-02 -1.64140172E-02  3.09367993E+00 -1.73621121E-02
  3.13986963E+00  3.12032821E+00 -5.62535104E-03 -1.33649819E-03 -3.12954286E+00
  3.12449373E+00 -3.71262629E-03  1.19140361E-02 -3.12371720E+00  3.14012453E+00
  4.49329446E-03 -3.19059822E-03 -3.11328637E+00  3.13248463E+00  2.23888600E-02
 -3.11933732E+00  2.50687591E-02  1.26033784E-02 -3.12617585E+00  3.11771638E+00
 -3.55822477E-02 -1.34429182E-02  3.11644376E+00 -4.14180332E-03 -3.14009654E+00
  3.13464920E+00 -1.30553980E-03 -3.05497665E-03 -3.13661486E+00  3.13286211E+00
 -6.97767296E-04  2.16179986E-03 -3.13447085E+00  3.13572817E+00 -9.04480582E-04
  5.88794845E-03 -3.12406978E+00 -3.14063700E+00  1.25905821E-02
ZRed-Constraint2                           R   N=         124
  2.84468489E+00  1.81413707E+00  3.42891677E+00  3.42891950E+00  2.62528841E+00
  2.61936525E+00  2.62710137E+00  2.04997907E+00  2.63166616E+00  2.04718895E+00
  2.62950101E+00  2.04734061E+00  2.63009525E+00  2.04745385E+00  2.04942903E+00
  2.62528803E+00  2.61936486E+00  2.62709948E+00  2.04997905E+00  2.63166680E+00
  2.04718941E+00  2.62949800E+00  2.04734332E+00  2.63009583E+00  2.04745560E+00
  2.04942933E+00  2.09439510E+00  1.84692664E+00  1.84692485E+00  1.68430217E+00
  2.09708562E+00  2.05782778E+00  2.12771427E+00  2.07523368E+00  2.10574224E+00
  2.10217519E+00  2.09418425E+00  2.09188934E+00  2.09705378E+00  2.09903386E+00
  2.09112193E+00  2.09297887E+00  2.09856700E+00  2.09515319E+00  2.08945078E+00
  2.07132178E+00  2.07716361E+00  2.13461856E+00  2.09708619E+00  2.05782699E+00
  2.12771450E+00  2.07523346E+00  2.10574288E+00  2.10217479E+00  2.09418422E+00
  2.09188960E+00  2.09705355E+00  2.09903443E+00  2.09112178E+00  2.09297846E+00
  2.09856682E+00  2.09515501E+00  2.08944913E+00  2.07132143E+00  2.07716310E+00
  2.13461943E+00 -2.45822809E+00 -6.83363774E-01 -2.95771985E+00  1.48675094E-01
  1.43157125E+00 -1.74521912E+00  2.95773414E+00 -1.48661036E-01 -1.43155544E+00
  1.74523470E+00  3.13294287E+00  1.97576712E-04  2.79930516E-02 -3.10475224E+00
 -3.13009041E+00 -1.88612608E-03 -2.43504004E-02  3.10385388E+00 -1.32760513E-02
  3.13986501E+00  3.11948784E+00 -1.05563988E-02 -4.23760874E-03 -3.13500733E+00
  3.12577214E+00 -4.99758287E-03  7.90357445E-03 -3.12791835E+00  3.13866175E+00
  2.83983181E-03  6.08794134E-03 -3.12165230E+00 -3.14125657E+00  1.41884995E-02
 -3.13294274E+00 -1.95235513E-04 -2.79927007E-02  3.10475480E+00  3.13009002E+00
  1.88564516E-03  2.43497703E-02 -3.10385461E+00  1.32767375E-02 -3.13986482E+00
 -3.11948937E+00  1.05543718E-02  4.23617258E-03  3.13500705E+00 -3.12577308E+00
  4.99779245E-03 -7.90241898E-03  3.12791814E+00 -3.13866175E+00 -2.84119067E-03
 -6.08806769E-03  3.12165226E+00  3.14125779E+00 -1.41871910E-02
SymInf integers                            I   N=          26
           1           1           1           1           1           0
           0           0           0           0           0           0
           0           0           0           0           0           0
           0           0           0           0           0           0
           0           0
RotTr to input orientation                 R   N=          12
 -9.97194520E-01  4.19910763E-02 -6.19664393E-02 -2.39203893E-02  6.05663074E-01
  7.95361588E-01  7.09288732E-02  7.94612478E-01 -6.02959456E-01  8.26685987E-02
 -1.53421829E-01  2.65544245E-02
Number of contracted shells                I               79
Number of primitive shells                 I              204
Pure/Cartesian d shells                    I                1
Pure/Cartesian f shells                    I                0
Highest angular momentum                   I                2
Largest degree of contraction              I                6
Shell types                                I   N=          79
           0          -1          -1           2           0          -1
          -1          -1           2           0          -1          -1
           2           0          -1          -1           2           0
          -1          -1           2           0          -1          -1
           2           0          -1          -1           2           0
          -1          -1           2           0          -1          -1
           2           0          -1          -1           2           0
          -1          -1           2           0          -1          -1
           2           0          -1          -1           2           0
          -1          -1           2           0           0           0
           0           0           0           0           0           0
           0           0           0           0           0           0
           0           0           0           0           0           0
           0
Number of primitives per shell             I   N=          79
           6           3           1           1           6           6
           3           1           1           6           3           1
           1           6           3           1           1           6
           3           1           1           6           3           1
           1           6           3           1           1           6
           3           1           1           6           3           1
           1           6           3           1           1           6
           3           1           1           6           3           1
           1           6           3           1           1           6
           3           1           1           3           1           3
           1           3           1           3           1           3
           1           3           1           3           1           3
           1           3           1           3           1           3
           1
Shell to atom map                          I   N=          79
           1           1           1           1           2           2
           2           2           2           3           3           3
           3           4           4           4           4           5
           5           5           5           6           6           6
           6           7           7           7           7           8
           8           8           8           9           9           9
           9          10          10          10          10          11
          11          11          11          12          12          12
          12          13          13          13          13          14
          14          14          14          15          15          16
          16          17          17          18          18          19
          19          20          20          21          21          22
          22          23          23          24          24          25
          25
Primitive exponents                        R   N=         204
  5.48467166E+03  8.25234946E+02  1.88046958E+02  5.29645000E+01  1.68975704E+01
  5.79963534E+00  1.55396162E+01  3.59993359E+00  1.01376175E+00  2.70005823E-01
  8.00000000E-01  2.19171000E+04  3.30149000E+03  7.54146000E+02  2.12711000E+02
  6.79896000E+01  2.30515000E+01  4.23735000E+02  1.00710000E+02  3.21599000E+01
  1.18079000E+01  4.63110000E+00  1.87025000E+00  2.61584000E+00  9.22167000E-01
  3.41287000E-01  1.17167000E-01  6.50000000E-01  3.04752488E+03  4.57369518E+02
  1.03948685E+02  2.92101553E+01  9.28666296E+00  3.16392696E+00  7.86827235E+00
  1.88128854E+00  5.44249258E-01  1.68714478E-01  8.00000000E-01  3.04752488E+03
  4.57369518E+02  1.03948685E+02  2.92101553E+01  9.28666296E+00  3.16392696E+00
  7.86827235E+00  1.88128854E+00  5.44249258E-01  1.68714478E-01  8.00000000E-01