 Entering Gaussian System, Link 0=/apps/cent7/gaussian/g16-A.03/g16-haswell/g16/g16
 Initial command:
 /apps/cent7/gaussian/g16-A.03/g16-haswell/g16/l1.exe "/scratch/brown/finej/gaussian/Gau-54281.inp" -scrdir="/scratch/brown/finej/gaussian/"
 Entering Link 1 = /apps/cent7/gaussian/g16-A.03/g16-haswell/g16/l1.exe PID=     54282.
  
 Copyright (c) 1988,1990,1992,1993,1995,1998,2003,2009,2016,
            Gaussian, Inc.  All Rights Reserved.
  
 This is part of the Gaussian(R) 16 program.  It is based on
 the Gaussian(R) 09 system (copyright 2009, Gaussian, Inc.),
 the Gaussian(R) 03 system (copyright 2003, Gaussian, Inc.),
 the Gaussian(R) 98 system (copyright 1998, Gaussian, Inc.),
 the Gaussian(R) 94 system (copyright 1995, Gaussian, Inc.),
 the Gaussian 92(TM) system (copyright 1992, Gaussian, Inc.),
 the Gaussian 90(TM) system (copyright 1990, Gaussian, Inc.),
 the Gaussian 88(TM) system (copyright 1988, Gaussian, Inc.),
 the Gaussian 86(TM) system (copyright 1986, Carnegie Mellon
 University), and the Gaussian 82(TM) system (copyright 1983,
 Carnegie Mellon University). Gaussian is a federally registered
 trademark of Gaussian, Inc.
  
 This software contains proprietary and confidential information,
 including trade secrets, belonging to Gaussian, Inc.
  
 This software is provided under written license and may be
 used, copied, transmitted, or stored only in accord with that
 written license.
  
 The following legend is applicable only to US Government
 contracts under FAR:
  
                    RESTRICTED RIGHTS LEGEND
  
 Use, reproduction and disclosure by the US Government is
 subject to restrictions as set forth in subparagraphs (a)
 and (c) of the Commercial Computer Software - Restricted
 Rights clause in FAR 52.227-19.
  
 Gaussian, Inc.
 340 Quinnipiac St., Bldg. 40, Wallingford CT 06492
  
  
 ---------------------------------------------------------------
 Warning -- This program may not be used in any manner that
 competes with the business of Gaussian, Inc. or will provide
 assistance to any competitor of Gaussian, Inc.  The licensee
 of this program is prohibited from giving any competitor of
 Gaussian, Inc. access to this program.  By using this program,
 the user acknowledges that Gaussian, Inc. is engaged in the
 business of creating and licensing software in the field of
 computational chemistry and represents and warrants to the
 licensee that it is not a competitor of Gaussian, Inc. and that
 it will not use this program in any manner prohibited above.
 ---------------------------------------------------------------
  

 Cite this work as:
 Gaussian 16, Revision A.03,
 M. J. Frisch, G. W. Trucks, H. B. Schlegel, G. E. Scuseria, 
 M. A. Robb, J. R. Cheeseman, G. Scalmani, V. Barone, 
 G. A. Petersson, H. Nakatsuji, X. Li, M. Caricato, A. V. Marenich, 
 J. Bloino, B. G. Janesko, R. Gomperts, B. Mennucci, H. P. Hratchian, 
 J. V. Ortiz, A. F. Izmaylov, J. L. Sonnenberg, D. Williams-Young, 
 F. Ding, F. Lipparini, F. Egidi, J. Goings, B. Peng, A. Petrone, 
 T. Henderson, D. Ranasinghe, V. G. Zakrzewski, J. Gao, N. Rega, 
 G. Zheng, W. Liang, M. Hada, M. Ehara, K. Toyota, R. Fukuda, 
 J. Hasegawa, M. Ishida, T. Nakajima, Y. Honda, O. Kitao, H. Nakai, 
 T. Vreven, K. Throssell, J. A. Montgomery, Jr., J. E. Peralta, 
 F. Ogliaro, M. J. Bearpark, J. J. Heyd, E. N. Brothers, K. N. Kudin, 
 V. N. Staroverov, T. A. Keith, R. Kobayashi, J. Normand, 
 K. Raghavachari, A. P. Rendell, J. C. Burant, S. S. Iyengar, 
 J. Tomasi, M. Cossi, J. M. Millam, M. Klene, C. Adamo, R. Cammi, 
 J. W. Ochterski, R. L. Martin, K. Morokuma, O. Farkas, 
 J. B. Foresman, and D. J. Fox, Gaussian, Inc., Wallingford CT, 2016.
 
 ******************************************
 Gaussian 16:  ES64L-G16RevA.03 25-Dec-2016
                14-Oct-2019 
 ******************************************
 %chk=32_p.chk
 %nprocshared=24
 Will use up to   24 processors via shared memory.
 %mem=80GB
 --------------------------------------------------------------
 #p opt freq b3lyp/6-31g(d) geom=connectivity temperature=0.001
 --------------------------------------------------------------
 1/18=20,19=15,26=3,38=1,57=2,112=-1000/1,3;
 2/9=110,12=2,17=6,18=5,40=1/2;
 3/5=1,6=6,7=1,11=2,25=1,30=1,71=1,74=-5/1,2,3;
 4//1;
 5/5=2,38=5/2;
 6/7=2,8=2,9=2,10=2,28=1/1;
 7//1,2,3,16;
 1/18=20,19=15,26=3/3(2);
 2/9=110/2;
 99//99;
 2/9=110/2;
 3/5=1,6=6,7=1,11=2,25=1,30=1,71=1,74=-5/1,2,3;
 4/5=5,16=3,69=1/1;
 5/5=2,38=5/2;
 7//1,2,3,16;
 1/18=20,19=15,26=3/3(-5);
 2/9=110/2;
 6/7=2,8=2,9=2,10=2,19=2,28=1/1;
 99/9=1/99;
 Leave Link    1 at Mon Oct 14 01:51:26 2019, MaxMem= 10737418240 cpu:               0.8 elap:               0.0
 (Enter /apps/cent7/gaussian/g16-A.03/g16-haswell/g16/l101.exe)
 -------------------
 Title Card Required
 -------------------
 Symbolic Z-matrix:
 Charge =  1 Multiplicity = 1
 O                     0.        2.54302   0.2257 
 S                     0.        1.25741   1.00881 
 C                    -1.35376   0.2615    0.32477 
 C                    -1.76342  -0.89757   0.97187 
 C                    -2.81008  -1.63521   0.43053 
 C                    -3.43967  -1.19989  -0.73287 
 C                    -3.02891  -0.02499  -1.35504 
 C                    -1.97929   0.71917  -0.82438 
 C                     1.35376   0.26149   0.32477 
 C                     1.7634   -0.89759   0.97186 
 C                     2.81007  -1.63522   0.43053 
 C                     3.43967  -1.1999   -0.73287 
 C                     3.02892  -0.02499  -1.35502 
 C                     1.9793    0.71918  -0.82437 
 H                    -1.28124  -1.21882   1.88898 
 H                    -3.14101  -2.5424    0.92153 
 H                    -4.25908  -1.7737   -1.14889 
 H                    -3.52961   0.31701  -2.25294 
 H                    -1.64381   1.64863  -1.27127 
 H                     1.28121  -1.21884   1.88897 
 H                     3.14098  -2.54243   0.92151 
 H                     4.25908  -1.77371  -1.14889 
 H                     3.52963   0.31702  -2.25292 
 H                     1.64383   1.64865  -1.27125 
 H                     0.83139   2.95296  -0.024 
 
 ITRead=  0  0  0  0  0  0  0  0  0  0  0  0  0  0  0  0  0  0  0  0
 ITRead=  0  0  0  0  0
 MicOpt= -1 -1 -1 -1 -1 -1 -1 -1 -1 -1 -1 -1 -1 -1 -1 -1 -1 -1 -1 -1
 MicOpt= -1 -1 -1 -1 -1
 NAtoms=     25 NQM=       25 NQMF=       0 NMMI=      0 NMMIF=      0
                NMic=       0 NMicF=      0.
                    Isotopes and Nuclear Properties:
 (Nuclear quadrupole moments (NQMom) in fm**2, nuclear magnetic moments (NMagM)
  in nuclear magnetons)

  Atom         1           2           3           4           5           6           7           8           9          10
 IAtWgt=          16          32          12          12          12          12          12          12          12          12
 AtmWgt=  15.9949146  31.9720718  12.0000000  12.0000000  12.0000000  12.0000000  12.0000000  12.0000000  12.0000000  12.0000000
 NucSpn=           0           0           0           0           0           0           0           0           0           0
 AtZEff=  -0.0000000  -0.0000000  -0.0000000  -0.0000000  -0.0000000  -0.0000000  -0.0000000  -0.0000000  -0.0000000  -0.0000000
 NQMom=    0.0000000   0.0000000   0.0000000   0.0000000   0.0000000   0.0000000   0.0000000   0.0000000   0.0000000   0.0000000
 NMagM=    0.0000000   0.0000000   0.0000000   0.0000000   0.0000000   0.0000000   0.0000000   0.0000000   0.0000000   0.0000000
 AtZNuc=   8.0000000  16.0000000   6.0000000   6.0000000   6.0000000   6.0000000   6.0000000   6.0000000   6.0000000   6.0000000

  Atom        11          12          13          14          15          16          17          18          19          20
 IAtWgt=          12          12          12          12           1           1           1           1           1           1
 AtmWgt=  12.0000000  12.0000000  12.0000000  12.0000000   1.0078250   1.0078250   1.0078250   1.0078250   1.0078250   1.0078250
 NucSpn=           0           0           0           0           1           1           1           1           1           1
 AtZEff=  -0.0000000  -0.0000000  -0.0000000  -0.0000000  -0.0000000  -0.0000000  -0.0000000  -0.0000000  -0.0000000  -0.0000000
 NQMom=    0.0000000   0.0000000   0.0000000   0.0000000   0.0000000   0.0000000   0.0000000   0.0000000   0.0000000   0.0000000
 NMagM=    0.0000000   0.0000000   0.0000000   0.0000000   2.7928460   2.7928460   2.7928460   2.7928460   2.7928460   2.7928460
 AtZNuc=   6.0000000   6.0000000   6.0000000   6.0000000   1.0000000   1.0000000   1.0000000   1.0000000   1.0000000   1.0000000

  Atom        21          22          23          24          25
 IAtWgt=           1           1           1           1           1
 AtmWgt=   1.0078250   1.0078250   1.0078250   1.0078250   1.0078250
 NucSpn=           1           1           1           1           1
 AtZEff=  -0.0000000  -0.0000000  -0.0000000  -0.0000000  -0.0000000
 NQMom=    0.0000000   0.0000000   0.0000000   0.0000000   0.0000000
 NMagM=    2.7928460   2.7928460   2.7928460   2.7928460   2.7928460
 AtZNuc=   1.0000000   1.0000000   1.0000000   1.0000000   1.0000000
 Leave Link  101 at Mon Oct 14 01:51:26 2019, MaxMem= 10737418240 cpu:               8.4 elap:               0.4
 (Enter /apps/cent7/gaussian/g16-A.03/g16-haswell/g16/l103.exe)

 GradGradGradGradGradGradGradGradGradGradGradGradGradGradGradGradGradGrad
 Berny optimization.
 Initialization pass.
                           ----------------------------
                           !    Initial Parameters    !
                           ! (Angstroms and Degrees)  !
 --------------------------                            --------------------------
 ! Name  Definition              Value          Derivative Info.                !
 --------------------------------------------------------------------------------
 ! R1    R(1,2)                  1.5053         estimate D2E/DX2                !
 ! R2    R(1,25)                 0.96           estimate D2E/DX2                !
 ! R3    R(2,3)                  1.8145         estimate D2E/DX2                !
 ! R4    R(2,9)                  1.8145         estimate D2E/DX2                !
 ! R5    R(3,4)                  1.3892         estimate D2E/DX2                !
 ! R6    R(3,8)                  1.3861         estimate D2E/DX2                !
 ! R7    R(4,5)                  1.3902         estimate D2E/DX2                !
 ! R8    R(4,15)                 1.0848         estimate D2E/DX2                !
 ! R9    R(5,6)                  1.3926         estimate D2E/DX2                !
 ! R10   R(5,16)                 1.0833         estimate D2E/DX2                !
 ! R11   R(6,7)                  1.3915         estimate D2E/DX2                !
 ! R12   R(6,17)                 1.0834         estimate D2E/DX2                !
 ! R13   R(7,8)                  1.3918         estimate D2E/DX2                !
 ! R14   R(7,18)                 1.0835         estimate D2E/DX2                !
 ! R15   R(8,19)                 1.0845         estimate D2E/DX2                !
 ! R16   R(9,10)                 1.3892         estimate D2E/DX2                !
 ! R17   R(9,14)                 1.3861         estimate D2E/DX2                !
 ! R18   R(10,11)                1.3902         estimate D2E/DX2                !
 ! R19   R(10,20)                1.0848         estimate D2E/DX2                !
 ! R20   R(11,12)                1.3926         estimate D2E/DX2                !
 ! R21   R(11,21)                1.0833         estimate D2E/DX2                !
 ! R22   R(12,13)                1.3915         estimate D2E/DX2                !
 ! R23   R(12,22)                1.0834         estimate D2E/DX2                !
 ! R24   R(13,14)                1.3918         estimate D2E/DX2                !
 ! R25   R(13,23)                1.0835         estimate D2E/DX2                !
 ! R26   R(14,24)                1.0845         estimate D2E/DX2                !
 ! A1    A(2,1,25)             120.0            estimate D2E/DX2                !
 ! A2    A(1,2,3)              105.8211         estimate D2E/DX2                !
 ! A3    A(1,2,9)              105.821          estimate D2E/DX2                !
 ! A4    A(3,2,9)               96.5034         estimate D2E/DX2                !
 ! A5    A(2,3,4)              120.1542         estimate D2E/DX2                !
 ! A6    A(2,3,8)              117.9048         estimate D2E/DX2                !
 ! A7    A(4,3,8)              121.909          estimate D2E/DX2                !
 ! A8    A(3,4,5)              118.9021         estimate D2E/DX2                !
 ! A9    A(3,4,15)             120.6501         estimate D2E/DX2                !
 ! A10   A(5,4,15)             120.4458         estimate D2E/DX2                !
 ! A11   A(4,5,6)              119.9879         estimate D2E/DX2                !
 ! A12   A(4,5,16)             119.8564         estimate D2E/DX2                !
 ! A13   A(6,5,16)             120.1523         estimate D2E/DX2                !
 ! A14   A(5,6,7)              120.2658         estimate D2E/DX2                !
 ! A15   A(5,6,17)             119.8125         estimate D2E/DX2                !
 ! A16   A(7,6,17)             119.9189         estimate D2E/DX2                !
 ! A17   A(6,7,8)              120.239          estimate D2E/DX2                !
 ! A18   A(6,7,18)             120.0434         estimate D2E/DX2                !
 ! A19   A(8,7,18)             119.7167         estimate D2E/DX2                !
 ! A20   A(3,8,7)              118.678          estimate D2E/DX2                !
 ! A21   A(3,8,19)             119.0127         estimate D2E/DX2                !
 ! A22   A(7,8,19)             122.3046         estimate D2E/DX2                !
 ! A23   A(2,9,10)             120.1542         estimate D2E/DX2                !
 ! A24   A(2,9,14)             117.9048         estimate D2E/DX2                !
 ! A25   A(10,9,14)            121.9091         estimate D2E/DX2                !
 ! A26   A(9,10,11)            118.9021         estimate D2E/DX2                !
 ! A27   A(9,10,20)            120.6502         estimate D2E/DX2                !
 ! A28   A(11,10,20)           120.4457         estimate D2E/DX2                !
 ! A29   A(10,11,12)           119.9879         estimate D2E/DX2                !
 ! A30   A(10,11,21)           119.8564         estimate D2E/DX2                !
 ! A31   A(12,11,21)           120.1523         estimate D2E/DX2                !
 ! A32   A(11,12,13)           120.2658         estimate D2E/DX2                !
 ! A33   A(11,12,22)           119.8125         estimate D2E/DX2                !
 ! A34   A(13,12,22)           119.9188         estimate D2E/DX2                !
 ! A35   A(12,13,14)           120.239          estimate D2E/DX2                !
 ! A36   A(12,13,23)           120.0435         estimate D2E/DX2                !
 ! A37   A(14,13,23)           119.7166         estimate D2E/DX2                !
 ! A38   A(9,14,13)            118.678          estimate D2E/DX2                !
 ! A39   A(9,14,24)            119.0127         estimate D2E/DX2                !
 ! A40   A(13,14,24)           122.3047         estimate D2E/DX2                !
 ! D1    D(25,1,2,3)          -140.8461         estimate D2E/DX2                !
 ! D2    D(25,1,2,9)           -39.1539         estimate D2E/DX2                !
 ! D3    D(1,2,3,4)           -169.4649         estimate D2E/DX2                !
 ! D4    D(1,2,3,8)              8.5185         estimate D2E/DX2                !
 ! D5    D(9,2,3,4)             82.023          estimate D2E/DX2                !
 ! D6    D(9,2,3,8)            -99.9937         estimate D2E/DX2                !
 ! D7    D(1,2,9,10)           169.4657         estimate D2E/DX2                !
 ! D8    D(1,2,9,14)            -8.5176         estimate D2E/DX2                !
 ! D9    D(3,2,9,10)           -82.0221         estimate D2E/DX2                !
 ! D10   D(3,2,9,14)            99.9946         estimate D2E/DX2                !
 ! D11   D(2,3,4,5)            179.5044         estimate D2E/DX2                !
 ! D12   D(2,3,4,15)             0.0113         estimate D2E/DX2                !
 ! D13   D(8,3,4,5)              1.6039         estimate D2E/DX2                !
 ! D14   D(8,3,4,15)          -177.8892         estimate D2E/DX2                !
 ! D15   D(2,3,8,7)           -179.341          estimate D2E/DX2                !
 ! D16   D(2,3,8,19)            -0.1081         estimate D2E/DX2                !
 ! D17   D(4,3,8,7)             -1.3952         estimate D2E/DX2                !
 ! D18   D(4,3,8,19)           177.8377         estimate D2E/DX2                !
 ! D19   D(3,4,5,6)             -0.7607         estimate D2E/DX2                !
 ! D20   D(3,4,5,16)           179.901          estimate D2E/DX2                !
 ! D21   D(15,4,5,6)           178.7335         estimate D2E/DX2                !
 ! D22   D(15,4,5,16)           -0.6048         estimate D2E/DX2                !
 ! D23   D(4,5,6,7)             -0.2428         estimate D2E/DX2                !
 ! D24   D(4,5,6,17)          -179.6227         estimate D2E/DX2                !
 ! D25   D(16,5,6,7)           179.0936         estimate D2E/DX2                !
 ! D26   D(16,5,6,17)           -0.2863         estimate D2E/DX2                !
 ! D27   D(5,6,7,8)              0.4528         estimate D2E/DX2                !
 ! D28   D(5,6,7,18)          -179.2165         estimate D2E/DX2                !
 ! D29   D(17,6,7,8)           179.8321         estimate D2E/DX2                !
 ! D30   D(17,6,7,18)            0.1627         estimate D2E/DX2                !
 ! D31   D(6,7,8,3)              0.3488         estimate D2E/DX2                !
 ! D32   D(6,7,8,19)          -178.8575         estimate D2E/DX2                !
 ! D33   D(18,7,8,3)          -179.9807         estimate D2E/DX2                !
 ! D34   D(18,7,8,19)            0.8129         estimate D2E/DX2                !
 ! D35   D(2,9,10,11)         -179.5044         estimate D2E/DX2                !
 ! D36   D(2,9,10,20)           -0.0112         estimate D2E/DX2                !
 ! D37   D(14,9,10,11)          -1.6039         estimate D2E/DX2                !
 ! D38   D(14,9,10,20)         177.8893         estimate D2E/DX2                !
 ! D39   D(2,9,14,13)          179.3409         estimate D2E/DX2                !
 ! D40   D(2,9,14,24)            0.108          estimate D2E/DX2                !
 ! D41   D(10,9,14,13)           1.3951         estimate D2E/DX2                !
 ! D42   D(10,9,14,24)        -177.8378         estimate D2E/DX2                !
 ! D43   D(9,10,11,12)           0.7607         estimate D2E/DX2                !
 ! D44   D(9,10,11,21)        -179.901          estimate D2E/DX2                !
 ! D45   D(20,10,11,12)       -178.7336         estimate D2E/DX2                !
 ! D46   D(20,10,11,21)          0.6047         estimate D2E/DX2                !
 ! D47   D(10,11,12,13)          0.2427         estimate D2E/DX2                !
 ! D48   D(10,11,12,22)        179.6227         estimate D2E/DX2                !
 ! D49   D(21,11,12,13)       -179.0936         estimate D2E/DX2                !
 ! D50   D(21,11,12,22)          0.2864         estimate D2E/DX2                !
 ! D51   D(11,12,13,14)         -0.4528         estimate D2E/DX2                !
 ! D52   D(11,12,13,23)        179.2165         estimate D2E/DX2                !
 ! D53   D(22,12,13,14)       -179.8321         estimate D2E/DX2                !
 ! D54   D(22,12,13,23)         -0.1628         estimate D2E/DX2                !
 ! D55   D(12,13,14,9)          -0.3488         estimate D2E/DX2                !
 ! D56   D(12,13,14,24)        178.8575         estimate D2E/DX2                !
 ! D57   D(23,13,14,9)         179.9808         estimate D2E/DX2                !
 ! D58   D(23,13,14,24)         -0.8129         estimate D2E/DX2                !
 --------------------------------------------------------------------------------
 Trust Radius=3.00D-01 FncErr=1.00D-07 GrdErr=1.00D-06 EigMax=2.50D+02 EigMin=1.00D-04
 Number of steps in this run=    134 maximum allowed number of steps=    150.
 GradGradGradGradGradGradGradGradGradGradGradGradGradGradGradGradGradGrad

 Leave Link  103 at Mon Oct 14 01:51:26 2019, MaxMem= 10737418240 cpu:               0.3 elap:               0.0
 (Enter /apps/cent7/gaussian/g16-A.03/g16-haswell/g16/l202.exe)
                          Input orientation:                          
 ---------------------------------------------------------------------
 Center     Atomic      Atomic             Coordinates (Angstroms)
 Number     Number       Type             X           Y           Z
 ---------------------------------------------------------------------
      1          8           0        0.000004    2.543023    0.225703
      2         16           0        0.000000    1.257410    1.008809
      3          6           0       -1.353761    0.261496    0.324767
      4          6           0       -1.763416   -0.897572    0.971868
      5          6           0       -2.810084   -1.635205    0.430531
      6          6           0       -3.439667   -1.199891   -0.732874
      7          6           0       -3.028906   -0.024994   -1.355037
      8          6           0       -1.979289    0.719170   -0.824383
      9          6           0        1.353761    0.261492    0.324769
     10          6           0        1.763400   -0.897587    0.971860
     11          6           0        2.810067   -1.635221    0.430525
     12          6           0        3.439666   -1.199897   -0.732868
     13          6           0        3.028921   -0.024991   -1.355021
     14          6           0        1.979304    0.719175   -0.824369
     15          1           0       -1.281238   -1.218820    1.888983
     16          1           0       -3.141006   -2.542403    0.921527
     17          1           0       -4.259083   -1.773697   -1.148894
     18          1           0       -3.529606    0.317012   -2.252940
     19          1           0       -1.643805    1.648634   -1.271274
     20          1           0        1.281209   -1.218844    1.888965
     21          1           0        3.140977   -2.542428    0.921513
     22          1           0        4.259083   -1.773705   -1.148887
     23          1           0        3.529633    0.317024   -2.252915
     24          1           0        1.643831    1.648647   -1.271252
     25          1           0        0.831390    2.952957   -0.024000
 ---------------------------------------------------------------------
                    Distance matrix (angstroms):
                    1          2          3          4          5
     1  O    0.000000
     2  S    1.505342   0.000000
     3  C    2.654780   1.814505   0.000000
     4  C    3.937525   2.784771   1.389243   0.000000
     5  C    5.039458   4.074089   2.393645   1.390202   0.000000
     6  C    5.172969   4.571990   2.757764   2.409846   1.392618
     7  C    4.274078   4.050506   2.389546   2.788789   2.414315
     8  C    2.889069   2.750978   1.386108   2.426309   2.794300
     9  C    2.654780   1.814506   2.707522   3.388061   4.576707
    10  C    3.937526   2.784772   3.388052   3.526816   4.664105
    11  C    5.039457   4.074089   4.576700   4.664110   5.620151
    12  C    5.172967   4.571991   5.121641   5.483574   6.371999
    13  C    4.274076   4.050507   4.702304   5.398361   6.314663
    14  C    2.889066   2.750979   3.555180   4.455142   5.482346
    15  H    4.308079   2.923695   2.154847   1.084802   2.153562
    16  H    6.017614   4.930732   3.378197   2.146103   1.083326
    17  H    6.217991   5.655359   3.841170   3.390218   2.147874
    18  H    4.853550   4.897088   3.373716   3.872212   3.395568
    19  H    2.396452   2.837945   2.134391   3.395461   3.878137
    20  H    4.308082   2.923697   3.403115   3.195939   4.363378
    21  H    6.017614   4.930733   5.331113   5.173119   6.039805
    22  H    6.217989   5.655360   6.149611   6.444820   7.244782
    23  H    4.853545   4.897089   5.522234   6.315919   7.155703
    24  H    2.396445   2.837944   3.668381   4.808758   5.789396
    25  H    0.960000   2.152390   3.484320   4.748826   5.875216
                    6          7          8          9         10
     6  C    0.000000
     7  C    1.391472   0.000000
     8  C    2.413270   1.391786   0.000000
     9  C    5.121640   4.702297   3.555171   0.000000
    10  C    5.483558   5.398339   4.455122   1.389243   0.000000
    11  C    6.371984   6.314639   5.482325   2.393644   1.390201
    12  C    6.879333   6.603780   5.749458   2.757762   2.409846
    13  C    6.603793   6.057827   5.090925   2.389546   2.788789
    14  C    5.749472   5.090930   3.958593   1.386108   2.426308
    15  H    3.396072   3.873400   3.406675   3.403132   3.195955
    16  H    2.151413   3.395977   3.877583   5.331123   5.173118
    17  H    1.083406   2.147974   3.393693   6.149609   6.444802
    18  H    2.149345   1.083466   2.146157   5.522222   6.315893
    19  H    3.410145   2.174063   1.084511   3.668367   4.808736
    20  H    5.400099   5.525027   4.663583   2.154847   1.084802
    21  H    6.916956   7.041847   6.316906   3.378197   2.146102
    22  H    7.731305   7.497684   6.725847   3.841170   3.390219
    23  H    7.292647   6.628544   5.705317   3.373716   3.872213
    24  H    5.852006   4.964128   3.767044   2.134390   3.395461
    25  H    5.999215   5.053883   3.678360   2.763783   4.084981
                   11         12         13         14         15
    11  C    0.000000
    12  C    1.392618   0.000000
    13  C    2.414314   1.391470   0.000000
    14  C    2.794299   2.413269   1.391787   0.000000
    15  H    4.363401   5.400129   5.525057   4.663608   0.000000
    16  H    6.039812   6.916978   7.041877   6.316931   2.479230
    17  H    7.244765   7.731304   7.497697   6.725861   4.290005
    18  H    7.155673   7.292625   6.628537   5.705317   4.956759
    19  H    5.789370   5.851981   4.964111   3.767033   4.282636
    20  H    2.153561   3.396072   3.873400   3.406675   2.562447
    21  H    1.083326   2.151414   3.395976   3.877582   4.716346
    22  H    2.147875   1.083407   2.147974   3.393693   6.342847
    23  H    3.395569   2.149346   1.083467   2.146157   6.531356
    24  H    3.878136   3.410144   2.174064   1.084511   5.173537
    25  H    5.017284   4.954977   3.933057   2.635921   5.052368
                   16         17         18         19         20
    16  H    0.000000
    17  H    2.475409   0.000000
    18  H    4.290047   2.474291   0.000000
    19  H    4.961328   4.308945   2.508611   0.000000
    20  H    4.716326   6.342814   6.531322   5.173514   0.000000
    21  H    6.281983   7.722592   7.921504   6.728109   2.479229
    22  H    7.722618   8.518166   8.139638   6.824329   4.290006
    23  H    7.921542   8.139661   7.059239   5.431507   4.956760
    24  H    6.728138   6.824354   5.431520   3.287636   4.282636
    25  H    6.846381   7.037013   5.561894   3.063256   4.611475
                   21         22         23         24         25
    21  H    0.000000
    22  H    2.475410   0.000000
    23  H    4.290048   2.474292   0.000000
    24  H    4.961328   4.308945   2.508611   0.000000
    25  H    6.035516   5.946073   4.381406   1.979122   0.000000
 Stoichiometry    C12H11OS(1+)
 Framework group  C1[X(C12H11OS)]
 Deg. of freedom    69
 Full point group                 C1      NOp   1
 Largest Abelian subgroup         C1      NOp   1
 Largest concise Abelian subgroup C1      NOp   1
                         Standard orientation:                         
 ---------------------------------------------------------------------
 Center     Atomic      Atomic             Coordinates (Angstroms)
 Number     Number       Type             X           Y           Z
 ---------------------------------------------------------------------
      1          8           0       -0.009036    2.515237   -0.227964
      2         16           0       -0.000404    1.229019   -1.010029
      3          6           0        1.359952    0.242730   -0.325127
      4          6           0        1.777373   -0.914098   -0.971273
      5          6           0        2.828924   -1.644281   -0.429297
      6          6           0        3.455531   -1.203827    0.733780
      7          6           0        3.036899   -0.031198    1.354975
      8          6           0        1.982356    0.705504    0.823677
      9          6           0       -1.347510    0.224630   -0.325236
     10          6           0       -1.749364   -0.937685   -0.971404
     11          6           0       -2.791102   -1.681859   -0.429513
     12          6           0       -3.423648   -1.249811    0.733502
     13          6           0       -3.020793   -0.071683    1.354720
     14          6           0       -1.976149    0.679052    0.823506
     15          1           0        1.297394   -1.239304   -1.888146
     16          1           0        3.165924   -2.549644   -0.919545
     17          1           0        4.278745   -1.771807    1.150297
     18          1           0        3.535262    0.314873    2.252620
     19          1           0        1.640647    1.633067    1.269802
     20          1           0       -1.264995   -1.256454   -1.888229
     21          1           0       -3.115919   -2.591655   -0.919779
     22          1           0       -4.239231   -1.828746    1.149953
     23          1           0       -3.523820    0.267705    2.252316
     24          1           0       -1.646916    1.611107    1.269650
     25          1           0       -0.843154    2.919808    0.021374
 ---------------------------------------------------------------------
 Rotational constants (GHZ):           1.0447986           0.4364665           0.3827364
 Leave Link  202 at Mon Oct 14 01:51:26 2019, MaxMem= 10737418240 cpu:               0.4 elap:               0.0
 (Enter /apps/cent7/gaussian/g16-A.03/g16-haswell/g16/l301.exe)
 Standard basis: 6-31G(d) (6D, 7F)
 Ernie: Thresh=  0.10000D-02 Tol=  0.10000D-05 Strict=F.
 There are   236 symmetry adapted cartesian basis functions of A   symmetry.
 There are   236 symmetry adapted basis functions of A   symmetry.
   236 basis functions,   460 primitive gaussians,   236 cartesian basis functions
    53 alpha electrons       53 beta electrons
       nuclear repulsion energy       947.1594890370 Hartrees.
 IExCor=  402 DFT=T Ex+Corr=B3LYP ExCW=0 ScaHFX=  0.200000
 ScaDFX=  0.800000  0.720000  1.000000  0.810000 ScalE2=  1.000000  1.000000
 IRadAn=      5 IRanWt=     -1 IRanGd=            0 ICorTp=0 IEmpDi=  4
 NAtoms=   25 NActive=   25 NUniq=   25 SFac= 1.00D+00 NAtFMM=   60 NAOKFM=F Big=F
 Integral buffers will be    131072 words long.
 Raffenetti 2 integral format.
 Two-electron integral symmetry is turned on.
 Leave Link  301 at Mon Oct 14 01:51:26 2019, MaxMem= 10737418240 cpu:               1.7 elap:               0.1
 (Enter /apps/cent7/gaussian/g16-A.03/g16-haswell/g16/l302.exe)
 NPDir=0 NMtPBC=     1 NCelOv=     1 NCel=       1 NClECP=     1 NCelD=      1
         NCelK=      1 NCelE2=     1 NClLst=     1 CellRange=     0.0.
 One-electron integrals computed using PRISM.
 One-electron integral symmetry used in STVInt
 NBasis=   236 RedAO= T EigKep=  4.61D-04  NBF=   236
 NBsUse=   236 1.00D-06 EigRej= -1.00D+00 NBFU=   236
 Precomputing XC quadrature grid using
 IXCGrd= 4 IRadAn=           5 IRanWt=          -1 IRanGd=           0 AccXCQ= 0.00D+00.
 Generated NRdTot=       0 NPtTot=           0 NUsed=           0 NTot=          32
 NSgBfM=   234   234   234   234   234 MxSgAt=    25 MxSgA2=    25.
 Leave Link  302 at Mon Oct 14 01:51:26 2019, MaxMem= 10737418240 cpu:               4.7 elap:               0.2
 (Enter /apps/cent7/gaussian/g16-A.03/g16-haswell/g16/l303.exe)
 DipDrv:  MaxL=1.
 Leave Link  303 at Mon Oct 14 01:51:27 2019, MaxMem= 10737418240 cpu:               0.7 elap:               0.1
 (Enter /apps/cent7/gaussian/g16-A.03/g16-haswell/g16/l401.exe)
 ExpMin= 1.17D-01 ExpMax= 2.19D+04 ExpMxC= 3.30D+03 IAcc=3 IRadAn=         5 AccDes= 0.00D+00
 Harris functional with IExCor=  402 and IRadAn=       5 diagonalized for initial guess.
 HarFok:  IExCor=  402 AccDes= 0.00D+00 IRadAn=         5 IDoV= 1 UseB2=F ITyADJ=14
 ICtDFT=  3500011 ScaDFX=  1.000000  1.000000  1.000000  1.000000
 FoFCou: FMM=F IPFlag=           0 FMFlag=      100000 FMFlg1=           0
         NFxFlg=           0 DoJE=T BraDBF=F KetDBF=T FulRan=T
         wScrn=  0.000000 ICntrl=       500 IOpCl=  0 I1Cent=   200000004 NGrid=           0
         NMat0=    1 NMatS0=      1 NMatT0=    0 NMatD0=    1 NMtDS0=    0 NMtDT0=    0
 Petite list used in FoFCou.
 Harris En= -937.057535253106    
 JPrj=0 DoOrth=F DoCkMO=F.
 Leave Link  401 at Mon Oct 14 01:51:27 2019, MaxMem= 10737418240 cpu:              11.1 elap:               0.5
 (Enter /apps/cent7/gaussian/g16-A.03/g16-haswell/g16/l502.exe)
 Integral symmetry usage will be decided dynamically.
 Closed shell SCF:
 Using DIIS extrapolation, IDIIS=  1040.
 NGot= 10737418240 LenX= 10737298556 LenY= 10737242419
 Requested convergence on RMS density matrix=1.00D-08 within 128 cycles.
 Requested convergence on MAX density matrix=1.00D-06.
 Requested convergence on             energy=1.00D-06.
 No special actions if energy rises.
 Fock matrices will be formed incrementally for  20 cycles.
 Integral accuracy reduced to 1.0D-05 until final iterations.

 Cycle   1  Pass 0  IDiag  1:
 FoFJK:  IHMeth= 1 ICntrl=       0 DoSepK=F KAlg= 0 I1Cent=           0 FoldK=F
 IRaf= 870000000 NMat=       1 IRICut=       1 DoRegI=T DoRafI=F ISym2E= 0 IDoP0=0 IntGTp=1.
 FoFCou: FMM=F IPFlag=           0 FMFlag=      100000 FMFlg1=           0
         NFxFlg=           0 DoJE=F BraDBF=F KetDBF=F FulRan=T
         wScrn=  0.000000 ICntrl=         0 IOpCl=  0 I1Cent=           0 NGrid=           0
         NMat0=    1 NMatS0=      1 NMatT0=    0 NMatD0=    1 NMtDS0=    0 NMtDT0=    0
 Symmetry not used in FoFCou.
 E= -936.547778020229    
 DIIS: error= 3.40D-02 at cycle   1 NSaved=   1.
 NSaved= 1 IEnMin= 1 EnMin= -936.547778020229     IErMin= 1 ErrMin= 3.40D-02
 ErrMax= 3.40D-02  0.00D+00 EMaxC= 1.00D-01 BMatC= 4.19D-01 BMatP= 4.19D-01
 IDIUse=3 WtCom= 6.60D-01 WtEn= 3.40D-01
 Coeff-Com:  0.100D+01
 Coeff-En:   0.100D+01
 Coeff:      0.100D+01
 Gap=     0.471 Goal=   None    Shift=    0.000
 GapD=    0.471 DampG=2.000 DampE=0.500 DampFc=1.0000 IDamp=-1.
 RMSDP=1.41D-02 MaxDP=6.57D-01              OVMax= 7.39D-01

 Cycle   2  Pass 0  IDiag  1:
 RMSU=  1.40D-02    CP:  9.67D-01
 E= -934.196822487725     Delta-E=        2.350955532504 Rises=F Damp=F
 DIIS: error= 7.28D-02 at cycle   2 NSaved=   2.
 NSaved= 2 IEnMin= 1 EnMin= -936.547778020229     IErMin= 1 ErrMin= 3.40D-02
 ErrMax= 7.28D-02  0.00D+00 EMaxC= 1.00D-01 BMatC= 1.97D+00 BMatP= 4.19D-01
 IDIUse=2 WtCom= 0.00D+00 WtEn= 1.00D+00
 Coeff-En:   0.845D+00 0.155D+00
 Coeff:      0.845D+00 0.155D+00
 Gap=    -0.086 Goal=   None    Shift=    0.000
 RMSDP=1.21D-02 MaxDP=6.36D-01 DE= 2.35D+00 OVMax= 9.13D-01

 Cycle   3  Pass 0  IDiag  1:
 RMSU=  4.03D-03    CP:  9.70D-01  1.89D-01
 E= -936.824242152619     Delta-E=       -2.627419664894 Rises=F Damp=F
 DIIS: error= 1.71D-02 at cycle   3 NSaved=   3.
 NSaved= 3 IEnMin= 3 EnMin= -936.824242152619     IErMin= 3 ErrMin= 1.71D-02
 ErrMax= 1.71D-02  0.00D+00 EMaxC= 1.00D-01 BMatC= 1.81D-01 BMatP= 4.19D-01
 IDIUse=3 WtCom= 8.29D-01 WtEn= 1.71D-01
 Coeff-Com:  0.410D+00 0.362D-01 0.554D+00
 Coeff-En:   0.269D+00 0.000D+00 0.731D+00
 Coeff:      0.386D+00 0.300D-01 0.584D+00
 Gap=     0.212 Goal=   None    Shift=    0.000
 RMSDP=2.28D-03 MaxDP=8.28D-02 DE=-2.63D+00 OVMax= 7.36D-02

 Cycle   4  Pass 0  IDiag  1:
 RMSU=  1.32D-03    CP:  9.76D-01  1.13D-01  6.23D-01
 E= -936.979591182692     Delta-E=       -0.155349030073 Rises=F Damp=F
 DIIS: error= 6.49D-03 at cycle   4 NSaved=   4.
 NSaved= 4 IEnMin= 4 EnMin= -936.979591182692     IErMin= 4 ErrMin= 6.49D-03
 ErrMax= 6.49D-03  0.00D+00 EMaxC= 1.00D-01 BMatC= 1.63D-02 BMatP= 1.81D-01
 IDIUse=3 WtCom= 9.35D-01 WtEn= 6.49D-02
 Coeff-Com:  0.121D+00-0.111D-01 0.313D+00 0.578D+00
 Coeff-En:   0.000D+00 0.000D+00 0.000D+00 0.100D+01
 Coeff:      0.113D+00-0.104D-01 0.292D+00 0.605D+00
 Gap=     0.199 Goal=   None    Shift=    0.000
 RMSDP=7.22D-04 MaxDP=3.06D-02 DE=-1.55D-01 OVMax= 2.71D-02

 Cycle   5  Pass 0  IDiag  1:
 RMSU=  4.80D-04    CP:  9.77D-01  1.23D-01  6.81D-01  6.46D-01
 E= -936.989532808708     Delta-E=       -0.009941626015 Rises=F Damp=F
 DIIS: error= 3.25D-03 at cycle   5 NSaved=   5.
 NSaved= 5 IEnMin= 5 EnMin= -936.989532808708     IErMin= 5 ErrMin= 3.25D-03
 ErrMax= 3.25D-03  0.00D+00 EMaxC= 1.00D-01 BMatC= 2.92D-03 BMatP= 1.63D-02
 IDIUse=3 WtCom= 9.67D-01 WtEn= 3.25D-02
 Coeff-Com:  0.367D-01-0.114D-01 0.126D+00 0.359D+00 0.490D+00
 Coeff-En:   0.000D+00 0.000D+00 0.000D+00 0.166D+00 0.834D+00
 Coeff:      0.355D-01-0.110D-01 0.122D+00 0.353D+00 0.501D+00
 Gap=     0.201 Goal=   None    Shift=    0.000
 RMSDP=3.39D-04 MaxDP=8.63D-03 DE=-9.94D-03 OVMax= 1.85D-02

 Cycle   6  Pass 0  IDiag  1:
 RMSU=  1.86D-04    CP:  9.76D-01  1.19D-01  6.71D-01  7.11D-01  4.59D-01
 E= -936.992120836243     Delta-E=       -0.002588027535 Rises=F Damp=F
 DIIS: error= 1.30D-03 at cycle   6 NSaved=   6.
 NSaved= 6 IEnMin= 6 EnMin= -936.992120836243     IErMin= 6 ErrMin= 1.30D-03
 ErrMax= 1.30D-03  0.00D+00 EMaxC= 1.00D-01 BMatC= 3.37D-04 BMatP= 2.92D-03
 IDIUse=3 WtCom= 9.87D-01 WtEn= 1.30D-02
 Coeff-Com:  0.821D-02-0.409D-02 0.286D-01 0.116D+00 0.298D+00 0.553D+00
 Coeff-En:   0.000D+00 0.000D+00 0.000D+00 0.000D+00 0.101D+00 0.899D+00
 Coeff:      0.810D-02-0.404D-02 0.282D-01 0.114D+00 0.296D+00 0.557D+00
 Gap=     0.202 Goal=   None    Shift=    0.000
 RMSDP=9.99D-05 MaxDP=4.58D-03 DE=-2.59D-03 OVMax= 5.77D-03

 Cycle   7  Pass 0  IDiag  1:
 RMSU=  6.86D-05    CP:  9.76D-01  1.18D-01  6.70D-01  7.05D-01  5.48D-01
                    CP:  6.90D-01
 E= -936.992459163605     Delta-E=       -0.000338327362 Rises=F Damp=F
 DIIS: error= 3.87D-04 at cycle   7 NSaved=   7.
 NSaved= 7 IEnMin= 7 EnMin= -936.992459163605     IErMin= 7 ErrMin= 3.87D-04
 ErrMax= 3.87D-04  0.00D+00 EMaxC= 1.00D-01 BMatC= 2.93D-05 BMatP= 3.37D-04
 IDIUse=3 WtCom= 9.96D-01 WtEn= 3.87D-03
 Coeff-Com:  0.109D-02-0.138D-02 0.280D-02 0.217D-01 0.101D+00 0.291D+00
 Coeff-Com:  0.583D+00
 Coeff-En:   0.000D+00 0.000D+00 0.000D+00 0.000D+00 0.000D+00 0.862D-02
 Coeff-En:   0.991D+00
 Coeff:      0.108D-02-0.137D-02 0.279D-02 0.216D-01 0.101D+00 0.290D+00
 Coeff:      0.585D+00
 Gap=     0.202 Goal=   None    Shift=    0.000
 RMSDP=2.97D-05 MaxDP=1.30D-03 DE=-3.38D-04 OVMax= 1.76D-03

 Cycle   8  Pass 0  IDiag  1:
 RMSU=  2.14D-05    CP:  9.76D-01  1.18D-01  6.69D-01  7.04D-01  5.49D-01
                    CP:  7.31D-01  7.36D-01
 E= -936.992487732547     Delta-E=       -0.000028568943 Rises=F Damp=F
 DIIS: error= 8.35D-05 at cycle   8 NSaved=   8.
 NSaved= 8 IEnMin= 8 EnMin= -936.992487732547     IErMin= 8 ErrMin= 8.35D-05
 ErrMax= 8.35D-05  0.00D+00 EMaxC= 1.00D-01 BMatC= 2.17D-06 BMatP= 2.93D-05
 IDIUse=1 WtCom= 1.00D+00 WtEn= 0.00D+00
 Coeff-Com:  0.132D-03-0.251D-03-0.764D-03 0.133D-02 0.218D-01 0.842D-01
 Coeff-Com:  0.275D+00 0.619D+00
 Coeff:      0.132D-03-0.251D-03-0.764D-03 0.133D-02 0.218D-01 0.842D-01
 Coeff:      0.275D+00 0.619D+00
 Gap=     0.201 Goal=   None    Shift=    0.000
 RMSDP=8.82D-06 MaxDP=2.01D-04 DE=-2.86D-05 OVMax= 5.58D-04

 Initial convergence to 1.0D-05 achieved.  Increase integral accuracy.
 Cycle   9  Pass 1  IDiag  1:
 E= -936.992551779516     Delta-E=       -0.000064046968 Rises=F Damp=F
 DIIS: error= 3.93D-05 at cycle   1 NSaved=   1.
 NSaved= 1 IEnMin= 1 EnMin= -936.992551779516     IErMin= 1 ErrMin= 3.93D-05
 ErrMax= 3.93D-05  0.00D+00 EMaxC= 1.00D-01 BMatC= 4.55D-07 BMatP= 4.55D-07
 IDIUse=1 WtCom= 1.00D+00 WtEn= 0.00D+00
 Coeff-Com:  0.100D+01
 Coeff:      0.100D+01
 Gap=     0.201 Goal=   None    Shift=    0.000
 RMSDP=8.82D-06 MaxDP=2.01D-04 DE=-6.40D-05 OVMax= 4.66D-04

 Cycle  10  Pass 1  IDiag  1:
 RMSU=  1.85D-05    CP:  1.00D+00
 E= -936.992551370055     Delta-E=        0.000000409460 Rises=F Damp=F
 DIIS: error= 6.06D-05 at cycle   2 NSaved=   2.
 NSaved= 2 IEnMin= 1 EnMin= -936.992551779516     IErMin= 1 ErrMin= 3.93D-05
 ErrMax= 6.06D-05  0.00D+00 EMaxC= 1.00D-01 BMatC= 7.74D-07 BMatP= 4.55D-07
 IDIUse=1 WtCom= 1.00D+00 WtEn= 0.00D+00
 Coeff-Com:  0.575D+00 0.425D+00
 Coeff:      0.575D+00 0.425D+00
 Gap=     0.201 Goal=   None    Shift=    0.000
 RMSDP=4.91D-06 MaxDP=1.24D-04 DE= 4.09D-07 OVMax= 3.73D-04

 Cycle  11  Pass 1  IDiag  1:
 RMSU=  4.63D-06    CP:  1.00D+00  9.11D-01
 E= -936.992552184539     Delta-E=       -0.000000814483 Rises=F Damp=F
 DIIS: error= 1.87D-05 at cycle   3 NSaved=   3.
 NSaved= 3 IEnMin= 3 EnMin= -936.992552184539     IErMin= 3 ErrMin= 1.87D-05
 ErrMax= 1.87D-05  0.00D+00 EMaxC= 1.00D-01 BMatC= 5.13D-08 BMatP= 4.55D-07
 IDIUse=1 WtCom= 1.00D+00 WtEn= 0.00D+00
 Coeff-Com:  0.133D+00 0.217D+00 0.650D+00
 Coeff:      0.133D+00 0.217D+00 0.650D+00
 Gap=     0.201 Goal=   None    Shift=    0.000
 RMSDP=1.48D-06 MaxDP=3.26D-05 DE=-8.14D-07 OVMax= 1.13D-04

 Cycle  12  Pass 1  IDiag  1:
 RMSU=  1.05D-06    CP:  1.00D+00  9.32D-01  7.88D-01
 E= -936.992552228467     Delta-E=       -0.000000043929 Rises=F Damp=F
 DIIS: error= 6.18D-06 at cycle   4 NSaved=   4.
 NSaved= 4 IEnMin= 4 EnMin= -936.992552228467     IErMin= 4 ErrMin= 6.18D-06
 ErrMax= 6.18D-06  0.00D+00 EMaxC= 1.00D-01 BMatC= 1.48D-08 BMatP= 5.13D-08
 IDIUse=1 WtCom= 1.00D+00 WtEn= 0.00D+00
 Coeff-Com:  0.135D-02 0.786D-01 0.418D+00 0.502D+00
 Coeff:      0.135D-02 0.786D-01 0.418D+00 0.502D+00
 Gap=     0.201 Goal=   None    Shift=    0.000
 RMSDP=5.87D-07 MaxDP=1.59D-05 DE=-4.39D-08 OVMax= 3.52D-05

 Cycle  13  Pass 1  IDiag  1:
 RMSU=  2.12D-07    CP:  1.00D+00  9.32D-01  8.31D-01  5.13D-01
 E= -936.992552243136     Delta-E=       -0.000000014669 Rises=F Damp=F
 DIIS: error= 9.01D-07 at cycle   5 NSaved=   5.
 NSaved= 5 IEnMin= 5 EnMin= -936.992552243136     IErMin= 5 ErrMin= 9.01D-07
 ErrMax= 9.01D-07  0.00D+00 EMaxC= 1.00D-01 BMatC= 5.38D-10 BMatP= 1.48D-08
 IDIUse=1 WtCom= 1.00D+00 WtEn= 0.00D+00
 Coeff-Com: -0.407D-02 0.377D-01 0.219D+00 0.294D+00 0.453D+00
 Coeff:     -0.407D-02 0.377D-01 0.219D+00 0.294D+00 0.453D+00
 Gap=     0.201 Goal=   None    Shift=    0.000
 RMSDP=1.34D-07 MaxDP=5.86D-06 DE=-1.47D-08 OVMax= 6.91D-06

 Cycle  14  Pass 1  IDiag  1:
 RMSU=  5.23D-08    CP:  1.00D+00  9.33D-01  8.26D-01  5.21D-01  4.36D-01
 E= -936.992552243677     Delta-E=       -0.000000000540 Rises=F Damp=F
 DIIS: error= 3.48D-07 at cycle   6 NSaved=   6.
 NSaved= 6 IEnMin= 6 EnMin= -936.992552243677     IErMin= 6 ErrMin= 3.48D-07
 ErrMax= 3.48D-07  0.00D+00 EMaxC= 1.00D-01 BMatC= 2.70D-11 BMatP= 5.38D-10
 IDIUse=1 WtCom= 1.00D+00 WtEn= 0.00D+00
 Coeff-Com: -0.243D-02 0.176D-01 0.104D+00 0.143D+00 0.259D+00 0.479D+00
 Coeff:     -0.243D-02 0.176D-01 0.104D+00 0.143D+00 0.259D+00 0.479D+00
 Gap=     0.201 Goal=   None    Shift=    0.000
 RMSDP=2.96D-08 MaxDP=6.02D-07 DE=-5.40D-10 OVMax= 2.11D-06

 Cycle  15  Pass 1  IDiag  1:
 RMSU=  2.20D-08    CP:  1.00D+00  9.33D-01  8.26D-01  5.24D-01  4.74D-01
                    CP:  6.61D-01
 E= -936.992552243700     Delta-E=       -0.000000000024 Rises=F Damp=F
 DIIS: error= 1.36D-07 at cycle   7 NSaved=   7.
 NSaved= 7 IEnMin= 7 EnMin= -936.992552243700     IErMin= 7 ErrMin= 1.36D-07
 ErrMax= 1.36D-07  0.00D+00 EMaxC= 1.00D-01 BMatC= 2.73D-12 BMatP= 2.70D-11
 IDIUse=1 WtCom= 1.00D+00 WtEn= 0.00D+00
 Coeff-Com: -0.624D-03 0.316D-02 0.195D-01 0.287D-01 0.651D-01 0.264D+00
 Coeff-Com:  0.620D+00
 Coeff:     -0.624D-03 0.316D-02 0.195D-01 0.287D-01 0.651D-01 0.264D+00
 Coeff:      0.620D+00
 Gap=     0.201 Goal=   None    Shift=    0.000
 RMSDP=9.12D-09 MaxDP=2.13D-07 DE=-2.36D-11 OVMax= 6.59D-07

 SCF Done:  E(RB3LYP) =  -936.992552244     A.U. after   15 cycles
            NFock= 15  Conv=0.91D-08     -V/T= 2.0066
 KE= 9.308318462901D+02 PE=-4.072744423003D+03 EE= 1.257760535432D+03
 Leave Link  502 at Mon Oct 14 01:51:33 2019, MaxMem= 10737418240 cpu:             143.8 elap:               6.1
 (Enter /apps/cent7/gaussian/g16-A.03/g16-haswell/g16/l601.exe)
 Copying SCF densities to generalized density rwf, IOpCl= 0 IROHF=0.

 **********************************************************************

            Population analysis using the SCF density.

 **********************************************************************

 Orbital symmetries:
       Occupied  (A) (A) (A) (A) (A) (A) (A) (A) (A) (A) (A) (A)
                 (A) (A) (A) (A) (A) (A) (A) (A) (A) (A) (A) (A)
                 (A) (A) (A) (A) (A) (A) (A) (A) (A) (A) (A) (A)
                 (A) (A) (A) (A) (A) (A) (A) (A) (A) (A) (A) (A)
                 (A) (A) (A) (A) (A)
       Virtual   (A) (A) (A) (A) (A) (A) (A) (A) (A) (A) (A) (A)
                 (A) (A) (A) (A) (A) (A) (A) (A) (A) (A) (A) (A)
                 (A) (A) (A) (A) (A) (A) (A) (A) (A) (A) (A) (A)
                 (A) (A) (A) (A) (A) (A) (A) (A) (A) (A) (A) (A)
                 (A) (A) (A) (A) (A) (A) (A) (A) (A) (A) (A) (A)
                 (A) (A) (A) (A) (A) (A) (A) (A) (A) (A) (A) (A)
                 (A) (A) (A) (A) (A) (A) (A) (A) (A) (A) (A) (A)
                 (A) (A) (A) (A) (A) (A) (A) (A) (A) (A) (A) (A)
                 (A) (A) (A) (A) (A) (A) (A) (A) (A) (A) (A) (A)
                 (A) (A) (A) (A) (A) (A) (A) (A) (A) (A) (A) (A)
                 (A) (A) (A) (A) (A) (A) (A) (A) (A) (A) (A) (A)
                 (A) (A) (A) (A) (A) (A) (A) (A) (A) (A) (A) (A)
                 (A) (A) (A) (A) (A) (A) (A) (A) (A) (A) (A) (A)
                 (A) (A) (A) (A) (A) (A) (A) (A) (A) (A) (A) (A)
                 (A) (A) (A) (A) (A) (A) (A) (A) (A) (A) (A) (A)
                 (A) (A) (A)
 The electronic state is 1-A.
 Alpha  occ. eigenvalues --  -89.19795 -19.40484 -10.38636 -10.38216 -10.35783
 Alpha  occ. eigenvalues --  -10.35391 -10.34982 -10.34516 -10.34096 -10.33939
 Alpha  occ. eigenvalues --  -10.33597 -10.33331 -10.33174 -10.32929  -8.24809
 Alpha  occ. eigenvalues --   -6.21461  -6.20887  -6.20381  -1.32405  -1.03907
 Alpha  occ. eigenvalues --   -1.01231  -0.97362  -0.90737  -0.90351  -0.89604
 Alpha  occ. eigenvalues --   -0.88105  -0.79626  -0.76904  -0.75702  -0.75505
 Alpha  occ. eigenvalues --   -0.72048  -0.68914  -0.66713  -0.63836  -0.63239
 Alpha  occ. eigenvalues --   -0.60982  -0.60150  -0.59755  -0.59014  -0.57846
 Alpha  occ. eigenvalues --   -0.56926  -0.56133  -0.53928  -0.51437  -0.51425
 Alpha  occ. eigenvalues --   -0.50180  -0.49564  -0.49114  -0.47353  -0.40961
 Alpha  occ. eigenvalues --   -0.40600  -0.39687  -0.39498
 Alpha virt. eigenvalues --   -0.19355  -0.17667  -0.16279  -0.15815  -0.14203
 Alpha virt. eigenvalues --   -0.11842  -0.10106  -0.06784  -0.02658  -0.01652
 Alpha virt. eigenvalues --   -0.00652   0.00120   0.02152   0.02281   0.02645
 Alpha virt. eigenvalues --    0.04321   0.05527   0.06151   0.06892   0.08285
 Alpha virt. eigenvalues --    0.09705   0.12266   0.14439   0.15148   0.15931
 Alpha virt. eigenvalues --    0.16309   0.17050   0.17607   0.19298   0.21006
 Alpha virt. eigenvalues --    0.24039   0.27863   0.30867   0.32245   0.36890
 Alpha virt. eigenvalues --    0.38849   0.39611   0.39844   0.39894   0.40318
 Alpha virt. eigenvalues --    0.41498   0.42152   0.42828   0.44017   0.44440
 Alpha virt. eigenvalues --    0.44687   0.45476   0.46352   0.47192   0.47373
 Alpha virt. eigenvalues --    0.47762   0.48004   0.48254   0.48725   0.50926
 Alpha virt. eigenvalues --    0.51598   0.55793   0.56714   0.57779   0.59107
 Alpha virt. eigenvalues --    0.64108   0.64471   0.66267   0.66990   0.67688
 Alpha virt. eigenvalues --    0.69062   0.70143   0.71002   0.71520   0.71853
 Alpha virt. eigenvalues --    0.72562   0.73313   0.74035   0.75961   0.77617
 Alpha virt. eigenvalues --    0.77823   0.78106   0.80508   0.81440   0.81968
 Alpha virt. eigenvalues --    0.83154   0.84871   0.87419   0.89647   0.90083
 Alpha virt. eigenvalues --    0.91395   0.93866   0.96753   0.98511   0.99292
 Alpha virt. eigenvalues --    1.01576   1.03371   1.04406   1.05660   1.08432
 Alpha virt. eigenvalues --    1.09872   1.12666   1.19699   1.21379   1.23630
 Alpha virt. eigenvalues --    1.26436   1.26800   1.27372   1.30589   1.31632
 Alpha virt. eigenvalues --    1.32575   1.33303   1.33514   1.34996   1.35629
 Alpha virt. eigenvalues --    1.36381   1.39994   1.43047   1.51406   1.55749
 Alpha virt. eigenvalues --    1.60560   1.62771   1.63447   1.65009   1.70247
 Alpha virt. eigenvalues --    1.71715   1.72858   1.75214   1.76095   1.76608
 Alpha virt. eigenvalues --    1.81610   1.82583   1.83868   1.84259   1.92307
 Alpha virt. eigenvalues --    1.93535   1.95312   1.96003   1.99448   1.99750
 Alpha virt. eigenvalues --    1.99894   2.00924   2.01401   2.01764   2.02074
 Alpha virt. eigenvalues --    2.02151   2.15182   2.15373   2.16002   2.16206
 Alpha virt. eigenvalues --    2.17519   2.18661   2.22082   2.36867   2.41158
 Alpha virt. eigenvalues --    2.41801   2.44789   2.46862   2.50358   2.51089
 Alpha virt. eigenvalues --    2.52795   2.53997   2.56715   2.57792   2.59227
 Alpha virt. eigenvalues --    2.59771   2.60222   2.61652   2.62563   2.66466
 Alpha virt. eigenvalues --    2.87643   2.88753   3.23155   3.25987   3.65130
 Alpha virt. eigenvalues --    3.77325   3.94782   3.95185   3.95832   3.97512
 Alpha virt. eigenvalues --    3.99538   4.02425   4.16689   4.18081   4.19456
 Alpha virt. eigenvalues --    4.24162   4.49842   4.55528
          Condensed to atoms (all electrons):
               1          2          3          4          5          6
     1  O    8.221125   0.166711  -0.024873   0.000535  -0.000029  -0.000005
     2  S    0.166711  14.770701   0.174746  -0.029448   0.002725   0.000223
     3  C   -0.024873   0.174746   5.234285   0.513183  -0.031452  -0.038337
     4  C    0.000535  -0.029448   0.513183   4.874298   0.550916  -0.035053
     5  C   -0.000029   0.002725  -0.031452   0.550916   4.809625   0.546994
     6  C   -0.000005   0.000223  -0.038337  -0.035053   0.546994   4.820214
     7  C    0.000379   0.003214  -0.031245  -0.041696  -0.026119   0.547243
     8  C    0.002514  -0.038236   0.499677  -0.022144  -0.042570  -0.031783
     9  C   -0.025550   0.186153  -0.033729  -0.004183  -0.000056   0.000038
    10  C    0.000876  -0.034163  -0.004130  -0.000545  -0.000029   0.000008
    11  C   -0.000037   0.002575  -0.000067  -0.000027  -0.000003   0.000000
    12  C   -0.000006   0.000227   0.000033   0.000008   0.000000  -0.000000
    13  C    0.000717   0.003618  -0.000236  -0.000014   0.000000   0.000000
    14  C    0.002446  -0.039742  -0.004521   0.000281  -0.000003  -0.000001
    15  H    0.000001   0.001200  -0.055538   0.360927  -0.027145   0.004234
    16  H    0.000000  -0.000145   0.004771  -0.039813   0.366546  -0.035885
    17  H   -0.000000   0.000016   0.000662   0.004926  -0.038552   0.365041
    18  H    0.000004  -0.000189   0.005090   0.000763   0.004154  -0.036397
    19  H    0.008271  -0.008729  -0.058307   0.004127   0.000357   0.004070
    20  H    0.000006   0.001737  -0.000789   0.001117   0.000049  -0.000001
    21  H    0.000000  -0.000145   0.000001   0.000003   0.000000  -0.000000
    22  H   -0.000000   0.000017   0.000000  -0.000000  -0.000000   0.000000
    23  H    0.000004  -0.000191   0.000000   0.000000   0.000000  -0.000000
    24  H    0.009674  -0.011103  -0.000655   0.000015  -0.000000  -0.000001
    25  H    0.246452  -0.011076   0.002449  -0.000029   0.000001   0.000000
               7          8          9         10         11         12
     1  O    0.000379   0.002514  -0.025550   0.000876  -0.000037  -0.000006
     2  S    0.003214  -0.038236   0.186153  -0.034163   0.002575   0.000227
     3  C   -0.031245   0.499677  -0.033729  -0.004130  -0.000067   0.000033
     4  C   -0.041696  -0.022144  -0.004183  -0.000545  -0.000027   0.000008
     5  C   -0.026119  -0.042570  -0.000056  -0.000029  -0.000003   0.000000
     6  C    0.547243  -0.031783   0.000038   0.000008   0.000000  -0.000000
     7  C    4.817027   0.541113  -0.000178  -0.000010  -0.000000   0.000000
     8  C    0.541113   4.888250  -0.003655   0.000129  -0.000001  -0.000000
     9  C   -0.000178  -0.003655   5.255644   0.517442  -0.029571  -0.039020
    10  C   -0.000010   0.000129   0.517442   4.876402   0.544678  -0.035728
    11  C   -0.000000  -0.000001  -0.029571   0.544678   4.813653   0.546678
    12  C    0.000000  -0.000000  -0.039020  -0.035728   0.546678   4.819598
    13  C    0.000001  -0.000020  -0.033202  -0.039392  -0.026616   0.550647
    14  C   -0.000031   0.000604   0.484023  -0.023502  -0.042241  -0.033384
    15  H    0.000447   0.003825  -0.000729   0.001040   0.000059  -0.000001
    16  H    0.004018   0.000804  -0.000000   0.000003   0.000000  -0.000000
    17  H   -0.037995   0.004701   0.000000  -0.000000  -0.000000   0.000000
    18  H    0.367660  -0.042100  -0.000001   0.000000   0.000000  -0.000000
    19  H   -0.028665   0.366665  -0.000362  -0.000008   0.000000  -0.000000
    20  H   -0.000000  -0.000014  -0.055645   0.362891  -0.027532   0.004203
    21  H    0.000000   0.000000   0.004671  -0.038736   0.366042  -0.035920
    22  H   -0.000000  -0.000000   0.000694   0.004751  -0.038255   0.365267
    23  H    0.000000   0.000001   0.005242   0.000782   0.004103  -0.035345
    24  H    0.000003   0.000373  -0.075429   0.004175   0.000381   0.004368
    25  H    0.000002  -0.000275  -0.001901   0.000183  -0.000011  -0.000005
              13         14         15         16         17         18
     1  O    0.000717   0.002446   0.000001   0.000000  -0.000000   0.000004
     2  S    0.003618  -0.039742   0.001200  -0.000145   0.000016  -0.000189
     3  C   -0.000236  -0.004521  -0.055538   0.004771   0.000662   0.005090
     4  C   -0.000014   0.000281   0.360927  -0.039813   0.004926   0.000763
     5  C    0.000000  -0.000003  -0.027145   0.366546  -0.038552   0.004154
     6  C    0.000000  -0.000001   0.004234  -0.035885   0.365041  -0.036397
     7  C    0.000001  -0.000031   0.000447   0.004018  -0.037995   0.367660
     8  C   -0.000020   0.000604   0.003825   0.000804   0.004701  -0.042100
     9  C   -0.033202   0.484023  -0.000729  -0.000000   0.000000  -0.000001
    10  C   -0.039392  -0.023502   0.001040   0.000003  -0.000000   0.000000
    11  C   -0.026616  -0.042241   0.000059   0.000000  -0.000000   0.000000
    12  C    0.550647  -0.033384  -0.000001  -0.000000   0.000000  -0.000000
    13  C    4.808587   0.536022  -0.000000   0.000000  -0.000000   0.000000
    14  C    0.536022   4.937246  -0.000018   0.000000  -0.000000   0.000001
    15  H   -0.000000  -0.000018   0.542643  -0.005219  -0.000150   0.000014
    16  H    0.000000   0.000000  -0.005219   0.523012  -0.004756  -0.000160
    17  H   -0.000000  -0.000000  -0.000150  -0.004756   0.524672  -0.004883
    18  H    0.000000   0.000001   0.000014  -0.000160  -0.004883   0.525951
    19  H    0.000003   0.000283  -0.000150   0.000014  -0.000138  -0.004691
    20  H    0.000481   0.003739   0.001824  -0.000002  -0.000000   0.000000
    21  H    0.004098   0.000764  -0.000002  -0.000000  -0.000000   0.000000
    22  H   -0.037862   0.004944  -0.000000  -0.000000   0.000000  -0.000000
    23  H    0.366830  -0.042367   0.000000  -0.000000   0.000000  -0.000000
    24  H   -0.019891   0.355790  -0.000001   0.000000   0.000000   0.000000
    25  H   -0.000171   0.006785  -0.000001  -0.000000   0.000000  -0.000000
              19         20         21         22         23         24
     1  O    0.008271   0.000006   0.000000  -0.000000   0.000004   0.009674
     2  S   -0.008729   0.001737  -0.000145   0.000017  -0.000191  -0.011103
     3  C   -0.058307  -0.000789   0.000001   0.000000   0.000000  -0.000655
     4  C    0.004127   0.001117   0.000003  -0.000000   0.000000   0.000015
     5  C    0.000357   0.000049   0.000000  -0.000000   0.000000  -0.000000
     6  C    0.004070  -0.000001  -0.000000   0.000000  -0.000000  -0.000001
     7  C   -0.028665  -0.000000   0.000000  -0.000000   0.000000   0.000003
     8  C    0.366665  -0.000014   0.000000  -0.000000   0.000001   0.000373
     9  C   -0.000362  -0.055645   0.004671   0.000694   0.005242  -0.075429
    10  C   -0.000008   0.362891  -0.038736   0.004751   0.000782   0.004175
    11  C    0.000000  -0.027532   0.366042  -0.038255   0.004103   0.000381
    12  C   -0.000000   0.004203  -0.035920   0.365267  -0.035345   0.004368
    13  C    0.000003   0.000481   0.004098  -0.037862   0.366830  -0.019891
    14  C    0.000283   0.003739   0.000764   0.004944  -0.042367   0.355790
    15  H   -0.000150   0.001824  -0.000002  -0.000000   0.000000  -0.000001
    16  H    0.000014  -0.000002  -0.000000  -0.000000  -0.000000   0.000000
    17  H   -0.000138  -0.000000  -0.000000   0.000000   0.000000   0.000000
    18  H   -0.004691   0.000000   0.000000  -0.000000  -0.000000   0.000000
    19  H    0.535884  -0.000001  -0.000000   0.000000  -0.000000   0.000228
    20  H   -0.000001   0.536747  -0.005098  -0.000149   0.000013  -0.000156
    21  H   -0.000000  -0.005098   0.519474  -0.004723  -0.000156   0.000015
    22  H    0.000000  -0.000149  -0.004723   0.520785  -0.004891  -0.000149
    23  H   -0.000000   0.000013  -0.000156  -0.004891   0.524259  -0.005044
    24  H    0.000228  -0.000156   0.000015  -0.000149  -0.005044   0.590456
    25  H   -0.000390   0.000001   0.000000  -0.000000   0.000012   0.006261
              25
     1  O    0.246452
     2  S   -0.011076
     3  C    0.002449
     4  C   -0.000029
     5  C    0.000001
     6  C    0.000000
     7  C    0.000002
     8  C   -0.000275
     9  C   -0.001901
    10  C    0.000183
    11  C   -0.000011
    12  C   -0.000005
    13  C   -0.000171
    14  C    0.006785
    15  H   -0.000001
    16  H   -0.000000
    17  H    0.000000
    18  H   -0.000000
    19  H   -0.000390
    20  H    0.000001
    21  H    0.000000
    22  H   -0.000000
    23  H    0.000012
    24  H    0.006261
    25  H    0.265264
 Mulliken charges:
               1
     1  O   -0.609217
     2  S    0.859303
     3  C   -0.151019
     4  C   -0.138146
     5  C   -0.115408
     6  C   -0.110604
     7  C   -0.115168
     8  C   -0.127858
     9  C   -0.150697
    10  C   -0.137117
    11  C   -0.113808
    12  C   -0.111622
    13  C   -0.113602
    14  C   -0.147119
    15  H    0.172741
    16  H    0.186813
    17  H    0.186455
    18  H    0.184784
    19  H    0.181539
    20  H    0.176581
    21  H    0.189711
    22  H    0.189572
    23  H    0.186749
    24  H    0.140689
    25  H    0.486445
 Sum of Mulliken charges =   1.00000
 Mulliken charges with hydrogens summed into heavy atoms:
               1
     1  O   -0.122771
     2  S    0.859303
     3  C   -0.151019
     4  C    0.034595
     5  C    0.071405
     6  C    0.075851
     7  C    0.069615
     8  C    0.053681
     9  C   -0.150697
    10  C    0.039465
    11  C    0.075903
    12  C    0.077950
    13  C    0.073147
    14  C   -0.006430
 Electronic spatial extent (au):  <R**2>=           3058.3407
 Charge=              1.0000 electrons
 Dipole moment (field-independent basis, Debye):
    X=             -1.4967    Y=              1.3541    Z=              0.0683  Tot=              2.0195
 Quadrupole moment (field-independent basis, Debye-Ang):
   XX=            -54.3720   YY=            -64.1380   ZZ=            -75.5651
   XY=             -4.4560   XZ=             -0.1290   YZ=              4.8269
 Traceless Quadrupole moment (field-independent basis, Debye-Ang):
   XX=             10.3197   YY=              0.5538   ZZ=            -10.8734
   XY=             -4.4560   XZ=             -0.1290   YZ=              4.8269
 Octapole moment (field-independent basis, Debye-Ang**2):
  XXX=             -1.0094  YYY=             31.8313  ZZZ=              1.4389  XYY=            -17.0373
  XXY=            -41.5750  XXZ=             41.2792  XZZ=             -0.2366  YZZ=              3.5533
  YYZ=             -5.8119  XYZ=              0.2755
 Hexadecapole moment (field-independent basis, Debye-Ang**3):
 XXXX=          -2336.8267 YYYY=           -718.6129 ZZZZ=           -489.5801 XXXY=             -2.9450
 XXXZ=              0.2973 YYYX=            -47.9189 YYYZ=             21.9522 ZZZX=             -0.2772
 ZZZY=             15.0515 XXYY=           -461.6870 XXZZ=           -451.8325 YYZZ=           -210.4479
 XXYZ=             -1.5029 YYXZ=             -0.4288 ZZXY=              0.6301
 N-N= 9.471594890370D+02 E-N=-4.072744416810D+03  KE= 9.308318462901D+02
 No NMR shielding tensors so no spin-rotation constants.
 Leave Link  601 at Mon Oct 14 01:51:33 2019, MaxMem= 10737418240 cpu:               2.6 elap:               0.1
 (Enter /apps/cent7/gaussian/g16-A.03/g16-haswell/g16/l701.exe)
 ... and contract with generalized density number  0.
 Compute integral first derivatives.
 Leave Link  701 at Mon Oct 14 01:51:33 2019, MaxMem= 10737418240 cpu:               3.3 elap:               0.2
 (Enter /apps/cent7/gaussian/g16-A.03/g16-haswell/g16/l702.exe)
 L702 exits ... SP integral derivatives will be done elsewhere.
 Leave Link  702 at Mon Oct 14 01:51:34 2019, MaxMem= 10737418240 cpu:               0.5 elap:               0.0
 (Enter /apps/cent7/gaussian/g16-A.03/g16-haswell/g16/l703.exe)
 Integral derivatives from FoFJK, PRISM(SPDF).
 Compute integral first derivatives, UseDBF=F ICtDFT=           0.
 Calling FoFJK, ICntrl=      2127 FMM=F ISym2X=0 I1Cent= 0 IOpClX= 0 NMat=1 NMatS=1 NMatT=0.
 FoFJK:  IHMeth= 1 ICntrl=    2127 DoSepK=F KAlg= 0 I1Cent=           0 FoldK=F
 IRaf=         0 NMat=       1 IRICut=       1 DoRegI=T DoRafI=F ISym2E= 0 IDoP0=0 IntGTp=1.
 FoFCou: FMM=F IPFlag=           0 FMFlag=      100000 FMFlg1=         800
         NFxFlg=           0 DoJE=F BraDBF=F KetDBF=F FulRan=T
         wScrn=  0.000000 ICntrl=      2127 IOpCl=  0 I1Cent=           0 NGrid=           0
         NMat0=    1 NMatS0=      1 NMatT0=    0 NMatD0=    1 NMtDS0=    0 NMtDT0=    0
 Symmetry not used in FoFCou.
 Leave Link  703 at Mon Oct 14 01:51:35 2019, MaxMem= 10737418240 cpu:              38.5 elap:               1.6
 (Enter /apps/cent7/gaussian/g16-A.03/g16-haswell/g16/l716.exe)
 Dipole        =-5.88866214D-01 5.32749722D-01 2.68546452D-02
 ***** Axes restored to original set *****
 -------------------------------------------------------------------
 Center     Atomic                   Forces (Hartrees/Bohr)
 Number     Number              X              Y              Z
 -------------------------------------------------------------------
      1        8          -0.025955907    0.074731268   -0.052320597
      2       16           0.008723053   -0.103548934    0.064593873
      3        6          -0.008469081    0.015194509   -0.008406007
      4        6           0.006965468   -0.000101379    0.012533749
      5        6          -0.000171252   -0.001100342   -0.000500224
      6        6          -0.001722166   -0.001188239   -0.000996262
      7        6          -0.001383856    0.001755949   -0.003694725
      8        6           0.001581115    0.005332465   -0.003808337
      9        6           0.006113935    0.009163252   -0.000496729
     10        6          -0.004935101   -0.001081607    0.009452590
     11        6           0.000239146   -0.001400636    0.000034218
     12        6           0.001426870   -0.001260608   -0.001021231
     13        6           0.002159284    0.003053184   -0.004803766
     14        6          -0.000451509    0.003244513   -0.000169473
     15        1          -0.000705153   -0.001635609    0.001580602
     16        1           0.000509722   -0.000966002    0.001322755
     17        1          -0.001198379   -0.000606755   -0.000572111
     18        1          -0.000314173    0.000932122   -0.001218116
     19        1          -0.003361738   -0.000338382   -0.003892349
     20        1           0.000490813   -0.001355009    0.001267189
     21        1          -0.000195903   -0.000983650    0.001204444
     22        1           0.001082804   -0.000464995   -0.000767883
     23        1           0.000404331    0.000800192   -0.001291680
     24        1           0.003529746   -0.001967170   -0.008301955
     25        1           0.015637931    0.003791864    0.000272023
 -------------------------------------------------------------------
 Cartesian Forces:  Max     0.103548934 RMS     0.018367423
 Leave Link  716 at Mon Oct 14 01:51:35 2019, MaxMem= 10737418240 cpu:               0.6 elap:               0.0
 (Enter /apps/cent7/gaussian/g16-A.03/g16-haswell/g16/l103.exe)

 GradGradGradGradGradGradGradGradGradGradGradGradGradGradGradGradGradGrad
 Berny optimization.
 FormGI is forming the generalized inverse of G from B-inverse, IUseBI=4.
 GSVD:  received Info=                   1 from GESDD.
 Internal  Forces:  Max     0.094138101 RMS     0.009765058
 Search for a local minimum.
 Step number   1 out of a maximum of  134
 All quantities printed in internal units (Hartrees-Bohrs-Radians)
 RMS Force = .97651D-02 SwitMx=.10000D-02 MixMth= 1
 Mixed Optimization -- RFO/linear search
 Second derivative matrix not updated -- first step.
 ITU=  0
     Eigenvalues ---    0.00230   0.00230   0.01651   0.01651   0.02193
     Eigenvalues ---    0.02193   0.02197   0.02197   0.02200   0.02200
     Eigenvalues ---    0.02204   0.02204   0.02213   0.02213   0.02225
     Eigenvalues ---    0.02225   0.02232   0.02232   0.02251   0.02251
     Eigenvalues ---    0.03871   0.08291   0.14663   0.15998   0.15998
     Eigenvalues ---    0.15999   0.15999   0.15999   0.15999   0.16000
     Eigenvalues ---    0.16000   0.16000   0.16000   0.16000   0.20010
     Eigenvalues ---    0.21998   0.21998   0.22000   0.22000   0.23495
     Eigenvalues ---    0.23495   0.24985   0.24985   0.25006   0.25007
     Eigenvalues ---    0.35420   0.35420   0.35455   0.35455   0.35579
     Eigenvalues ---    0.35579   0.35586   0.35586   0.35595   0.35595
     Eigenvalues ---    0.42761   0.42761   0.42911   0.42911   0.46972
     Eigenvalues ---    0.46972   0.47167   0.47167   0.47286   0.47286
     Eigenvalues ---    0.47740   0.47740   0.55473   0.74934
 RFO step:  Lambda=-2.47781066D-02 EMin= 2.30000000D-03
 Linear search not attempted -- first point.
 Iteration  1 RMS(Cart)=  0.12441289 RMS(Int)=  0.00312703
 Iteration  2 RMS(Cart)=  0.00860198 RMS(Int)=  0.00044748
 Iteration  3 RMS(Cart)=  0.00004892 RMS(Int)=  0.00044719
 Iteration  4 RMS(Cart)=  0.00000006 RMS(Int)=  0.00044719
 ITry= 1 IFail=0 DXMaxC= 4.87D-01 DCOld= 1.00D+10 DXMaxT= 3.00D-01 DXLimC= 3.00D+00 Rises=F
 Variable       Old X    -DE/DX   Delta X   Delta X   Delta X     New X
                                 (Linear)    (Quad)   (Total)
    R1        2.84468   0.09414   0.00000   0.12161   0.12161   2.96629
    R2        1.81414   0.01509   0.00000   0.02604   0.02604   1.84018
    R3        3.42892  -0.00043   0.00000  -0.00157  -0.00157   3.42735
    R4        3.42892   0.00495   0.00000   0.01802   0.01802   3.44694
    R5        2.62529   0.00502   0.00000   0.01040   0.01040   2.63569
    R6        2.61937   0.01083   0.00000   0.02192   0.02193   2.64129
    R7        2.62710   0.00320   0.00000   0.00630   0.00630   2.63340
    R8        2.04998   0.00151   0.00000   0.00398   0.00398   2.05396
    R9        2.63167   0.00576   0.00000   0.01118   0.01118   2.64285
   R10        2.04719   0.00125   0.00000   0.00329   0.00329   2.05048
   R11        2.62950   0.00477   0.00000   0.00929   0.00929   2.63879
   R12        2.04734   0.00145   0.00000   0.00380   0.00380   2.05114
   R13        2.63010   0.00284   0.00000   0.00586   0.00587   2.63596
   R14        2.04745   0.00145   0.00000   0.00381   0.00381   2.05126
   R15        2.04943   0.00027   0.00000   0.00072   0.00072   2.05015
   R16        2.62529   0.00580   0.00000   0.01207   0.01208   2.63736
   R17        2.61936   0.01320   0.00000   0.02673   0.02675   2.64612
   R18        2.62710   0.00357   0.00000   0.00702   0.00700   2.63410
   R19        2.04998   0.00125   0.00000   0.00331   0.00331   2.05329
   R20        2.63167   0.00517   0.00000   0.00986   0.00984   2.64151
   R21        2.04719   0.00131   0.00000   0.00344   0.00344   2.05063
   R22        2.62950   0.00383   0.00000   0.00728   0.00728   2.63678
   R23        2.04734   0.00136   0.00000   0.00357   0.00357   2.05092
   R24        2.63010   0.00298   0.00000   0.00616   0.00618   2.63628
   R25        2.04746   0.00151   0.00000   0.00397   0.00397   2.05142
   R26        2.04943   0.00064   0.00000   0.00170   0.00170   2.05112
    A1        2.09440  -0.00932   0.00000  -0.05044  -0.05044   2.04396
    A2        1.84693  -0.01772   0.00000  -0.09311  -0.09320   1.75373
    A3        1.84692  -0.00159   0.00000   0.00100   0.00419   1.85111
    A4        1.68430   0.02224   0.00000   0.09672   0.09720   1.78150
    A5        2.09709  -0.01404   0.00000  -0.05200  -0.05200   2.04509
    A6        2.05783   0.01040   0.00000   0.03697   0.03697   2.09480
    A7        2.12771   0.00364   0.00000   0.01498   0.01498   2.14270
    A8        2.07523  -0.00400   0.00000  -0.01561  -0.01562   2.05961
    A9        2.10574   0.00384   0.00000   0.01776   0.01776   2.12350
   A10        2.10218   0.00016   0.00000  -0.00212  -0.00212   2.10006
   A11        2.09418   0.00184   0.00000   0.00653   0.00652   2.10070
   A12        2.09189  -0.00211   0.00000  -0.00973  -0.00973   2.08216
   A13        2.09705   0.00027   0.00000   0.00317   0.00318   2.10023
   A14        2.09903   0.00153   0.00000   0.00483   0.00482   2.10385
   A15        2.09112  -0.00063   0.00000  -0.00171  -0.00171   2.08941
   A16        2.09298  -0.00090   0.00000  -0.00313  -0.00312   2.08985
   A17        2.09857  -0.00058   0.00000  -0.00253  -0.00254   2.09603
   A18        2.09515   0.00090   0.00000   0.00456   0.00456   2.09971
   A19        2.08945  -0.00032   0.00000  -0.00202  -0.00202   2.08743
   A20        2.07132  -0.00244   0.00000  -0.00839  -0.00840   2.06292
   A21        2.07716   0.00649   0.00000   0.03275   0.03274   2.10991
   A22        2.13462  -0.00405   0.00000  -0.02429  -0.02429   2.11032
   A23        2.09709  -0.01285   0.00000  -0.04764  -0.04768   2.04940
   A24        2.05783   0.01331   0.00000   0.04761   0.04758   2.10540
   A25        2.12771  -0.00045   0.00000   0.00032   0.00036   2.12808
   A26        2.07523  -0.00176   0.00000  -0.00661  -0.00660   2.06863
   A27        2.10574   0.00234   0.00000   0.01120   0.01120   2.11694
   A28        2.10217  -0.00058   0.00000  -0.00462  -0.00462   2.09755
   A29        2.09418   0.00190   0.00000   0.00621   0.00620   2.10038
   A30        2.09189  -0.00183   0.00000  -0.00788  -0.00787   2.08402
   A31        2.09705  -0.00007   0.00000   0.00166   0.00166   2.09872
   A32        2.09903   0.00121   0.00000   0.00280   0.00280   2.10183
   A33        2.09112  -0.00024   0.00000   0.00061   0.00060   2.09172
   A34        2.09298  -0.00097   0.00000  -0.00336  -0.00336   2.08962
   A35        2.09857  -0.00059   0.00000  -0.00300  -0.00297   2.09560
   A36        2.09516   0.00074   0.00000   0.00396   0.00392   2.09908
   A37        2.08945  -0.00015   0.00000  -0.00091  -0.00094   2.08850
   A38        2.07132  -0.00030   0.00000   0.00040   0.00032   2.07164
   A39        2.07716   0.00894   0.00000   0.04752   0.04731   2.12448
   A40        2.13462  -0.00862   0.00000  -0.04754  -0.04771   2.08691
    D1       -2.45823  -0.01056   0.00000  -0.06426  -0.06433  -2.52256
    D2       -0.68336   0.00710   0.00000   0.00970   0.00977  -0.67359
    D3       -2.95772   0.00265   0.00000   0.06832   0.06667  -2.89105
    D4        0.14868   0.00265   0.00000   0.06716   0.06551   0.21418
    D5        1.43157   0.00065   0.00000   0.05469   0.05634   1.48791
    D6       -1.74522   0.00065   0.00000   0.05353   0.05518  -1.69004
    D7        2.95773   0.00280   0.00000  -0.08115  -0.08159   2.87615
    D8       -0.14866   0.00242   0.00000  -0.09044  -0.09095  -0.23961
    D9       -1.43156  -0.00886   0.00000  -0.14717  -0.14667  -1.57823
   D10        1.74523  -0.00923   0.00000  -0.15646  -0.15603   1.58920
   D11        3.13294   0.00057   0.00000   0.00899   0.00903  -3.14122
   D12        0.00020   0.00040   0.00000   0.00563   0.00565   0.00585
   D13        0.02799   0.00044   0.00000   0.00981   0.00983   0.03782
   D14       -3.10475   0.00028   0.00000   0.00646   0.00645  -3.09830
   D15       -3.13009  -0.00001   0.00000  -0.00454  -0.00456  -3.13465
   D16       -0.00189   0.00016   0.00000   0.00052   0.00059  -0.00130
   D17       -0.02435  -0.00038   0.00000  -0.00714  -0.00718  -0.03153
   D18        3.10385  -0.00021   0.00000  -0.00207  -0.00203   3.10182
   D19       -0.01328  -0.00028   0.00000  -0.00693  -0.00689  -0.02016
   D20        3.13987  -0.00020   0.00000  -0.00432  -0.00429   3.13558
   D21        3.11949  -0.00009   0.00000  -0.00347  -0.00345   3.11603
   D22       -0.01056  -0.00001   0.00000  -0.00086  -0.00086  -0.01141
   D23       -0.00424   0.00008   0.00000   0.00182   0.00185  -0.00239
   D24       -3.13501   0.00013   0.00000   0.00322   0.00324  -3.13176
   D25        3.12577  -0.00001   0.00000  -0.00088  -0.00086   3.12491
   D26       -0.00500   0.00004   0.00000   0.00052   0.00053  -0.00446
   D27        0.00790   0.00002   0.00000   0.00100   0.00101   0.00892
   D28       -3.12792   0.00000   0.00000   0.00020   0.00021  -3.12771
   D29        3.13866  -0.00003   0.00000  -0.00039  -0.00037   3.13829
   D30        0.00284  -0.00005   0.00000  -0.00119  -0.00118   0.00166
   D31        0.00609   0.00008   0.00000   0.00140   0.00136   0.00745
   D32       -3.12165  -0.00018   0.00000  -0.00431  -0.00426  -3.12591
   D33       -3.14126   0.00010   0.00000   0.00222   0.00218  -3.13908
   D34        0.01419  -0.00016   0.00000  -0.00349  -0.00344   0.01075
   D35       -3.13294  -0.00040   0.00000  -0.00572  -0.00578  -3.13872
   D36       -0.00020  -0.00051   0.00000  -0.00847  -0.00843  -0.00862
   D37       -0.02799   0.00025   0.00000   0.00487   0.00467  -0.02332
   D38        3.10475   0.00014   0.00000   0.00212   0.00202   3.10677
   D39        3.13009  -0.00010   0.00000   0.00286   0.00329   3.13338
   D40        0.00189  -0.00150   0.00000  -0.02858  -0.02909  -0.02720
   D41        0.02435  -0.00022   0.00000  -0.00561  -0.00554   0.01881
   D42       -3.10385  -0.00162   0.00000  -0.03704  -0.03792   3.14141
   D43        0.01328  -0.00002   0.00000  -0.00005   0.00007   0.01335
   D44       -3.13986  -0.00005   0.00000  -0.00128  -0.00120  -3.14106
   D45       -3.11949   0.00007   0.00000   0.00262   0.00261  -3.11688
   D46        0.01055   0.00005   0.00000   0.00139   0.00134   0.01190
   D47        0.00424  -0.00015   0.00000  -0.00370  -0.00365   0.00058
   D48        3.13501   0.00008   0.00000   0.00130   0.00120   3.13621
   D49       -3.12577  -0.00012   0.00000  -0.00240  -0.00231  -3.12809
   D50        0.00500   0.00012   0.00000   0.00260   0.00254   0.00754
   D51       -0.00790   0.00016   0.00000   0.00285   0.00266  -0.00524
   D52        3.12792   0.00057   0.00000   0.01230   0.01201   3.13993
   D53       -3.13866  -0.00008   0.00000  -0.00218  -0.00221  -3.14087
   D54       -0.00284   0.00033   0.00000   0.00727   0.00714   0.00430
   D55       -0.00609   0.00003   0.00000   0.00176   0.00188  -0.00421
   D56        3.12165   0.00162   0.00000   0.03507   0.03430  -3.12724
   D57        3.14126  -0.00038   0.00000  -0.00767  -0.00743   3.13383
   D58       -0.01419   0.00121   0.00000   0.02564   0.02499   0.01080
         Item               Value     Threshold  Converged?
 Maximum Force            0.094138     0.000450     NO 
 RMS     Force            0.009765     0.000300     NO 
 Maximum Displacement     0.486740     0.001800     NO 
 RMS     Displacement     0.126997     0.001200     NO 
 Predicted change in Energy=-1.409635D-02
 Lowest energy point so far.  Saving SCF results.
 GradGradGradGradGradGradGradGradGradGradGradGradGradGradGradGradGradGrad

 Leave Link  103 at Mon Oct 14 01:51:35 2019, MaxMem= 10737418240 cpu:               1.7 elap:               0.1
 (Enter /apps/cent7/gaussian/g16-A.03/g16-haswell/g16/l202.exe)
                          Input orientation:                          
 ---------------------------------------------------------------------
 Center     Atomic      Atomic             Coordinates (Angstroms)
 Number     Number       Type             X           Y           Z
 ---------------------------------------------------------------------
      1          8           0       -0.085197    2.474560    0.278208
      2         16           0        0.000065    1.104457    1.039448
      3          6           0       -1.409899    0.230998    0.305629
      4          6           0       -1.849372   -0.924614    0.951190
      5          6           0       -2.931403   -1.609766    0.401901
      6          6           0       -3.563224   -1.127269   -0.748706
      7          6           0       -3.121644    0.047414   -1.361097
      8          6           0       -2.035491    0.745641   -0.833393
      9          6           0        1.418512    0.213443    0.317480
     10          6           0        1.915228   -0.883410    1.023155
     11          6           0        3.001125   -1.579002    0.494049
     12          6           0        3.583428   -1.169870   -0.709054
     13          6           0        3.085544   -0.060784   -1.393867
     14          6           0        1.995903    0.644854   -0.883040
     15          1           0       -1.373821   -1.287125    1.858827
     16          1           0       -3.287055   -2.514514    0.883889
     17          1           0       -4.410891   -1.664344   -1.162402
     18          1           0       -3.622987    0.425359   -2.246580
     19          1           0       -1.690397    1.667307   -1.289942
     20          1           0        1.479165   -1.189775    1.970039
     21          1           0        3.398549   -2.434391    1.030619
     22          1           0        4.431792   -1.714351   -1.111162
     23          1           0        3.540709    0.255633   -2.327226
     24          1           0        1.606732    1.498285   -1.429219
     25          1           0        0.756013    2.912050    0.056361
 ---------------------------------------------------------------------
                    Distance matrix (angstroms):
                    1          2          3          4          5
     1  O    0.000000
     2  S    1.569694   0.000000
     3  C    2.605601   1.813675   0.000000
     4  C    3.888393   2.746877   1.394748   0.000000
     5  C    4.979750   4.045612   2.390116   1.393536   0.000000
     6  C    5.111203   4.568931   2.755599   2.422398   1.398535
     7  C    4.218811   4.077379   2.396195   2.812505   2.427055
     8  C    2.833454   2.789224   1.397711   2.451353   2.806520
     9  C    2.715757   1.824043   2.828489   3.517929   4.717306
    10  C    3.979021   2.760386   3.579555   3.765513   4.939977
    11  C    5.099348   4.062608   4.771660   4.915743   5.933323
    12  C    5.264539   4.590241   5.284441   5.686112   6.623500
    13  C    4.390604   4.098657   4.814814   5.531626   6.467440
    14  C    3.004546   2.809014   3.630935   4.540238   5.568906
    15  H    4.278924   2.877258   2.172193   1.086907   2.157032
[...]
 0.00973593,-0.00047148,0.00446201,0.00223830,0.00012829,0.00003777,0.0
 0011973,0.00003617,-0.00000590,-0.00003327,0.00000661,-0.00001900,0.00
 001200,0.00000926,0.00000028,0.00000563,-0.00001575,-0.00000393,0.0000
 0848,-0.00000675,-0.00001075,-0.00001257,-0.00096730,-0.00057035,-0.00
 056679,0.00165744,-0.00168776,-0.00064611,0.13007993,0.03169491,0.1166
 8719,0.00020306,-0.00008299,0.00020689,-0.00069383,0.00005630,-0.00166
 077,-0.00087095,-0.00372410,-0.00329349,-0.00080581,-0.00049794,0.0003
 2848,0.00050124,-0.00495609,-0.00103856,0.00973070,-0.00876918,0.01403
 146,-0.08482681,0.04124378,-0.08359960,-0.00590728,0.01342723,-0.02174
 865,0.00012105,0.00001420,0.00000586,0.00000391,0.00000064,0.00008936,
 -0.00001870,0.00001558,0.00003249,-0.00000860,0.00000175,-0.00000922,-
 0.00000130,-0.00000962,0.00002116,-0.00011798,0.00006657,-0.00007006,-
 0.00022352,0.00046005,0.00035131,0.00033202,-0.00038701,0.00078639,-0.
 00059813,0.00169085,0.00133970,0.08375072,0.00013017,-0.00011411,0.000
 17241,-0.00063771,0.00064296,-0.00062709,-0.00390172,0.00232282,0.0009
 2722,-0.00061488,-0.00058392,-0.00052701,-0.00525584,-0.00100941,0.002
 86656,0.00972330,-0.00786929,0.02046917,0.04104558,-0.12505246,0.12255
 815,-0.00452813,0.00855973,-0.00934268,-0.00012989,-0.00005262,-0.0001
 0812,-0.00003934,-0.00000189,0.00004857,0.00000813,0.00002916,-0.00000
 120,0.00000674,0.00000333,0.00001377,-0.00002822,0.00002577,-0.0000030
 9,0.00005417,-0.00004530,-0.00002981,0.00046997,-0.00032140,-0.0003070
 4,0.00057460,-0.00042938,0.00099771,0.00149917,-0.00060969,-0.00173355
 ,-0.04021426,0.12521655,0.00002280,-0.00017385,0.00009850,0.00006540,0
 .00070014,-0.00007436,-0.00411188,0.00078147,0.00241546,0.00040858,-0.
 00038266,0.00022176,-0.00081896,0.00323466,0.00294722,-0.00396032,0.00
 366549,-0.00339394,-0.08363155,0.12221883,-0.23561444,-0.00349569,0.00
 732645,-0.00708011,-0.00017317,-0.00006391,-0.00010526,-0.00002274,-0.
 00001328,0.00008530,-0.00000155,0.00003102,0.00000510,0.00000179,0.000
 00324,0.00000448,-0.00001802,0.00002012,-0.00000329,0.00001138,-0.0000
 3123,-0.00005589,0.00035590,-0.00037423,-0.00038556,-0.00021809,0.0000
 1526,-0.00023828,0.00153099,-0.00159957,-0.00086125,0.09236235,-0.1337
 9673,0.24299980,-0.00145260,0.00021937,-0.00074327,-0.00004350,0.00145
 995,0.00068474,0.00896914,0.00977603,-0.00247248,0.00104468,-0.0005631
 1,-0.00378510,-0.00080736,0.00055638,-0.00062351,-0.00134197,-0.002950
 37,-0.00542165,-0.00750518,-0.02140036,0.00954988,-0.12092652,-0.12134
 319,0.03653790,-0.00047171,-0.00014656,-0.00042003,-0.00005654,-0.0001
 4784,0.00012238,-0.00002217,0.00006317,0.00001514,-0.00003621,0.000006
 57,-0.00003476,0.00004730,0.00002744,0.00001916,-0.00000694,0.00009928
 ,0.00011763,0.00073138,0.00020344,-0.00065180,-0.00025701,0.00031437,0
 .00044414,-0.00047159,-0.00092933,0.00063897,-0.00052018,0.00189490,0.
 00177593,0.12314992,-0.00066662,-0.00012797,-0.00114077,-0.00024089,-0
 .00186076,-0.00102411,-0.00633428,-0.00903311,0.00385873,0.00029517,0.
 00204866,0.00340104,0.00033633,0.00011499,-0.00054184,-0.00283940,0.00
 308412,0.00122390,-0.00298907,-0.00220673,0.00335078,-0.12218547,-0.24
 326622,0.08284716,0.00040275,0.00017458,0.00059423,0.00002481,0.000030
 39,-0.00027061,0.00005067,-0.00005385,-0.00004695,-0.00000384,0.000005
 06,0.00009808,-0.00016139,0.00004532,-0.00023722,0.00027475,0.00010222
 ,0.00038130,-0.00074892,0.00006615,0.00034279,0.00029068,-0.00036700,-
 0.00033233,0.00006729,-0.00026141,0.00012908,0.00158849,-0.00077920,-0
 .00162287,0.13266803,0.25256710,0.00006034,-0.00140885,0.00052525,0.00
 168458,0.00218350,-0.00108482,0.01271841,0.01905071,-0.00567223,-0.004
 71626,0.00315922,-0.00206103,-0.00020475,-0.00052446,-0.00044742,-0.00
 502834,0.00183311,0.00121076,-0.00772208,-0.01288072,0.00954986,0.0360
 0685,0.08116576,-0.07854304,0.00030733,-0.00008071,0.00028139,-0.00010
 621,0.00006460,-0.00027891,0.00007499,-0.00005944,-0.00009552,0.000033
 51,-0.00000505,0.00003706,-0.00000174,-0.00007159,0.00004602,-0.000010
 19,-0.00000459,0.00004380,0.00045038,0.00129938,0.00018732,0.00041799,
 -0.00038965,-0.00027962,-0.00029112,-0.00075846,0.00023754,0.00186375,
 -0.00163151,-0.00099217,-0.03584564,-0.09053618,0.07714277,0.00002082,
 -0.00037509,0.00004238,0.00010527,-0.00075104,-0.00233860,-0.00014203,
 -0.00003396,0.00029933,0.00000722,-0.00000552,0.00004741,0.00002201,-0
 .00002420,0.00000500,0.00000676,0.00000110,0.00000673,0.00005676,-0.00
 003782,0.00001821,0.00008501,0.00016159,0.00006234,0.00317594,-0.00370
 449,-0.02514075,-0.05732172,0.00923277,0.01120552,0.00440512,0.0033332
 4,0.02743401,-0.00374905,0.00420935,0.00121325,-0.00097053,0.00009394,
 -0.00003174,-0.00375462,0.00303359,-0.00181084,-0.00003729,-0.00002172
 ,0.00000309,0.00001226,0.00000109,0.00000339,-0.00000110,0.00000206,0.
 00000792,0.00002193,0.00000159,0.00000570,-0.00000504,-0.00001901,-0.0
 0000915,0.05697352,0.00029463,-0.00102117,-0.00034266,-0.00059525,-0.0
 0192186,0.00126074,-0.00020519,0.00047523,-0.00014672,0.00004816,0.000
 12471,-0.00011626,-0.00000058,-0.00004244,-0.00004668,-0.00001196,0.00
 001651,-0.00000720,-0.00001223,-0.00003269,-0.00006232,-0.00017091,-0.
 00012078,0.00012160,-0.00098128,0.00232521,0.00744368,0.00925880,-0.04
 335350,-0.03779970,0.00002809,0.00319194,-0.01154525,0.00426463,0.0056
 4132,-0.00119235,0.00015403,-0.00077274,0.00019032,0.00280318,0.004432
 22,-0.00007986,-0.00003350,0.00001375,0.00003553,-0.00001384,-0.000003
 22,-0.00000383,-0.00000610,0.00000303,0.00000947,-0.00001286,-0.000016
 11,-0.00001414,-0.00000046,0.00001100,0.00001563,-0.01325103,0.0347013
 9,0.00007307,0.00037408,0.00028010,0.00054237,0.00026271,-0.00061598,-
 0.00036392,-0.00049044,0.00023438,0.00001589,0.00003671,0.00001368,0.0
 0000215,0.00000171,-0.00003097,-0.00000204,-0.00000653,0.00000187,-0.0
 0001287,-0.00007644,0.00007317,0.00024865,0.00016463,0.00008081,0.0020
 6399,-0.00238247,-0.01225189,0.01069133,-0.03812203,-0.33858217,-0.001
 15459,-0.00118354,-0.00793636,0.00187659,-0.00139999,0.00078350,0.0002
 8414,0.00006842,0.00062469,-0.00311135,0.00067282,0.00056821,-0.000024
 39,0.00000154,0.00000408,0.00000686,0.00000221,0.00000488,0.00000212,0
 .00000151,0.00000212,0.00002666,0.00000959,0.00000717,-0.00000381,-0.0
 0002209,-0.00000852,-0.01116141,0.04161702,0.35696535,-0.00008047,0.00
 032987,0.00018697,-0.00042091,0.00013213,-0.00079730,-0.00015622,0.000
 04792,0.00020889,-0.00005035,0.00007564,-0.00011179,-0.00000694,-0.000
 03580,-0.00001931,-0.00000404,0.00000379,0.00000331,-0.00001095,-0.000
 02317,-0.00002287,-0.00002730,-0.00007477,0.00005442,-0.00121338,0.003
 31095,0.00270023,-0.01663178,0.00548290,-0.01529580,-0.23880199,0.0584
 0638,-0.13016127,0.00615807,-0.00053589,0.00272312,0.00173355,0.002010
 92,0.00087393,0.00006249,-0.00012477,0.00071032,-0.00000428,0.00001692
 ,0.00001097,-0.00001244,-0.00000521,-0.00001053,-0.00000430,0.00000266
 ,0.00000236,-0.00000756,-0.00000529,-0.00000670,0.00000320,0.00000958,
 0.00001463,0.00041150,-0.00164801,0.00008320,0.24883289,-0.00014927,0.
 00008432,0.00016903,0.00069581,0.00052787,-0.00004069,0.00024585,-0.00
 022998,-0.00010952,0.00001301,-0.00002778,0.00000469,-0.00002618,0.000
 00245,0.00002307,0.00001348,-0.00001432,0.00002024,0.00001151,0.000052
 58,0.00002244,-0.00000639,0.00001174,-0.00002823,0.00296985,0.00542327
 ,-0.00191544,0.00892911,0.00061217,0.00664058,0.05849188,-0.05572458,0
 .03481482,-0.00396136,0.00490828,-0.00306789,0.00210348,0.00590221,-0.
 00172500,-0.00021757,-0.00042910,-0.00021038,0.00000292,-0.00000355,-0
 .00000616,-0.00000012,0.00000181,-0.00000050,0.00000225,-0.00000317,-0
 .00000300,0.00000322,0.00000207,0.00000414,0.00002269,-0.00001294,-0.0
 0001521,-0.00166316,-0.00342321,0.00051345,-0.06550804,0.04638935,0.00
 000994,-0.00013201,-0.00013139,0.00091341,-0.00027299,0.00047781,0.000
 20531,-0.00006477,-0.00021684,0.00003951,-0.00003457,0.00007050,-0.000
 00224,0.00002740,0.00001653,0.00000997,0.00000014,0.00000035,-0.000000
 97,0.00002139,0.00001945,0.00000414,0.00004377,-0.00001715,0.00189838,
 -0.00159545,-0.00032853,0.01353336,-0.00400552,0.01175530,-0.13045664,
 0.03480861,-0.15190225,-0.02594800,0.00760560,-0.01263723,0.00134058,-
 0.00191553,-0.00511590,0.00089958,-0.00034597,-0.00078226,0.00000527,-
 0.00000936,-0.00000888,0.00000710,0.00000351,0.00000598,0.00000287,-0.
 00000246,-0.00000219,0.00000651,0.00000102,0.00000344,0.00000483,-0.00
 001663,-0.00001184,-0.00007583,0.00060420,0.00081301,0.13866495,-0.035
 71688,0.15744056,0.00013779,-0.00016167,-0.00008419,-0.00036742,-0.000
 27983,0.00020142,0.00001824,0.00008301,-0.00000416,-0.00001259,-0.0000
 0265,-0.00000883,0.00001875,-0.00000603,0.00001105,0.00000752,0.000016
 12,-0.00001264,-0.00001151,-0.00000755,0.00001255,-0.00002329,-0.00000
 096,0.00000767,0.00050910,-0.00020750,-0.00098794,0.00199428,0.0018607
 8,-0.00082062,0.00439608,0.00014199,-0.00151278,-0.25695245,0.09113315
 ,0.10050604,-0.01521308,0.00897161,0.01178542,-0.00175351,0.00270894,-
 0.00357977,-0.00000038,0.00000242,0.00000472,-0.00000274,0.00000033,0.
 00000163,-0.00000301,-0.00000001,0.00000127,0.00000064,-0.00000296,-0.
 00000230,0.00000296,-0.00002896,0.00000524,0.00010892,-0.00016462,-0.0
 0018170,0.00016120,-0.00145634,0.00029704,0.26735098,0.00024610,-0.000
 37790,-0.00023517,-0.00036849,-0.00096432,0.00023720,0.00003852,0.0001
 8297,-0.00001326,-0.00004085,-0.00004512,-0.00000444,0.00005709,-0.000
 00613,0.00004074,0.00000497,0.00005679,-0.00004427,-0.00005403,-0.0000
 4477,-0.00003352,-0.00000176,-0.00001061,-0.00003052,-0.00037351,0.000
 29153,0.00031602,0.00193973,0.00644120,-0.00124429,0.00359669,0.003910
 61,-0.00087224,0.09120770,-0.08146735,-0.04551106,0.00516247,0.0028389
 6,-0.00367252,0.00282520,0.00596076,0.00018008,0.00000046,0.00000391,0
 .00000665,-0.00000179,0.00000048,0.00000261,-0.00000344,0.00000393,0.0
 0000280,0.00000156,-0.00000691,-0.00000571,-0.00001731,0.00000778,0.00
 001886,-0.00000300,-0.00027643,0.00007931,-0.00149018,-0.00329373,0.00
 046721,-0.10130684,0.07038227,0.00000295,0.00003740,0.00005916,0.00000
 704,0.00014702,-0.00005356,-0.00000871,-0.00005605,0.00001177,0.000010
 90,0.00000665,0.00001087,-0.00000492,0.00000110,-0.00000091,0.00000498
 ,-0.00000502,0.00000389,0.00000842,0.00000014,0.00002289,0.00001508,0.
 00003400,0.00001398,-0.00090683,0.00017595,-0.00098760,-0.00067737,-0.
 00129297,-0.00560660,0.02689395,-0.01158750,-0.00826535,0.10049851,-0.
 04553588,-0.11273992,-0.01663019,0.00703849,0.01228646,-0.00371855,0.0
 0024210,-0.00169304,-0.00000291,-0.00000511,-0.00000239,0.00000202,0.0
 0000061,0.00000147,-0.00000023,-0.00000124,0.00000043,0.00000315,0.000
 00257,0.00000249,0.00000319,-0.00001929,-0.00000335,0.00139086,-0.0005
 1384,-0.00046614,0.00003050,0.00057632,0.00099827,-0.10651534,0.049929
 88,0.11515341,0.00000210,0.00014413,0.00000273,-0.00042948,0.00049245,
 0.00173449,0.00013720,-0.00000307,-0.00009288,0.00001437,0.00006384,-0
 .00007163,-0.00002089,-0.00000421,-0.00002688,-0.00001855,-0.00000876,
 -0.00000998,-0.00002893,-0.00001123,-0.00001919,-0.00001247,-0.0000981
 1,0.00003716,-0.00254965,0.00366313,0.00096430,-0.00124955,0.00023768,
 -0.00007629,-0.00336477,0.00334076,-0.00258828,0.00556126,-0.00401325,
 -0.02647460,-0.05785599,0.00816757,0.01049455,0.00177537,0.00406884,0.
 02787387,0.00000308,0.00002129,0.00000463,-0.00001192,-0.00000077,-0.0
 0000173,-0.00000647,0.00000218,0.00000197,-0.00002481,0.00000612,-0.00
 000195,0.00000885,0.00001861,0.00002602,0.00005808,-0.00039211,0.00003
 649,0.00022707,-0.00022446,-0.00132270,0.00040977,-0.00144588,0.000469
 21,0.05686976,-0.00027894,-0.00001041,0.00024037,0.00076484,0.00017768
 ,-0.00092153,-0.00008721,0.00006459,-0.00004205,0.00000021,-0.00000681
 ,0.00003519,0.00000616,-0.00001078,0.00000520,0.00001222,0.00000220,-0
 .00000006,0.00000080,0.00001516,-0.00000276,0.00000940,0.00002550,-0.0
 0000549,0.00352802,0.00572497,-0.00089126,0.00015405,-0.00054132,0.000
 15599,0.00325124,0.00552588,0.00009538,-0.00028273,0.00484064,0.007588
 59,0.00800890,-0.04676101,-0.04218791,0.00074706,0.00169082,-0.0115990
 5,-0.00000349,-0.00000028,0.00000622,-0.00000172,0.00000186,0.00000506
 ,-0.00000341,0.00000187,0.00000141,0.00000921,0.00000069,0.00000052,0.
 00000516,-0.00000183,-0.00001771,-0.00038982,-0.00089579,0.00009271,-0
 .00004812,0.00006086,0.00039074,-0.00148360,-0.00315315,0.00039753,-0.
 01226160,0.03676324,0.00003073,-0.00012414,-0.00003621,-0.00029747,0.0
 0009426,-0.00017850,-0.00000518,-0.00002442,0.00003422,0.00000072,-0.0
 0003292,0.00003250,0.00000720,0.00000408,0.00001129,0.00000470,-0.0000
 0015,0.00000577,0.00001405,0.00000700,0.00001122,0.00000170,0.00004489
 ,-0.00003591,0.00162126,-0.00134399,0.00102982,-0.00030630,0.00023529,
 0.00062513,-0.00305121,0.00029476,0.00012371,0.00237209,-0.00287460,-0
 .01217496,0.01063746,-0.04215065,-0.34140838,-0.00082046,-0.00110277,-
 0.00772923,-0.00000249,-0.00000910,-0.00000380,0.00000663,0.00000062,0
 .00000030,0.00000256,-0.00000158,-0.00000016,0.00000667,0.00000145,0.0
 0000292,0.00000025,-0.00000167,-0.00001127,0.00007345,0.00009731,-0.00
 005630,0.00026390,-0.00016502,-0.00058891,0.00019586,0.00049419,0.0007
 5560,-0.01095005,0.04597824,0.35884103,0.00012106,-0.00046102,-0.00026
 886,-0.00046954,-0.00048523,0.00038594,-0.00001817,0.00025536,0.001639
 54,0.00011807,-0.00000144,-0.00013298,0.00002256,-0.00000097,0.0000630
 5,-0.00003651,0.00008078,-0.00012887,-0.00047604,-0.00010448,-0.000213
 00,-0.00094982,0.00057946,-0.00017382,0.00511036,-0.00128009,0.0011624
 6,0.00152178,0.00126719,0.00137573,-0.00032068,-0.00003745,0.00101507,
 -0.00206238,0.00374651,0.00284985,-0.01506855,0.00524997,-0.01619320,-
 0.24020537,0.05410561,-0.13190542,0.00002727,0.00001489,-0.00002619,-0
 .00001655,0.00001308,0.00000436,0.00000918,0.00001214,-0.00000340,0.00
 001439,-0.00001869,-0.00001941,-0.00032789,0.00028595,0.00029095,0.000
 48448,0.00036063,0.00024691,-0.00010562,-0.00032083,-0.00005850,-0.000
 78862,-0.00001177,-0.00085684,0.00055357,-0.00166725,0.00017352,0.2528
 2316,0.00048525,-0.00076312,-0.00054574,-0.00138432,-0.00133415,0.0005
 6564,0.00038170,0.00011055,-0.00035263,-0.00035195,-0.00033489,0.00003
 332,0.00012319,-0.00007760,0.00021538,0.00000291,0.00009906,-0.0001164
 4,-0.00015799,-0.00019121,0.00003247,0.00058456,0.00027454,-0.00024116
 ,-0.00486783,0.00297023,-0.00218709,0.00192144,0.00452095,-0.00157539,
 -0.00023535,-0.00070861,-0.00016186,0.00368513,0.00602931,-0.00231896,
 0.00913496,0.00242096,0.00678337,0.05344189,-0.05093074,0.03021717,-0.
 00001138,-0.00001221,0.00003014,-0.00000532,-0.00000406,0.00000705,-0.
 00002261,-0.00001019,0.00000900,0.00000271,0.00001978,0.00000754,0.000
 42000,-0.00048285,-0.00016340,0.00012497,0.00111885,-0.00032746,-0.000
 35933,-0.00090656,0.00016593,0.00024002,-0.00035411,0.00040338,-0.0017
 4043,-0.00363567,0.00058043,-0.06151458,0.04241912,0.00016279,-0.00016
 416,-0.00004557,-0.00233702,0.00098119,-0.00003294,-0.00001460,-0.0000
 2810,0.00029646,0.00030969,0.00037825,-0.00006053,-0.00017174,-0.00002
 412,-0.00018718,-0.00000291,-0.00025267,0.00013813,0.00020844,0.000170
 64,0.00027153,0.00022905,0.00000039,0.00003880,-0.02390570,0.00662196,
 -0.01424536,0.00222112,-0.00218696,-0.00495950,0.00058286,-0.00012119,
 -0.00015710,0.00239012,-0.00205516,-0.00098651,0.01220646,-0.00321651,
 0.01271165,-0.13182229,0.03054057,-0.15178026,-0.00001752,-0.00001787,
 0.00000530,-0.00000426,0.00000047,-0.00000360,-0.00002002,-0.00001491,
 0.00000730,-0.00005707,0.00002989,-0.00000143,0.00001616,-0.00024534,0
 .00013908,-0.00133949,0.00028159,-0.00046944,-0.00003792,0.00017712,0.
 00010551,0.00066529,-0.00015560,0.00050591,0.00005757,0.00066896,0.000
 72314,0.14067176,-0.03122894,0.15799140,-0.01832217,0.05019934,0.08637
 628,-0.00370681,-0.00508869,-0.00240697,0.00026809,-0.00358252,0.00035
 983,-0.00090960,0.00003141,-0.00095005,-0.00018243,-0.00020700,0.00037
 143,-0.00005205,-0.00005637,-0.00006678,-0.00008051,0.00013806,-0.0000
 5688,-0.00046289,-0.00028469,0.00005809,0.00064984,0.00345648,0.000014
 11,0.00022963,0.00009081,0.00057268,-0.00033202,-0.00016538,0.00008585
 ,-0.00007922,0.00006200,-0.00005025,-0.00005887,-0.00018377,0.00007174
 ,-0.00039622,0.00020408,-0.00029911,0.00014280,-0.00004844,0.00000134,
 -0.00010480,-0.00002984,-0.00007826,-0.00000227,-0.00000804,-0.0000169
 8,-0.00005418,-0.00003754,-0.00005848,0.00029497,-0.00009526,-0.000019
 48,0.00002576,0.00028776,-0.00018434,-0.00005143,0.00002865,0.00002213
 ,0.00001237,0.00003835,-0.00001886,-0.00004702,0.00001062,0.00002041,0
 .00003986,0.00010236,0.00000923,0.02317919,0.03734678,-0.13975574,-0.1
 6134125,0.00708509,-0.02241170,-0.02945183,-0.00082740,-0.00233176,0.0
 0172273,-0.00044022,-0.00008761,-0.00026528,0.00004572,-0.00014734,0.0
 0029247,0.00007571,0.00003150,-0.00002455,-0.00000066,-0.00012755,0.00
 001744,0.00072114,0.00047753,0.00009574,0.00171421,-0.00475926,0.00187
 964,-0.00067576,-0.00045227,-0.00025827,0.00053614,0.00021404,-0.00040
 507,0.00013837,-0.00011804,0.00040022,0.00012613,0.00057282,0.00010061
 ,-0.00073578,-0.00053079,0.00047429,-0.00006690,-0.00016593,0.00004515
 ,-0.00000049,0.00001895,-0.00001436,0.00001249,0.00003058,0.00001693,0
 .00007191,0.00006883,0.00006932,-0.00023826,0.00019648,-0.00024325,0.0
 0008461,-0.00017522,0.00011256,0.00002890,0.00008996,-0.00002737,-0.00
 004886,-0.00008064,0.00002375,-0.00002272,0.00012110,-0.00000150,-0.00
 006776,-0.00023737,-0.00013951,-0.04486239,0.16955945,0.08648251,-0.20
 542281,-0.35432426,-0.00264275,0.01363973,0.01043293,0.00013988,0.0015
 4516,-0.00095226,0.00049076,-0.00011481,0.00061479,0.00009908,0.000062
 39,-0.00014974,-0.00002512,-0.00002585,-0.00001664,0.00004147,-0.00004
 089,0.00007773,-0.00018055,0.00020623,-0.00038069,0.00031283,0.0029277
 0,0.00000559,-0.00021916,0.00014438,0.00075599,-0.00013828,-0.00026617
 ,-0.00009469,0.00001209,0.00006080,0.00014716,-0.00027908,-0.00019270,
 0.00011438,-0.00045322,0.00022370,-0.00028394,-0.00008999,0.00000346,0
 .00006095,0.00005676,0.00003095,0.00005200,-0.00000816,0.00000400,0.00
 002270,0.00001524,0.00000974,0.00001235,0.00007176,-0.00016918,0.00008
 890,0.00008921,0.00019373,-0.00003923,-0.00006821,0.00003801,0.0000366
 5,0.00001507,0.00004705,-0.00000774,-0.00006681,0.00000574,0.00002696,
 0.00010135,0.00016827,-0.00000478,-0.08375669,0.18692138,0.34380489\\-
 0.00000079,0.00001046,0.00000418,-0.00000655,0.00000442,-0.00000933,-0
 .00000319,0.00000297,-0.00000189,0.00000299,-0.00000398,0.00000435,0.0
 0000295,0.00000113,0.00000225,0.00000034,0.00000498,-0.00000397,-0.000
 00522,-0.00000431,-0.00000108,0.00000944,0.00000063,0.00000599,0.00001
 842,-0.00000850,0.00002960,-0.00002025,0.00000778,-0.00001131,0.000007
 74,-0.00000288,-0.00001340,0.00000921,-0.00000153,0.00001455,-0.000017
 34,0.00000569,-0.00000115,0.00000464,0.00000057,-0.00001380,-0.0000000
 4,0.00000093,-0.00000122,-0.00000158,0.00000017,-0.00000138,0.00000016
 ,-0.00000163,0.00000166,0.00000096,0.00000093,0.00000044,-0.00000082,0
 .00000053,-0.00000062,0.00000153,-0.00000273,0.00000126,-0.00000198,-0
 .00000043,0.00000236,-0.00000130,0.00000090,-0.00000219,0.00000258,-0.
 00000074,-0.00000003,-0.00000286,-0.00000200,0.00000180,0.00000097,-0.
 00001334,-0.00000705\\\@


 SUCCESS IS COUNTED SWEETEST
 BY THOSE WHO NE'ER SUCCEED.
 TO COMPREHEND NECTAR
 REQUIRES SOREST NEED.
           EMILY DICKINSON
 Job cpu time:       0 days  0 hours 22 minutes 44.3 seconds.
 Elapsed time:       0 days  0 hours  0 minutes 57.5 seconds.
 File lengths (MBytes):  RWF=    174 Int=      0 D2E=      0 Chk=      6 Scr=      1
 Normal termination of Gaussian 16 at Mon Oct 14 01:54:45 2019.
real 199.69
user 4544.84
sys 29.61
Machine:
brown-a528
brown-a528
brown-a528
brown-a528
brown-a528
brown-a528
brown-a528
brown-a528
brown-a528
brown-a528
brown-a528
brown-a528
brown-a528
brown-a528
brown-a528
brown-a528
brown-a528
brown-a528
brown-a528
brown-a528
brown-a528
brown-a528
brown-a528
brown-a528
