Title Card Required                                                     
Freq      RB3LYP                                                      6-31G(d)            
Number of atoms                            I               17
Info1-9                                    I   N=           9
          44          44        1002           0           0         100
           6          18        -502
Full Title                                 C   N=           2
Title Card Required     
Route                                      C   N=           6
#P opt freq b3lyp/6-31g(d) geom=connectivity temperature=0.0
01          
Charge                                     I                0
Multiplicity                               I                1
Number of electrons                        I               74
Number of alpha electrons                  I               37
Number of beta electrons                   I               37
Number of basis functions                  I              155
Number of independent functions            I              155
Number of point charges in /Mol/           I                0
Number of translation vectors              I                0
Atomic numbers                             I   N=          17
           8          16           6           6           6           6
           6           6           6           1           1           1
           1           1           1           1           1
Nuclear charges                            R   N=          17
  8.00000000E+00  1.60000000E+01  6.00000000E+00  6.00000000E+00  6.00000000E+00
  6.00000000E+00  6.00000000E+00  6.00000000E+00  6.00000000E+00  1.00000000E+00
  1.00000000E+00  1.00000000E+00  1.00000000E+00  1.00000000E+00  1.00000000E+00
  1.00000000E+00  1.00000000E+00
Current cartesian coordinates              R   N=          51
  4.15403288E+00  2.45704200E+00 -5.97687196E-01  3.17586767E+00 -2.14117099E-01
 -8.90847670E-01  3.96997119E+00 -1.90864182E+00  2.04077380E+00 -2.33658679E-01
 -1.17132019E-01 -3.58754328E-01 -1.72269684E+00 -2.25313286E+00 -7.85569646E-01
 -4.33064754E+00 -2.09144442E+00 -4.30394323E-01 -5.42590402E+00  1.94622749E-01
  3.12410225E-01 -3.91692399E+00  2.32546685E+00  6.96211018E-01 -1.30467833E+00
  2.17927388E+00  3.52775397E-01  6.02429413E+00 -2.12346749E+00  2.07741751E+00
  3.34542363E+00 -7.79463066E-01  3.65368248E+00  3.05956181E+00 -3.76391791E+00
  2.04554406E+00 -8.68543834E-01 -4.02121138E+00 -1.39513346E+00 -5.50847798E+00
 -3.74325286E+00 -7.48340121E-01 -7.45892861E+00  3.16144193E-01  5.73629612E-01
 -4.77498135E+00  4.10532101E+00  1.25606614E+00 -7.72643052E-02  3.80531086E+00
  6.07481218E-01
Number of symbols in /Mol/                 I                0
Force Field                                I                0
Atom Types                                 C   N=          17
                                                            
                                                            
                                                            
                        
Int Atom Types                             I   N=          17
           0           0           0           0           0           0
           0           0           0           0           0           0
           0           0           0           0           0
MM charges                                 R   N=          17
  0.00000000E+00  0.00000000E+00  0.00000000E+00  0.00000000E+00  0.00000000E+00
  0.00000000E+00  0.00000000E+00  0.00000000E+00  0.00000000E+00  0.00000000E+00
  0.00000000E+00  0.00000000E+00  0.00000000E+00  0.00000000E+00  0.00000000E+00
  0.00000000E+00  0.00000000E+00
Integer atomic weights                     I   N=          17
          16          32          12          12          12          12
          12          12          12           1           1           1
           1           1           1           1           1
Real atomic weights                        R   N=          17
  1.59949146E+01  3.19720718E+01  1.20000000E+01  1.20000000E+01  1.20000000E+01
  1.20000000E+01  1.20000000E+01  1.20000000E+01  1.20000000E+01  1.00782504E+00
  1.00782504E+00  1.00782504E+00  1.00782504E+00  1.00782504E+00  1.00782504E+00
  1.00782504E+00  1.00782504E+00
Atom fragment info                         I   N=          17
           0           0           0           0           0           0
           0           0           0           0           0           0
           0           0           0           0           0
Atom residue num                           I   N=          17
           0           0           0           0           0           0
           0           0           0           0           0           0
           0           0           0           0           0
Nuclear spins                              I   N=          17
           0           0           0           0           0           0
           0           0           0           1           1           1
           1           1           1           1           1
Nuclear ZEff                               R   N=          17
 -5.60000000E+00 -1.36000000E+01 -3.60000000E+00 -3.60000000E+00 -3.60000000E+00
 -3.60000000E+00 -3.60000000E+00 -3.60000000E+00 -3.60000000E+00 -1.00000000E+00
 -1.00000000E+00 -1.00000000E+00 -1.00000000E+00 -1.00000000E+00 -1.00000000E+00
 -1.00000000E+00 -1.00000000E+00
Nuclear ZNuc                               R   N=          17
  8.00000000E+00  1.60000000E+01  6.00000000E+00  6.00000000E+00  6.00000000E+00
  6.00000000E+00  6.00000000E+00  6.00000000E+00  6.00000000E+00  1.00000000E+00
  1.00000000E+00  1.00000000E+00  1.00000000E+00  1.00000000E+00  1.00000000E+00
  1.00000000E+00  1.00000000E+00
Nuclear QMom                               R   N=          17
  0.00000000E+00  0.00000000E+00  0.00000000E+00  0.00000000E+00  0.00000000E+00
  0.00000000E+00  0.00000000E+00  0.00000000E+00  0.00000000E+00  0.00000000E+00
  0.00000000E+00  0.00000000E+00  0.00000000E+00  0.00000000E+00  0.00000000E+00
  0.00000000E+00  0.00000000E+00
Nuclear GFac                               R   N=          17
  0.00000000E+00  0.00000000E+00  0.00000000E+00  0.00000000E+00  0.00000000E+00
  0.00000000E+00  0.00000000E+00  0.00000000E+00  0.00000000E+00  2.79284600E+00
  2.79284600E+00  2.79284600E+00  2.79284600E+00  2.79284600E+00  2.79284600E+00
  2.79284600E+00  2.79284600E+00
MicOpt                                     I   N=          17
          -1          -1          -1          -1          -1          -1
          -1          -1          -1          -1          -1          -1
          -1          -1          -1          -1          -1
Number of residues                         I                0
Number of secondary structures             I                0
Redundant internal dimensions              I   N=           4
          78          17          27          34
Redundant internal coordinate indices      I   N=         312
           1           2           0           0           2           3
           0           0           2           4           0           0
           3          10           0           0           3          11
           0           0           3          12           0           0
           4           5           0           0           4           9
           0           0           5           6           0           0
           5          13           0           0           6           7
           0           0           6          14           0           0
           7           8           0           0           7          15
           0           0           8           9           0           0
           8          16           0           0           9          17
           0           0           1           2           3           0
           1           2           4           0           3           2
           4           0           2           3          10           0
           2           3          11           0           2           3
          12           0          10           3          11           0
          10           3          12           0          11           3
          12           0           2           4           5           0
           2           4           9           0           5           4
           9           0           4           5           6           0
           4           5          13           0           6           5
          13           0           5           6           7           0
           5           6          14           0           7           6
          14           0           6           7           8           0
           6           7          15           0           8           7
          15           0           7           8           9           0
           7           8          16           0           9           8
          16           0           4           9           8           0
           4           9          17           0           8           9
          17           0           1           2           3          10
           1           2           3          11           1           2
           3          12           4           2           3          10
           4           2           3          11           4           2
           3          12           1           2           4           5
           1           2           4           9           3           2
           4           5           3           2           4           9
           2           4           5           6           2           4
           5          13           9           4           5           6
           9           4           5          13           2           4
           9           8           2           4           9          17
           5           4           9           8           5           4
           9          17           4           5           6           7
           4           5           6          14          13           5
           6           7          13           5           6          14
           5           6           7           8           5           6
           7          15          14           6           7           8
          14           6           7          15           6           7
           8           9           6           7           8          16
          15           7           8           9          15           7
           8          16           7           8           9           4
           7           8           9          17          16           8
           9           4          16           8           9          17
Redundant internal coordinates             R   N=          78
  2.85969250E+00  3.47799064E+00  3.45215865E+00  2.06584985E+00  2.06556984E+00
  2.06661978E+00  2.63854231E+00  2.63188862E+00  2.63698682E+00  2.05602700E+00
  2.64148603E+00  2.05349585E+00  2.63909461E+00  2.05333680E+00  2.63877771E+00
  2.05367500E+00  2.05314795E+00  1.86563359E+00  1.87107415E+00  1.68028543E+00
  1.86780873E+00  1.89949083E+00  1.91638561E+00  1.92161900E+00  1.92269116E+00
  1.93452367E+00  2.10562749E+00  2.05793231E+00  2.11814736E+00  2.07910700E+00
  2.10559878E+00  2.09847006E+00  2.09556411E+00  2.09102879E+00  2.09655712E+00
  2.09738846E+00  2.09154346E+00  2.09420739E+00  2.09713467E+00  2.09498148E+00
  2.09106091E+00  2.07873086E+00  2.07291392E+00  2.13150572E+00 -1.20195492E+00
  8.74204683E-01  2.99454751E+00 -3.12431971E+00 -1.04816011E+00  1.07218271E+00
  3.01254506E+00 -7.14300189E-02 -1.35285636E+00  1.84635387E+00 -3.10937146E+00
  2.75550161E-02 -2.74075409E-02  3.10951894E+00  3.10757038E+00 -2.52489314E-02
  2.40309174E-02 -3.10878840E+00  1.38419890E-02 -3.13676674E+00 -3.12310400E+00
  9.47258694E-03  2.52483156E-03  3.13380925E+00 -3.13002297E+00  1.26145637E-03
 -5.94661708E-03  3.13127406E+00 -3.13721523E+00  5.44838703E-06 -7.11792555E-03
  3.12539383E+00  3.13883685E+00 -1.18366986E-02
ZRed-IntVec                                I   N=          78
           0           0           0           0           0           0
           0           0           0           0           0           0
           0           0           0           0           0           0
           0           0           0           0           0           0
           0           0           0           0           0           0
           0           0           0           0           0           0
           0           0           0           0           0           0
           0           0           0           0           0           0
           0           0           0           0           0           0
           0           0           0           0           0           0
           0           0           0           0           0           0
           0           0           0           0           0           0
           0           0           0           0           0           0
ZRed-FPVec                                 R   N=          78
  0.00000000E+00  0.00000000E+00  0.00000000E+00  0.00000000E+00  0.00000000E+00
  0.00000000E+00  0.00000000E+00  0.00000000E+00  0.00000000E+00  0.00000000E+00
  0.00000000E+00  0.00000000E+00  0.00000000E+00  0.00000000E+00  0.00000000E+00
  0.00000000E+00  0.00000000E+00  0.00000000E+00  0.00000000E+00  0.00000000E+00
  0.00000000E+00  0.00000000E+00  0.00000000E+00  0.00000000E+00  0.00000000E+00
  0.00000000E+00  0.00000000E+00  0.00000000E+00  0.00000000E+00  0.00000000E+00
  0.00000000E+00  0.00000000E+00  0.00000000E+00  0.00000000E+00  0.00000000E+00
  0.00000000E+00  0.00000000E+00  0.00000000E+00  0.00000000E+00  0.00000000E+00
  0.00000000E+00  0.00000000E+00  0.00000000E+00  0.00000000E+00  0.00000000E+00
  0.00000000E+00  0.00000000E+00  0.00000000E+00  0.00000000E+00  0.00000000E+00
  0.00000000E+00  0.00000000E+00  0.00000000E+00  0.00000000E+00  0.00000000E+00
  0.00000000E+00  0.00000000E+00  0.00000000E+00  0.00000000E+00  0.00000000E+00
  0.00000000E+00  0.00000000E+00  0.00000000E+00  0.00000000E+00  0.00000000E+00
  0.00000000E+00  0.00000000E+00  0.00000000E+00  0.00000000E+00  0.00000000E+00
  0.00000000E+00  0.00000000E+00  0.00000000E+00  0.00000000E+00  0.00000000E+00
  0.00000000E+00  0.00000000E+00  0.00000000E+00
ZRed-Constraint1                           R   N=          78
  2.85969250E+00  3.47799064E+00  3.45215865E+00  2.06584985E+00  2.06556984E+00
  2.06661978E+00  2.63854231E+00  2.63188862E+00  2.63698682E+00  2.05602700E+00
  2.64148603E+00  2.05349585E+00  2.63909461E+00  2.05333680E+00  2.63877771E+00
  2.05367500E+00  2.05314795E+00  1.86563359E+00  1.87107415E+00  1.68028543E+00
  1.86780873E+00  1.89949083E+00  1.91638561E+00  1.92161900E+00  1.92269116E+00
  1.93452367E+00  2.10562749E+00  2.05793231E+00  2.11814736E+00  2.07910700E+00
  2.10559878E+00  2.09847006E+00  2.09556411E+00  2.09102879E+00  2.09655712E+00
  2.09738846E+00  2.09154346E+00  2.09420739E+00  2.09713467E+00  2.09498148E+00
  2.09106091E+00  2.07873086E+00  2.07291392E+00  2.13150572E+00 -1.20195492E+00
  8.74204683E-01  2.99454751E+00 -3.12431971E+00 -1.04816011E+00  1.07218271E+00
  3.01254506E+00 -7.14300189E-02 -1.35285636E+00  1.84635387E+00 -3.10937146E+00
  2.75550161E-02 -2.74075409E-02  3.10951894E+00  3.10757038E+00 -2.52489314E-02
  2.40309174E-02 -3.10878840E+00  1.38419890E-02 -3.13676674E+00 -3.12310400E+00
  9.47258694E-03  2.52483156E-03  3.13380925E+00 -3.13002297E+00  1.26145637E-03
 -5.94661708E-03  3.13127406E+00 -3.13721523E+00  5.44838703E-06 -7.11792555E-03
  3.12539383E+00  3.13883685E+00 -1.18366986E-02
ZRed-Constraint2                           R   N=          78
  3.03107128E+00  3.45976829E+00  3.34354133E+00  2.05987396E+00  2.05976126E+00
  2.05975267E+00  2.66477776E+00  2.66900335E+00  2.65718612E+00  2.05973297E+00
  2.66027270E+00  2.05981738E+00  2.65963107E+00  2.05976001E+00  2.66217930E+00
  2.05967375E+00  2.05987870E+00  1.82647223E+00  1.85178968E+00  1.86038251E+00
  1.91063433E+00  1.91060218E+00  1.91060634E+00  1.91066489E+00  1.91066884E+00
  1.91062284E+00  2.07100927E+00  2.12681962E+00  2.08535288E+00  2.10020464E+00
  2.09404088E+00  2.08893978E+00  2.09480862E+00  2.09319703E+00  2.09517965E+00
  2.09394036E+00  2.09479685E+00  2.09444809E+00  2.09462822E+00  2.09337379E+00
  2.09518330E+00  2.09743146E+00  2.09515203E+00  2.09060181E+00 -1.36570491E+00
  7.28710613E-01  2.82305749E+00  2.96016440E+00 -1.22860539E+00  8.65741489E-01
  2.20924439E+00 -9.29476830E-01 -2.13416920E+00  1.01029489E+00 -3.13720524E+00
  4.50606608E-03  1.58574452E-03 -3.13988826E+00  3.13948462E+00 -2.20987336E-03
  7.86390064E-04 -3.14090810E+00 -1.92995011E-03  3.13970289E+00  3.13954440E+00
 -2.00806919E-03 -1.07179380E-04  3.14145468E+00  3.14144524E+00 -1.78211010E-04
  2.47315952E-03 -3.13914658E+00 -3.13908870E+00  2.47686769E-03 -2.81479944E-03
  3.13887943E+00  3.13880497E+00 -2.68611333E-03
SymInf integers                            I   N=          26
           1           1           1           1           1           0
           0           0           0           0           0           0
           0           0           0           0           0           0
           0           0           0           0           0           0
           0           0
RotTr to input orientation                 R   N=          12
 -3.35730719E-01 -9.41646537E-01 -2.42215639E-02 -9.34251687E-01  3.29591456E-01
  1.36173628E-01 -1.20244205E-01  6.83467070E-02 -9.90388842E-01 -9.76488915E-01
 -9.05046120E-02 -2.90221797E-01
Number of contracted shells                I               53
Number of primitive shells                 I              137
Pure/Cartesian d shells                    I                1
Pure/Cartesian f shells                    I                0
Highest angular momentum                   I                2
Largest degree of contraction              I                6
Shell types                                I   N=          53
           0          -1          -1           2           0          -1
          -1          -1           2           0          -1          -1
           2           0          -1          -1           2           0
          -1          -1           2           0          -1          -1
           2           0          -1          -1           2           0
          -1          -1           2           0          -1          -1
           2           0           0           0           0           0
           0           0           0           0           0           0
           0           0           0           0           0
Number of primitives per shell             I   N=          53
           6           3           1           1           6           6
           3           1           1           6           3           1
           1           6           3           1           1           6
           3           1           1           6           3           1
           1           6           3           1           1           6
           3           1           1           6           3           1
           1           3           1           3           1           3
           1           3           1           3           1           3
           1           3           1           3           1
Shell to atom map                          I   N=          53
           1           1           1           1           2           2
           2           2           2           3           3           3
           3           4           4           4           4           5
           5           5           5           6           6           6
           6           7           7           7           7           8
           8           8           8           9           9           9
           9          10          10          11          11          12
          12          13          13          14          14          15
          15          16          16          17          17
Primitive exponents                        R   N=         137
  5.48467166E+03  8.25234946E+02  1.88046958E+02  5.29645000E+01  1.68975704E+01
  5.79963534E+00  1.55396162E+01  3.59993359E+00  1.01376175E+00  2.70005823E-01
  8.00000000E-01  2.19171000E+04  3.30149000E+03  7.54146000E+02  2.12711000E+02
  6.79896000E+01  2.30515000E+01  4.23735000E+02  1.00710000E+02  3.21599000E+01
  1.18079000E+01  4.63110000E+00  1.87025000E+00  2.61584000E+00  9.22167000E-01
  3.41287000E-01  1.17167000E-01  6.50000000E-01  3.04752488E+03  4.57369518E+02
  1.03948685E+02  2.92101553E+01  9.28666296E+00  3.16392696E+00  7.86827235E+00
  1.88128854E+00  5.44249258E-01  1.68714478E-01  8.00000000E-01  3.04752488E+03
  4.57369518E+02  1.03948685E+02  2.92101553E+01  9.28666296E+00  3.16392696E+00
  7.86827235E+00  1.88128854E+00  5.44249258E-01  1.68714478E-01  8.00000000E-01
  3.04752488E+03  4.57369518E+02  1.03948685E+02  2.92101553E+01  9.28666296E+00
  3.16392696E+00  7.86827235E+00  1.88128854E+00  5.44249258E-01  1.68714478E-01
  8.00000000E-01  3.04752488E+03  4.57369518E+02  1.03948685E+02  2.92101553E+01
  9.28666296E+00  3.16392696E+00  7.86827235E+00  1.88128854E+00  5.44249258E-01
  1.68714478E-01  8.00000000E-01  3.04752488E+03  4.57369518E+02  1.03948685E+02
  2.92101553E+01  9.28666296E+00  3.16392696E+00  7.86827235E+00  1.88128854E+00
  5.44249258E-01  1.68714478E-01  8.00000000E-01  3.04752488E+03  4.57369518E+02
  1.03948685E+02  2.92101553E+01  9.28666296E+00  3.16392696E+00  7.86827235E+00
  1.88128854E+00  5.44249258E-01  1.68714478E-01  8.00000000E-01  3.04752488E+03
  4.57369518E+02  1.03948685E+02  2.92101553E+01  9.28666296E+00  3.16392696E+00
  7.86827235E+00  1.88128854E+00  5.44249258E-01  1.68714478E-01  8.00000000E-01
  1.87311370E+01  2.82539436E+00  6.40121692E-01  1.61277759E-01  1.87311370E+01
  2.82539436E+00  6.40121692E-01  1.61277759E-01  1.87311370E+01  2.82539436E+00
  6.40121692E-01  1.61277759E-01  1.87311370E+01  2.82539436E+00  6.40121692E-01
  1.61277759E-01  1.87311370E+01  2.82539436E+00  6.40121692E-01  1.61277759E-01
  1.87311370E+01  2.82539436E+00  6.40121692E-01  1.61277759E-01  1.87311370E+01
  2.82539436E+00  6.40121692E-01  1.61277759E-01  1.87311370E+01  2.82539436E+00
  6.40121692E-01  1.61277759E-01
Contraction coefficients                   R   N=         137
  1.83107443E-03  1.39501722E-02  6.84450781E-02  2.32714336E-01  4.70192898E-01
  3.58520853E-01 -1.10777550E-01 -1.48026263E-01  1.13076702E+00  1.00000000E+00
  1.00000000E+00  1.86924085E-03  1.42303065E-02  6.96962317E-02  2.38487108E-01
  4.83307220E-01  3.38074154E-01 -2.37677050E-03 -3.16930067E-02 -1.13317024E-01
  5.60900118E-02  5.92255124E-01  4.55006095E-01 -2.50373114E-01  6.69567631E-02
  1.05450627E+00  1.00000000E+00  1.00000000E+00  1.83473713E-03  1.40373228E-02
  6.88426223E-02  2.32184443E-01  4.67941348E-01  3.62311985E-01 -1.19332420E-01
 -1.60854152E-01  1.14345644E+00  1.00000000E+00  1.00000000E+00  1.83473713E-03
  1.40373228E-02  6.88426223E-02  2.32184443E-01  4.67941348E-01  3.62311985E-01
 -1.19332420E-01 -1.60854152E-01  1.14345644E+00  1.00000000E+00  1.00000000E+00
  1.83473713E-03  1.40373228E-02  6.88426223E-02  2.32184443E-01  4.67941348E-01
  3.62311985E-01 -1.19332420E-01 -1.60854152E-01  1.14345644E+00  1.00000000E+00
  1.00000000E+00  1.83473713E-03  1.40373228E-02  6.88426223E-02  2.32184443E-01
  4.67941348E-01  3.62311985E-01 -1.19332420E-01 -1.60854152E-01  1.14345644E+00
  1.00000000E+00  1.00000000E+00  1.83473713E-03  1.40373228E-02  6.88426223E-02
  2.32184443E-01  4.67941348E-01  3.62311985E-01 -1.19332420E-01 -1.60854152E-01
  1.14345644E+00  1.00000000E+00  1.00000000E+00  1.83473713E-03  1.40373228E-02
  6.88426223E-02  2.32184443E-01  4.67941348E-01  3.62311985E-01 -1.19332420E-01
 -1.60854152E-01  1.14345644E+00  1.00000000E+00  1.00000000E+00  1.83473713E-03
  1.40373228E-02  6.88426223E-02  2.32184443E-01  4.67941348E-01  3.62311985E-01
 -1.19332420E-01 -1.60854152E-01  1.14345644E+00  1.00000000E+00  1.00000000E+00
  3.34946043E-02  2.34726953E-01  8.13757326E-01  1.00000000E+00  3.34946043E-02
  2.34726953E-01  8.13757326E-01  1.00000000E+00  3.34946043E-02  2.34726953E-01
  8.13757326E-01  1.00000000E+00  3.34946043E-02  2.34726953E-01  8.13757326E-01
  1.00000000E+00  3.34946043E-02  2.34726953E-01  8.13757326E-01  1.00000000E+00
  3.34946043E-02  2.34726953E-01  8.13757326E-01  1.00000000E+00  3.34946043E-02
  2.34726953E-01  8.13757326E-01  1.00000000E+00  3.34946043E-02  2.34726953E-01
  8.13757326E-01  1.00000000E+00
P(S=P) Contraction coefficients            R   N=         137
  0.00000000E+00  0.00000000E+00  0.00000000E+00  0.00000000E+00  0.00000000E+00
  0.00000000E+00  7.08742682E-02  3.39752839E-01  7.27158577E-01  1.00000000E+00
  0.00000000E+00  0.00000000E+00  0.00000000E+00  0.00000000E+00  0.00000000E+00
  0.00000000E+00  0.00000000E+00  4.06100998E-03  3.06812999E-02  1.30451999E-01
  3.27204999E-01  4.52850998E-01  2.56041999E-01 -1.45104895E-02  3.10262776E-01
  7.54482456E-01  1.00000000E+00  0.00000000E+00  0.00000000E+00  0.00000000E+00
  0.00000000E+00  0.00000000E+00  0.00000000E+00  0.00000000E+00  6.89990666E-02
  3.16423961E-01  7.44308291E-01  1.00000000E+00  0.00000000E+00  0.00000000E+00
  0.00000000E+00  0.00000000E+00  0.00000000E+00  0.00000000E+00  0.00000000E+00
  6.89990666E-02  3.16423961E-01  7.44308291E-01  1.00000000E+00  0.00000000E+00
  0.00000000E+00  0.00000000E+00  0.00000000E+00  0.00000000E+00  0.00000000E+00
  0.00000000E+00  6.89990666E-02  3.16423961E-01  7.44308291E-01  1.00000000E+00
  0.00000000E+00  0.00000000E+00  0.00000000E+00  0.00000000E+00  0.00000000E+00
  0.00000000E+00  0.00000000E+00  6.89990666E-02  3.16423961E-01  7.44308291E-01
  1.00000000E+00  0.00000000E+00  0.00000000E+00  0.00000000E+00  0.00000000E+00
  0.00000000E+00  0.00000000E+00  0.00000000E+00  6.89990666E-02  3.16423961E-01
  7.44308291E-01  1.00000000E+00  0.00000000E+00  0.00000000E+00  0.00000000E+00
  0.00000000E+00  0.00000000E+00  0.00000000E+00  0.00000000E+00  6.89990666E-02
  3.16423961E-01  7.44308291E-01  1.00000000E+00  0.00000000E+00  0.00000000E+00
  0.00000000E+00  0.00000000E+00  0.00000000E+00  0.00000000E+00  0.00000000E+00
  6.89990666E-02  3.16423961E-01  7.44308291E-01  1.00000000E+00  0.00000000E+00
  0.00000000E+00  0.00000000E+00  0.00000000E+00  0.00000000E+00  0.00000000E+00
  0.00000000E+00  0.00000000E+00  0.00000000E+00  0.00000000E+00  0.00000000E+00
  0.00000000E+00  0.00000000E+00  0.00000000E+00  0.00000000E+00  0.00000000E+00
  0.00000000E+00  0.00000000E+00  0.00000000E+00  0.00000000E+00  0.00000000E+00
  0.00000000E+00  0.00000000E+00  0.00000000E+00  0.00000000E+00  0.00000000E+00
  0.00000000E+00  0.00000000E+00  0.00000000E+00  0.00000000E+00  0.00000000E+00
  0.00000000E+00  0.00000000E+00
Coordinates of each shell                  R   N=         159
  4.15403288E+00  2.45704200E+00 -5.97687196E-01  4.15403288E+00  2.45704200E+00
 -5.97687196E-01  4.15403288E+00  2.45704200E+00 -5.97687196E-01  4.15403288E+00
  2.45704200E+00 -5.97687196E-01  3.17586767E+00 -2.14117099E-01 -8.90847670E-01
  3.17586767E+00 -2.14117099E-01 -8.90847670E-01  3.17586767E+00 -2.14117099E-01
 -8.90847670E-01  3.17586767E+00 -2.14117099E-01 -8.90847670E-01  3.17586767E+00
 -2.14117099E-01 -8.90847670E-01  3.96997119E+00 -1.90864182E+00  2.04077380E+00
  3.96997119E+00 -1.90864182E+00  2.04077380E+00  3.96997119E+00 -1.90864182E+00
  2.04077380E+00  3.96997119E+00 -1.90864182E+00  2.04077380E+00 -2.33658679E-01
 -1.17132019E-01 -3.58754328E-01 -2.33658679E-01 -1.17132019E-01 -3.58754328E-01
 -2.33658679E-01 -1.17132019E-01 -3.58754328E-01 -2.33658679E-01 -1.17132019E-01
 -3.58754328E-01 -1.72269684E+00 -2.25313286E+00 -7.85569646E-01 -1.72269684E+00
 -2.25313286E+00 -7.85569646E-01 -1.72269684E+00 -2.25313286E+00 -7.85569646E-01
 -1.72269684E+00 -2.25313286E+00 -7.85569646E-01 -4.33064754E+00 -2.09144442E+00
 -4.30394323E-01 -4.33064754E+00 -2.09144442E+00 -4.30394323E-01 -4.33064754E+00
 -2.09144442E+00 -4.30394323E-01 -4.33064754E+00 -2.09144442E+00 -4.30394323E-01
 -5.42590402E+00  1.94622749E-01  3.12410225E-01 -5.42590402E+00  1.94622749E-01
  3.12410225E-01 -5.42590402E+00  1.94622749E-01  3.12410225E-01 -5.42590402E+00
  1.94622749E-01  3.12410225E-01 -3.91692399E+00  2.32546685E+00  6.96211018E-01
 -3.91692399E+00  2.32546685E+00  6.96211018E-01 -3.91692399E+00  2.32546685E+00
  6.96211018E-01 -3.91692399E+00  2.32546685E+00  6.96211018E-01 -1.30467833E+00
  2.17927388E+00  3.52775397E-01 -1.30467833E+00  2.17927388E+00  3.52775397E-01
 -1.30467833E+00  2.17927388E+00  3.52775397E-01 -1.30467833E+00  2.17927388E+00
  3.52775397E-01  6.02429413E+00 -2.12346749E+00  2.07741751E+00  6.02429413E+00
 -2.12346749E+00  2.07741751E+00  3.34542363E+00 -7.79463066E-01  3.65368248E+00
  3.34542363E+00 -7.79463066E-01  3.65368248E+00  3.05956181E+00 -3.76391791E+00
  2.04554406E+00  3.05956181E+00 -3.76391791E+00  2.04554406E+00 -8.68543834E-01
 -4.02121138E+00 -1.39513346E+00 -8.68543834E-01 -4.02121138E+00 -1.39513346E+00
 -5.50847798E+00 -3.74325286E+00 -7.48340121E-01 -5.50847798E+00 -3.74325286E+00
 -7.48340121E-01 -7.45892861E+00  3.16144193E-01  5.73629612E-01 -7.45892861E+00
  3.16144193E-01  5.73629612E-01 -4.77498135E+00  4.10532101E+00  1.25606614E+00
 -4.77498135E+00  4.10532101E+00  1.25606614E+00 -7.72643052E-02  3.80531086E+00
  6.07481218E-01 -7.72643052E-02  3.80531086E+00  6.07481218E-01
Num ILSW                                   I              100
ILSW                                       I   N=         100
           0           1           0           0           2           0