 Entering Gaussian System, Link 0=/apps/cent7/gaussian/g16-A.03/g16-haswell/g16/g16
 Initial command:
 /apps/cent7/gaussian/g16-A.03/g16-haswell/g16/l1.exe "/scratch/brown/finej/gaussian/Gau-93900.inp" -scrdir="/scratch/brown/finej/gaussian/"
 Entering Link 1 = /apps/cent7/gaussian/g16-A.03/g16-haswell/g16/l1.exe PID=     93901.
  
 Copyright (c) 1988,1990,1992,1993,1995,1998,2003,2009,2016,
            Gaussian, Inc.  All Rights Reserved.
  
 This is part of the Gaussian(R) 16 program.  It is based on
 the Gaussian(R) 09 system (copyright 2009, Gaussian, Inc.),
 the Gaussian(R) 03 system (copyright 2003, Gaussian, Inc.),
 the Gaussian(R) 98 system (copyright 1998, Gaussian, Inc.),
 the Gaussian(R) 94 system (copyright 1995, Gaussian, Inc.),
 the Gaussian 92(TM) system (copyright 1992, Gaussian, Inc.),
 the Gaussian 90(TM) system (copyright 1990, Gaussian, Inc.),
 the Gaussian 88(TM) system (copyright 1988, Gaussian, Inc.),
 the Gaussian 86(TM) system (copyright 1986, Carnegie Mellon
 University), and the Gaussian 82(TM) system (copyright 1983,
 Carnegie Mellon University). Gaussian is a federally registered
 trademark of Gaussian, Inc.
  
 This software contains proprietary and confidential information,
 including trade secrets, belonging to Gaussian, Inc.
  
 This software is provided under written license and may be
 used, copied, transmitted, or stored only in accord with that
 written license.
  
 The following legend is applicable only to US Government
 contracts under FAR:
  
                    RESTRICTED RIGHTS LEGEND
  
 Use, reproduction and disclosure by the US Government is
 subject to restrictions as set forth in subparagraphs (a)
 and (c) of the Commercial Computer Software - Restricted
 Rights clause in FAR 52.227-19.
  
 Gaussian, Inc.
 340 Quinnipiac St., Bldg. 40, Wallingford CT 06492
  
  
 ---------------------------------------------------------------
 Warning -- This program may not be used in any manner that
 competes with the business of Gaussian, Inc. or will provide
 assistance to any competitor of Gaussian, Inc.  The licensee
 of this program is prohibited from giving any competitor of
 Gaussian, Inc. access to this program.  By using this program,
 the user acknowledges that Gaussian, Inc. is engaged in the
 business of creating and licensing software in the field of
 computational chemistry and represents and warrants to the
 licensee that it is not a competitor of Gaussian, Inc. and that
 it will not use this program in any manner prohibited above.
 ---------------------------------------------------------------
  

 Cite this work as:
 Gaussian 16, Revision A.03,
 M. J. Frisch, G. W. Trucks, H. B. Schlegel, G. E. Scuseria, 
 M. A. Robb, J. R. Cheeseman, G. Scalmani, V. Barone, 
 G. A. Petersson, H. Nakatsuji, X. Li, M. Caricato, A. V. Marenich, 
 J. Bloino, B. G. Janesko, R. Gomperts, B. Mennucci, H. P. Hratchian, 
 J. V. Ortiz, A. F. Izmaylov, J. L. Sonnenberg, D. Williams-Young, 
 F. Ding, F. Lipparini, F. Egidi, J. Goings, B. Peng, A. Petrone, 
 T. Henderson, D. Ranasinghe, V. G. Zakrzewski, J. Gao, N. Rega, 
 G. Zheng, W. Liang, M. Hada, M. Ehara, K. Toyota, R. Fukuda, 
 J. Hasegawa, M. Ishida, T. Nakajima, Y. Honda, O. Kitao, H. Nakai, 
 T. Vreven, K. Throssell, J. A. Montgomery, Jr., J. E. Peralta, 
 F. Ogliaro, M. J. Bearpark, J. J. Heyd, E. N. Brothers, K. N. Kudin, 
 V. N. Staroverov, T. A. Keith, R. Kobayashi, J. Normand, 
 K. Raghavachari, A. P. Rendell, J. C. Burant, S. S. Iyengar, 
 J. Tomasi, M. Cossi, J. M. Millam, M. Klene, C. Adamo, R. Cammi, 
 J. W. Ochterski, R. L. Martin, K. Morokuma, O. Farkas, 
 J. B. Foresman, and D. J. Fox, Gaussian, Inc., Wallingford CT, 2016.
 
 ******************************************
 Gaussian 16:  ES64L-G16RevA.03 25-Dec-2016
                14-Oct-2019 
 ******************************************
 %chk=33.chk
 %nprocshared=24
 Will use up to   24 processors via shared memory.
 %mem=80GB
 --------------------------------------------------------------
 #P opt freq b3lyp/6-31g(d) geom=connectivity temperature=0.001
 --------------------------------------------------------------
 1/18=20,19=15,26=3,38=1,57=2,112=-1000/1,3;
 2/9=110,12=2,17=6,18=5,40=1/2;
 3/5=1,6=6,7=1,11=2,25=1,30=1,71=1,74=-5/1,2,3;
 4//1;
 5/5=2,38=5/2;
 6/7=2,8=2,9=2,10=2,28=1/1;
 7//1,2,3,16;
 1/18=20,19=15,26=3/3(2);
 2/9=110/2;
 99//99;
 2/9=110/2;
 3/5=1,6=6,7=1,11=2,25=1,30=1,71=1,74=-5/1,2,3;
 4/5=5,16=3,69=1/1;
 5/5=2,38=5/2;
 7//1,2,3,16;
 1/18=20,19=15,26=3/3(-5);
 2/9=110/2;
 6/7=2,8=2,9=2,10=2,19=2,28=1/1;
 99/9=1/99;
 Leave Link    1 at Mon Oct 14 01:51:33 2019, MaxMem= 10737418240 cpu:               0.9 elap:               0.0
 (Enter /apps/cent7/gaussian/g16-A.03/g16-haswell/g16/l101.exe)
 -------------------
 Title Card Required
 -------------------
 Symbolic Z-matrix:
 Charge =  0 Multiplicity = 1
 O                    -1.8215   -1.9115    0.9391 
 S                    -0.4547   -1.741     0.1172 
 C                    -0.8543   -2.3237   -1.5718 
 C                    -0.1689    0.0009   -0.0037 
 C                     1.0742    0.5134    0.4212 
 C                     1.3369    1.8927    0.3457 
 C                     0.3577    2.7697   -0.1581 
 C                    -0.8845    2.2654   -0.5864 
 C                    -1.149     0.8839   -0.5082 
 H                    -0.8583   -3.4136   -1.5887 
 H                    -1.8373   -1.9522   -1.8612 
 H                    -0.1052   -1.9522   -2.271 
 H                     1.837    -0.1609    0.8104 
 H                     2.2994    2.282     0.6776 
 H                     0.5613    3.8389   -0.2165 
 H                    -1.6414    2.9446   -0.9785 
 H                    -2.1133    0.4977   -0.8386 
 
 ITRead=  0  0  0  0  0  0  0  0  0  0  0  0  0  0  0  0  0
 MicOpt= -1 -1 -1 -1 -1 -1 -1 -1 -1 -1 -1 -1 -1 -1 -1 -1 -1
 NAtoms=     17 NQM=       17 NQMF=       0 NMMI=      0 NMMIF=      0
                NMic=       0 NMicF=      0.
                    Isotopes and Nuclear Properties:
 (Nuclear quadrupole moments (NQMom) in fm**2, nuclear magnetic moments (NMagM)
  in nuclear magnetons)

  Atom         1           2           3           4           5           6           7           8           9          10
 IAtWgt=          16          32          12          12          12          12          12          12          12           1
 AtmWgt=  15.9949146  31.9720718  12.0000000  12.0000000  12.0000000  12.0000000  12.0000000  12.0000000  12.0000000   1.0078250
 NucSpn=           0           0           0           0           0           0           0           0           0           1
 AtZEff=  -0.0000000  -0.0000000  -0.0000000  -0.0000000  -0.0000000  -0.0000000  -0.0000000  -0.0000000  -0.0000000  -0.0000000
 NQMom=    0.0000000   0.0000000   0.0000000   0.0000000   0.0000000   0.0000000   0.0000000   0.0000000   0.0000000   0.0000000
 NMagM=    0.0000000   0.0000000   0.0000000   0.0000000   0.0000000   0.0000000   0.0000000   0.0000000   0.0000000   2.7928460
 AtZNuc=   8.0000000  16.0000000   6.0000000   6.0000000   6.0000000   6.0000000   6.0000000   6.0000000   6.0000000   1.0000000

  Atom        11          12          13          14          15          16          17
 IAtWgt=           1           1           1           1           1           1           1
 AtmWgt=   1.0078250   1.0078250   1.0078250   1.0078250   1.0078250   1.0078250   1.0078250
 NucSpn=           1           1           1           1           1           1           1
 AtZEff=  -0.0000000  -0.0000000  -0.0000000  -0.0000000  -0.0000000  -0.0000000  -0.0000000
 NQMom=    0.0000000   0.0000000   0.0000000   0.0000000   0.0000000   0.0000000   0.0000000
 NMagM=    2.7928460   2.7928460   2.7928460   2.7928460   2.7928460   2.7928460   2.7928460
 AtZNuc=   1.0000000   1.0000000   1.0000000   1.0000000   1.0000000   1.0000000   1.0000000
 Leave Link  101 at Mon Oct 14 01:51:33 2019, MaxMem= 10737418240 cpu:               8.2 elap:               0.4
 (Enter /apps/cent7/gaussian/g16-A.03/g16-haswell/g16/l103.exe)

 GradGradGradGradGradGradGradGradGradGradGradGradGradGradGradGradGradGrad
 Berny optimization.
 Initialization pass.
                           ----------------------------
                           !    Initial Parameters    !
                           ! (Angstroms and Degrees)  !
 --------------------------                            --------------------------
 ! Name  Definition              Value          Derivative Info.                !
 --------------------------------------------------------------------------------
 ! R1    R(1,2)                  1.604          estimate D2E/DX2                !
 ! R2    R(2,3)                  1.8308         estimate D2E/DX2                !
 ! R3    R(2,4)                  1.7693         estimate D2E/DX2                !
 ! R4    R(3,10)                 1.09           estimate D2E/DX2                !
 ! R5    R(3,11)                 1.09           estimate D2E/DX2                !
 ! R6    R(3,12)                 1.09           estimate D2E/DX2                !
 ! R7    R(4,5)                  1.4101         estimate D2E/DX2                !
 ! R8    R(4,9)                  1.4124         estimate D2E/DX2                !
 ! R9    R(5,6)                  1.4061         estimate D2E/DX2                !
 ! R10   R(5,13)                 1.09           estimate D2E/DX2                !
 ! R11   R(6,7)                  1.4078         estimate D2E/DX2                !
 ! R12   R(6,14)                 1.09           estimate D2E/DX2                !
 ! R13   R(7,8)                  1.4074         estimate D2E/DX2                !
 ! R14   R(7,15)                 1.09           estimate D2E/DX2                !
 ! R15   R(8,9)                  1.4088         estimate D2E/DX2                !
 ! R16   R(8,16)                 1.0899         estimate D2E/DX2                !
 ! R17   R(9,17)                 1.09           estimate D2E/DX2                !
 ! A1    A(1,2,3)              104.6492         estimate D2E/DX2                !
 ! A2    A(1,2,4)              106.0997         estimate D2E/DX2                !
 ! A3    A(3,2,4)              106.5921         estimate D2E/DX2                !
 ! A4    A(2,3,10)             109.4713         estimate D2E/DX2                !
 ! A5    A(2,3,11)             109.4694         estimate D2E/DX2                !
 ! A6    A(2,3,12)             109.4697         estimate D2E/DX2                !
 ! A7    A(10,3,11)            109.473          estimate D2E/DX2                !
 ! A8    A(10,3,12)            109.4733         estimate D2E/DX2                !
 ! A9    A(11,3,12)            109.4706         estimate D2E/DX2                !
 ! A10   A(2,4,5)              118.6601         estimate D2E/DX2                !
 ! A11   A(2,4,9)              121.8578         estimate D2E/DX2                !
 ! A12   A(5,4,9)              119.4819         estimate D2E/DX2                !
 ! A13   A(4,5,6)              120.3329         estimate D2E/DX2                !
 ! A14   A(4,5,13)             119.9797         estimate D2E/DX2                !
 ! A15   A(6,5,13)             119.6874         estimate D2E/DX2                !
 ! A16   A(5,6,7)              120.0237         estimate D2E/DX2                !
 ! A17   A(5,6,14)             119.9314         estimate D2E/DX2                !
 ! A18   A(7,6,14)             120.045          estimate D2E/DX2                !
 ! A19   A(6,7,8)              119.9739         estimate D2E/DX2                !
 ! A20   A(6,7,15)             120.023          estimate D2E/DX2                !
 ! A21   A(8,7,15)             120.003          estimate D2E/DX2                !
 ! A22   A(7,8,9)              120.0134         estimate D2E/DX2                !
 ! A23   A(7,8,16)             119.9415         estimate D2E/DX2                !
 ! A24   A(9,8,16)             120.0452         estimate D2E/DX2                !
 ! A25   A(4,9,8)              120.174          estimate D2E/DX2                !
 ! A26   A(4,9,17)             120.0434         estimate D2E/DX2                !
 ! A27   A(8,9,17)             119.7827         estimate D2E/DX2                !
 ! D1    D(1,2,3,10)           -78.2491         estimate D2E/DX2                !
 ! D2    D(1,2,3,11)            41.752          estimate D2E/DX2                !
 ! D3    D(1,2,3,12)           161.7493         estimate D2E/DX2                !
 ! D4    D(4,2,3,10)           169.6049         estimate D2E/DX2                !
 ! D5    D(4,2,3,11)           -70.3939         estimate D2E/DX2                !
 ! D6    D(4,2,3,12)            49.6033         estimate D2E/DX2                !
 ! D7    D(1,2,4,5)            126.5804         estimate D2E/DX2                !
 ! D8    D(1,2,4,9)            -53.2551         estimate D2E/DX2                !
 ! D9    D(3,2,4,5)           -122.2789         estimate D2E/DX2                !
 ! D10   D(3,2,4,9)             57.8856         estimate D2E/DX2                !
 ! D11   D(2,4,5,6)           -179.7486         estimate D2E/DX2                !
 ! D12   D(2,4,5,13)             0.2582         estimate D2E/DX2                !
 ! D13   D(9,4,5,6)              0.0909         estimate D2E/DX2                !
 ! D14   D(9,4,5,13)          -179.9023         estimate D2E/DX2                !
 ! D15   D(2,4,9,8)            179.8792         estimate D2E/DX2                !
 ! D16   D(2,4,9,17)            -0.1266         estimate D2E/DX2                !
 ! D17   D(5,4,9,8)              0.0451         estimate D2E/DX2                !
 ! D18   D(5,4,9,17)          -179.9608         estimate D2E/DX2                !
 ! D19   D(4,5,6,7)             -0.1106         estimate D2E/DX2                !
 ! D20   D(4,5,6,14)           179.8917         estimate D2E/DX2                !
 ! D21   D(13,5,6,7)           179.8826         estimate D2E/DX2                !
 ! D22   D(13,5,6,14)           -0.1151         estimate D2E/DX2                !
 ! D23   D(5,6,7,8)             -0.0061         estimate D2E/DX2                !
 ! D24   D(5,6,7,15)           179.9921         estimate D2E/DX2                !
 ! D25   D(14,6,7,8)           179.9916         estimate D2E/DX2                !
 ! D26   D(14,6,7,15)           -0.0102         estimate D2E/DX2                !
 ! D27   D(6,7,8,9)              0.1417         estimate D2E/DX2                !
 ! D28   D(6,7,8,16)          -179.8599         estimate D2E/DX2                !
 ! D29   D(15,7,8,9)          -179.8565         estimate D2E/DX2                !
 ! D30   D(15,7,8,16)            0.1419         estimate D2E/DX2                !
 ! D31   D(7,8,9,4)             -0.1613         estimate D2E/DX2                !
 ! D32   D(7,8,9,17)           179.8445         estimate D2E/DX2                !
 ! D33   D(16,8,9,4)           179.8403         estimate D2E/DX2                !
 ! D34   D(16,8,9,17)           -0.1539         estimate D2E/DX2                !
 --------------------------------------------------------------------------------
 Trust Radius=3.00D-01 FncErr=1.00D-07 GrdErr=1.00D-06 EigMax=2.50D+02 EigMin=1.00D-04
 Number of steps in this run=     88 maximum allowed number of steps=    102.
 GradGradGradGradGradGradGradGradGradGradGradGradGradGradGradGradGradGrad

 Leave Link  103 at Mon Oct 14 01:51:33 2019, MaxMem= 10737418240 cpu:               1.0 elap:               0.1
 (Enter /apps/cent7/gaussian/g16-A.03/g16-haswell/g16/l202.exe)
                          Input orientation:                          
 ---------------------------------------------------------------------
 Center     Atomic      Atomic             Coordinates (Angstroms)
 Number     Number       Type             X           Y           Z
 ---------------------------------------------------------------------
      1          8           0       -1.821500   -1.911500    0.939100
      2         16           0       -0.454700   -1.741000    0.117200
      3          6           0       -0.854300   -2.323700   -1.571800
      4          6           0       -0.168900    0.000900   -0.003700
      5          6           0        1.074200    0.513400    0.421200
      6          6           0        1.336900    1.892700    0.345700
      7          6           0        0.357700    2.769700   -0.158100
      8          6           0       -0.884500    2.265400   -0.586400
      9          6           0       -1.149000    0.883900   -0.508200
     10          1           0       -0.858300   -3.413600   -1.588700
     11          1           0       -1.837300   -1.952200   -1.861200
     12          1           0       -0.105200   -1.952200   -2.271000
     13          1           0        1.837000   -0.160900    0.810400
     14          1           0        2.299400    2.282000    0.677600
     15          1           0        0.561300    3.838900   -0.216500
     16          1           0       -1.641400    2.944600   -0.978500
     17          1           0       -2.113300    0.497700   -0.838600
 ---------------------------------------------------------------------
                    Distance matrix (angstroms):
                    1          2          3          4          5
     1  O    0.000000
     2  S    1.603974   0.000000
     3  C    2.722132   1.830831   0.000000
     4  C    2.697635   1.769326   2.886603   0.000000
     5  C    3.812275   2.740852   3.967404   1.410140   0.000000
     6  C    4.979915   4.057810   5.124080   2.443035   1.406122
     7  C    5.278863   4.591536   5.423119   2.822658   2.437181
     8  C    4.544405   4.090357   4.693801   2.445319   2.814475
     9  C    3.218881   2.786266   3.392166   1.412376   2.437965
    10  H    3.094161   2.422928   1.090038   3.827049   4.816179
    11  H    2.800640   2.422861   1.089979   3.169931   4.445826
    12  H    3.640341   2.422861   1.089974   2.993210   3.836419
    13  H    4.057806   2.868646   4.194720   2.170846   1.089964
    14  H    5.885205   4.907509   6.018147   3.429299   2.166749
    15  H    6.330896   5.681452   6.466715   3.912636   3.424716
    16  H    5.224111   4.956174   5.359712   3.432763   3.904405
    17  H    3.008257   2.945553   3.175368   2.173605   3.427462
                    6          7          8          9         10
     6  C    0.000000
     7  C    1.407756   0.000000
     8  C    2.437690   1.407416   0.000000
     9  C    2.815408   2.439048   1.408765   0.000000
    10  H    6.059507   6.462079   5.766830   4.440776   0.000000
    11  H    5.452450   5.478587   4.507892   3.216804   1.779996
    12  H    4.869294   5.193743   4.607964   3.498635   1.779995
    13  H    2.164098   3.422680   3.904426   3.427318   4.858022
    14  H    1.090008   2.169434   3.425666   3.905415   6.895436
    15  H    2.169175   1.089978   2.168655   3.426695   7.516446
    16  H    3.424948   2.167959   1.089932   2.170282   6.435239
    17  H    3.905441   3.425041   2.167560   1.090041   4.175637
                   11         12         13         14         15
    11  H    0.000000
    12  H    1.779918   0.000000
    13  H    4.883307   4.059054   0.000000
    14  H    6.440981   5.692521   2.489821   0.000000
    15  H    6.480367   6.180779   4.322075   2.498869   0.000000
    16  H    4.979577   5.292364   4.994353   4.325692   2.496458
    17  H    2.669063   3.476528   4.331030   4.995449   4.324825
                   16         17
    16  H    0.000000
    17  H    2.495913   0.000000
 Stoichiometry    C7H8OS
 Framework group  C1[X(C7H8OS)]
 Deg. of freedom    45
 Full point group                 C1      NOp   1
 Largest Abelian subgroup         C1      NOp   1
 Largest concise Abelian subgroup C1      NOp   1
                         Standard orientation:                         
 ---------------------------------------------------------------------
 Center     Atomic      Atomic             Coordinates (Angstroms)
 Number     Number       Type             X           Y           Z
 ---------------------------------------------------------------------
      1          8           0        2.157760    0.246715   -1.413136
      2         16           0        1.616441   -0.496423   -0.098811
      3          6           0        2.362512    0.426451    1.295327
      4          6           0       -0.123733   -0.182193   -0.039069
      5          6           0       -1.005285   -1.277167    0.072248
      6          6           0       -2.395063   -1.068206    0.117333
      7          6           0       -2.913223    0.239170    0.053652
      8          6           0       -2.039610    1.337261   -0.055047
      9          6           0       -0.647305    1.127988   -0.103113
     10          1           0        3.402337    0.122890    1.416974
     11          1           0        2.317957    1.495691    1.088460
     12          1           0        1.811404    0.210186    2.210507
     13          1           0       -0.609963   -2.291600    0.123890
     14          1           0       -3.070590   -1.919481    0.201666
     15          1           0       -3.990539    0.401128    0.088471
     16          1           0       -2.441261    2.349399   -0.102008
     17          1           0        0.025752    1.981015   -0.189881
 ---------------------------------------------------------------------
 Rotational constants (GHZ):           3.0868543           0.8771903           0.8170411
 Leave Link  202 at Mon Oct 14 01:51:33 2019, MaxMem= 10737418240 cpu:               1.2 elap:               0.1
 (Enter /apps/cent7/gaussian/g16-A.03/g16-haswell/g16/l301.exe)
 Standard basis: 6-31G(d) (6D, 7F)
 Ernie: Thresh=  0.10000D-02 Tol=  0.10000D-05 Strict=F.
 There are   155 symmetry adapted cartesian basis functions of A   symmetry.
 There are   155 symmetry adapted basis functions of A   symmetry.
   155 basis functions,   308 primitive gaussians,   155 cartesian basis functions
    37 alpha electrons       37 beta electrons
       nuclear repulsion energy       498.5308925431 Hartrees.
 IExCor=  402 DFT=T Ex+Corr=B3LYP ExCW=0 ScaHFX=  0.200000
 ScaDFX=  0.800000  0.720000  1.000000  0.810000 ScalE2=  1.000000  1.000000
 IRadAn=      5 IRanWt=     -1 IRanGd=            0 ICorTp=0 IEmpDi=  4
 NAtoms=   17 NActive=   17 NUniq=   17 SFac= 1.00D+00 NAtFMM=   60 NAOKFM=F Big=F
 Integral buffers will be    131072 words long.
 Raffenetti 2 integral format.
 Two-electron integral symmetry is turned on.
 Leave Link  301 at Mon Oct 14 01:51:33 2019, MaxMem= 10737418240 cpu:               1.3 elap:               0.1
 (Enter /apps/cent7/gaussian/g16-A.03/g16-haswell/g16/l302.exe)
 NPDir=0 NMtPBC=     1 NCelOv=     1 NCel=       1 NClECP=     1 NCelD=      1
         NCelK=      1 NCelE2=     1 NClLst=     1 CellRange=     0.0.
 One-electron integrals computed using PRISM.
 One-electron integral symmetry used in STVInt
 NBasis=   155 RedAO= T EigKep=  5.47D-04  NBF=   155
 NBsUse=   155 1.00D-06 EigRej= -1.00D+00 NBFU=   155
 Precomputing XC quadrature grid using
 IXCGrd= 4 IRadAn=           5 IRanWt=          -1 IRanGd=           0 AccXCQ= 0.00D+00.
 Generated NRdTot=       0 NPtTot=           0 NUsed=           0 NTot=          32
 NSgBfM=   155   155   155   155   155 MxSgAt=    17 MxSgA2=    17.
 Leave Link  302 at Mon Oct 14 01:51:34 2019, MaxMem= 10737418240 cpu:               3.3 elap:               0.2
 (Enter /apps/cent7/gaussian/g16-A.03/g16-haswell/g16/l303.exe)
 DipDrv:  MaxL=1.
 Leave Link  303 at Mon Oct 14 01:51:34 2019, MaxMem= 10737418240 cpu:               1.1 elap:               0.1
 (Enter /apps/cent7/gaussian/g16-A.03/g16-haswell/g16/l401.exe)
 ExpMin= 1.17D-01 ExpMax= 2.19D+04 ExpMxC= 3.30D+03 IAcc=3 IRadAn=         5 AccDes= 0.00D+00
 Harris functional with IExCor=  402 and IRadAn=       5 diagonalized for initial guess.
 HarFok:  IExCor=  402 AccDes= 0.00D+00 IRadAn=         5 IDoV= 1 UseB2=F ITyADJ=14
 ICtDFT=  3500011 ScaDFX=  1.000000  1.000000  1.000000  1.000000
 FoFCou: FMM=F IPFlag=           0 FMFlag=      100000 FMFlg1=           0
         NFxFlg=           0 DoJE=T BraDBF=F KetDBF=T FulRan=T
         wScrn=  0.000000 ICntrl=       500 IOpCl=  0 I1Cent=   200000004 NGrid=           0
         NMat0=    1 NMatS0=      1 NMatT0=    0 NMatD0=    1 NMtDS0=    0 NMtDT0=    0
 Petite list used in FoFCou.
 Harris En= -744.947727795871    
 JPrj=0 DoOrth=F DoCkMO=F.
 Leave Link  401 at Mon Oct 14 01:51:34 2019, MaxMem= 10737418240 cpu:               6.6 elap:               0.3
 (Enter /apps/cent7/gaussian/g16-A.03/g16-haswell/g16/l502.exe)
 Integral symmetry usage will be decided dynamically.
 Closed shell SCF:
 Using DIIS extrapolation, IDIIS=  1040.
 NGot= 10737418240 LenX= 10737364633 LenY= 10737340167
 Requested convergence on RMS density matrix=1.00D-08 within 128 cycles.
 Requested convergence on MAX density matrix=1.00D-06.
 Requested convergence on             energy=1.00D-06.
 No special actions if energy rises.
 Fock matrices will be formed incrementally for  20 cycles.
 Integral accuracy reduced to 1.0D-05 until final iterations.

 Cycle   1  Pass 0  IDiag  1:
 FoFJK:  IHMeth= 1 ICntrl=       0 DoSepK=F KAlg= 0 I1Cent=           0 FoldK=F
 IRaf= 940000000 NMat=       1 IRICut=       1 DoRegI=T DoRafI=F ISym2E= 0 IDoP0=0 IntGTp=1.
 FoFCou: FMM=F IPFlag=           0 FMFlag=      100000 FMFlg1=           0
         NFxFlg=           0 DoJE=F BraDBF=F KetDBF=F FulRan=T
         wScrn=  0.000000 ICntrl=         0 IOpCl=  0 I1Cent=           0 NGrid=           0
         NMat0=    1 NMatS0=      1 NMatT0=    0 NMatD0=    1 NMtDS0=    0 NMtDT0=    0
 Symmetry not used in FoFCou.
 E= -744.556087100799    
 DIIS: error= 4.06D-02 at cycle   1 NSaved=   1.
 NSaved= 1 IEnMin= 1 EnMin= -744.556087100799     IErMin= 1 ErrMin= 4.06D-02
 ErrMax= 4.06D-02  0.00D+00 EMaxC= 1.00D-01 BMatC= 3.73D-01 BMatP= 3.73D-01
 IDIUse=3 WtCom= 5.94D-01 WtEn= 4.06D-01
 Coeff-Com:  0.100D+01
 Coeff-En:   0.100D+01
 Coeff:      0.100D+01
 Gap=     0.242 Goal=   None    Shift=    0.000
 GapD=    0.242 DampG=1.000 DampE=0.500 DampFc=0.5000 IDamp=-1.
 Damping current iteration by 5.00D-01
 RMSDP=1.98D-02 MaxDP=6.06D-01              OVMax= 4.78D-01

 Cycle   2  Pass 0  IDiag  1:
 RMSU=  9.90D-03    CP:  1.01D+00
 E= -744.454812511153     Delta-E=        0.101274589646 Rises=F Damp=T
 DIIS: error= 2.66D-02 at cycle   2 NSaved=   2.
 NSaved= 2 IEnMin= 1 EnMin= -744.556087100799     IErMin= 2 ErrMin= 2.66D-02
 ErrMax= 2.66D-02  0.00D+00 EMaxC= 1.00D-01 BMatC= 1.82D-01 BMatP= 3.73D-01
 IDIUse=3 WtCom= 7.34D-01 WtEn= 2.66D-01
 Coeff-Com:  0.386D+00 0.614D+00
 Coeff-En:   0.589D+00 0.411D+00
 Coeff:      0.440D+00 0.560D+00
 Gap=     0.168 Goal=   None    Shift=    0.000
 RMSDP=8.87D-03 MaxDP=3.00D-01 DE= 1.01D-01 OVMax= 3.98D-01

 Cycle   3  Pass 0  IDiag  1:
 RMSU=  4.21D-03    CP:  9.80D-01  2.15D-01
 E= -744.797646961531     Delta-E=       -0.342834450378 Rises=F Damp=F
 DIIS: error= 1.97D-02 at cycle   3 NSaved=   3.
 NSaved= 3 IEnMin= 3 EnMin= -744.797646961531     IErMin= 3 ErrMin= 1.97D-02
 ErrMax= 1.97D-02  0.00D+00 EMaxC= 1.00D-01 BMatC= 1.07D-01 BMatP= 1.82D-01
 IDIUse=3 WtCom= 8.03D-01 WtEn= 1.97D-01
 EnCoef did     1 forward-backward iterations
 Coeff-Com:  0.180D+00 0.397D+00 0.423D+00
 Coeff-En:   0.379D-01 0.268D-01 0.935D+00
 Coeff:      0.152D+00 0.324D+00 0.524D+00
 Gap=     0.240 Goal=   None    Shift=    0.000
 RMSDP=3.84D-03 MaxDP=8.29D-02 DE=-3.43D-01 OVMax= 1.18D-01

 Cycle   4  Pass 0  IDiag  1:
 RMSU=  2.05D-03    CP:  9.96D-01  4.24D-01  4.18D-01
 E= -744.894205334417     Delta-E=       -0.096558372886 Rises=F Damp=F
 DIIS: error= 6.73D-03 at cycle   4 NSaved=   4.
 NSaved= 4 IEnMin= 4 EnMin= -744.894205334417     IErMin= 4 ErrMin= 6.73D-03
 ErrMax= 6.73D-03  0.00D+00 EMaxC= 1.00D-01 BMatC= 1.47D-02 BMatP= 1.07D-01
 IDIUse=3 WtCom= 9.33D-01 WtEn= 6.73D-02
 Coeff-Com:  0.243D-01 0.347D-01 0.271D+00 0.670D+00
 Coeff-En:   0.000D+00 0.000D+00 0.116D+00 0.884D+00
 Coeff:      0.227D-01 0.324D-01 0.260D+00 0.685D+00
 Gap=     0.169 Goal=   None    Shift=    0.000
 RMSDP=1.20D-03 MaxDP=3.37D-02 DE=-9.66D-02 OVMax= 3.88D-02

 Cycle   5  Pass 0  IDiag  1:
 RMSU=  4.38D-04    CP:  9.93D-01  3.57D-01  5.83D-01  7.25D-01
 E= -744.907430410022     Delta-E=       -0.013225075604 Rises=F Damp=F
 DIIS: error= 8.53D-04 at cycle   5 NSaved=   5.
 NSaved= 5 IEnMin= 5 EnMin= -744.907430410022     IErMin= 5 ErrMin= 8.53D-04
 ErrMax= 8.53D-04  0.00D+00 EMaxC= 1.00D-01 BMatC= 3.36D-04 BMatP= 1.47D-02
 IDIUse=3 WtCom= 9.91D-01 WtEn= 8.53D-03
 Coeff-Com: -0.299D-06-0.578D-02 0.665D-01 0.255D+00 0.684D+00
 Coeff-En:   0.000D+00 0.000D+00 0.000D+00 0.000D+00 0.100D+01
 Coeff:     -0.297D-06-0.573D-02 0.659D-01 0.253D+00 0.687D+00
 Gap=     0.166 Goal=   None    Shift=    0.000
 RMSDP=2.10D-04 MaxDP=7.52D-03 DE=-1.32D-02 OVMax= 7.87D-03

 Cycle   6  Pass 0  IDiag  1:
 RMSU=  1.18D-04    CP:  9.92D-01  3.64D-01  5.73D-01  7.68D-01  7.10D-01
 E= -744.907706592770     Delta-E=       -0.000276182748 Rises=F Damp=F
 DIIS: error= 6.93D-04 at cycle   6 NSaved=   6.
 NSaved= 6 IEnMin= 6 EnMin= -744.907706592770     IErMin= 6 ErrMin= 6.93D-04
 ErrMax= 6.93D-04  0.00D+00 EMaxC= 1.00D-01 BMatC= 6.47D-05 BMatP= 3.36D-04
 IDIUse=3 WtCom= 9.93D-01 WtEn= 6.93D-03
 Coeff-Com: -0.302D-03-0.612D-02 0.199D-01 0.898D-01 0.372D+00 0.525D+00
 Coeff-En:   0.000D+00 0.000D+00 0.000D+00 0.000D+00 0.124D+00 0.876D+00
 Coeff:     -0.300D-03-0.607D-02 0.197D-01 0.892D-01 0.370D+00 0.528D+00
 Gap=     0.166 Goal=   None    Shift=    0.000
 RMSDP=6.66D-05 MaxDP=1.55D-03 DE=-2.76D-04 OVMax= 4.67D-03

 Cycle   7  Pass 0  IDiag  1:
 RMSU=  4.49D-05    CP:  9.92D-01  3.62D-01  5.75D-01  7.65D-01  7.46D-01
                    CP:  6.79D-01
 E= -744.907768570552     Delta-E=       -0.000061977782 Rises=F Damp=F
 DIIS: error= 2.35D-04 at cycle   7 NSaved=   7.
 NSaved= 7 IEnMin= 7 EnMin= -744.907768570552     IErMin= 7 ErrMin= 2.35D-04
 ErrMax= 2.35D-04  0.00D+00 EMaxC= 1.00D-01 BMatC= 8.01D-06 BMatP= 6.47D-05
 IDIUse=3 WtCom= 9.98D-01 WtEn= 2.35D-03
 Coeff-Com:  0.404D-03-0.300D-02 0.390D-02 0.181D-01 0.126D+00 0.303D+00
 Coeff-Com:  0.552D+00
 Coeff-En:   0.000D+00 0.000D+00 0.000D+00 0.000D+00 0.000D+00 0.337D-01
 Coeff-En:   0.966D+00
 Coeff:      0.403D-03-0.299D-02 0.389D-02 0.180D-01 0.125D+00 0.302D+00
 Coeff:      0.553D+00
 Gap=     0.167 Goal=   None    Shift=    0.000
 RMSDP=3.10D-05 MaxDP=7.08D-04 DE=-6.20D-05 OVMax= 1.36D-03

 Cycle   8  Pass 0  IDiag  1:
 RMSU=  1.87D-05    CP:  9.92D-01  3.60D-01  5.76D-01  7.62D-01  7.58D-01
                    CP:  7.08D-01  6.00D-01
 E= -744.907776659617     Delta-E=       -0.000008089065 Rises=F Damp=F
 DIIS: error= 6.85D-05 at cycle   8 NSaved=   8.
 NSaved= 8 IEnMin= 8 EnMin= -744.907776659617     IErMin= 8 ErrMin= 6.85D-05
 ErrMax= 6.85D-05  0.00D+00 EMaxC= 1.00D-01 BMatC= 9.63D-07 BMatP= 8.01D-06
 IDIUse=1 WtCom= 1.00D+00 WtEn= 0.00D+00
 Coeff-Com:  0.398D-03-0.136D-02 0.442D-03 0.130D-02 0.331D-01 0.116D+00
 Coeff-Com:  0.319D+00 0.531D+00
 Coeff:      0.398D-03-0.136D-02 0.442D-03 0.130D-02 0.331D-01 0.116D+00
 Coeff:      0.319D+00 0.531D+00
 Gap=     0.167 Goal=   None    Shift=    0.000
 RMSDP=8.41D-06 MaxDP=2.45D-04 DE=-8.09D-06 OVMax= 4.45D-04

 Initial convergence to 1.0D-05 achieved.  Increase integral accuracy.
 Cycle   9  Pass 1  IDiag  1:
 E= -744.907784164032     Delta-E=       -0.000007504414 Rises=F Damp=F
 DIIS: error= 1.36D-05 at cycle   1 NSaved=   1.
 NSaved= 1 IEnMin= 1 EnMin= -744.907784164032     IErMin= 1 ErrMin= 1.36D-05
 ErrMax= 1.36D-05  0.00D+00 EMaxC= 1.00D-01 BMatC= 9.51D-08 BMatP= 9.51D-08
 IDIUse=1 WtCom= 1.00D+00 WtEn= 0.00D+00
 Coeff-Com:  0.100D+01
 Coeff:      0.100D+01
 Gap=     0.167 Goal=   None    Shift=    0.000
 RMSDP=8.41D-06 MaxDP=2.45D-04 DE=-7.50D-06 OVMax= 2.03D-04

 Cycle  10  Pass 1  IDiag  1:
 RMSU=  6.95D-06    CP:  1.00D+00
 E= -744.907784023365     Delta-E=        0.000000140667 Rises=F Damp=F
 DIIS: error= 2.29D-05 at cycle   2 NSaved=   2.
 NSaved= 2 IEnMin= 1 EnMin= -744.907784164032     IErMin= 1 ErrMin= 1.36D-05
 ErrMax= 2.29D-05  0.00D+00 EMaxC= 1.00D-01 BMatC= 2.53D-07 BMatP= 9.51D-08
 IDIUse=1 WtCom= 1.00D+00 WtEn= 0.00D+00
 Coeff-Com:  0.628D+00 0.372D+00
 Coeff:      0.628D+00 0.372D+00
 Gap=     0.167 Goal=   None    Shift=    0.000
 RMSDP=4.24D-06 MaxDP=1.02D-04 DE= 1.41D-07 OVMax= 1.47D-04

 Cycle  11  Pass 1  IDiag  1:
 RMSU=  2.50D-06    CP:  1.00D+00  5.16D-01
 E= -744.907784250266     Delta-E=       -0.000000226901 Rises=F Damp=F
 DIIS: error= 7.73D-06 at cycle   3 NSaved=   3.
 NSaved= 3 IEnMin= 3 EnMin= -744.907784250266     IErMin= 3 ErrMin= 7.73D-06
 ErrMax= 7.73D-06  0.00D+00 EMaxC= 1.00D-01 BMatC= 9.03D-09 BMatP= 9.51D-08
 IDIUse=1 WtCom= 1.00D+00 WtEn= 0.00D+00
 Coeff-Com:  0.269D+00 0.200D+00 0.530D+00
 Coeff:      0.269D+00 0.200D+00 0.530D+00
 Gap=     0.167 Goal=   None    Shift=    0.000
 RMSDP=1.30D-06 MaxDP=3.32D-05 DE=-2.27D-07 OVMax= 4.27D-05

 Cycle  12  Pass 1  IDiag  1:
 RMSU=  9.64D-07    CP:  1.00D+00  6.03D-01  7.61D-01
 E= -744.907784255865     Delta-E=       -0.000000005599 Rises=F Damp=F
 DIIS: error= 3.28D-06 at cycle   4 NSaved=   4.
 NSaved= 4 IEnMin= 4 EnMin= -744.907784255865     IErMin= 4 ErrMin= 3.28D-06
 ErrMax= 3.28D-06  0.00D+00 EMaxC= 1.00D-01 BMatC= 2.54D-09 BMatP= 9.03D-09
 IDIUse=1 WtCom= 1.00D+00 WtEn= 0.00D+00
 Coeff-Com:  0.307D-01 0.424D-01 0.363D+00 0.564D+00
 Coeff:      0.307D-01 0.424D-01 0.363D+00 0.564D+00
 Gap=     0.167 Goal=   None    Shift=    0.000
 RMSDP=4.78D-07 MaxDP=1.42D-05 DE=-5.60D-09 OVMax= 1.44D-05

 Cycle  13  Pass 1  IDiag  1:
 RMSU=  2.55D-07    CP:  1.00D+00  5.84D-01  8.22D-01  6.47D-01
 E= -744.907784257795     Delta-E=       -0.000000001930 Rises=F Damp=F
 DIIS: error= 1.27D-06 at cycle   5 NSaved=   5.
 NSaved= 5 IEnMin= 5 EnMin= -744.907784257795     IErMin= 5 ErrMin= 1.27D-06
 ErrMax= 1.27D-06  0.00D+00 EMaxC= 1.00D-01 BMatC= 2.65D-10 BMatP= 2.54D-09
 IDIUse=1 WtCom= 1.00D+00 WtEn= 0.00D+00
 Coeff-Com: -0.161D-02 0.105D-01 0.185D+00 0.359D+00 0.447D+00
 Coeff:     -0.161D-02 0.105D-01 0.185D+00 0.359D+00 0.447D+00
 Gap=     0.167 Goal=   None    Shift=    0.000
 RMSDP=1.52D-07 MaxDP=4.98D-06 DE=-1.93D-09 OVMax= 7.38D-06

 Cycle  14  Pass 1  IDiag  1:
 RMSU=  7.72D-08    CP:  1.00D+00  5.87D-01  8.28D-01  6.79D-01  5.15D-01
 E= -744.907784258082     Delta-E=       -0.000000000287 Rises=F Damp=F
 DIIS: error= 4.18D-07 at cycle   6 NSaved=   6.
 NSaved= 6 IEnMin= 6 EnMin= -744.907784258082     IErMin= 6 ErrMin= 4.18D-07
 ErrMax= 4.18D-07  0.00D+00 EMaxC= 1.00D-01 BMatC= 1.92D-11 BMatP= 2.65D-10
 IDIUse=1 WtCom= 1.00D+00 WtEn= 0.00D+00
 Coeff-Com: -0.401D-02 0.263D-02 0.830D-01 0.173D+00 0.272D+00 0.474D+00
 Coeff:     -0.401D-02 0.263D-02 0.830D-01 0.173D+00 0.272D+00 0.474D+00
 Gap=     0.167 Goal=   None    Shift=    0.000
 RMSDP=3.36D-08 MaxDP=7.52D-07 DE=-2.87D-10 OVMax= 2.28D-06

 Cycle  15  Pass 1  IDiag  1:
 RMSU=  2.71D-08    CP:  1.00D+00  5.88D-01  8.28D-01  6.77D-01  5.40D-01
                    CP:  7.63D-01
 E= -744.907784258105     Delta-E=       -0.000000000023 Rises=F Damp=F
 DIIS: error= 4.68D-08 at cycle   7 NSaved=   7.
 NSaved= 7 IEnMin= 7 EnMin= -744.907784258105     IErMin= 7 ErrMin= 4.68D-08
 ErrMax= 4.68D-08  0.00D+00 EMaxC= 1.00D-01 BMatC= 6.06D-13 BMatP= 1.92D-11
 IDIUse=1 WtCom= 1.00D+00 WtEn= 0.00D+00
 Coeff-Com: -0.120D-02-0.237D-03 0.103D-01 0.222D-01 0.506D-01 0.171D+00
 Coeff-Com:  0.747D+00
 Coeff:     -0.120D-02-0.237D-03 0.103D-01 0.222D-01 0.506D-01 0.171D+00
 Coeff:      0.747D+00
 Gap=     0.167 Goal=   None    Shift=    0.000
 RMSDP=1.21D-08 MaxDP=3.22D-07 DE=-2.27D-11 OVMax= 5.37D-07

 Cycle  16  Pass 1  IDiag  1:
 RMSU=  7.58D-09    CP:  1.00D+00  5.88D-01  8.27D-01  6.83D-01  5.51D-01
                    CP:  8.32D-01  9.90D-01
 E= -744.907784258103     Delta-E=        0.000000000002 Rises=F Damp=F
 DIIS: error= 2.58D-08 at cycle   8 NSaved=   8.
 NSaved= 8 IEnMin= 7 EnMin= -744.907784258105     IErMin= 8 ErrMin= 2.58D-08
 ErrMax= 2.58D-08  0.00D+00 EMaxC= 1.00D-01 BMatC= 1.31D-13 BMatP= 6.06D-13
 IDIUse=1 WtCom= 1.00D+00 WtEn= 0.00D+00
 Coeff-Com:  0.196D-04-0.549D-03-0.668D-02-0.149D-01-0.142D-01 0.118D-01
 Coeff-Com:  0.350D+00 0.674D+00
 Coeff:      0.196D-04-0.549D-03-0.668D-02-0.149D-01-0.142D-01 0.118D-01
 Coeff:      0.350D+00 0.674D+00
 Gap=     0.167 Goal=   None    Shift=    0.000
 RMSDP=3.78D-09 MaxDP=1.03D-07 DE= 1.82D-12 OVMax= 1.82D-07

 SCF Done:  E(RB3LYP) =  -744.907784258     A.U. after   16 cycles
            NFock= 16  Conv=0.38D-08     -V/T= 2.0067
 KE= 7.399525506752D+02 PE=-2.748076124682D+03 EE= 7.646848972057D+02
 Leave Link  502 at Mon Oct 14 01:51:37 2019, MaxMem= 10737418240 cpu:              75.8 elap:               3.2
 (Enter /apps/cent7/gaussian/g16-A.03/g16-haswell/g16/l601.exe)
 Copying SCF densities to generalized density rwf, IOpCl= 0 IROHF=0.

 **********************************************************************

            Population analysis using the SCF density.

 **********************************************************************

 Orbital symmetries:
       Occupied  (A) (A) (A) (A) (A) (A) (A) (A) (A) (A) (A) (A)
                 (A) (A) (A) (A) (A) (A) (A) (A) (A) (A) (A) (A)
                 (A) (A) (A) (A) (A) (A) (A) (A) (A) (A) (A) (A)
                 (A)
       Virtual   (A) (A) (A) (A) (A) (A) (A) (A) (A) (A) (A) (A)
                 (A) (A) (A) (A) (A) (A) (A) (A) (A) (A) (A) (A)
                 (A) (A) (A) (A) (A) (A) (A) (A) (A) (A) (A) (A)
                 (A) (A) (A) (A) (A) (A) (A) (A) (A) (A) (A) (A)
                 (A) (A) (A) (A) (A) (A) (A) (A) (A) (A) (A) (A)
                 (A) (A) (A) (A) (A) (A) (A) (A) (A) (A) (A) (A)
                 (A) (A) (A) (A) (A) (A) (A) (A) (A) (A) (A) (A)
                 (A) (A) (A) (A) (A) (A) (A) (A) (A) (A) (A) (A)
                 (A) (A) (A) (A) (A) (A) (A) (A) (A) (A) (A) (A)
                 (A) (A) (A) (A) (A) (A) (A) (A) (A) (A)
 The electronic state is 1-A.
 Alpha  occ. eigenvalues --  -88.98047 -19.08732 -10.22764 -10.21760 -10.21730
 Alpha  occ. eigenvalues --  -10.21564 -10.21374 -10.21207 -10.21174  -8.02783
 Alpha  occ. eigenvalues --   -5.99159  -5.99143  -5.98497  -0.95114  -0.86680
 Alpha  occ. eigenvalues --   -0.78830  -0.76056  -0.74778  -0.66198  -0.62154
 Alpha  occ. eigenvalues --   -0.58984  -0.52671  -0.47820  -0.46995  -0.45235
 Alpha  occ. eigenvalues --   -0.44320  -0.43703  -0.43102  -0.39966  -0.37518
 Alpha  occ. eigenvalues --   -0.36581  -0.36413  -0.33234  -0.27410  -0.26691
 Alpha  occ. eigenvalues --   -0.23584  -0.20873
 Alpha virt. eigenvalues --   -0.04199  -0.02092   0.04719   0.06121   0.07015
 Alpha virt. eigenvalues --    0.09834   0.11353   0.12491   0.13377   0.13951
 Alpha virt. eigenvalues --    0.14671   0.16146   0.17142   0.20612   0.25134
 Alpha virt. eigenvalues --    0.28121   0.28401   0.28732   0.36361   0.36747
 Alpha virt. eigenvalues --    0.40037   0.41697   0.47652   0.49348   0.51702
 Alpha virt. eigenvalues --    0.52583   0.53507   0.54784   0.55559   0.56612
 Alpha virt. eigenvalues --    0.57544   0.59033   0.59247   0.60238   0.62098
 Alpha virt. eigenvalues --    0.63963   0.65736   0.70661   0.73877   0.78231
 Alpha virt. eigenvalues --    0.80870   0.81480   0.82166   0.82578   0.83734
 Alpha virt. eigenvalues --    0.85015   0.86980   0.88056   0.89064   0.90178
 Alpha virt. eigenvalues --    0.91019   0.92846   0.93876   0.96639   0.99336
 Alpha virt. eigenvalues --    1.00985   1.05183   1.08207   1.09247   1.10322
 Alpha virt. eigenvalues --    1.11265   1.15001   1.20940   1.23235   1.26017
 Alpha virt. eigenvalues --    1.30351   1.39806   1.40612   1.41701   1.45855
 Alpha virt. eigenvalues --    1.47056   1.49144   1.53368   1.56076   1.69275
 Alpha virt. eigenvalues --    1.71067   1.77265   1.78480   1.81388   1.87033
 Alpha virt. eigenvalues --    1.89394   1.91315   1.94885   1.96959   1.99008
 Alpha virt. eigenvalues --    2.02581   2.06718   2.07358   2.11145   2.11813
 Alpha virt. eigenvalues --    2.12554   2.13567   2.14526   2.23521   2.23968
 Alpha virt. eigenvalues --    2.26778   2.27679   2.29655   2.50785   2.54606
 Alpha virt. eigenvalues --    2.60720   2.61786   2.65213   2.67082   2.70708
 Alpha virt. eigenvalues --    2.72645   2.75661   3.00050   3.32775   3.80707
 Alpha virt. eigenvalues --    3.94784   4.06148   4.09239   4.13135   4.20966
 Alpha virt. eigenvalues --    4.31021   4.32813   4.63557
          Condensed to atoms (all electrons):
               1          2          3          4          5          6
     1  O    8.444479   0.300858  -0.048919  -0.047606  -0.000159  -0.000057
     2  S    0.300858  15.016022   0.033766   0.019035  -0.025017   0.002980
     3  C   -0.048919   0.033766   5.615402   0.011797  -0.000960  -0.000223
     4  C   -0.047606   0.019035   0.011797   5.341681   0.507989  -0.031767
     5  C   -0.000159  -0.025017  -0.000960   0.507989   4.936063   0.509559
     6  C   -0.000057   0.002980  -0.000223  -0.031767   0.509559   4.877218
     7  C   -0.000004  -0.000574   0.000020  -0.035793  -0.030467   0.544542
     8  C    0.000171   0.005437  -0.000048  -0.028286  -0.038665  -0.031128
     9  C    0.000190  -0.034369  -0.009428   0.475670  -0.031693  -0.036423
    10  H    0.000565  -0.029278   0.374477   0.002876  -0.000020   0.000001
    11  H    0.002725  -0.008979   0.341345  -0.009479   0.000072   0.000005
    12  H    0.001872   0.004304   0.310512  -0.000427   0.000186   0.000015
    13  H   -0.000058   0.005181  -0.000278  -0.050483   0.359613  -0.038474
    14  H    0.000000  -0.000070   0.000001   0.004408  -0.040428   0.361442
    15  H   -0.000000   0.000010  -0.000000   0.000509   0.004593  -0.041211
    16  H    0.000003  -0.000088  -0.000003   0.004644   0.000600   0.004270
    17  H    0.004085  -0.001403  -0.001936  -0.050980   0.004531   0.000481
               7          8          9         10         11         12
     1  O   -0.000004   0.000171   0.000190   0.000565   0.002725   0.001872
     2  S   -0.000574   0.005437  -0.034369  -0.029278  -0.008979   0.004304
     3  C    0.000020  -0.000048  -0.009428   0.374477   0.341345   0.310512
     4  C   -0.035793  -0.028286   0.475670   0.002876  -0.009479  -0.000427
     5  C   -0.030467  -0.038665  -0.031693  -0.000020   0.000072   0.000186
     6  C    0.544542  -0.031128  -0.036423   0.000001   0.000005   0.000015
     7  C    4.853535   0.536420  -0.027015  -0.000000  -0.000003   0.000001
     8  C    0.536420   4.866008   0.524794   0.000001  -0.000023  -0.000029
     9  C   -0.027015   0.524794   4.934692   0.000036   0.002499   0.000816
    10  H   -0.000000   0.000001   0.000036   0.496041  -0.026330  -0.024541
    11  H   -0.000003  -0.000023   0.002499  -0.026330   0.515229  -0.022462
    12  H    0.000001  -0.000029   0.000816  -0.024541  -0.022462   0.550332
    13  H    0.004289   0.000399   0.004939  -0.000006   0.000008   0.000042
    14  H   -0.041608   0.004342   0.000473  -0.000000   0.000000   0.000000
    15  H    0.359486  -0.041454   0.004599   0.000000  -0.000000  -0.000000
    16  H   -0.041747   0.362341  -0.042561  -0.000000   0.000005  -0.000000
    17  H    0.004044  -0.038789   0.362147  -0.000056   0.003108   0.000141
              13         14         15         16         17
     1  O   -0.000058   0.000000  -0.000000   0.000003   0.004085
     2  S    0.005181  -0.000070   0.000010  -0.000088  -0.001403
     3  C   -0.000278   0.000001  -0.000000  -0.000003  -0.001936
     4  C   -0.050483   0.004408   0.000509   0.004644  -0.050980
     5  C    0.359613  -0.040428   0.004593   0.000600   0.004531
     6  C   -0.038474   0.361442  -0.041211   0.004270   0.000481
     7  C    0.004289  -0.041608   0.359486  -0.041747   0.004044
     8  C    0.000399   0.004342  -0.041454   0.362341  -0.038789
     9  C    0.004939   0.000473   0.004599  -0.042561   0.362147
    10  H   -0.000006  -0.000000   0.000000  -0.000000  -0.000056
    11  H    0.000008   0.000000  -0.000000   0.000005   0.003108
    12  H    0.000042   0.000000  -0.000000  -0.000000   0.000141
    13  H    0.565371  -0.005252  -0.000154   0.000014  -0.000134
    14  H   -0.005252   0.577284  -0.005030  -0.000164   0.000013
    15  H   -0.000154  -0.005030   0.579529  -0.005034  -0.000151
    16  H    0.000014  -0.000164  -0.005034   0.577363  -0.004602
    17  H   -0.000134   0.000013  -0.000151  -0.004602   0.557808
 Mulliken charges:
               1
     1  O   -0.658146
     2  S    0.712186
     3  C   -0.625523
     4  C   -0.113787
     5  C   -0.155799
     6  C   -0.121230
     7  C   -0.125127
     8  C   -0.121490
     9  C   -0.129367
    10  H    0.206234
    11  H    0.202281
    12  H    0.179239
    13  H    0.154983
    14  H    0.144588
    15  H    0.144306
    16  H    0.144959
    17  H    0.161692
 Sum of Mulliken charges =  -0.00000
 Mulliken charges with hydrogens summed into heavy atoms:
               1
     1  O   -0.658146
     2  S    0.712186
     3  C   -0.037769
     4  C   -0.113787
     5  C   -0.000815
     6  C    0.023358
     7  C    0.019179
     8  C    0.023469
     9  C    0.032326
 Electronic spatial extent (au):  <R**2>=           1487.5761
 Charge=             -0.0000 electrons
 Dipole moment (field-independent basis, Debye):
    X=             -2.8360    Y=             -0.0527    Z=              3.9427  Tot=              4.8570
 Quadrupole moment (field-independent basis, Debye-Ang):
   XX=            -56.3090   YY=            -54.2021   ZZ=            -65.4253
   XY=             -0.2154   XZ=              9.2469   YZ=              0.7695
 Traceless Quadrupole moment (field-independent basis, Debye-Ang):
   XX=              2.3364   YY=              4.4434   ZZ=             -6.7798
   XY=             -0.2154   XZ=              9.2469   YZ=              0.7695
 Octapole moment (field-independent basis, Debye-Ang**2):
  XXX=            -14.0199  YYY=              2.9242  ZZZ=              5.3494  XYY=             -3.9981
  XXY=             -0.5779  XXZ=             22.0943  XZZ=              2.6395  YZZ=             -1.3635
  YYZ=             -1.3391  XYZ=              3.4113
 Hexadecapole moment (field-independent basis, Debye-Ang**3):
 XXXX=          -1289.2213 YYYY=           -323.4523 ZZZZ=           -225.5459 XXXY=             -5.7458
 XXXZ=             45.0169 YYYX=              5.1777 YYYZ=             -2.4979 ZZZX=             11.1564
 ZZZY=             -0.2252 XXYY=           -273.7023 XXZZ=           -298.0394 YYZZ=           -100.9121
 XXYZ=              2.0532 YYXZ=             -2.5514 ZZXY=             -1.6301
 N-N= 4.985308925431D+02 E-N=-2.748076126563D+03  KE= 7.399525506752D+02
 No NMR shielding tensors so no spin-rotation constants.
 Leave Link  601 at Mon Oct 14 01:51:37 2019, MaxMem= 10737418240 cpu:               3.0 elap:               0.2
 (Enter /apps/cent7/gaussian/g16-A.03/g16-haswell/g16/l701.exe)
 ... and contract with generalized density number  0.
 Compute integral first derivatives.
 Leave Link  701 at Mon Oct 14 01:51:38 2019, MaxMem= 10737418240 cpu:               2.7 elap:               0.1
 (Enter /apps/cent7/gaussian/g16-A.03/g16-haswell/g16/l702.exe)
 L702 exits ... SP integral derivatives will be done elsewhere.
 Leave Link  702 at Mon Oct 14 01:51:38 2019, MaxMem= 10737418240 cpu:               0.5 elap:               0.0
 (Enter /apps/cent7/gaussian/g16-A.03/g16-haswell/g16/l703.exe)
 Integral derivatives from FoFJK, PRISM(SPDF).
 Compute integral first derivatives, UseDBF=F ICtDFT=           0.
 Calling FoFJK, ICntrl=      2127 FMM=F ISym2X=0 I1Cent= 0 IOpClX= 0 NMat=1 NMatS=1 NMatT=0.
 FoFJK:  IHMeth= 1 ICntrl=    2127 DoSepK=F KAlg= 0 I1Cent=           0 FoldK=F
 IRaf=         0 NMat=       1 IRICut=       1 DoRegI=T DoRafI=F ISym2E= 0 IDoP0=0 IntGTp=1.
 FoFCou: FMM=F IPFlag=           0 FMFlag=      100000 FMFlg1=         800
         NFxFlg=           0 DoJE=F BraDBF=F KetDBF=F FulRan=T
         wScrn=  0.000000 ICntrl=      2127 IOpCl=  0 I1Cent=           0 NGrid=           0
         NMat0=    1 NMatS0=      1 NMatT0=    0 NMatD0=    1 NMtDS0=    0 NMtDT0=    0
 Symmetry not used in FoFCou.
 Leave Link  703 at Mon Oct 14 01:51:38 2019, MaxMem= 10737418240 cpu:              17.2 elap:               0.7
 (Enter /apps/cent7/gaussian/g16-A.03/g16-haswell/g16/l716.exe)
 Dipole        =-1.11576971D+00-2.07295540D-02 1.55119162D+00
 ***** Axes restored to original set *****
 -------------------------------------------------------------------
 Center     Atomic                   Forces (Hartrees/Bohr)
 Number     Number              X              Y              Z
 -------------------------------------------------------------------
      1        8           0.045700769    0.004989123   -0.029183234
      2       16          -0.047269887   -0.030432939    0.047172179
      3        6           0.001769984    0.014449033   -0.007531303
      4        6           0.002574696    0.027676339   -0.018419631
      5        6          -0.003156883    0.001369519   -0.001746390
      6        6          -0.008750965   -0.001009515   -0.002509349
      7        6           0.000162287   -0.008636091    0.001126360
      8        6           0.004665737   -0.008876302    0.003581970
      9        6           0.004661017    0.005993426    0.001421936
     10        1           0.000505196   -0.000933975    0.006048062
     11        1          -0.002872793    0.000937247    0.000782109
     12        1           0.003212266    0.000052166   -0.002529738
     13        1          -0.002089069    0.000413965   -0.000925839
     14        1          -0.002353958   -0.001447256   -0.000577700
     15        1          -0.000365311   -0.002496078    0.000090111
     16        1           0.001389297   -0.002149609    0.000846205
     17        1           0.002217616    0.000100946    0.002354251
 -------------------------------------------------------------------
 Cartesian Forces:  Max     0.047269887 RMS     0.014128830
 Leave Link  716 at Mon Oct 14 01:51:38 2019, MaxMem= 10737418240 cpu:               0.8 elap:               0.1
 (Enter /apps/cent7/gaussian/g16-A.03/g16-haswell/g16/l103.exe)

 GradGradGradGradGradGradGradGradGradGradGradGradGradGradGradGradGradGrad
 Berny optimization.
 FormGI is forming the generalized inverse of G from B-inverse, IUseBI=4.
 Internal  Forces:  Max     0.054427450 RMS     0.008439965
 Search for a local minimum.
 Step number   1 out of a maximum of   88
 All quantities printed in internal units (Hartrees-Bohrs-Radians)
 RMS Force = .84400D-02 SwitMx=.10000D-02 MixMth= 1
 Mixed Optimization -- RFO/linear search
 Second derivative matrix not updated -- first step.
 ITU=  0
     Eigenvalues ---    0.00230   0.00776   0.01581   0.01942   0.01951
     Eigenvalues ---    0.01977   0.01981   0.01981   0.01988   0.01992
     Eigenvalues ---    0.01998   0.05940   0.07239   0.07239   0.16000
     Eigenvalues ---    0.16000   0.16000   0.16000   0.16000   0.16000
     Eigenvalues ---    0.16000   0.16000   0.16099   0.22000   0.22000
     Eigenvalues ---    0.23479   0.23831   0.25000   0.25000   0.28690
     Eigenvalues ---    0.34808   0.34808   0.34812   0.34815   0.34815
     Eigenvalues ---    0.34816   0.34817   0.34820   0.40337   0.40457
     Eigenvalues ---    0.43862   0.44154   0.44318   0.44507   0.50457
 RFO step:  Lambda=-1.56076321D-02 EMin= 2.30000000D-03
 Linear search not attempted -- first point.
 Iteration  1 RMS(Cart)=  0.08852504 RMS(Int)=  0.00295774
 Iteration  2 RMS(Cart)=  0.00461172 RMS(Int)=  0.00049005
 Iteration  3 RMS(Cart)=  0.00001053 RMS(Int)=  0.00048999
 Iteration  4 RMS(Cart)=  0.00000004 RMS(Int)=  0.00048999
 ITry= 1 IFail=0 DXMaxC= 4.01D-01 DCOld= 1.00D+10 DXMaxT= 3.00D-01 DXLimC= 3.00D+00 Rises=F
 Variable       Old X    -DE/DX   Delta X   Delta X   Delta X     New X
                                 (Linear)    (Quad)   (Total)
    R1        3.03107  -0.05443   0.00000  -0.10463  -0.10463   2.92644
    R2        3.45977  -0.00221   0.00000  -0.00869  -0.00869   3.45108
    R3        3.34354   0.01161   0.00000   0.03838   0.03838   3.38192
    R4        2.05987   0.00084   0.00000   0.00230   0.00230   2.06218
    R5        2.05976   0.00270   0.00000   0.00743   0.00743   2.06719
    R6        2.05975   0.00385   0.00000   0.01058   0.01058   2.07033
    R7        2.66478  -0.01178   0.00000  -0.02580  -0.02576   2.63902
    R8        2.66900  -0.01133   0.00000  -0.02517  -0.02512   2.64389
    R9        2.65719  -0.01056   0.00000  -0.02270  -0.02271   2.63448
   R10        2.05973  -0.00205   0.00000  -0.00563  -0.00563   2.05410
   R11        2.66027  -0.01091   0.00000  -0.02366  -0.02371   2.63656
   R12        2.05982  -0.00277   0.00000  -0.00762  -0.00762   2.05220
   R13        2.65963  -0.00846   0.00000  -0.01848  -0.01853   2.64110
   R14        2.05976  -0.00252   0.00000  -0.00693  -0.00693   2.05283
   R15        2.66218  -0.01471   0.00000  -0.03231  -0.03229   2.62989
   R16        2.05967  -0.00261   0.00000  -0.00717  -0.00717   2.05250
   R17        2.05988  -0.00271   0.00000  -0.00745  -0.00745   2.05242
    A1        1.82647   0.00583   0.00000   0.00024  -0.00150   1.82497
    A2        1.85179   0.00784   0.00000   0.00912   0.00634   1.85813
    A3        1.86038  -0.03562   0.00000  -0.14534  -0.14650   1.71388
    A4        1.91063  -0.00950   0.00000  -0.06001  -0.06027   1.85036
    A5        1.91060  -0.00056   0.00000  -0.00172  -0.00214   1.90846
    A6        1.91061   0.00282   0.00000   0.02048   0.02039   1.93100
    A7        1.91066   0.00307   0.00000   0.00859   0.00795   1.91861
    A8        1.91067   0.00271   0.00000   0.01252   0.01261   1.92328
    A9        1.91062   0.00147   0.00000   0.02014   0.01989   1.93052
   A10        2.07101  -0.00427   0.00000  -0.01623  -0.01656   2.05445
   A11        2.12682   0.00006   0.00000   0.00006  -0.00029   2.12653
   A12        2.08535   0.00421   0.00000   0.01606   0.01595   2.10130
   A13        2.10020  -0.00271   0.00000  -0.01066  -0.01058   2.08962
   A14        2.09404   0.00023   0.00000  -0.00108  -0.00113   2.09292
   A15        2.08894   0.00248   0.00000   0.01174   0.01169   2.10063
   A16        2.09481  -0.00038   0.00000  -0.00074  -0.00076   2.09405
   A17        2.09320  -0.00034   0.00000  -0.00264  -0.00263   2.09056
   A18        2.09518   0.00072   0.00000   0.00339   0.00340   2.09858
   A19        2.09394   0.00081   0.00000   0.00384   0.00379   2.09773
   A20        2.09480  -0.00049   0.00000  -0.00241  -0.00239   2.09241
   A21        2.09445  -0.00032   0.00000  -0.00144  -0.00142   2.09303
   A22        2.09463   0.00009   0.00000   0.00026   0.00028   2.09491
   A23        2.09337   0.00065   0.00000   0.00385   0.00384   2.09721
   A24        2.09518  -0.00075   0.00000  -0.00412  -0.00413   2.09105
   A25        2.09743  -0.00202   0.00000  -0.00876  -0.00872   2.08871
   A26        2.09515  -0.00013   0.00000  -0.00212  -0.00226   2.09289
   A27        2.09060   0.00215   0.00000   0.01088   0.01074   2.10134
    D1       -1.36570  -0.00053   0.00000   0.00893   0.00940  -1.35630
    D2        0.72871  -0.00293   0.00000  -0.01835  -0.01739   0.71132
    D3        2.82306   0.00025   0.00000   0.01780   0.01872   2.84178
    D4        2.96016   0.00258   0.00000   0.05727   0.05617   3.01633
    D5       -1.22861   0.00018   0.00000   0.02999   0.02937  -1.19923
    D6        0.86574   0.00336   0.00000   0.06614   0.06549   0.93123
    D7        2.20924   0.00340   0.00000   0.07055   0.07022   2.27946
    D8       -0.92948   0.00474   0.00000   0.11347   0.11272  -0.81675
    D9       -2.13417  -0.00178   0.00000   0.01303   0.01378  -2.12039
   D10        1.01029  -0.00044   0.00000   0.05595   0.05629   1.06658
   D11       -3.13721   0.00111   0.00000   0.03407   0.03396  -3.10325
   D12        0.00451   0.00086   0.00000   0.02727   0.02723   0.03174
   D13        0.00159  -0.00020   0.00000  -0.00784  -0.00793  -0.00635
   D14       -3.13989  -0.00045   0.00000  -0.01463  -0.01466   3.12864
   D15        3.13948  -0.00109   0.00000  -0.03344  -0.03368   3.10581
   D16       -0.00221  -0.00026   0.00000  -0.00997  -0.01027  -0.01248
   D17        0.00079   0.00028   0.00000   0.00988   0.01000   0.01079
   D18       -3.14091   0.00111   0.00000   0.03335   0.03341  -3.10750
   D19       -0.00193  -0.00007   0.00000  -0.00105  -0.00107  -0.00300
   D20        3.13970  -0.00009   0.00000  -0.00215  -0.00214   3.13756
   D21        3.13954   0.00018   0.00000   0.00572   0.00568  -3.13796
   D22       -0.00201   0.00016   0.00000   0.00463   0.00461   0.00261
   D23       -0.00011   0.00027   0.00000   0.00798   0.00801   0.00790
   D24        3.14145   0.00001   0.00000   0.00020   0.00021  -3.14152
   D25        3.14145   0.00030   0.00000   0.00907   0.00908  -3.13266
   D26       -0.00018   0.00004   0.00000   0.00129   0.00128   0.00110
   D27        0.00247  -0.00019   0.00000  -0.00591  -0.00591  -0.00343
   D28       -3.13915  -0.00041   0.00000  -0.01232  -0.01238   3.13166
   D29       -3.13909   0.00006   0.00000   0.00187   0.00190  -3.13719
   D30        0.00248  -0.00015   0.00000  -0.00454  -0.00458  -0.00210
   D31       -0.00281  -0.00008   0.00000  -0.00303  -0.00306  -0.00587
   D32        3.13888  -0.00091   0.00000  -0.02644  -0.02658   3.11230
   D33        3.13880   0.00014   0.00000   0.00339   0.00340  -3.14099
   D34       -0.00269  -0.00069   0.00000  -0.02002  -0.02012  -0.02281
         Item               Value     Threshold  Converged?
 Maximum Force            0.054427     0.000450     NO 
 RMS     Force            0.008440     0.000300     NO 
 Maximum Displacement     0.401022     0.001800     NO 
 RMS     Displacement     0.090866     0.001200     NO 
 Predicted change in Energy=-8.387969D-03
 Lowest energy point so far.  Saving SCF results.
 GradGradGradGradGradGradGradGradGradGradGradGradGradGradGradGradGradGrad

 Leave Link  103 at Mon Oct 14 01:51:39 2019, MaxMem= 10737418240 cpu:               0.8 elap:               0.1
 (Enter /apps/cent7/gaussian/g16-A.03/g16-haswell/g16/l202.exe)
                          Input orientation:                          
 ---------------------------------------------------------------------
 Center     Atomic      Atomic             Coordinates (Angstroms)
 Number     Number       Type             X           Y           Z
 ---------------------------------------------------------------------
      1          8           0       -1.842537   -1.910617    0.909223
      2         16           0       -0.470729   -1.776221    0.203352
      3          6           0       -0.810189   -2.190259   -1.542633
      4          6           0       -0.175994   -0.023099   -0.002760
      5          6           0        1.062294    0.479327    0.402762
      6          6           0        1.319766    1.845887    0.304025
      7          6           0        0.343277    2.704560   -0.201697
      8          6           0       -0.897355    2.200247   -0.601469
      9          6           0       -1.160766    0.837518   -0.499752
     10          1           0       -0.884001   -3.278184   -1.585256
     11          1           0       -1.760592   -1.739988   -1.843680
     12          1           0        0.003555   -1.840816   -2.187604
     13          1           0        1.817397   -0.194736    0.798983
     14          1           0        2.281039    2.238047    0.622628
     15          1           0        0.545554    3.769138   -0.278022
     16          1           0       -1.660480    2.870409   -0.986462
     17          1           0       -2.132138    0.442888   -0.783139
 ---------------------------------------------------------------------
                    Distance matrix (angstroms):
                    1          2          3          4          5
     1  O    0.000000
     2  S    1.548605   0.000000
     3  C    2.674984   1.826232   0.000000
     4  C    2.678023   1.789634   2.733129   0.000000
     5  C    3.795574   2.734487   3.797031   1.396509   0.000000
     6  C    4.947499   4.041741   4.923142   2.413404   1.394104
     7  C    5.226068   4.572097   5.204599   2.783763   2.415371
     8  C    4.480487   4.079467   4.491095   2.412899   2.794686
     9  C    3.162637   2.793231   3.221481   1.399085   2.425866
    10  H    3.001909   2.371878   1.091258   3.687973   4.675378
    11  H    2.759404   2.419794   1.093910   2.974500   4.235628
    12  H    3.606005   2.438399   1.095572   2.847785   3.635105
    13  H    4.043701   2.844537   4.045922   2.155425   1.086983
    14  H    5.856401   4.884912   5.818414   3.397190   2.150994
    15  H    6.274723   5.658230   6.241130   3.870072   3.399021
    16  H    5.146356   4.941896   5.161655   3.397610   3.880813
    17  H    2.913236   2.942429   3.042670   2.156996   3.407650
                    6          7          8          9         10
     6  C    0.000000
     7  C    1.395207   0.000000
     8  C    2.420974   1.397612   0.000000
     9  C    2.795693   2.415952   1.391676   0.000000
    10  H    5.889148   6.262081   5.566077   4.265433   0.000000
    11  H    5.192277   5.184244   4.220630   2.968076   1.789201
    12  H    4.640302   4.971889   4.433695   3.373124   1.793490
    13  H    2.157954   3.402985   3.881635   3.409064   4.742341
    14  H    1.085976   2.156865   3.406176   3.881654   6.732090
    15  H    2.153387   1.086310   2.155928   3.399278   7.308709
    16  H    3.405417   2.158334   1.086138   2.149243   6.226288
    17  H    3.881490   3.403074   2.155459   1.086096   4.005947
                   11         12         13         14         15
    11  H    0.000000
    12  H    1.800185   0.000000
    13  H    4.708872   3.862552   0.000000
    14  H    6.184030   5.451739   2.482841   0.000000
    15  H    6.174145   5.950786   4.299980   2.483409   0.000000
    16  H    4.690481   5.138813   4.967752   4.304025   2.485194
    17  H    2.455146   3.427683   4.302150   4.967384   4.299898
                   16         17
    16  H    0.000000
    17  H    2.481262   0.000000
 Stoichiometry    C7H8OS
 Framework group  C1[X(C7H8OS)]
 Deg. of freedom    45
 Full point group                 C1      NOp   1
 RotChk:  IX=0 Diff= 3.94D-02
 Largest Abelian subgroup         C1      NOp   1
 Largest concise Abelian subgroup C1      NOp   1
                         Standard orientation:                         
 ---------------------------------------------------------------------
 Center     Atomic      Atomic             Coordinates (Angstroms)
 Number     Number       Type             X           Y           Z
 ---------------------------------------------------------------------
      1          8           0        2.177966    0.311092   -1.329139
      2         16           0        1.641229   -0.513722   -0.133409
      3          6           0        2.166470    0.423343    1.343465
      4          6           0       -0.114540   -0.181363   -0.035419
      5          6           0       -0.978077   -1.274679    0.060503
      6          6           0       -2.356151   -1.066373    0.092874
      7          6           0       -2.866791    0.230653    0.033119
      8          6           0       -2.000830    1.322925   -0.068732
      9          6           0       -0.624632    1.119466   -0.106745
     10          1           0        3.225311    0.198536    1.481885
     11          1           0        2.033409    1.493501    1.159901
     12          1           0        1.594866    0.109036    2.223669
     13          1           0       -0.573707   -2.282740    0.103290
     14          1           0       -3.028595   -1.916168    0.163665
     15          1           0       -3.940869    0.391216    0.058519
     16          1           0       -2.399207    2.331825   -0.124520
     17          1           0        0.052706    1.961783   -0.213149
 ---------------------------------------------------------------------
 Rotational constants (GHZ):           3.1165405           0.9098596           0.8430845
 Leave Link  202 at Mon Oct 14 01:51:39 2019, MaxMem= 10737418240 cpu:               0.3 elap:               0.0
 (Enter /apps/cent7/gaussian/g16-A.03/g16-haswell/g16/l301.exe)
 Standard basis: 6-31G(d) (6D, 7F)
 Ernie: Thresh=  0.10000D-02 Tol=  0.10000D-05 Strict=F.
 There are   155 symmetry adapted cartesian basis functions of A   symmetry.
 There are   155 symmetry adapted basis functions of A   symmetry.
   155 basis functions,   308 primitive gaussians,   155 cartesian basis functions
    37 alpha electrons       37 beta electrons
       nuclear repulsion energy       504.5366750566 Hartrees.
 IExCor=  402 DFT=T Ex+Corr=B3LYP ExCW=0 ScaHFX=  0.200000
 ScaDFX=  0.800000  0.720000  1.000000  0.810000 ScalE2=  1.000000  1.000000
 IRadAn=      5 IRanWt=     -1 IRanGd=            0 ICorTp=0 IEmpDi=  4
 NAtoms=   17 NActive=   17 NUniq=   17 SFac= 1.00D+00 NAtFMM=   60 NAOKFM=F Big=F
 Integral buffers will be    131072 words long.
 Raffenetti 2 integral format.
 Two-electron integral symmetry is turned on.
 Leave Link  301 at Mon Oct 14 01:51:39 2019, MaxMem= 10737418240 cpu:               1.2 elap:               0.1
 (Enter /apps/cent7/gaussian/g16-A.03/g16-haswell/g16/l302.exe)
 NPDir=0 NMtPBC=     1 NCelOv=     1 NCel=       1 NClECP=     1 NCelD=      1
         NCelK=      1 NCelE2=     1 NClLst=     1 CellRange=     0.0.
 One-electron integrals computed using PRISM.
 One-electron integral symmetry used in STVInt
 NBasis=   155 RedAO= T EigKep=  5.01D-04  NBF=   155
 NBsUse=   155 1.00D-06 EigRej= -1.00D+00 NBFU=   155
 Precomputing XC quadrature grid using
 IXCGrd= 4 IRadAn=           5 IRanWt=          -1 IRanGd=           0 AccXCQ= 0.00D+00.
 Generated NRdTot=       0 NPtTot=           0 NUsed=           0 NTot=          32
 NSgBfM=   155   155   155   155   155 MxSgAt=    17 MxSgA2=    17.
 Leave Link  302 at Mon Oct 14 01:51:39 2019, MaxMem= 10737418240 cpu:               3.1 elap:               0.2
 (Enter /apps/cent7/gaussian/g16-A.03/g16-haswell/g16/l303.exe)
 DipDrv:  MaxL=1.
 Leave Link  303 at Mon Oct 14 01:51:39 2019, MaxMem= 10737418240 cpu:               0.6 elap:               0.0
 (Enter /apps/cent7/gaussian/g16-A.03/g16-haswell/g16/l401.exe)
 Initial guess from the checkpoint file:  "33.chk"
 B after Tr=    -0.000000    0.000000   -0.000000
         Rot=    0.999919   -0.008310    0.009156   -0.003171 Ang=  -1.46 deg.
 Guess basis will be translated and rotated to current coordinates.
 JPrj=2 DoOrth=T DoCkMO=T.
 Generating alternative initial guess.
 ExpMin= 1.17D-01 ExpMax= 2.19D+04 ExpMxC= 3.30D+03 IAcc=2 IRadAn=         4 AccDes= 0.00D+00
 Harris functional with IExCor=  402 and IRadAn=       4 diagonalized for initial guess.
 HarFok:  IExCor=  402 AccDes= 0.00D+00 IRadAn=         4 IDoV= 1 UseB2=F ITyADJ=14
 ICtDFT=  3500011 ScaDFX=  1.000000  1.000000  1.000000  1.000000
 FoFCou: FMM=F IPFlag=           0 FMFlag=      100000 FMFlg1=           0
         NFxFlg=           0 DoJE=T BraDBF=F KetDBF=T FulRan=T
         wScrn=  0.000000 ICntrl=       500 IOpCl=  0 I1Cent=   200000004 NGrid=           0
         NMat0=    1 NMatS0=      1 NMatT0=    0 NMatD0=    1 NMtDS0=    0 NMtDT0=    0
 Petite list used in FoFCou.
 Harris En= -744.959072817825    
 Leave Link  401 at Mon Oct 14 01:51:39 2019, MaxMem= 10737418240 cpu:               6.1 elap:               0.3
 (Enter /apps/cent7/gaussian/g16-A.03/g16-haswell/g16/l502.exe)
 Integral symmetry usage will be decided dynamically.
 Closed shell SCF:
 Using DIIS extrapolation, IDIIS=  1040.
 NGot= 10737418240 LenX= 10737364633 LenY= 10737340167
 Requested convergence on RMS density matrix=1.00D-08 within 128 cycles.
 Requested convergence on MAX density matrix=1.00D-06.
 Requested convergence on             energy=1.00D-06.
 No special actions if energy rises.
 Fock matrices will be formed incrementally for  20 cycles.
 Integral accuracy reduced to 1.0D-05 until final iterations.

 Cycle   1  Pass 0  IDiag  1:
 FoFJK:  IHMeth= 1 ICntrl=       0 DoSepK=F KAlg= 0 I1Cent=           0 FoldK=F
 IRaf= 940000000 NMat=       1 IRICut=       1 DoRegI=T DoRafI=F ISym2E= 0 IDoP0=0 IntGTp=1.
 FoFCou: FMM=F IPFlag=           0 FMFlag=      100000 FMFlg1=           0
         NFxFlg=           0 DoJE=F BraDBF=F KetDBF=F FulRan=T
         wScrn=  0.000000 ICntrl=         0 IOpCl=  0 I1Cent=           0 NGrid=           0
         NMat0=    1 NMatS0=      1 NMatT0=    0 NMatD0=    1 NMtDS0=    0 NMtDT0=    0
 Symmetry not used in FoFCou.
 E= -744.907189966584    
 DIIS: error= 5.61D-03 at cycle   1 NSaved=   1.
 NSaved= 1 IEnMin= 1 EnMin= -744.907189966584     IErMin= 1 ErrMin= 5.61D-03
 ErrMax= 5.61D-03  0.00D+00 EMaxC= 1.00D-01 BMatC= 4.99D-03 BMatP= 4.99D-03
 IDIUse=3 WtCom= 9.44D-01 WtEn= 5.61D-02
 Coeff-Com:  0.100D+01
 Coeff-En:   0.100D+01
 Coeff:      0.100D+01
 Gap=     1.835 Goal=   None    Shift=    0.000
 GapD=    1.835 DampG=2.000 DampE=1.000 DampFc=2.0000 IDamp=-1.
 RMSDP=1.21D-03 MaxDP=2.10D-02              OVMax= 4.09D-02

 Cycle   2  Pass 0  IDiag  1:
 RMSU=  1.20D-03    CP:  9.96D-01
 E= -744.915250975711     Delta-E=       -0.008061009127 Rises=F Damp=F
 DIIS: error= 3.20D-03 at cycle   2 NSaved=   2.
 NSaved= 2 IEnMin= 2 EnMin= -744.915250975711     IErMin= 2 ErrMin= 3.20D-03
 ErrMax= 3.20D-03  0.00D+00 EMaxC= 1.00D-01 BMatC= 2.47D-03 BMatP= 4.99D-03
 IDIUse=3 WtCom= 9.68D-01 WtEn= 3.20D-02
 Coeff-Com:  0.358D+00 0.642D+00
 Coeff-En:   0.000D+00 0.100D+01
 Coeff:      0.346D+00 0.654D+00
 Gap=     0.178 Goal=   None    Shift=    0.000
 RMSDP=9.29D-04 MaxDP=2.12D-02 DE=-8.06D-03 OVMax= 3.15D-02

 Cycle   3  Pass 0  IDiag  1:
 RMSU=  8.56D-04    CP:  1.00D+00  7.27D-01
 E= -744.914378152663     Delta-E=        0.000872823048 Rises=F Damp=F
 DIIS: error= 4.21D-03 at cycle   3 NSaved=   3.
 NSaved= 3 IEnMin= 2 EnMin= -744.915250975711     IErMin= 2 ErrMin= 3.20D-03
 ErrMax= 4.21D-03  0.00D+00 EMaxC= 1.00D-01 BMatC= 3.52D-03 BMatP= 2.47D-03
 IDIUse=3 WtCom= 1.34D-01 WtEn= 8.66D-01
 Coeff-Com: -0.312D-01 0.556D+00 0.475D+00
 Coeff-En:   0.000D+00 0.564D+00 0.436D+00
 Coeff:     -0.417D-02 0.563D+00 0.441D+00
 Gap=     0.186 Goal=   None    Shift=    0.000
 RMSDP=4.97D-04 MaxDP=1.14D-02 DE= 8.73D-04 OVMax= 1.64D-02

 Cycle   4  Pass 0  IDiag  1:
 RMSU=  8.33D-05    CP:  9.98D-01  9.18D-01  5.05D-01
 E= -744.917306505239     Delta-E=       -0.002928352576 Rises=F Damp=F
 DIIS: error= 2.66D-04 at cycle   4 NSaved=   4.
 NSaved= 4 IEnMin= 4 EnMin= -744.917306505239     IErMin= 4 ErrMin= 2.66D-04
 ErrMax= 2.66D-04  0.00D+00 EMaxC= 1.00D-01 BMatC= 2.54D-05 BMatP= 2.47D-03
 IDIUse=3 WtCom= 9.97D-01 WtEn= 2.66D-03
 Coeff-Com: -0.251D-01 0.230D+00 0.181D+00 0.614D+00
 Coeff-En:   0.000D+00 0.000D+00 0.000D+00 0.100D+01
 Coeff:     -0.251D-01 0.229D+00 0.181D+00 0.615D+00
 Gap=     0.186 Goal=   None    Shift=    0.000
 RMSDP=4.88D-05 MaxDP=1.12D-03 DE=-2.93D-03 OVMax= 1.49D-03

 Cycle   5  Pass 0  IDiag  1:
 RMSU=  3.30D-05    CP:  9.98D-01  9.30D-01  4.92D-01  6.32D-01
 E= -744.917329463625     Delta-E=       -0.000022958386 Rises=F Damp=F
 DIIS: error= 1.21D-04 at cycle   5 NSaved=   5.
 NSaved= 5 IEnMin= 5 EnMin= -744.917329463625     IErMin= 5 ErrMin= 1.21D-04
 ErrMax= 1.21D-04  0.00D+00 EMaxC= 1.00D-01 BMatC= 3.12D-06 BMatP= 2.54D-05
 IDIUse=3 WtCom= 9.99D-01 WtEn= 1.21D-03
 Coeff-Com: -0.983D-02 0.719D-01 0.559D-01 0.311D+00 0.571D+00
 Coeff-En:   0.000D+00 0.000D+00 0.000D+00 0.157D-01 0.984D+00
 Coeff:     -0.982D-02 0.718D-01 0.558D-01 0.311D+00 0.571D+00
 Gap=     0.186 Goal=   None    Shift=    0.000
 RMSDP=1.65D-05 MaxDP=4.54D-04 DE=-2.30D-05 OVMax= 8.92D-04

 Cycle   6  Pass 0  IDiag  1:
 RMSU=  1.11D-05    CP:  9.98D-01  9.30D-01  4.96D-01  7.09D-01  7.05D-01
 E= -744.917332392541     Delta-E=       -0.000002928916 Rises=F Damp=F
 DIIS: error= 5.90D-05 at cycle   6 NSaved=   6.
 NSaved= 6 IEnMin= 6 EnMin= -744.917332392541     IErMin= 6 ErrMin= 5.90D-05
 ErrMax= 5.90D-05  0.00D+00 EMaxC= 1.00D-01 BMatC= 4.58D-07 BMatP= 3.12D-06
 IDIUse=1 WtCom= 1.00D+00 WtEn= 0.00D+00
 Coeff-Com: -0.269D-02 0.150D-01 0.113D-01 0.108D+00 0.325D+00 0.543D+00
 Coeff:     -0.269D-02 0.150D-01 0.113D-01 0.108D+00 0.325D+00 0.543D+00
 Gap=     0.186 Goal=   None    Shift=    0.000
 RMSDP=6.06D-06 MaxDP=1.31D-04 DE=-2.93D-06 OVMax= 3.50D-04

 Initial convergence to 1.0D-05 achieved.  Increase integral accuracy.
 Cycle   7  Pass 1  IDiag  1:
 E= -744.917339149728     Delta-E=       -0.000006757187 Rises=F Damp=F
 DIIS: error= 1.73D-05 at cycle   1 NSaved=   1.
 NSaved= 1 IEnMin= 1 EnMin= -744.917339149728     IErMin= 1 ErrMin= 1.73D-05
 ErrMax= 1.73D-05  0.00D+00 EMaxC= 1.00D-01 BMatC= 6.72D-08 BMatP= 6.72D-08
 IDIUse=1 WtCom= 1.00D+00 WtEn= 0.00D+00
 Coeff-Com:  0.100D+01
 Coeff:      0.100D+01
 Gap=     0.186 Goal=   None    Shift=    0.000
 RMSDP=6.06D-06 MaxDP=1.31D-04 DE=-6.76D-06 OVMax= 2.77D-04

 Cycle   8  Pass 1  IDiag  1:
 RMSU=  5.55D-06    CP:  1.00D+00
 E= -744.917339026143     Delta-E=        0.000000123585 Rises=F Damp=F
 DIIS: error= 3.49D-05 at cycle   2 NSaved=   2.
 NSaved= 2 IEnMin= 1 EnMin= -744.917339149728     IErMin= 1 ErrMin= 1.73D-05
 ErrMax= 3.49D-05  0.00D+00 EMaxC= 1.00D-01 BMatC= 1.71D-07 BMatP= 6.72D-08
 IDIUse=1 WtCom= 1.00D+00 WtEn= 0.00D+00
 Coeff-Com:  0.623D+00 0.377D+00
 Coeff:      0.623D+00 0.377D+00
 Gap=     0.186 Goal=   None    Shift=    0.000
 RMSDP=3.17D-06 MaxDP=7.75D-05 DE= 1.24D-07 OVMax= 2.00D-04

 Cycle   9  Pass 1  IDiag  1:
 RMSU=  2.11D-06    CP:  1.00D+00  5.74D-01
 E= -744.917339215011     Delta-E=       -0.000000188868 Rises=F Damp=F
 DIIS: error= 5.43D-06 at cycle   3 NSaved=   3.
 NSaved= 3 IEnMin= 3 EnMin= -744.917339215011     IErMin= 3 ErrMin= 5.43D-06
 ErrMax= 5.43D-06  0.00D+00 EMaxC= 1.00D-01 BMatC= 4.90D-09 BMatP= 6.72D-08
 IDIUse=1 WtCom= 1.00D+00 WtEn= 0.00D+00
 Coeff-Com:  0.180D+00 0.174D+00 0.646D+00
 Coeff:      0.180D+00 0.174D+00 0.646D+00
 Gap=     0.186 Goal=   None    Shift=    0.000
 RMSDP=9.09D-07 MaxDP=2.41D-05 DE=-1.89D-07 OVMax= 3.00D-05

 Cycle  10  Pass 1  IDiag  1:
 RMSU=  7.32D-07    CP:  1.00D+00  6.22D-01  7.87D-01
 E= -744.917339218028     Delta-E=       -0.000000003017 Rises=F Damp=F
 DIIS: error= 3.55D-06 at cycle   4 NSaved=   4.
 NSaved= 4 IEnMin= 4 EnMin= -744.917339218028     IErMin= 4 ErrMin= 3.55D-06
 ErrMax= 3.55D-06  0.00D+00 EMaxC= 1.00D-01 BMatC= 2.46D-09 BMatP= 4.90D-09
 IDIUse=1 WtCom= 1.00D+00 WtEn= 0.00D+00
 Coeff-Com:  0.148D-01 0.560D-01 0.455D+00 0.474D+00
 Coeff:      0.148D-01 0.560D-01 0.455D+00 0.474D+00
 Gap=     0.186 Goal=   None    Shift=    0.000
 RMSDP=4.97D-07 MaxDP=1.15D-05 DE=-3.02D-09 OVMax= 1.67D-05

 Cycle  11  Pass 1  IDiag  1:
 RMSU=  2.00D-07    CP:  1.00D+00  6.25D-01  8.62D-01  4.31D-01
 E= -744.917339219998     Delta-E=       -0.000000001970 Rises=F Damp=F
 DIIS: error= 8.04D-07 at cycle   5 NSaved=   5.
 NSaved= 5 IEnMin= 5 EnMin= -744.917339219998     IErMin= 5 ErrMin= 8.04D-07
 ErrMax= 8.04D-07  0.00D+00 EMaxC= 1.00D-01 BMatC= 1.96D-10 BMatP= 2.46D-09
 IDIUse=1 WtCom= 1.00D+00 WtEn= 0.00D+00
 Coeff-Com: -0.216D-02 0.242D-01 0.252D+00 0.311D+00 0.415D+00
 Coeff:     -0.216D-02 0.242D-01 0.252D+00 0.311D+00 0.415D+00
 Gap=     0.186 Goal=   None    Shift=    0.000
 RMSDP=1.19D-07 MaxDP=3.10D-06 DE=-1.97D-09 OVMax= 3.97D-06

 Cycle  12  Pass 1  IDiag  1:
 RMSU=  4.04D-08    CP:  1.00D+00  6.23D-01  8.60D-01  4.87D-01  4.90D-01
 E= -744.917339220174     Delta-E=       -0.000000000176 Rises=F Damp=F
 DIIS: error= 1.32D-07 at cycle   6 NSaved=   6.
 NSaved= 6 IEnMin= 6 EnMin= -744.917339220174     IErMin= 6 ErrMin= 1.32D-07
 ErrMax= 1.32D-07  0.00D+00 EMaxC= 1.00D-01 BMatC= 4.11D-12 BMatP= 1.96D-10
 IDIUse=1 WtCom= 1.00D+00 WtEn= 0.00D+00
 Coeff-Com: -0.237D-02 0.606D-02 0.764D-01 0.104D+00 0.185D+00 0.631D+00
 Coeff:     -0.237D-02 0.606D-02 0.764D-01 0.104D+00 0.185D+00 0.631D+00
 Gap=     0.186 Goal=   None    Shift=    0.000
 RMSDP=1.77D-08 MaxDP=3.91D-07 DE=-1.76D-10 OVMax= 5.82D-07

 Cycle  13  Pass 1  IDiag  1:
 RMSU=  1.25D-08    CP:  1.00D+00  6.23D-01  8.61D-01  4.85D-01  5.25D-01
                    CP:  7.61D-01
 E= -744.917339220173     Delta-E=        0.000000000001 Rises=F Damp=F
 DIIS: error= 3.09D-08 at cycle   7 NSaved=   7.
 NSaved= 7 IEnMin= 6 EnMin= -744.917339220174     IErMin= 7 ErrMin= 3.09D-08
 ErrMax= 3.09D-08  0.00D+00 EMaxC= 1.00D-01 BMatC= 1.97D-13 BMatP= 4.11D-12
 IDIUse=1 WtCom= 1.00D+00 WtEn= 0.00D+00
 Coeff-Com: -0.748D-03 0.953D-03 0.147D-01 0.226D-01 0.422D-01 0.231D+00
 Coeff-Com:  0.689D+00
 Coeff:     -0.748D-03 0.953D-03 0.147D-01 0.226D-01 0.422D-01 0.231D+00
 Coeff:      0.689D+00
 Gap=     0.186 Goal=   None    Shift=    0.000
 RMSDP=4.84D-09 MaxDP=1.37D-07 DE= 1.14D-12 OVMax= 2.99D-07

 SCF Done:  E(RB3LYP) =  -744.917339220     A.U. after   13 cycles
            NFock= 13  Conv=0.48D-08     -V/T= 2.0063
 KE= 7.402444581105D+02 PE=-2.760293597791D+03 EE= 7.705951254036D+02
 Leave Link  502 at Mon Oct 14 01:51:42 2019, MaxMem= 10737418240 cpu:              63.6 elap:               2.7
 (Enter /apps/cent7/gaussian/g16-A.03/g16-haswell/g16/l701.exe)
 ... and contract with generalized density number  0.
 Compute integral first derivatives.
 Leave Link  701 at Mon Oct 14 01:51:42 2019, MaxMem= 10737418240 cpu:               2.4 elap:               0.1
 (Enter /apps/cent7/gaussian/g16-A.03/g16-haswell/g16/l702.exe)
 L702 exits ... SP integral derivatives will be done elsewhere.
 Leave Link  702 at Mon Oct 14 01:51:42 2019, MaxMem= 10737418240 cpu:               0.5 elap:               0.0
 (Enter /apps/cent7/gaussian/g16-A.03/g16-haswell/g16/l703.exe)
 Integral derivatives from FoFJK, PRISM(SPDF).
 Compute integral first derivatives, UseDBF=F ICtDFT=           0.
 Calling FoFJK, ICntrl=      2127 FMM=F ISym2X=0 I1Cent= 0 IOpClX= 0 NMat=1 NMatS=1 NMatT=0.
 FoFJK:  IHMeth= 1 ICntrl=    2127 DoSepK=F KAlg= 0 I1Cent=           0 FoldK=F
 IRaf=         0 NMat=       1 IRICut=       1 DoRegI=T DoRafI=F ISym2E= 0 IDoP0=0 IntGTp=1.
 FoFCou: FMM=F IPFlag=           0 FMFlag=      100000 FMFlg1=         800
         NFxFlg=           0 DoJE=F BraDBF=F KetDBF=F FulRan=T
         wScrn=  0.000000 ICntrl=      2127 IOpCl=  0 I1Cent=           0 NGrid=           0
         NMat0=    1 NMatS0=      1 NMatT0=    0 NMatD0=    1 NMtDS0=    0 NMtDT0=    0
 Symmetry not used in FoFCou.
 Leave Link  703 at Mon Oct 14 01:51:43 2019, MaxMem= 10737418240 cpu:              17.1 elap:               0.7
 (Enter /apps/cent7/gaussian/g16-A.03/g16-haswell/g16/l716.exe)
 Dipole        =-1.05269988D+00-1.27164017D-01 1.37034061D+00
 ***** Axes restored to original set *****
 -------------------------------------------------------------------
 Center     Atomic                   Forces (Hartrees/Bohr)
 Number     Number              X              Y              Z
 -------------------------------------------------------------------
      1        8           0.023147238   -0.001418947   -0.009510845
      2       16          -0.032026238   -0.005810898    0.015590962
      3        6           0.004612552   -0.000377756   -0.004416264
      4        6           0.006050312    0.010079499   -0.004209900
      5        6          -0.000521113   -0.001551988    0.000281601
      6        6           0.000591258    0.002110967   -0.000855542
      7        6           0.001025243    0.000676381    0.000469793
      8        6           0.000160544    0.000094528   -0.000001335
      9        6          -0.001760538   -0.001923031    0.001427618
     10        1          -0.001305571   -0.001064736   -0.001564812
     11        1           0.000464179    0.000108392    0.001371695
     12        1          -0.000304423   -0.001227473    0.000537900
     13        1          -0.000025541   -0.000211793    0.000175075
     14        1           0.000254704    0.000382050    0.000071845
     15        1          -0.000006717    0.000234844    0.000028752
     16        1          -0.000098014    0.000264078   -0.000189220
[...]
   zz         0.967495D+02      0.143368D+02      0.159518D+02

 ----------------------------------------------------------------------
 1\1\GINC-BROWN-A199\Freq\RB3LYP\6-31G(d)\C7H8O1S1\FINEJ\14-Oct-2019\0\
 \#P Geom=AllCheck Guess=TCheck SCRF=Check GenChk RB3LYP/6-31G(d) Freq\
 \Title Card Required\\0,1\O,-2.4314383549,-1.7109173365,0.283473926\S,
 -0.9184223572,-1.6999855333,0.2571707113\C,-0.4082970351,-2.2852020945
 ,-1.4115521576\C,-0.3944876422,0.0351341304,0.0289956157\C,0.953221041
 8,0.3891370562,0.1178513374\C,1.314016017,1.7297196427,-0.0232142525\C
 ,0.3311387753,2.7010672378,-0.2337391783\C,-1.0148263559,2.3346721916,
 -0.3006785647\C,-1.3847921049,0.9950766303,-0.1647040967\H,-0.66939533
 34,-3.3450098048,-1.4725684243\H,-0.9582181415,-1.718713808,-2.1674896
 761\H,0.6703638263,-2.1549574437,-1.5360741979\H,1.7143691433,-0.36690
 6611,0.298962559\H,2.3601304789,2.0170350674,0.0394859006\H,0.61562818
 84,3.7447615852,-0.3358268372\H,-1.7779395146,3.0929173673,-0.45483930
 22\H,-2.4229506313,0.6762717229,-0.1967533624\\Version=ES64L-G16RevA.0
 3\State=1-A\HF=-744.9225785\RMSD=2.305e-09\RMSF=5.357e-06\ZeroPoint=0.
 1332277\Thermal=0.1332277\Dipole=1.3174207,0.5122375,-0.6135843\Dipole
 Deriv=-0.9788314,-0.3093911,0.3340986,-0.0159813,-0.5270509,0.0189582,
 -0.0674915,0.0046337,-0.4743161,1.0062793,0.4215394,-0.382178,0.153401
 5,0.8246218,-0.0321377,-0.1705102,-0.0323554,0.7562359,-0.0752022,-0.0
 488801,0.0353808,-0.0482374,-0.1012378,0.0330226,0.1165145,-0.0389461,
 -0.2319106,-0.1311808,-0.0029325,0.0071343,0.0053717,-0.0118283,0.0159
 785,0.0965441,0.1605173,-0.1496915,0.0279355,0.0081752,0.0305784,-0.16
 94784,-0.1375555,-0.047746,0.0332191,0.0147876,-0.0880317,0.1204114,0.
 0337507,0.0154794,0.0755279,-0.0464434,0.0000557,0.0051826,-0.0200534,
 -0.0961004,-0.0393549,0.0346663,-0.0019666,0.0447227,0.0944704,-0.0336
 047,-0.0001353,-0.0150883,-0.0953484,0.0639052,-0.0690815,0.0161144,-0
 .1470628,0.0741719,-0.030392,0.0223611,-0.0414611,-0.0888399,-0.024585
 1,-0.1175398,-0.0052403,0.0513176,-0.2073505,0.0039643,-0.0200724,-0.0
 208917,-0.0830791,0.0900287,-0.019875,0.0086321,-0.0343098,-0.093442,-
 0.0235987,0.0034698,-0.0820771,0.0457737,0.0416994,0.0443321,-0.023143
 ,0.0671797,0.0465066,0.0303844,0.0043039,0.0023103,-0.0519629,-0.07264
 66,-0.0150305,0.0278851,-0.0247624,0.0862081,-0.0119446,0.0206692,-0.0
 173027,0.0153503,0.0079432,0.0638027,-0.0183091,0.0946376,-0.0075755,0
 .027865,-0.012118,0.0250032,0.1010654,-0.1001994,-0.0596192,-0.0161119
 ,-0.0513676,0.0269951,0.0010717,-0.0129324,0.0054333,0.1109082,0.05332
 55,-0.0470923,-0.0003171,-0.0464824,-0.1026489,0.0203869,0.0014932,0.0
 223198,0.1094832,-0.0193428,0.0804358,-0.0199852,0.0716756,-0.0521773,
 0.020274,-0.016011,0.0287135,0.1073626,0.0298149,0.0027397,-0.0080518,
 -0.0261522,0.1343362,0.0074623,-0.0044867,0.004457,0.1131013\Polar=97.
 0439444,8.3324071,120.5410874,0.1583621,0.1870633,49.9321031\Quadrupol
 e=-2.1085301,3.8567299,-1.7481998,-4.1978781,1.6351548,2.0871728\PG=C0
 1 [X(C7H8O1S1)]\NImag=0\\0.47101804,0.01102645,0.04273690,-0.01888062,
 -0.00007158,0.03648494,-0.44193865,0.01902749,-0.02449041,0.55427715,-
 0.00140521,-0.05130240,0.00177027,-0.00703348,0.25966284,0.00503683,0.
 00240814,-0.05421628,0.00823863,-0.00089442,0.25234298,-0.01472625,0.0
 0759022,0.03556490,-0.05253120,-0.00575636,-0.01853032,0.56577362,-0.0
 0468059,0.00528379,-0.00287794,0.00365283,-0.04959240,0.00316699,0.023
 81550,0.54732037,0.00246269,0.00187805,0.01020414,0.01574020,-0.027158
 43,-0.12506569,0.05958728,-0.07224578,0.38133766,-0.01509139,-0.032987
 70,0.00865563,-0.06062534,0.01815876,-0.00571621,0.00554363,0.00388080
 ,-0.00302436,0.66784190,0.00170969,0.00338694,0.00205265,-0.01949200,-
 0.11540421,0.00326028,0.00074760,-0.01461420,-0.00097944,-0.04291094,0
 .49848802,0.00497028,-0.00549045,0.00595753,-0.00226359,0.03775713,-0.
 04824157,-0.00367656,-0.02533812,0.00387338,0.05010832,-0.04552496,0.1
 4082660,0.00176353,0.00200813,-0.00024296,-0.00345265,-0.01417388,0.00
 161035,0.00020604,0.00123859,-0.00001902,-0.31749897,-0.06755229,-0.01
 646320,0.68656308,-0.00718992,-0.00510271,0.00169115,-0.02002205,-0.00
 710084,-0.00208697,0.00039244,-0.00096087,-0.00017337,-0.02124772,-0.1
 2422520,0.00854754,-0.03022737,0.69290309,0.00113812,0.00200710,0.0006
 1671,0.00301112,-0.00148611,0.00024034,0.00063539,-0.00073549,-0.00043
 565,-0.02497127,0.00435642,-0.06019402,0.05999085,-0.07856225,0.143584
 72,-0.00164477,-0.00195914,0.00079487,-0.00403959,0.00128654,-0.001014
 44,0.00042246,0.00030191,0.00002705,0.00027049,-0.03536953,0.00379137,
 -0.13950901,-0.08811763,0.00349868,0.73304311,0.00130000,-0.00082034,-
 0.00028052,-0.00068374,0.00636469,0.00023439,0.00024022,-0.00001083,0.
 00008741,-0.08793106,-0.00058044,-0.00718087,-0.02016150,-0.32431126,0
 .03288659,0.02586668,0.66594843,-0.00073548,-0.00027529,0.00011273,0.0
 0044423,-0.00041135,0.00453069,0.00010353,0.00124978,-0.00021048,0.009
 88783,-0.00292365,0.00953334,-0.00471309,0.02630576,-0.06246639,0.0525
 5580,-0.06567958,0.14313598,0.00038140,-0.00074862,-0.00033868,-0.0016
 8742,0.00235305,-0.00000355,0.00009517,-0.00001123,0.00041198,-0.06464
 514,0.01509865,-0.00728527,0.05648468,0.05446487,-0.00255565,-0.232084
 37,0.06735301,-0.02430739,0.67254765,-0.00021917,0.00002006,-0.0000115
 6,0.00104171,-0.00133758,-0.00016673,-0.00055044,-0.00035984,0.0001991
 9,0.01701464,-0.00460236,0.00184689,0.00479481,-0.04843164,0.00778057,
 0.13377291,-0.22851261,0.03279708,0.02545934,0.73130173,0.00017036,-0.
 00006945,-0.00003648,-0.00019361,0.00063330,-0.00046423,0.00004805,-0.
 00014157,0.00006923,-0.00729448,0.00076765,-0.00847177,0.00372806,0.01
 194539,0.00584617,-0.03221075,0.02659634,-0.06708365,0.04383656,-0.072
 03619,0.14536969,0.00189382,-0.00279596,0.00098599,-0.00404119,0.00390
 598,-0.00165720,-0.00041567,-0.00034176,-0.00058875,0.05405326,0.00727
 719,0.00376807,-0.03518015,-0.03322353,0.00240467,-0.04854304,0.054399
 02,-0.01192693,-0.32562647,-0.08616336,-0.01152499,0.70313911,-0.00089
 749,0.00158535,0.00006391,0.00397825,-0.00048971,0.00069011,-0.0000253
 9,-0.00011846,-0.00051294,0.05675547,-0.05013955,0.01242706,-0.0335867
 7,-0.03406336,0.00080071,0.00599959,0.05746195,-0.00576016,-0.01999174
 ,-0.14361818,0.00834730,-0.03103172,0.69711186,-0.00034537,0.00042274,
 -0.00009235,-0.00067241,-0.00162103,0.00574616,0.00027919,0.00215082,-
 0.00019851,-0.00291427,0.00741066,0.00604712,0.00198749,0.00047758,-0.
 00682596,-0.00567976,-0.00125044,0.00706328,-0.01915106,0.00258051,-0.
 06294563,0.05019432,-0.07239287,0.14581281,-0.00327720,0.00290488,-0.0
 0112866,0.01534621,-0.00295730,0.00053462,-0.00064287,-0.00199148,0.00
 050139,-0.23406925,0.12528319,-0.02758611,-0.04581975,0.00718967,-0.00
 540504,-0.00527313,0.01732982,-0.00200923,0.00473427,-0.03679891,0.004
 33512,-0.14182520,-0.08881256,0.00432629,0.72844158,0.00139187,0.00246
 707,-0.00176574,0.01163935,-0.03635029,0.00772392,-0.00031291,-0.00050
 453,0.00213557,0.07918035,-0.20820520,0.02309612,0.05145382,0.05310242
 ,-0.00254506,0.01602403,-0.06261373,0.00861702,-0.08493607,0.00268314,
 -0.00646006,-0.02208384,-0.32195149,0.03088453,0.03531407,0.66926398,-
 0.00093903,0.00023554,0.00032910,0.00115000,0.00530110,0.00057130,-0.0
 0016985,-0.00116993,-0.00031105,-0.02169692,0.02730727,-0.06393162,-0.
 01260894,-0.00581626,0.00753953,-0.00178924,0.00867720,-0.00880017,0.0
 1030990,-0.00262166,0.00845887,-0.00406016,0.02576148,-0.06452620,0.03
 996045,-0.06317124,0.14342738,0.00006926,-0.00073815,-0.00106123,0.001
 33989,0.00811573,0.00192091,-0.06547958,-0.06397716,-0.00566864,0.0000
 4759,0.00033651,0.00204952,-0.00011862,-0.00013523,-0.00017453,0.00003
 356,0.00034509,-0.00030678,0.00031201,-0.00000762,0.00004553,-0.000131
 96,-0.00030828,-0.00016123,0.00008098,0.00041267,-0.00011962,0.0639052
 7,0.00154040,0.00133301,0.00069653,-0.00262041,-0.00733703,-0.00042233
 ,-0.06509634,-0.30981077,-0.01002731,-0.00036712,-0.00074209,-0.002131
 46,0.00048353,0.00007794,-0.00006474,0.00008971,-0.00008213,0.00016069
 ,0.00000686,-0.00007093,-0.00001226,-0.00022004,-0.00003312,0.00011115
 ,-0.00026147,0.00053030,-0.00035049,0.07070917,0.33008542,-0.00014840,
 0.00247512,0.00172438,-0.00715263,-0.02609686,-0.00314813,-0.00517206,
 -0.01392502,-0.04567659,0.00215245,-0.00131762,-0.00537117,0.00023821,
 -0.00043183,0.00021068,-0.00001573,0.00012039,0.00037356,0.00007818,-0
 .00024558,-0.00004334,-0.00007469,-0.00011664,0.00063790,-0.00070758,-
 0.00056229,-0.00025839,0.00377236,0.01370825,0.04887111,0.00067796,-0.
 00041360,-0.00309947,0.00500570,-0.00207313,0.01046155,-0.11991981,0.0
 7209428,-0.09719511,-0.00046860,-0.00075870,-0.00013105,-0.00036471,-0
 .00005734,-0.00009997,0.00001998,-0.00013217,0.00004308,-0.00009717,-0
 .00002133,-0.00000684,0.00003761,0.00005498,0.00002116,0.00010305,-0.0
 0019649,-0.00009084,0.00461680,-0.00465321,0.00689793,0.12238775,-0.00
 076813,-0.00054912,0.00329959,-0.00460484,0.00340312,-0.01446975,0.072
 89904,-0.12491727,0.10173068,-0.00068776,0.00187711,-0.00014079,-0.000
 33424,-0.00013847,0.00007796,-0.00008065,0.00015238,-0.00004704,0.0001
 6448,-0.00003751,0.00000678,-0.00015444,-0.00020743,0.00012366,0.00039
 189,0.00034191,0.00023456,0.01622170,-0.01314061,0.02164898,-0.0802966
 4,0.13101419,0.00181730,-0.00018015,0.00790782,-0.01298598,0.00689813,
 -0.03082361,-0.10021588,0.10614333,-0.17449466,0.00086365,0.00190276,0
 .00229976,-0.00036939,-0.00046140,0.00038344,-0.00006010,0.00036008,-0
 .00029901,0.00027716,-0.00013962,0.00004204,-0.00008240,-0.00032814,-0
 .00008477,0.00002750,-0.00025467,0.00026378,0.00206581,-0.00199308,0.0
 0309612,0.10536290,-0.10824802,0.18641004,-0.00011282,-0.00006384,0.00
 226020,-0.00506886,-0.00006843,-0.00086808,-0.31769307,-0.03397197,0.0
 2747362,0.00034247,-0.00032702,-0.00019705,-0.00017603,-0.00043967,-0.
 00036961,0.00017214,0.00028729,-0.00024463,0.00026785,-0.00005884,0.00
 006124,-0.00019152,-0.00027811,0.00004424,-0.00012066,0.00044733,-0.00
 016653,-0.00483878,0.00043147,0.00029439,-0.01210681,-0.00291507,0.003
 20445,0.33919585,0.00188754,0.00020023,-0.00380787,0.00974033,-0.00048
 769,0.00140140,-0.03342107,-0.05088040,0.00502409,-0.00036061,0.000140
 69,0.00035585,0.00000664,-0.00052038,0.00010373,-0.00022442,-0.0002602
 7,0.00012172,-0.00013671,0.00002977,-0.00003663,0.00008991,0.00010435,
 -0.00009134,0.00002186,-0.00009797,-0.00010546,-0.03109127,-0.00073470
 ,0.00497088,0.01638666,0.00217113,-0.00369114,0.03728985,0.05028078,0.
 00409452,-0.00226973,-0.00757490,0.02201502,0.00476660,0.00275785,0.03
 174128,0.00517028,-0.04931895,-0.00093320,0.00072286,0.00048353,0.0004
 4969,-0.00059832,0.00022279,-0.00034587,-0.00029698,0.00011364,-0.0002
 6998,0.00015741,-0.00007003,0.00023749,0.00028285,-0.00009961,0.000019
 83,-0.00040796,0.00016283,-0.00282836,0.00038117,0.00014465,-0.0222055
 0,-0.00404611,0.00530525,-0.03166780,-0.00388123,0.04834239,0.00018785
 ,-0.00033676,0.00040947,0.00009780,0.00149326,-0.00050342,-0.00048071,
 -0.00010221,0.00034512,-0.01740180,0.02191323,-0.00487761,-0.19455442,
 0.13341706,-0.03445627,0.00983112,-0.00695936,0.00156199,0.00053092,-0
 .00217742,-0.00042770,-0.00021205,-0.00100455,0.00010982,-0.00473396,-
 0.00359281,-0.00061648,0.00014661,-0.00004583,-0.00013326,0.00010723,0
 .00007506,0.00001045,0.00027435,-0.00015884,-0.00028759,0.20566379,0.0
 0069963,-0.00008936,0.00008734,-0.00063491,0.00041572,-0.00057533,0.00
 007152,-0.00006323,-0.00016363,-0.00537658,0.01048692,-0.00182625,0.13
 143180,-0.19156219,0.03496437,0.02399769,-0.01641491,0.00470916,-0.003
 53940,-0.00431746,0.00124361,-0.00097306,-0.00031970,-0.00010580,-0.00
 201037,0.00010994,0.00073799,0.00002169,-0.00001462,0.00004576,-0.0000
 3469,-0.00002451,0.00005875,-0.00023351,-0.00006833,-0.00013936,-0.144
 11628,0.20119799,0.00002439,0.00011666,-0.00005780,-0.00077379,-0.0001
 5818,-0.00196148,-0.00026390,-0.00030668,0.00011548,-0.00077477,0.0007
 6619,0.00075015,-0.03451937,0.03579359,-0.04308737,-0.00249479,0.00162
 094,0.00235276,-0.00018676,0.00128665,0.00704881,0.00015435,-0.0000880
 2,-0.00032000,-0.00051959,0.00036092,0.00644933,0.00035916,-0.00005506
 ,-0.00019891,0.00003175,-0.00002807,0.00005107,0.00013644,-0.00039250,
 -0.00038434,0.03847147,-0.03837528,0.03365647,-0.00025698,-0.00012699,
 0.00005841,0.00020406,0.00062003,-0.00016224,-0.00001720,-0.00008451,0
 .00000750,0.00135329,-0.00169067,-0.00027788,-0.00387377,-0.00000424,-
 0.00060225,-0.31898821,-0.07121586,-0.01776148,-0.01675393,-0.00853421
 ,-0.00077797,-0.00091594,0.00396756,-0.00122543,0.00052654,0.00054139,
 0.00000670,0.00001155,-0.00001980,-0.00004548,-0.00000381,0.00000792,-
 0.00000123,0.00000099,-0.00000130,-0.00000196,0.00077403,-0.00017895,0
 .00047809,0.33800259,-0.00075324,-0.00053469,0.00009487,-0.00067972,0.
 00086173,-0.00011952,0.00005793,-0.00004695,0.00002631,-0.00065537,-0.
 00548374,0.00158997,-0.03073465,-0.00407339,-0.00215535,-0.07131004,-0
 .07915488,-0.00122382,0.02264346,0.01045634,0.00115624,0.00275105,-0.0
 0304607,0.00146028,0.00049550,-0.00108808,0.00017115,0.00001743,-0.000
 00738,-0.00004763,-0.00000277,0.00000140,-0.00001327,0.00001801,-0.000
 03134,-0.00005293,0.00037182,0.00111217,-0.00064428,0.07701960,0.07969
 249,0.00009936,-0.00008867,-0.00023734,0.00002939,0.00007551,0.0005923
 0,-0.00003785,0.00001948,0.00001255,-0.00009502,0.00141002,0.00688756,
 0.00316875,0.00057936,0.00257867,-0.01802809,-0.00106751,-0.03718345,-
 0.00449889,-0.00187090,0.00228048,-0.00110841,0.00157472,0.00656300,-0
 .00007834,0.00036758,-0.00042593,-0.00002461,0.00001233,-0.00000184,-0
 .00001521,0.00002814,-0.00000571,0.00001123,0.00000540,0.00003287,0.00
 049009,-0.00071737,-0.00383396,0.01980360,0.00044532,0.02723757,0.0001
 8942,-0.00017715,0.00005372,-0.00012588,-0.00004011,0.00009575,-0.0000
 0695,0.00001641,0.00002226,-0.00131964,0.00057173,-0.00019209,-0.00291
 034,0.00290952,-0.00128354,0.01022250,0.02286567,-0.00205525,-0.079590
 30,-0.07043886,0.00482557,-0.00273248,-0.03098686,0.00324065,-0.005746
 42,-0.00064965,-0.00096519,0.00000779,-0.00000053,-0.00000494,0.000002
 06,0.00001380,0.00001002,0.00001961,-0.00001246,-0.00002660,0.00038103
 ,0.00124010,-0.00015604,0.00089740,-0.00041667,0.00048658,0.07975718,-
 0.00011309,-0.00016408,0.00000608,0.00001088,0.00016430,-0.00007946,0.
 00003233,-0.00005765,-0.00002054,0.00056915,0.00070327,-0.00006886,0.0
 0381884,-0.00098022,0.00130969,-0.00837587,-0.01661120,0.00155352,-0.0
 7041249,-0.31801626,0.02818725,0.00022861,-0.00396710,0.00081605,-0.00
 158787,0.00146154,0.00054256,-0.00000201,-0.00001298,-0.00002177,-0.00
 000657,0.00000626,0.00000777,-0.00000766,0.00001709,0.00001388,-0.0004
 5299,-0.00090959,0.00010314,0.00027024,0.00084971,-0.00055043,0.076086
 53,0.33696171,0.00007811,-0.00008071,-0.00004000,-0.00019152,-0.000120
 06,-0.00080975,-0.00001769,-0.00021548,-0.00000902,-0.00007915,0.00010
 143,-0.00029284,-0.00139441,0.00127748,0.00657418,0.00164343,0.0045233
 1,0.00215748,0.00469811,0.02798121,-0.03941793,-0.00025169,-0.00170674
 ,0.00293529,-0.00089238,0.00041243,0.00698435,0.00004542,-0.00001300,-
 0.00006744,0.00000153,-0.00001247,0.00002436,0.00002613,-0.00001053,-0
 .00001836,0.00002716,0.00028752,0.00018963,0.00041345,-0.00061483,-0.0
 0368783,-0.00454465,-0.03127855,0.02907704,-0.00005472,0.00016331,-0.0
 0002127,0.00034413,-0.00061456,0.00007905,-0.00000460,-0.00001919,0.00
 001538,0.00080348,-0.00210257,-0.00023780,-0.00032768,-0.00102105,0.00
 012066,-0.00448989,-0.00337806,-0.00055068,-0.01638657,0.02358710,-0.0
 0441994,-0.19810855,0.13639116,-0.02958946,0.00976136,-0.00745886,0.00
 147349,-0.00000623,0.00001100,-0.00001387,0.00000579,0.00000547,-0.000
 00861,0.00000333,-0.00001035,-0.00000487,0.00007708,0.00017648,0.00009
 416,-0.00093023,0.00124259,-0.00028509,0.00101389,-0.00022456,0.000434
 44,0.20759199,-0.00062261,0.00032585,-0.00008352,0.00160669,-0.0005080
 8,0.00020125,-0.00003906,-0.00016436,0.00011573,-0.00266165,-0.0047843
 3,0.00125159,-0.00100801,-0.00033874,-0.00011291,-0.00221329,0.0005128
 0,0.00065078,-0.00755183,0.00986075,-0.00150241,0.13693791,-0.19533718
 ,0.03057460,0.02261823,-0.01709463,0.00430704,0.00002249,-0.00000208,-
 0.00009829,0.00001207,0.00002418,-0.00002612,0.00001179,0.00000296,-0.
 00002178,0.00016857,0.00005834,-0.00015777,-0.00049937,0.00039942,-0.0
 0007315,0.00044225,0.00075590,-0.00053285,-0.14717896,0.20516126,0.000
 06220,0.00003656,0.00010667,-0.00036926,-0.00008329,0.00016389,0.00003
 173,0.00013235,-0.00002324,-0.00040651,0.00142788,0.00694267,0.0003170
 0,0.00005176,-0.00030461,-0.00070691,0.00053661,0.00701515,-0.00061412
 ,0.00106337,0.00258121,-0.02948465,0.03047135,-0.04287762,-0.00222148,
 0.00154498,0.00259078,0.00003371,0.00001607,0.00005385,0.00000442,-0.0
 0004359,-0.00000894,0.00001376,0.00001383,-0.00001529,0.00012563,-0.00
 016604,-0.00131564,-0.00002530,0.00007241,0.00028013,0.00034051,-0.000
 58643,-0.00379765,0.03260592,-0.03386641,0.03250682,0.00092150,-0.0023
 7255,0.00048011,-0.00310415,-0.00181087,0.00047778,-0.00012300,0.00017
 977,-0.00009857,-0.01913598,-0.00273406,-0.00149933,-0.00123121,0.0033
 1218,-0.00088135,0.00055663,0.00047497,0.00001449,0.00151744,-0.000700
 35,-0.00019420,-0.00119958,-0.00022354,-0.00046417,-0.31748556,-0.0771
 7423,-0.00967774,0.00000386,0.00001262,0.00003512,-0.00000301,0.000062
 41,0.00008436,0.00003196,-0.00000577,0.00001390,-0.00068887,-0.0005411
 5,-0.00006079,-0.00003040,-0.00006493,0.00008252,-0.00005888,0.0001665
 4,0.00000372,0.00070742,-0.00004523,0.00029333,0.33932183,-0.00290611,
 0.00122351,-0.00086366,0.00507363,-0.00096218,-0.00027198,-0.00064524,
 -0.00050238,0.00008440,0.01962732,0.01369838,0.00082960,0.00254257,-0.
 00427418,0.00137477,0.00031151,-0.00106767,0.00015537,-0.00021564,-0.0
 0504742,0.00137469,-0.02860197,-0.00297216,-0.00155110,-0.07712913,-0.
 08205439,-0.00004086,0.00005724,-0.00003822,-0.00010584,0.00009866,0.0
 0002322,-0.00003523,-0.00012160,0.00013409,0.00021935,0.00150805,0.000
 40284,0.00015776,-0.00007084,0.00009326,-0.00014982,-0.00142370,-0.000
 20071,0.00000184,0.00043106,0.00112795,-0.00062140,0.08146419,0.080416
 08,0.00109476,-0.00105389,-0.00118887,-0.00153538,0.00082769,-0.002214
 78,0.00009277,-0.00107703,0.00013141,-0.00376172,-0.00074040,0.0029013
 5,-0.00116000,0.00146079,0.00551676,0.00003448,0.00011262,-0.00034544,
 -0.00040054,0.00139935,0.00683658,0.00301497,0.00048603,0.00316510,-0.
 00915678,0.00002394,-0.03852388,0.00005258,-0.00001646,-0.00034643,0.0
 0001967,-0.00011452,-0.00006697,-0.00001200,0.00001980,-0.00008429,-0.
 00024887,-0.00006545,0.00054582,0.00011348,-0.00014493,-0.00108908,0.0
 0015325,0.00006613,0.00019848,0.00030850,-0.00062577,-0.00389818,0.011
 39083,-0.00055789,0.02846241\\0.00001133,-0.00000112,-0.00000296,-0.00
 001275,-0.00000294,0.00000059,-0.00001255,0.00000635,0.00000803,0.0000
 1906,-0.00001508,-0.00000090,-0.00000431,0.00000508,0.00000451,0.00000
 251,0.00000050,-0.00000360,0.00000159,0.00000308,0.00000053,-0.0000042
 3,-0.00000191,0.00000434,-0.00000489,0.00000690,-0.00000458,0.00000316
 ,0.00000058,-0.00000157,0.00000175,-0.00000271,-0.00000335,0.00000189,
 0.00000029,0.00000033,-0.00000030,-0.00000135,-0.00000280,-0.00000061,
 0.00000153,0.00000143,0.00000110,0.00000040,0.00000116,-0.00000096,-0.
 00000023,-0.00000279,-0.00000176,0.00000064,0.00000165\\\@


 ON A CLEAR DISK YOU CAN SEEK FOREVER.
 Job cpu time:       0 days  0 hours  8 minutes 21.2 seconds.
 Elapsed time:       0 days  0 hours  0 minutes 21.4 seconds.
 File lengths (MBytes):  RWF=     56 Int=      0 D2E=      0 Chk=      3 Scr=      1
 Normal termination of Gaussian 16 at Mon Oct 14 01:52:38 2019.
real 65.19
user 1444.59
sys 13.13
Machine:
brown-a199
brown-a199
brown-a199
brown-a199
brown-a199
brown-a199
brown-a199
brown-a199
brown-a199
brown-a199
brown-a199
brown-a199
brown-a199
brown-a199
brown-a199
brown-a199
brown-a199
brown-a199
brown-a199
brown-a199
brown-a199
brown-a199
brown-a199
brown-a199
