Title Card Required                                                     
Freq      RB3LYP                                                      6-31G(d)            
Number of atoms                            I               18
Info1-9                                    I   N=           9
          46          46        1002           0           0         100
           6          18        -502
Full Title                                 C   N=           2
Title Card Required     
Route                                      C   N=           6
#P opt freq b3lyp/6-31g(d) geom=connectivity temperature=0.0
01          
Charge                                     I                1
Multiplicity                               I                1
Number of electrons                        I               74
Number of alpha electrons                  I               37
Number of beta electrons                   I               37
Number of basis functions                  I              157
Number of independent functions            I              157
Number of point charges in /Mol/           I                0
Number of translation vectors              I                0
Atomic numbers                             I   N=          18
           8          16           6           6           6           6
           6           6           6           1           1           1
           1           1           1           1           1           1
Nuclear charges                            R   N=          18
  8.00000000E+00  1.60000000E+01  6.00000000E+00  6.00000000E+00  6.00000000E+00
  6.00000000E+00  6.00000000E+00  6.00000000E+00  6.00000000E+00  1.00000000E+00
  1.00000000E+00  1.00000000E+00  1.00000000E+00  1.00000000E+00  1.00000000E+00
  1.00000000E+00  1.00000000E+00  1.00000000E+00
Current cartesian coordinates              R   N=          54
  4.14088102E+00  4.04449547E-01 -2.45030540E+00  2.92692202E+00 -1.03530039E+00
  4.39592448E-02  4.28747129E+00  1.05378686E+00  2.38281241E+00 -3.34791757E-01
 -3.22582337E-01  1.91509547E-02 -1.95456766E+00 -2.41303189E+00  2.21445499E-01
 -4.55561669E+00 -1.99234118E+00  2.30664669E-01 -5.49213213E+00  4.63597434E-01
 -2.20245147E-04 -3.84909217E+00  2.52725846E+00 -2.40509326E-01 -1.24834257E+00
  2.15602566E+00 -2.27793800E-01  6.32582523E+00  7.32163392E-01  2.37273579E+00
  3.84801694E+00  3.01214724E+00  1.90375170E+00  3.47703915E+00  5.35076690E-01
  4.21017357E+00 -1.20490477E+00 -4.31726378E+00  3.81786677E-01 -5.84097545E+00
 -3.58058325E+00  4.02869526E-01 -7.51920279E+00  7.80212723E-01 -5.54946511E-03
 -4.60199804E+00  4.42432792E+00 -4.41044018E-01  2.71402963E-02  3.74722500E+00
 -4.47897523E-01  4.41368914E+00 -8.40374118E-01 -3.79103196E+00
Number of symbols in /Mol/                 I                0
Force Field                                I                0
Atom Types                                 C   N=          18
                                                            
                                                            
                                                            
                                    
Int Atom Types                             I   N=          18
           0           0           0           0           0           0
           0           0           0           0           0           0
           0           0           0           0           0           0
MM charges                                 R   N=          18
  0.00000000E+00  0.00000000E+00  0.00000000E+00  0.00000000E+00  0.00000000E+00
  0.00000000E+00  0.00000000E+00  0.00000000E+00  0.00000000E+00  0.00000000E+00
  0.00000000E+00  0.00000000E+00  0.00000000E+00  0.00000000E+00  0.00000000E+00
  0.00000000E+00  0.00000000E+00  0.00000000E+00
Integer atomic weights                     I   N=          18
          16          32          12          12          12          12
          12          12          12           1           1           1
           1           1           1           1           1           1
Real atomic weights                        R   N=          18
  1.59949146E+01  3.19720718E+01  1.20000000E+01  1.20000000E+01  1.20000000E+01
  1.20000000E+01  1.20000000E+01  1.20000000E+01  1.20000000E+01  1.00782504E+00
  1.00782504E+00  1.00782504E+00  1.00782504E+00  1.00782504E+00  1.00782504E+00
  1.00782504E+00  1.00782504E+00  1.00782504E+00
Atom fragment info                         I   N=          18
           0           0           0           0           0           0
           0           0           0           0           0           0
           0           0           0           0           0           0
Atom residue num                           I   N=          18
           0           0           0           0           0           0
           0           0           0           0           0           0
           0           0           0           0           0           0
Nuclear spins                              I   N=          18
           0           0           0           0           0           0
           0           0           0           1           1           1
           1           1           1           1           1           1
Nuclear ZEff                               R   N=          18
 -5.60000000E+00 -1.36000000E+01 -3.60000000E+00 -3.60000000E+00 -3.60000000E+00
 -3.60000000E+00 -3.60000000E+00 -3.60000000E+00 -3.60000000E+00 -1.00000000E+00
 -1.00000000E+00 -1.00000000E+00 -1.00000000E+00 -1.00000000E+00 -1.00000000E+00
 -1.00000000E+00 -1.00000000E+00 -1.00000000E+00
Nuclear ZNuc                               R   N=          18
  8.00000000E+00  1.60000000E+01  6.00000000E+00  6.00000000E+00  6.00000000E+00
  6.00000000E+00  6.00000000E+00  6.00000000E+00  6.00000000E+00  1.00000000E+00
  1.00000000E+00  1.00000000E+00  1.00000000E+00  1.00000000E+00  1.00000000E+00
  1.00000000E+00  1.00000000E+00  1.00000000E+00
Nuclear QMom                               R   N=          18
  0.00000000E+00  0.00000000E+00  0.00000000E+00  0.00000000E+00  0.00000000E+00
  0.00000000E+00  0.00000000E+00  0.00000000E+00  0.00000000E+00  0.00000000E+00
  0.00000000E+00  0.00000000E+00  0.00000000E+00  0.00000000E+00  0.00000000E+00
  0.00000000E+00  0.00000000E+00  0.00000000E+00
Nuclear GFac                               R   N=          18
  0.00000000E+00  0.00000000E+00  0.00000000E+00  0.00000000E+00  0.00000000E+00
  0.00000000E+00  0.00000000E+00  0.00000000E+00  0.00000000E+00  2.79284600E+00
  2.79284600E+00  2.79284600E+00  2.79284600E+00  2.79284600E+00  2.79284600E+00
  2.79284600E+00  2.79284600E+00  2.79284600E+00
MicOpt                                     I   N=          18
          -1          -1          -1          -1          -1          -1
          -1          -1          -1          -1          -1          -1
          -1          -1          -1          -1          -1          -1
Number of residues                         I                0
Number of secondary structures             I                0
Redundant internal dimensions              I   N=           4
          82          18          28          36
Redundant internal coordinate indices      I   N=         328
           1           2           0           0           1          18
           0           0           2           3           0           0
           2           4           0           0           3          10
           0           0           3          11           0           0
           3          12           0           0           4           5
           0           0           4           9           0           0
           5           6           0           0           5          13
           0           0           6           7           0           0
           6          14           0           0           7           8
           0           0           7          15           0           0
           8           9           0           0           8          16
           0           0           9          17           0           0
           2           1          18           0           1           2
           3           0           1           2           4           0
           3           2           4           0           2           3
          10           0           2           3          11           0
           2           3          12           0          10           3
          11           0          10           3          12           0
          11           3          12           0           2           4
           5           0           2           4           9           0
           5           4           9           0           4           5
           6           0           4           5          13           0
           6           5          13           0           5           6
           7           0           5           6          14           0
           7           6          14           0           6           7
           8           0           6           7          15           0
           8           7          15           0           7           8
           9           0           7           8          16           0
           9           8          16           0           4           9
           8           0           4           9          17           0
           8           9          17           0          18           1
           2           3          18           1           2           4
           1           2           3          10           1           2
           3          11           1           2           3          12
           4           2           3          10           4           2
           3          11           4           2           3          12
           1           2           4           5           1           2
           4           9           3           2           4           5
           3           2           4           9           2           4
           5           6           2           4           5          13
           9           4           5           6           9           4
           5          13           2           4           9           8
           2           4           9          17           5           4
           9           8           5           4           9          17
           4           5           6           7           4           5
           6          14          13           5           6           7
          13           5           6          14           5           6
           7           8           5           6           7          15
          14           6           7           8          14           6
           7          15           6           7           8           9
           6           7           8          16          15           7
           8           9          15           7           8          16
           7           8           9           4           7           8
           9          17          16           8           9           4
          16           8           9          17
Redundant internal coordinates             R   N=          82
  3.12536917E+00  1.84974537E+00  3.41842273E+00  3.33876612E+00  2.06359637E+00
  2.06344243E+00  2.06521411E+00  2.65227759E+00  2.65312163E+00  2.63486654E+00
  2.05275494E+00  2.63856087E+00  2.05044252E+00  2.64877632E+00  2.05165521E+00
  2.62714178E+00  2.05084225E+00  2.05115029E+00  1.90257643E+00  1.68093301E+00
  1.84958354E+00  1.83739109E+00  1.86977884E+00  1.91388221E+00  1.87099793E+00
  1.93601271E+00  1.93135313E+00  1.93930779E+00  2.01285542E+00  2.13708285E+00
  2.13310494E+00  2.06837372E+00  2.11072136E+00  2.10406266E+00  2.09287715E+00
  2.08914293E+00  2.10113503E+00  2.10941180E+00  2.08811241E+00  2.08564230E+00
  2.09848628E+00  2.09650694E+00  2.08819044E+00  2.06386804E+00  2.11835302E+00
  2.10070144E+00  2.61554394E+00 -1.78443541E+00 -1.19552292E+00  9.06928498E-01
  3.01407983E+00 -3.08910150E+00 -9.86650080E-01  1.12050125E+00  2.24641669E+00
 -8.77422069E-01 -2.26799511E+00  8.91351437E-01  3.13469298E+00  1.03651334E-03
 -2.46089146E-02  3.12491992E+00  3.13571180E+00  1.86753151E-02  1.30870800E-02
 -3.10394940E+00  1.81499171E-02 -3.13176010E+00 -3.13134755E+00  1.92773689E-03
 -9.94414983E-04  3.13397495E+00 -3.13421181E+00  7.57553616E-04 -1.08051337E-02
  3.12883428E+00  3.13740153E+00 -6.14436403E-03  4.78489585E-03  3.12207915E+00
 -3.13486383E+00 -1.75695708E-02
ZRed-IntVec                                I   N=          82
           0           0           0           0           0           0
           0           0           0           0           0           0
           0           0           0           0           0           0
           0           0           0           0           0           0
           0           0           0           0           0           0
           0           0           0           0           0           0
           0           0           0           0           0           0
           0           0           0           0           0           0
           0           0           0           0           0           0
           0           0           0           0           0           0
           0           0           0           0           0           0
           0           0           0           0           0           0
           0           0           0           0           0           0
           0           0           0           0
ZRed-FPVec                                 R   N=          82
  0.00000000E+00  0.00000000E+00  0.00000000E+00  0.00000000E+00  0.00000000E+00
  0.00000000E+00  0.00000000E+00  0.00000000E+00  0.00000000E+00  0.00000000E+00
  0.00000000E+00  0.00000000E+00  0.00000000E+00  0.00000000E+00  0.00000000E+00
  0.00000000E+00  0.00000000E+00  0.00000000E+00  0.00000000E+00  0.00000000E+00
  0.00000000E+00  0.00000000E+00  0.00000000E+00  0.00000000E+00  0.00000000E+00
  0.00000000E+00  0.00000000E+00  0.00000000E+00  0.00000000E+00  0.00000000E+00
  0.00000000E+00  0.00000000E+00  0.00000000E+00  0.00000000E+00  0.00000000E+00
  0.00000000E+00  0.00000000E+00  0.00000000E+00  0.00000000E+00  0.00000000E+00
  0.00000000E+00  0.00000000E+00  0.00000000E+00  0.00000000E+00  0.00000000E+00
  0.00000000E+00  0.00000000E+00  0.00000000E+00  0.00000000E+00  0.00000000E+00
  0.00000000E+00  0.00000000E+00  0.00000000E+00  0.00000000E+00  0.00000000E+00
  0.00000000E+00  0.00000000E+00  0.00000000E+00  0.00000000E+00  0.00000000E+00
  0.00000000E+00  0.00000000E+00  0.00000000E+00  0.00000000E+00  0.00000000E+00
  0.00000000E+00  0.00000000E+00  0.00000000E+00  0.00000000E+00  0.00000000E+00
  0.00000000E+00  0.00000000E+00  0.00000000E+00  0.00000000E+00  0.00000000E+00
  0.00000000E+00  0.00000000E+00  0.00000000E+00  0.00000000E+00  0.00000000E+00
  0.00000000E+00  0.00000000E+00
ZRed-Constraint1                           R   N=          82
  3.12536917E+00  1.84974537E+00  3.41842273E+00  3.33876612E+00  2.06359637E+00
  2.06344243E+00  2.06521411E+00  2.65227759E+00  2.65312163E+00  2.63486654E+00
  2.05275494E+00  2.63856087E+00  2.05044252E+00  2.64877632E+00  2.05165521E+00
  2.62714178E+00  2.05084225E+00  2.05115029E+00  1.90257643E+00  1.68093301E+00
  1.84958354E+00  1.83739109E+00  1.86977884E+00  1.91388221E+00  1.87099793E+00
  1.93601271E+00  1.93135313E+00  1.93930779E+00  2.01285542E+00  2.13708285E+00
  2.13310494E+00  2.06837372E+00  2.11072136E+00  2.10406266E+00  2.09287715E+00
  2.08914293E+00  2.10113503E+00  2.10941180E+00  2.08811241E+00  2.08564230E+00
  2.09848628E+00  2.09650694E+00  2.08819044E+00  2.06386804E+00  2.11835302E+00
  2.10070144E+00  2.61554394E+00 -1.78443541E+00 -1.19552292E+00  9.06928498E-01
  3.01407983E+00 -3.08910150E+00 -9.86650080E-01  1.12050125E+00  2.24641669E+00
 -8.77422069E-01 -2.26799511E+00  8.91351437E-01  3.13469298E+00  1.03651334E-03
 -2.46089146E-02  3.12491992E+00  3.13571180E+00  1.86753151E-02  1.30870800E-02
 -3.10394940E+00  1.81499171E-02 -3.13176010E+00 -3.13134755E+00  1.92773689E-03
 -9.94414983E-04  3.13397495E+00 -3.13421181E+00  7.57553616E-04 -1.08051337E-02
  3.12883428E+00  3.13740153E+00 -6.14436403E-03  4.78489585E-03  3.12207915E+00
 -3.13486383E+00 -1.75695708E-02
ZRed-Constraint2                           R   N=          82
  3.03107128E+00  1.81413708E+00  3.45976829E+00  3.34354133E+00  2.05987396E+00
  2.05976126E+00  2.05975267E+00  2.66477776E+00  2.66900335E+00  2.65718612E+00
  2.05973297E+00  2.66027270E+00  2.05981738E+00  2.65963107E+00  2.05976001E+00
  2.66217930E+00  2.05967375E+00  2.05987870E+00  2.09439510E+00  1.82647223E+00
  1.85178968E+00  1.86038251E+00  1.91063433E+00  1.91060218E+00  1.91060634E+00
  1.91066489E+00  1.91066884E+00  1.91062284E+00  2.07100927E+00  2.12681962E+00
  2.08535288E+00  2.10020464E+00  2.09404088E+00  2.08893978E+00  2.09480862E+00
  2.09319703E+00  2.09517965E+00  2.09394036E+00  2.09479685E+00  2.09444809E+00
  2.09462822E+00  2.09337379E+00  2.09518330E+00  2.09743146E+00  2.09515203E+00
  2.09060181E+00  2.59966401E+00 -1.72006705E+00 -1.36570491E+00  7.28710613E-01
  2.82305749E+00  2.96016440E+00 -1.22860539E+00  8.65741489E-01  2.20924439E+00
 -9.29476830E-01 -2.13416920E+00  1.01029489E+00 -3.13720524E+00  4.50606608E-03
  1.58574452E-03 -3.13988826E+00  3.13948462E+00 -2.20987336E-03  7.86390064E-04
 -3.14090810E+00 -1.92995011E-03  3.13970289E+00  3.13954440E+00 -2.00806919E-03
 -1.07179380E-04  3.14145468E+00  3.14144524E+00 -1.78211010E-04  2.47315952E-03
 -3.13914658E+00 -3.13908870E+00  2.47686769E-03 -2.81479944E-03  3.13887943E+00
  3.13880497E+00 -2.68611333E-03
SymInf integers                            I   N=          26
           1           1           1           1           1           0
           0           0           0           0           0           0
           0           0           0           0           0           0
           0           0           0           0           0           0
           0           0
RotTr to input orientation                 R   N=          12
 -3.04711165E-01 -9.52150479E-01 -2.36763986E-02 -8.24181254E-01  2.76054003E-01
 -4.94489078E-01  4.77363977E-01 -1.31162699E-01 -8.68861312E-01 -6.50638757E-01
 -1.82642124E-01 -2.08660328E-01
Number of contracted shells                I               55
Number of primitive shells                 I              141
Pure/Cartesian d shells                    I                1
Pure/Cartesian f shells                    I                0
Highest angular momentum                   I                2
Largest degree of contraction              I                6
Shell types                                I   N=          55
           0          -1          -1           2           0          -1
          -1          -1           2           0          -1          -1
           2           0          -1          -1           2           0
          -1          -1           2           0          -1          -1
           2           0          -1          -1           2           0
          -1          -1           2           0          -1          -1
           2           0           0           0           0           0
           0           0           0           0           0           0
           0           0           0           0           0           0
           0
Number of primitives per shell             I   N=          55
           6           3           1           1           6           6
           3           1           1           6           3           1
           1           6           3           1           1           6
           3           1           1           6           3           1
           1           6           3           1           1           6
           3           1           1           6           3           1
           1           3           1           3           1           3
           1           3           1           3           1           3
           1           3           1           3           1           3
           1
Shell to atom map                          I   N=          55
           1           1           1           1           2           2
           2           2           2           3           3           3
           3           4           4           4           4           5
           5           5           5           6           6           6
           6           7           7           7           7           8
           8           8           8           9           9           9
           9          10          10          11          11          12
          12          13          13          14          14          15
          15          16          16          17          17          18
          18
Primitive exponents                        R   N=         141
  5.48467166E+03  8.25234946E+02  1.88046958E+02  5.29645000E+01  1.68975704E+01
  5.79963534E+00  1.55396162E+01  3.59993359E+00  1.01376175E+00  2.70005823E-01
  8.00000000E-01  2.19171000E+04  3.30149000E+03  7.54146000E+02  2.12711000E+02
  6.79896000E+01  2.30515000E+01  4.23735000E+02  1.00710000E+02  3.21599000E+01
  1.18079000E+01  4.63110000E+00  1.87025000E+00  2.61584000E+00  9.22167000E-01
  3.41287000E-01  1.17167000E-01  6.50000000E-01  3.04752488E+03  4.57369518E+02
  1.03948685E+02  2.92101553E+01  9.28666296E+00  3.16392696E+00  7.86827235E+00
  1.88128854E+00  5.44249258E-01  1.68714478E-01  8.00000000E-01  3.04752488E+03
  4.57369518E+02  1.03948685E+02  2.92101553E+01  9.28666296E+00  3.16392696E+00
  7.86827235E+00  1.88128854E+00  5.44249258E-01  1.68714478E-01  8.00000000E-01
  3.04752488E+03  4.57369518E+02  1.03948685E+02  2.92101553E+01  9.28666296E+00
  3.16392696E+00  7.86827235E+00  1.88128854E+00  5.44249258E-01  1.68714478E-01
  8.00000000E-01  3.04752488E+03  4.57369518E+02  1.03948685E+02  2.92101553E+01
  9.28666296E+00  3.16392696E+00  7.86827235E+00  1.88128854E+00  5.44249258E-01
  1.68714478E-01  8.00000000E-01  3.04752488E+03  4.57369518E+02  1.03948685E+02
  2.92101553E+01  9.28666296E+00  3.16392696E+00  7.86827235E+00  1.88128854E+00
  5.44249258E-01  1.68714478E-01  8.00000000E-01  3.04752488E+03  4.57369518E+02
  1.03948685E+02  2.92101553E+01  9.28666296E+00  3.16392696E+00  7.86827235E+00
  1.88128854E+00  5.44249258E-01  1.68714478E-01  8.00000000E-01  3.04752488E+03
  4.57369518E+02  1.03948685E+02  2.92101553E+01  9.28666296E+00  3.16392696E+00
  7.86827235E+00  1.88128854E+00  5.44249258E-01  1.68714478E-01  8.00000000E-01
  1.87311370E+01  2.82539436E+00  6.40121692E-01  1.61277759E-01  1.87311370E+01
  2.82539436E+00  6.40121692E-01  1.61277759E-01  1.87311370E+01  2.82539436E+00
  6.40121692E-01  1.61277759E-01  1.87311370E+01  2.82539436E+00  6.40121692E-01
  1.61277759E-01  1.87311370E+01  2.82539436E+00  6.40121692E-01  1.61277759E-01
  1.87311370E+01  2.82539436E+00  6.40121692E-01  1.61277759E-01  1.87311370E+01
  2.82539436E+00  6.40121692E-01  1.61277759E-01  1.87311370E+01  2.82539436E+00
  6.40121692E-01  1.61277759E-01  1.87311370E+01  2.82539436E+00  6.40121692E-01
  1.61277759E-01
Contraction coefficients                   R   N=         141
  1.83107443E-03  1.39501722E-02  6.84450781E-02  2.32714336E-01  4.70192898E-01
  3.58520853E-01 -1.10777550E-01 -1.48026263E-01  1.13076702E+00  1.00000000E+00
  1.00000000E+00  1.86924085E-03  1.42303065E-02  6.96962317E-02  2.38487108E-01
  4.83307220E-01  3.38074154E-01 -2.37677050E-03 -3.16930067E-02 -1.13317024E-01
  5.60900118E-02  5.92255124E-01  4.55006095E-01 -2.50373114E-01  6.69567631E-02
  1.05450627E+00  1.00000000E+00  1.00000000E+00  1.83473713E-03  1.40373228E-02
  6.88426223E-02  2.32184443E-01  4.67941348E-01  3.62311985E-01 -1.19332420E-01
 -1.60854152E-01  1.14345644E+00  1.00000000E+00  1.00000000E+00  1.83473713E-03
  1.40373228E-02  6.88426223E-02  2.32184443E-01  4.67941348E-01  3.62311985E-01
 -1.19332420E-01 -1.60854152E-01  1.14345644E+00  1.00000000E+00  1.00000000E+00
  1.83473713E-03  1.40373228E-02  6.88426223E-02  2.32184443E-01  4.67941348E-01
  3.62311985E-01 -1.19332420E-01 -1.60854152E-01  1.14345644E+00  1.00000000E+00
  1.00000000E+00  1.83473713E-03  1.40373228E-02  6.88426223E-02  2.32184443E-01
  4.67941348E-01  3.62311985E-01 -1.19332420E-01 -1.60854152E-01  1.14345644E+00
  1.00000000E+00  1.00000000E+00  1.83473713E-03  1.40373228E-02  6.88426223E-02
  2.32184443E-01  4.67941348E-01  3.62311985E-01 -1.19332420E-01 -1.60854152E-01
  1.14345644E+00  1.00000000E+00  1.00000000E+00  1.83473713E-03  1.40373228E-02
  6.88426223E-02  2.32184443E-01  4.67941348E-01  3.62311985E-01 -1.19332420E-01
 -1.60854152E-01  1.14345644E+00  1.00000000E+00  1.00000000E+00  1.83473713E-03
  1.40373228E-02  6.88426223E-02  2.32184443E-01  4.67941348E-01  3.62311985E-01
 -1.19332420E-01 -1.60854152E-01  1.14345644E+00  1.00000000E+00  1.00000000E+00
  3.34946043E-02  2.34726953E-01  8.13757326E-01  1.00000000E+00  3.34946043E-02
  2.34726953E-01  8.13757326E-01  1.00000000E+00  3.34946043E-02  2.34726953E-01
  8.13757326E-01  1.00000000E+00  3.34946043E-02  2.34726953E-01  8.13757326E-01
  1.00000000E+00  3.34946043E-02  2.34726953E-01  8.13757326E-01  1.00000000E+00
  3.34946043E-02  2.34726953E-01  8.13757326E-01  1.00000000E+00  3.34946043E-02
  2.34726953E-01  8.13757326E-01  1.00000000E+00  3.34946043E-02  2.34726953E-01
  8.13757326E-01  1.00000000E+00  3.34946043E-02  2.34726953E-01  8.13757326E-01
  1.00000000E+00
P(S=P) Contraction coefficients            R   N=         141
  0.00000000E+00  0.00000000E+00  0.00000000E+00  0.00000000E+00  0.00000000E+00
  0.00000000E+00  7.08742682E-02  3.39752839E-01  7.27158577E-01  1.00000000E+00
  0.00000000E+00  0.00000000E+00  0.00000000E+00  0.00000000E+00  0.00000000E+00
  0.00000000E+00  0.00000000E+00  4.06100998E-03  3.06812999E-02  1.30451999E-01
  3.27204999E-01  4.52850998E-01  2.56041999E-01 -1.45104895E-02  3.10262776E-01
  7.54482456E-01  1.00000000E+00  0.00000000E+00  0.00000000E+00  0.00000000E+00
  0.00000000E+00  0.00000000E+00  0.00000000E+00  0.00000000E+00  6.89990666E-02
  3.16423961E-01  7.44308291E-01  1.00000000E+00  0.00000000E+00  0.00000000E+00
  0.00000000E+00  0.00000000E+00  0.00000000E+00  0.00000000E+00  0.00000000E+00
  6.89990666E-02  3.16423961E-01  7.44308291E-01  1.00000000E+00  0.00000000E+00
  0.00000000E+00  0.00000000E+00  0.00000000E+00  0.00000000E+00  0.00000000E+00
  0.00000000E+00  6.89990666E-02  3.16423961E-01  7.44308291E-01  1.00000000E+00
  0.00000000E+00  0.00000000E+00  0.00000000E+00  0.00000000E+00  0.00000000E+00
  0.00000000E+00  0.00000000E+00  6.89990666E-02  3.16423961E-01  7.44308291E-01
  1.00000000E+00  0.00000000E+00  0.00000000E+00  0.00000000E+00  0.00000000E+00
  0.00000000E+00  0.00000000E+00  0.00000000E+00  6.89990666E-02  3.16423961E-01
  7.44308291E-01  1.00000000E+00  0.00000000E+00  0.00000000E+00  0.00000000E+00
  0.00000000E+00  0.00000000E+00  0.00000000E+00  0.00000000E+00  6.89990666E-02
  3.16423961E-01  7.44308291E-01  1.00000000E+00  0.00000000E+00  0.00000000E+00
  0.00000000E+00  0.00000000E+00  0.00000000E+00  0.00000000E+00  0.00000000E+00
  6.89990666E-02  3.16423961E-01  7.44308291E-01  1.00000000E+00  0.00000000E+00
  0.00000000E+00  0.00000000E+00  0.00000000E+00  0.00000000E+00  0.00000000E+00
  0.00000000E+00  0.00000000E+00  0.00000000E+00  0.00000000E+00  0.00000000E+00
  0.00000000E+00  0.00000000E+00  0.00000000E+00  0.00000000E+00  0.00000000E+00
  0.00000000E+00  0.00000000E+00  0.00000000E+00  0.00000000E+00  0.00000000E+00
  0.00000000E+00  0.00000000E+00  0.00000000E+00  0.00000000E+00  0.00000000E+00
  0.00000000E+00  0.00000000E+00  0.00000000E+00  0.00000000E+00  0.00000000E+00
  0.00000000E+00  0.00000000E+00  0.00000000E+00  0.00000000E+00  0.00000000E+00
  0.00000000E+00
Coordinates of each shell                  R   N=         165
  4.14088102E+00  4.04449547E-01 -2.45030540E+00  4.14088102E+00  4.04449547E-01
 -2.45030540E+00  4.14088102E+00  4.04449547E-01 -2.45030540E+00  4.14088102E+00
  4.04449547E-01 -2.45030540E+00  2.92692202E+00 -1.03530039E+00  4.39592448E-02
  2.92692202E+00 -1.03530039E+00  4.39592448E-02  2.92692202E+00 -1.03530039E+00
  4.39592448E-02  2.92692202E+00 -1.03530039E+00  4.39592448E-02  2.92692202E+00
 -1.03530039E+00  4.39592448E-02  4.28747129E+00  1.05378686E+00  2.38281241E+00
  4.28747129E+00  1.05378686E+00  2.38281241E+00  4.28747129E+00  1.05378686E+00
  2.38281241E+00  4.28747129E+00  1.05378686E+00  2.38281241E+00 -3.34791757E-01
 -3.22582337E-01  1.91509547E-02 -3.34791757E-01 -3.22582337E-01  1.91509547E-02
 -3.34791757E-01 -3.22582337E-01  1.91509547E-02 -3.34791757E-01 -3.22582337E-01
  1.91509547E-02 -1.95456766E+00 -2.41303189E+00  2.21445499E-01 -1.95456766E+00
 -2.41303189E+00  2.21445499E-01 -1.95456766E+00 -2.41303189E+00  2.21445499E-01
 -1.95456766E+00 -2.41303189E+00  2.21445499E-01 -4.55561669E+00 -1.99234118E+00
  2.30664669E-01 -4.55561669E+00 -1.99234118E+00  2.30664669E-01 -4.55561669E+00
 -1.99234118E+00  2.30664669E-01 -4.55561669E+00 -1.99234118E+00  2.30664669E-01
 -5.49213213E+00  4.63597434E-01 -2.20245147E-04 -5.49213213E+00  4.63597434E-01
 -2.20245147E-04 -5.49213213E+00  4.63597434E-01 -2.20245147E-04 -5.49213213E+00
  4.63597434E-01 -2.20245147E-04 -3.84909217E+00  2.52725846E+00 -2.40509326E-01
 -3.84909217E+00  2.52725846E+00 -2.40509326E-01 -3.84909217E+00  2.52725846E+00
 -2.40509326E-01 -3.84909217E+00  2.52725846E+00 -2.40509326E-01 -1.24834257E+00
  2.15602566E+00 -2.27793800E-01 -1.24834257E+00  2.15602566E+00 -2.27793800E-01
 -1.24834257E+00  2.15602566E+00 -2.27793800E-01 -1.24834257E+00  2.15602566E+00