 Entering Gaussian System, Link 0=/apps/cent7/gaussian/g16-A.03/g16-haswell/g16/g16
 Initial command:
 /apps/cent7/gaussian/g16-A.03/g16-haswell/g16/l1.exe "/scratch/brown/finej/gaussian/Gau-370577.inp" -scrdir="/scratch/brown/finej/gaussian/"
 Entering Link 1 = /apps/cent7/gaussian/g16-A.03/g16-haswell/g16/l1.exe PID=    370578.
  
 Copyright (c) 1988,1990,1992,1993,1995,1998,2003,2009,2016,
            Gaussian, Inc.  All Rights Reserved.
  
 This is part of the Gaussian(R) 16 program.  It is based on
 the Gaussian(R) 09 system (copyright 2009, Gaussian, Inc.),
 the Gaussian(R) 03 system (copyright 2003, Gaussian, Inc.),
 the Gaussian(R) 98 system (copyright 1998, Gaussian, Inc.),
 the Gaussian(R) 94 system (copyright 1995, Gaussian, Inc.),
 the Gaussian 92(TM) system (copyright 1992, Gaussian, Inc.),
 the Gaussian 90(TM) system (copyright 1990, Gaussian, Inc.),
 the Gaussian 88(TM) system (copyright 1988, Gaussian, Inc.),
 the Gaussian 86(TM) system (copyright 1986, Carnegie Mellon
 University), and the Gaussian 82(TM) system (copyright 1983,
 Carnegie Mellon University). Gaussian is a federally registered
 trademark of Gaussian, Inc.
  
 This software contains proprietary and confidential information,
 including trade secrets, belonging to Gaussian, Inc.
  
 This software is provided under written license and may be
 used, copied, transmitted, or stored only in accord with that
 written license.
  
 The following legend is applicable only to US Government
 contracts under FAR:
  
                    RESTRICTED RIGHTS LEGEND
  
 Use, reproduction and disclosure by the US Government is
 subject to restrictions as set forth in subparagraphs (a)
 and (c) of the Commercial Computer Software - Restricted
 Rights clause in FAR 52.227-19.
  
 Gaussian, Inc.
 340 Quinnipiac St., Bldg. 40, Wallingford CT 06492
  
  
 ---------------------------------------------------------------
 Warning -- This program may not be used in any manner that
 competes with the business of Gaussian, Inc. or will provide
 assistance to any competitor of Gaussian, Inc.  The licensee
 of this program is prohibited from giving any competitor of
 Gaussian, Inc. access to this program.  By using this program,
 the user acknowledges that Gaussian, Inc. is engaged in the
 business of creating and licensing software in the field of
 computational chemistry and represents and warrants to the
 licensee that it is not a competitor of Gaussian, Inc. and that
 it will not use this program in any manner prohibited above.
 ---------------------------------------------------------------
  

 Cite this work as:
 Gaussian 16, Revision A.03,
 M. J. Frisch, G. W. Trucks, H. B. Schlegel, G. E. Scuseria, 
 M. A. Robb, J. R. Cheeseman, G. Scalmani, V. Barone, 
 G. A. Petersson, H. Nakatsuji, X. Li, M. Caricato, A. V. Marenich, 
 J. Bloino, B. G. Janesko, R. Gomperts, B. Mennucci, H. P. Hratchian, 
 J. V. Ortiz, A. F. Izmaylov, J. L. Sonnenberg, D. Williams-Young, 
 F. Ding, F. Lipparini, F. Egidi, J. Goings, B. Peng, A. Petrone, 
 T. Henderson, D. Ranasinghe, V. G. Zakrzewski, J. Gao, N. Rega, 
 G. Zheng, W. Liang, M. Hada, M. Ehara, K. Toyota, R. Fukuda, 
 J. Hasegawa, M. Ishida, T. Nakajima, Y. Honda, O. Kitao, H. Nakai, 
 T. Vreven, K. Throssell, J. A. Montgomery, Jr., J. E. Peralta, 
 F. Ogliaro, M. J. Bearpark, J. J. Heyd, E. N. Brothers, K. N. Kudin, 
 V. N. Staroverov, T. A. Keith, R. Kobayashi, J. Normand, 
 K. Raghavachari, A. P. Rendell, J. C. Burant, S. S. Iyengar, 
 J. Tomasi, M. Cossi, J. M. Millam, M. Klene, C. Adamo, R. Cammi, 
 J. W. Ochterski, R. L. Martin, K. Morokuma, O. Farkas, 
 J. B. Foresman, and D. J. Fox, Gaussian, Inc., Wallingford CT, 2016.
 
 ******************************************
 Gaussian 16:  ES64L-G16RevA.03 25-Dec-2016
                14-Oct-2019 
 ******************************************
 %chk=33_p.chk
 %nprocshared=24
 Will use up to   24 processors via shared memory.
 %mem=80GB
 --------------------------------------------------------------
 #P opt freq b3lyp/6-31g(d) geom=connectivity temperature=0.001
 --------------------------------------------------------------
 1/18=20,19=15,26=3,38=1,57=2,112=-1000/1,3;
 2/9=110,12=2,17=6,18=5,40=1/2;
 3/5=1,6=6,7=1,11=2,25=1,30=1,71=1,74=-5/1,2,3;
 4//1;
 5/5=2,38=5/2;
 6/7=2,8=2,9=2,10=2,28=1/1;
 7//1,2,3,16;
 1/18=20,19=15,26=3/3(2);
 2/9=110/2;
 99//99;
 2/9=110/2;
 3/5=1,6=6,7=1,11=2,25=1,30=1,71=1,74=-5/1,2,3;
 4/5=5,16=3,69=1/1;
 5/5=2,38=5/2;
 7//1,2,3,16;
 1/18=20,19=15,26=3/3(-5);
 2/9=110/2;
 6/7=2,8=2,9=2,10=2,19=2,28=1/1;
 99/9=1/99;
 Leave Link    1 at Mon Oct 14 01:53:08 2019, MaxMem= 10737418240 cpu:               1.4 elap:               0.1
 (Enter /apps/cent7/gaussian/g16-A.03/g16-haswell/g16/l101.exe)
 -------------------
 Title Card Required
 -------------------
 Symbolic Z-matrix:
 Charge =  1 Multiplicity = 1
 O                    -1.8215   -1.9115    0.9391 
 S                    -0.4547   -1.741     0.1172 
 C                    -0.8543   -2.3237   -1.5718 
 C                    -0.1689    0.0009   -0.0037 
 C                     1.0742    0.5134    0.4212 
 C                     1.3369    1.8927    0.3457 
 C                     0.3577    2.7697   -0.1581 
 C                    -0.8845    2.2654   -0.5864 
 C                    -1.149     0.8839   -0.5082 
 H                    -0.8583   -3.4136   -1.5887 
 H                    -1.8373   -1.9522   -1.8612 
 H                    -0.1052   -1.9522   -2.271 
 H                     1.837    -0.1609    0.8104 
 H                     2.2994    2.282     0.6776 
 H                     0.5613    3.8389   -0.2165 
 H                    -1.6414    2.9446   -0.9785 
 H                    -2.1133    0.4977   -0.8386 
 H                    -1.79544  -2.10642   1.87874 
 
 ITRead=  0  0  0  0  0  0  0  0  0  0  0  0  0  0  0  0  0  0
 MicOpt= -1 -1 -1 -1 -1 -1 -1 -1 -1 -1 -1 -1 -1 -1 -1 -1 -1 -1
 NAtoms=     18 NQM=       18 NQMF=       0 NMMI=      0 NMMIF=      0
                NMic=       0 NMicF=      0.
                    Isotopes and Nuclear Properties:
 (Nuclear quadrupole moments (NQMom) in fm**2, nuclear magnetic moments (NMagM)
  in nuclear magnetons)

  Atom         1           2           3           4           5           6           7           8           9          10
 IAtWgt=          16          32          12          12          12          12          12          12          12           1
 AtmWgt=  15.9949146  31.9720718  12.0000000  12.0000000  12.0000000  12.0000000  12.0000000  12.0000000  12.0000000   1.0078250
 NucSpn=           0           0           0           0           0           0           0           0           0           1
 AtZEff=  -0.0000000  -0.0000000  -0.0000000  -0.0000000  -0.0000000  -0.0000000  -0.0000000  -0.0000000  -0.0000000  -0.0000000
 NQMom=    0.0000000   0.0000000   0.0000000   0.0000000   0.0000000   0.0000000   0.0000000   0.0000000   0.0000000   0.0000000
 NMagM=    0.0000000   0.0000000   0.0000000   0.0000000   0.0000000   0.0000000   0.0000000   0.0000000   0.0000000   2.7928460
 AtZNuc=   8.0000000  16.0000000   6.0000000   6.0000000   6.0000000   6.0000000   6.0000000   6.0000000   6.0000000   1.0000000

  Atom        11          12          13          14          15          16          17          18
 IAtWgt=           1           1           1           1           1           1           1           1
 AtmWgt=   1.0078250   1.0078250   1.0078250   1.0078250   1.0078250   1.0078250   1.0078250   1.0078250
 NucSpn=           1           1           1           1           1           1           1           1
 AtZEff=  -0.0000000  -0.0000000  -0.0000000  -0.0000000  -0.0000000  -0.0000000  -0.0000000  -0.0000000
 NQMom=    0.0000000   0.0000000   0.0000000   0.0000000   0.0000000   0.0000000   0.0000000   0.0000000
 NMagM=    2.7928460   2.7928460   2.7928460   2.7928460   2.7928460   2.7928460   2.7928460   2.7928460
 AtZNuc=   1.0000000   1.0000000   1.0000000   1.0000000   1.0000000   1.0000000   1.0000000   1.0000000
 Leave Link  101 at Mon Oct 14 01:53:08 2019, MaxMem= 10737418240 cpu:               8.2 elap:               0.4
 (Enter /apps/cent7/gaussian/g16-A.03/g16-haswell/g16/l103.exe)

 GradGradGradGradGradGradGradGradGradGradGradGradGradGradGradGradGradGrad
 Berny optimization.
 Initialization pass.
                           ----------------------------
                           !    Initial Parameters    !
                           ! (Angstroms and Degrees)  !
 --------------------------                            --------------------------
 ! Name  Definition              Value          Derivative Info.                !
 --------------------------------------------------------------------------------
 ! R1    R(1,2)                  1.604          estimate D2E/DX2                !
 ! R2    R(1,18)                 0.96           estimate D2E/DX2                !
 ! R3    R(2,3)                  1.8308         estimate D2E/DX2                !
 ! R4    R(2,4)                  1.7693         estimate D2E/DX2                !
 ! R5    R(3,10)                 1.09           estimate D2E/DX2                !
 ! R6    R(3,11)                 1.09           estimate D2E/DX2                !
 ! R7    R(3,12)                 1.09           estimate D2E/DX2                !
 ! R8    R(4,5)                  1.4101         estimate D2E/DX2                !
 ! R9    R(4,9)                  1.4124         estimate D2E/DX2                !
 ! R10   R(5,6)                  1.4061         estimate D2E/DX2                !
 ! R11   R(5,13)                 1.09           estimate D2E/DX2                !
 ! R12   R(6,7)                  1.4078         estimate D2E/DX2                !
 ! R13   R(6,14)                 1.09           estimate D2E/DX2                !
 ! R14   R(7,8)                  1.4074         estimate D2E/DX2                !
 ! R15   R(7,15)                 1.09           estimate D2E/DX2                !
 ! R16   R(8,9)                  1.4088         estimate D2E/DX2                !
 ! R17   R(8,16)                 1.0899         estimate D2E/DX2                !
 ! R18   R(9,17)                 1.09           estimate D2E/DX2                !
 ! A1    A(2,1,18)             120.0            estimate D2E/DX2                !
 ! A2    A(1,2,3)              104.6492         estimate D2E/DX2                !
 ! A3    A(1,2,4)              106.0997         estimate D2E/DX2                !
 ! A4    A(3,2,4)              106.5921         estimate D2E/DX2                !
 ! A5    A(2,3,10)             109.4713         estimate D2E/DX2                !
 ! A6    A(2,3,11)             109.4694         estimate D2E/DX2                !
 ! A7    A(2,3,12)             109.4697         estimate D2E/DX2                !
 ! A8    A(10,3,11)            109.473          estimate D2E/DX2                !
 ! A9    A(10,3,12)            109.4733         estimate D2E/DX2                !
 ! A10   A(11,3,12)            109.4706         estimate D2E/DX2                !
 ! A11   A(2,4,5)              118.6601         estimate D2E/DX2                !
 ! A12   A(2,4,9)              121.8578         estimate D2E/DX2                !
 ! A13   A(5,4,9)              119.4819         estimate D2E/DX2                !
 ! A14   A(4,5,6)              120.3329         estimate D2E/DX2                !
 ! A15   A(4,5,13)             119.9797         estimate D2E/DX2                !
 ! A16   A(6,5,13)             119.6874         estimate D2E/DX2                !
 ! A17   A(5,6,7)              120.0237         estimate D2E/DX2                !
 ! A18   A(5,6,14)             119.9314         estimate D2E/DX2                !
 ! A19   A(7,6,14)             120.045          estimate D2E/DX2                !
 ! A20   A(6,7,8)              119.9739         estimate D2E/DX2                !
 ! A21   A(6,7,15)             120.023          estimate D2E/DX2                !
 ! A22   A(8,7,15)             120.003          estimate D2E/DX2                !
 ! A23   A(7,8,9)              120.0134         estimate D2E/DX2                !
 ! A24   A(7,8,16)             119.9415         estimate D2E/DX2                !
 ! A25   A(9,8,16)             120.0452         estimate D2E/DX2                !
 ! A26   A(4,9,8)              120.174          estimate D2E/DX2                !
 ! A27   A(4,9,17)             120.0434         estimate D2E/DX2                !
 ! A28   A(8,9,17)             119.7827         estimate D2E/DX2                !
 ! D1    D(18,1,2,3)           148.9498         estimate D2E/DX2                !
 ! D2    D(18,1,2,4)           -98.5526         estimate D2E/DX2                !
 ! D3    D(1,2,3,10)           -78.2491         estimate D2E/DX2                !
 ! D4    D(1,2,3,11)            41.752          estimate D2E/DX2                !
 ! D5    D(1,2,3,12)           161.7493         estimate D2E/DX2                !
 ! D6    D(4,2,3,10)           169.6049         estimate D2E/DX2                !
 ! D7    D(4,2,3,11)           -70.3939         estimate D2E/DX2                !
 ! D8    D(4,2,3,12)            49.6033         estimate D2E/DX2                !
 ! D9    D(1,2,4,5)            126.5804         estimate D2E/DX2                !
 ! D10   D(1,2,4,9)            -53.2551         estimate D2E/DX2                !
 ! D11   D(3,2,4,5)           -122.2789         estimate D2E/DX2                !
 ! D12   D(3,2,4,9)             57.8856         estimate D2E/DX2                !
 ! D13   D(2,4,5,6)           -179.7486         estimate D2E/DX2                !
 ! D14   D(2,4,5,13)             0.2582         estimate D2E/DX2                !
 ! D15   D(9,4,5,6)              0.0909         estimate D2E/DX2                !
 ! D16   D(9,4,5,13)          -179.9023         estimate D2E/DX2                !
 ! D17   D(2,4,9,8)            179.8792         estimate D2E/DX2                !
 ! D18   D(2,4,9,17)            -0.1266         estimate D2E/DX2                !
 ! D19   D(5,4,9,8)              0.0451         estimate D2E/DX2                !
 ! D20   D(5,4,9,17)          -179.9608         estimate D2E/DX2                !
 ! D21   D(4,5,6,7)             -0.1106         estimate D2E/DX2                !
 ! D22   D(4,5,6,14)           179.8917         estimate D2E/DX2                !
 ! D23   D(13,5,6,7)           179.8826         estimate D2E/DX2                !
 ! D24   D(13,5,6,14)           -0.1151         estimate D2E/DX2                !
 ! D25   D(5,6,7,8)             -0.0061         estimate D2E/DX2                !
 ! D26   D(5,6,7,15)           179.9921         estimate D2E/DX2                !
 ! D27   D(14,6,7,8)           179.9916         estimate D2E/DX2                !
 ! D28   D(14,6,7,15)           -0.0102         estimate D2E/DX2                !
 ! D29   D(6,7,8,9)              0.1417         estimate D2E/DX2                !
 ! D30   D(6,7,8,16)          -179.8599         estimate D2E/DX2                !
 ! D31   D(15,7,8,9)          -179.8565         estimate D2E/DX2                !
 ! D32   D(15,7,8,16)            0.1419         estimate D2E/DX2                !
 ! D33   D(7,8,9,4)             -0.1613         estimate D2E/DX2                !
 ! D34   D(7,8,9,17)           179.8445         estimate D2E/DX2                !
 ! D35   D(16,8,9,4)           179.8403         estimate D2E/DX2                !
 ! D36   D(16,8,9,17)           -0.1539         estimate D2E/DX2                !
 --------------------------------------------------------------------------------
 Trust Radius=3.00D-01 FncErr=1.00D-07 GrdErr=1.00D-06 EigMax=2.50D+02 EigMin=1.00D-04
 Number of steps in this run=     92 maximum allowed number of steps=    108.
 GradGradGradGradGradGradGradGradGradGradGradGradGradGradGradGradGradGrad

 Leave Link  103 at Mon Oct 14 01:53:08 2019, MaxMem= 10737418240 cpu:               0.3 elap:               0.0
 (Enter /apps/cent7/gaussian/g16-A.03/g16-haswell/g16/l202.exe)
                          Input orientation:                          
 ---------------------------------------------------------------------
 Center     Atomic      Atomic             Coordinates (Angstroms)
 Number     Number       Type             X           Y           Z
 ---------------------------------------------------------------------
      1          8           0       -1.821500   -1.911500    0.939100
      2         16           0       -0.454700   -1.741000    0.117200
      3          6           0       -0.854300   -2.323700   -1.571800
      4          6           0       -0.168900    0.000900   -0.003700
      5          6           0        1.074200    0.513400    0.421200
      6          6           0        1.336900    1.892700    0.345700
      7          6           0        0.357700    2.769700   -0.158100
      8          6           0       -0.884500    2.265400   -0.586400
      9          6           0       -1.149000    0.883900   -0.508200
     10          1           0       -0.858300   -3.413600   -1.588700
     11          1           0       -1.837300   -1.952200   -1.861200
     12          1           0       -0.105200   -1.952200   -2.271000
     13          1           0        1.837000   -0.160900    0.810400
     14          1           0        2.299400    2.282000    0.677600
     15          1           0        0.561300    3.838900   -0.216500
     16          1           0       -1.641400    2.944600   -0.978500
     17          1           0       -2.113300    0.497700   -0.838600
     18          1           0       -1.795440   -2.106425    1.878741
 ---------------------------------------------------------------------
                    Distance matrix (angstroms):
                    1          2          3          4          5
     1  O    0.000000
     2  S    1.603974   0.000000
     3  C    2.722132   1.830831   0.000000
     4  C    2.697635   1.769326   2.886603   0.000000
     5  C    3.812275   2.740852   3.967404   1.410140   0.000000
     6  C    4.979915   4.057810   5.124080   2.443035   1.406122
     7  C    5.278863   4.591536   5.423119   2.822658   2.437181
     8  C    4.544405   4.090357   4.693801   2.445319   2.814475
     9  C    3.218881   2.786266   3.392166   1.412376   2.437965
    10  H    3.094161   2.422928   1.090038   3.827049   4.816179
    11  H    2.800640   2.422861   1.089979   3.169931   4.445826
    12  H    3.640341   2.422861   1.089974   2.993210   3.836419
    13  H    4.057806   2.868646   4.194720   2.170846   1.089964
    14  H    5.885205   4.907509   6.018147   3.429299   2.166749
    15  H    6.330896   5.681452   6.466715   3.912636   3.424716
    16  H    5.224111   4.956174   5.359712   3.432763   3.904405
    17  H    3.008257   2.945553   3.175368   2.173605   3.427462
    18  H    0.960000   2.243690   3.583181   3.260374   4.150029
                    6          7          8          9         10
     6  C    0.000000
     7  C    1.407756   0.000000
     8  C    2.437690   1.407416   0.000000
     9  C    2.815408   2.439048   1.408765   0.000000
    10  H    6.059507   6.462079   5.766830   4.440776   0.000000
    11  H    5.452450   5.478587   4.507892   3.216804   1.779996
    12  H    4.869294   5.193743   4.607964   3.498635   1.779995
    13  H    2.164098   3.422680   3.904426   3.427318   4.858022
    14  H    1.090008   2.169434   3.425666   3.905415   6.895436
    15  H    2.169175   1.089978   2.168655   3.426695   7.516446
    16  H    3.424948   2.167959   1.089932   2.170282   6.435239
    17  H    3.905441   3.425041   2.167560   1.090041   4.175637
    18  H    5.306107   5.706254   5.100940   3.880389   3.822314
                   11         12         13         14         15
    11  H    0.000000
    12  H    1.779918   0.000000
    13  H    4.883307   4.059054   0.000000
    14  H    6.440981   5.692521   2.489821   0.000000
    15  H    6.480367   6.180779   4.322075   2.498869   0.000000
    16  H    4.979577   5.292364   4.994353   4.325692   2.496458
    17  H    2.669063   3.476528   4.331030   4.995449   4.324825
    18  H    3.743354   4.483419   4.256882   6.121171   6.729870
                   16         17         18
    16  H    0.000000
    17  H    2.495913   0.000000
    18  H    5.805205   3.777095   0.000000
 Stoichiometry    C7H9OS(1+)
 Framework group  C1[X(C7H9OS)]
 Deg. of freedom    48
 Full point group                 C1      NOp   1
 Largest Abelian subgroup         C1      NOp   1
 Largest concise Abelian subgroup C1      NOp   1
                         Standard orientation:                         
 ---------------------------------------------------------------------
 Center     Atomic      Atomic             Coordinates (Angstroms)
 Number     Number       Type             X           Y           Z
 ---------------------------------------------------------------------
      1          8           0        2.154020    0.223609   -1.345929
      2         16           0        1.588148   -0.489787   -0.025479
      3          6           0        2.303542    0.468143    1.361071
      4          6           0       -0.153672   -0.179498   -0.008285
      5          6           0       -1.034502   -1.274187    0.111251
      6          6           0       -2.425435   -1.068423    0.123355
      7          6           0       -2.945531    0.235500    0.018192
      8          6           0       -2.072701    1.333345   -0.098960
      9          6           0       -0.679180    1.127206   -0.113987
     10          1           0        3.341466    0.170700    1.510818
     11          1           0        2.260451    1.532036    1.127991
     12          1           0        1.734605    0.271975    2.269847
     13          1           0       -0.637720   -2.285909    0.194944
     14          1           0       -3.100357   -1.919500    0.214277
     15          1           0       -4.023740    0.394977    0.027446
     16          1           0       -2.475898    2.342864   -0.178048
     17          1           0       -0.006683    1.979968   -0.207433
     18          1           0        2.310221   -0.291901   -2.140568
 ---------------------------------------------------------------------
 Rotational constants (GHZ):           3.0032939           0.8621983           0.8098235
 Leave Link  202 at Mon Oct 14 01:53:08 2019, MaxMem= 10737418240 cpu:               1.1 elap:               0.1
 (Enter /apps/cent7/gaussian/g16-A.03/g16-haswell/g16/l301.exe)
 Standard basis: 6-31G(d) (6D, 7F)
 Ernie: Thresh=  0.10000D-02 Tol=  0.10000D-05 Strict=F.
 There are   157 symmetry adapted cartesian basis functions of A   symmetry.
 There are   157 symmetry adapted basis functions of A   symmetry.
   157 basis functions,   312 primitive gaussians,   157 cartesian basis functions
    37 alpha electrons       37 beta electrons
       nuclear repulsion energy       512.8532942667 Hartrees.
 IExCor=  402 DFT=T Ex+Corr=B3LYP ExCW=0 ScaHFX=  0.200000
 ScaDFX=  0.800000  0.720000  1.000000  0.810000 ScalE2=  1.000000  1.000000
 IRadAn=      5 IRanWt=     -1 IRanGd=            0 ICorTp=0 IEmpDi=  4
 NAtoms=   18 NActive=   18 NUniq=   18 SFac= 1.00D+00 NAtFMM=   60 NAOKFM=F Big=F
 Integral buffers will be    131072 words long.
 Raffenetti 2 integral format.
 Two-electron integral symmetry is turned on.
 Leave Link  301 at Mon Oct 14 01:53:08 2019, MaxMem= 10737418240 cpu:               1.5 elap:               0.1
 (Enter /apps/cent7/gaussian/g16-A.03/g16-haswell/g16/l302.exe)
 NPDir=0 NMtPBC=     1 NCelOv=     1 NCel=       1 NClECP=     1 NCelD=      1
         NCelK=      1 NCelE2=     1 NClLst=     1 CellRange=     0.0.
 One-electron integrals computed using PRISM.
 One-electron integral symmetry used in STVInt
 NBasis=   157 RedAO= T EigKep=  5.47D-04  NBF=   157
 NBsUse=   157 1.00D-06 EigRej= -1.00D+00 NBFU=   157
 Precomputing XC quadrature grid using
 IXCGrd= 4 IRadAn=           5 IRanWt=          -1 IRanGd=           0 AccXCQ= 0.00D+00.
 Generated NRdTot=       0 NPtTot=           0 NUsed=           0 NTot=          32
 NSgBfM=   157   157   157   157   157 MxSgAt=    18 MxSgA2=    18.
 Leave Link  302 at Mon Oct 14 01:53:09 2019, MaxMem= 10737418240 cpu:               4.6 elap:               0.2
 (Enter /apps/cent7/gaussian/g16-A.03/g16-haswell/g16/l303.exe)
 DipDrv:  MaxL=1.
 Leave Link  303 at Mon Oct 14 01:53:09 2019, MaxMem= 10737418240 cpu:               0.9 elap:               0.1
 (Enter /apps/cent7/gaussian/g16-A.03/g16-haswell/g16/l401.exe)
 ExpMin= 1.17D-01 ExpMax= 2.19D+04 ExpMxC= 3.30D+03 IAcc=3 IRadAn=         5 AccDes= 0.00D+00
 Harris functional with IExCor=  402 and IRadAn=       5 diagonalized for initial guess.
 HarFok:  IExCor=  402 AccDes= 0.00D+00 IRadAn=         5 IDoV= 1 UseB2=F ITyADJ=14
 ICtDFT=  3500011 ScaDFX=  1.000000  1.000000  1.000000  1.000000
 FoFCou: FMM=F IPFlag=           0 FMFlag=      100000 FMFlg1=           0
         NFxFlg=           0 DoJE=T BraDBF=F KetDBF=T FulRan=T
         wScrn=  0.000000 ICntrl=       500 IOpCl=  0 I1Cent=   200000004 NGrid=           0
         NMat0=    1 NMatS0=      1 NMatT0=    0 NMatD0=    1 NMtDS0=    0 NMtDT0=    0
 Petite list used in FoFCou.
 Harris En= -745.330545214610    
 JPrj=0 DoOrth=F DoCkMO=F.
 Leave Link  401 at Mon Oct 14 01:53:09 2019, MaxMem= 10737418240 cpu:               6.9 elap:               0.3
 (Enter /apps/cent7/gaussian/g16-A.03/g16-haswell/g16/l502.exe)
 Integral symmetry usage will be decided dynamically.
 Closed shell SCF:
 Using DIIS extrapolation, IDIIS=  1040.
 NGot= 10737418240 LenX= 10737363290 LenY= 10737338200
 Requested convergence on RMS density matrix=1.00D-08 within 128 cycles.
 Requested convergence on MAX density matrix=1.00D-06.
 Requested convergence on             energy=1.00D-06.
 No special actions if energy rises.
 Fock matrices will be formed incrementally for  20 cycles.
 Integral accuracy reduced to 1.0D-05 until final iterations.

 Cycle   1  Pass 0  IDiag  1:
 FoFJK:  IHMeth= 1 ICntrl=       0 DoSepK=F KAlg= 0 I1Cent=           0 FoldK=F
 IRaf= 940000000 NMat=       1 IRICut=       1 DoRegI=T DoRafI=F ISym2E= 0 IDoP0=0 IntGTp=1.
 FoFCou: FMM=F IPFlag=           0 FMFlag=      100000 FMFlg1=           0
         NFxFlg=           0 DoJE=F BraDBF=F KetDBF=F FulRan=T
         wScrn=  0.000000 ICntrl=         0 IOpCl=  0 I1Cent=           0 NGrid=           0
         NMat0=    1 NMatS0=      1 NMatT0=    0 NMatD0=    1 NMtDS0=    0 NMtDT0=    0
 Symmetry not used in FoFCou.
 E= -744.970209676462    
 DIIS: error= 3.38D-02 at cycle   1 NSaved=   1.
 NSaved= 1 IEnMin= 1 EnMin= -744.970209676462     IErMin= 1 ErrMin= 3.38D-02
 ErrMax= 3.38D-02  0.00D+00 EMaxC= 1.00D-01 BMatC= 3.04D-01 BMatP= 3.04D-01
 IDIUse=3 WtCom= 6.62D-01 WtEn= 3.38D-01
 Coeff-Com:  0.100D+01
 Coeff-En:   0.100D+01
 Coeff:      0.100D+01
 Gap=     0.454 Goal=   None    Shift=    0.000
 GapD=    0.454 DampG=2.000 DampE=0.500 DampFc=1.0000 IDamp=-1.
 RMSDP=9.96D-03 MaxDP=3.47D-01              OVMax= 4.39D-01

 Cycle   2  Pass 0  IDiag  1:
 RMSU=  9.94D-03    CP:  9.80D-01
 E= -744.526480166647     Delta-E=        0.443729509815 Rises=F Damp=F
 DIIS: error= 4.34D-02 at cycle   2 NSaved=   2.
 NSaved= 2 IEnMin= 1 EnMin= -744.970209676462     IErMin= 1 ErrMin= 3.38D-02
 ErrMax= 4.34D-02  0.00D+00 EMaxC= 1.00D-01 BMatC= 7.07D-01 BMatP= 3.04D-01
 IDIUse=2 WtCom= 0.00D+00 WtEn= 1.00D+00
 Coeff-En:   0.691D+00 0.309D+00
 Coeff:      0.691D+00 0.309D+00
 Gap=     0.157 Goal=   None    Shift=    0.000
 RMSDP=6.38D-03 MaxDP=2.22D-01 DE= 4.44D-01 OVMax= 3.76D-01

 Cycle   3  Pass 0  IDiag  1:
 RMSU=  2.24D-03    CP:  9.81D-01  3.99D-01
 E= -745.252690299401     Delta-E=       -0.726210132754 Rises=F Damp=F
 DIIS: error= 9.89D-03 at cycle   3 NSaved=   3.
 NSaved= 3 IEnMin= 3 EnMin= -745.252690299401     IErMin= 3 ErrMin= 9.89D-03
 ErrMax= 9.89D-03  0.00D+00 EMaxC= 1.00D-01 BMatC= 2.51D-02 BMatP= 3.04D-01
 IDIUse=3 WtCom= 9.01D-01 WtEn= 9.89D-02
 Coeff-Com:  0.251D+00 0.569D-01 0.692D+00
 Coeff-En:   0.000D+00 0.000D+00 0.100D+01
 Coeff:      0.227D+00 0.513D-01 0.722D+00
 Gap=     0.181 Goal=   None    Shift=    0.000
 RMSDP=1.37D-03 MaxDP=3.23D-02 DE=-7.26D-01 OVMax= 6.41D-02

 Cycle   4  Pass 0  IDiag  1:
 RMSU=  1.09D-03    CP:  9.85D-01  3.43D-01  7.28D-01
 E= -745.267139662772     Delta-E=       -0.014449363371 Rises=F Damp=F
 DIIS: error= 6.84D-03 at cycle   4 NSaved=   4.
 NSaved= 4 IEnMin= 4 EnMin= -745.267139662772     IErMin= 4 ErrMin= 6.84D-03
 ErrMax= 6.84D-03  0.00D+00 EMaxC= 1.00D-01 BMatC= 8.63D-03 BMatP= 2.51D-02
 IDIUse=3 WtCom= 9.32D-01 WtEn= 6.84D-02
 Coeff-Com:  0.633D-01-0.236D-01 0.471D+00 0.489D+00
 Coeff-En:   0.000D+00 0.000D+00 0.270D+00 0.730D+00
 Coeff:      0.590D-01-0.220D-01 0.458D+00 0.505D+00
 Gap=     0.185 Goal=   None    Shift=    0.000
 RMSDP=6.91D-04 MaxDP=1.70D-02 DE=-1.44D-02 OVMax= 4.45D-02

 Cycle   5  Pass 0  IDiag  1:
 RMSU=  2.79D-04    CP:  9.84D-01  3.37D-01  8.41D-01  4.71D-01
 E= -745.276331710882     Delta-E=       -0.009192048110 Rises=F Damp=F
 DIIS: error= 1.27D-03 at cycle   5 NSaved=   5.
 NSaved= 5 IEnMin= 5 EnMin= -745.276331710882     IErMin= 5 ErrMin= 1.27D-03
 ErrMax= 1.27D-03  0.00D+00 EMaxC= 1.00D-01 BMatC= 4.30D-04 BMatP= 8.63D-03
 IDIUse=3 WtCom= 9.87D-01 WtEn= 1.27D-02
 Coeff-Com:  0.180D-01-0.138D-01 0.197D+00 0.272D+00 0.526D+00
 Coeff-En:   0.000D+00 0.000D+00 0.000D+00 0.000D+00 0.100D+01
 Coeff:      0.178D-01-0.136D-01 0.195D+00 0.269D+00 0.532D+00
 Gap=     0.187 Goal=   None    Shift=    0.000
 RMSDP=1.65D-04 MaxDP=4.18D-03 DE=-9.19D-03 OVMax= 8.57D-03

 Cycle   6  Pass 0  IDiag  1:
 RMSU=  8.24D-05    CP:  9.84D-01  3.36D-01  8.41D-01  5.36D-01  5.58D-01
 E= -745.276764351143     Delta-E=       -0.000432640261 Rises=F Damp=F
 DIIS: error= 3.35D-04 at cycle   6 NSaved=   6.
 NSaved= 6 IEnMin= 6 EnMin= -745.276764351143     IErMin= 6 ErrMin= 3.35D-04
 ErrMax= 3.35D-04  0.00D+00 EMaxC= 1.00D-01 BMatC= 3.20D-05 BMatP= 4.30D-04
 IDIUse=3 WtCom= 9.97D-01 WtEn= 3.35D-03
 Coeff-Com:  0.333D-02-0.524D-02 0.533D-01 0.834D-01 0.271D+00 0.595D+00
 Coeff-En:   0.000D+00 0.000D+00 0.000D+00 0.000D+00 0.324D-02 0.997D+00
 Coeff:      0.332D-02-0.523D-02 0.531D-01 0.831D-01 0.270D+00 0.596D+00
 Gap=     0.187 Goal=   None    Shift=    0.000
 RMSDP=4.51D-05 MaxDP=9.73D-04 DE=-4.33D-04 OVMax= 1.88D-03

 Cycle   7  Pass 0  IDiag  1:
 RMSU=  3.03D-05    CP:  9.84D-01  3.35D-01  8.45D-01  5.29D-01  6.25D-01
                    CP:  7.10D-01
 E= -745.276797014345     Delta-E=       -0.000032663202 Rises=F Damp=F
 DIIS: error= 7.33D-05 at cycle   7 NSaved=   7.
 NSaved= 7 IEnMin= 7 EnMin= -745.276797014345     IErMin= 7 ErrMin= 7.33D-05
 ErrMax= 7.33D-05  0.00D+00 EMaxC= 1.00D-01 BMatC= 1.69D-06 BMatP= 3.20D-05
 IDIUse=1 WtCom= 1.00D+00 WtEn= 0.00D+00
 Coeff-Com:  0.422D-03-0.124D-02 0.100D-01 0.182D-01 0.852D-01 0.273D+00
 Coeff-Com:  0.615D+00
 Coeff:      0.422D-03-0.124D-02 0.100D-01 0.182D-01 0.852D-01 0.273D+00
 Coeff:      0.615D+00
 Gap=     0.187 Goal=   None    Shift=    0.000
 RMSDP=1.33D-05 MaxDP=2.78D-04 DE=-3.27D-05 OVMax= 4.84D-04

 Cycle   8  Pass 0  IDiag  1:
 RMSU=  8.61D-06    CP:  9.84D-01  3.35D-01  8.45D-01  5.29D-01  6.19D-01
                    CP:  7.48D-01  6.87D-01
 E= -745.276798687075     Delta-E=       -0.000001672729 Rises=F Damp=F
 DIIS: error= 3.28D-05 at cycle   8 NSaved=   8.
 NSaved= 8 IEnMin= 8 EnMin= -745.276798687075     IErMin= 8 ErrMin= 3.28D-05
 ErrMax= 3.28D-05  0.00D+00 EMaxC= 1.00D-01 BMatC= 2.60D-07 BMatP= 1.69D-06
 IDIUse=1 WtCom= 1.00D+00 WtEn= 0.00D+00
 Coeff-Com: -0.829D-04-0.251D-03 0.865D-03 0.312D-02 0.242D-01 0.976D-01
 Coeff-Com:  0.338D+00 0.536D+00
 Coeff:     -0.829D-04-0.251D-03 0.865D-03 0.312D-02 0.242D-01 0.976D-01
 Coeff:      0.338D+00 0.536D+00
 Gap=     0.187 Goal=   None    Shift=    0.000
 RMSDP=4.22D-06 MaxDP=8.79D-05 DE=-1.67D-06 OVMax= 2.29D-04

 Initial convergence to 1.0D-05 achieved.  Increase integral accuracy.
 Cycle   9  Pass 1  IDiag  1:
 E= -745.276811405219     Delta-E=       -0.000012718145 Rises=F Damp=F
 DIIS: error= 1.41D-05 at cycle   1 NSaved=   1.
 NSaved= 1 IEnMin= 1 EnMin= -745.276811405219     IErMin= 1 ErrMin= 1.41D-05
 ErrMax= 1.41D-05  0.00D+00 EMaxC= 1.00D-01 BMatC= 4.27D-08 BMatP= 4.27D-08
 IDIUse=1 WtCom= 1.00D+00 WtEn= 0.00D+00
 Coeff-Com:  0.100D+01
 Coeff:      0.100D+01
 Gap=     0.187 Goal=   None    Shift=    0.000
 RMSDP=4.22D-06 MaxDP=8.79D-05 DE=-1.27D-05 OVMax= 1.93D-04

 Cycle  10  Pass 1  IDiag  1:
 RMSU=  5.93D-06    CP:  1.00D+00
 E= -745.276811351682     Delta-E=        0.000000053537 Rises=F Damp=F
 DIIS: error= 2.49D-05 at cycle   2 NSaved=   2.
 NSaved= 2 IEnMin= 1 EnMin= -745.276811405219     IErMin= 1 ErrMin= 1.41D-05
 ErrMax= 2.49D-05  0.00D+00 EMaxC= 1.00D-01 BMatC= 8.63D-08 BMatP= 4.27D-08
 IDIUse=1 WtCom= 1.00D+00 WtEn= 0.00D+00
 Coeff-Com:  0.597D+00 0.403D+00
 Coeff:      0.597D+00 0.403D+00
 Gap=     0.187 Goal=   None    Shift=    0.000
 RMSDP=2.28D-06 MaxDP=5.14D-05 DE= 5.35D-08 OVMax= 1.59D-04

 Cycle  11  Pass 1  IDiag  1:
 RMSU=  1.92D-06    CP:  1.00D+00  7.93D-01
 E= -745.276811444712     Delta-E=       -0.000000093030 Rises=F Damp=F
 DIIS: error= 5.44D-06 at cycle   3 NSaved=   3.
 NSaved= 3 IEnMin= 3 EnMin= -745.276811444712     IErMin= 3 ErrMin= 5.44D-06
 ErrMax= 5.44D-06  0.00D+00 EMaxC= 1.00D-01 BMatC= 3.08D-09 BMatP= 4.27D-08
 IDIUse=1 WtCom= 1.00D+00 WtEn= 0.00D+00
 Coeff-Com:  0.106D+00 0.173D+00 0.721D+00
 Coeff:      0.106D+00 0.173D+00 0.721D+00
 Gap=     0.187 Goal=   None    Shift=    0.000
 RMSDP=5.39D-07 MaxDP=1.48D-05 DE=-9.30D-08 OVMax= 3.65D-05

 Cycle  12  Pass 1  IDiag  1:
 RMSU=  4.17D-07    CP:  1.00D+00  8.19D-01  8.43D-01
 E= -745.276811447353     Delta-E=       -0.000000002641 Rises=F Damp=F
 DIIS: error= 1.98D-06 at cycle   4 NSaved=   4.
 NSaved= 4 IEnMin= 4 EnMin= -745.276811447353     IErMin= 4 ErrMin= 1.98D-06
 ErrMax= 1.98D-06  0.00D+00 EMaxC= 1.00D-01 BMatC= 8.33D-10 BMatP= 3.08D-09
 IDIUse=1 WtCom= 1.00D+00 WtEn= 0.00D+00
 Coeff-Com:  0.539D-04 0.609D-01 0.431D+00 0.508D+00
 Coeff:      0.539D-04 0.609D-01 0.431D+00 0.508D+00
 Gap=     0.187 Goal=   None    Shift=    0.000
 RMSDP=2.19D-07 MaxDP=5.28D-06 DE=-2.64D-09 OVMax= 1.09D-05

 Cycle  13  Pass 1  IDiag  1:
 RMSU=  7.01D-08    CP:  1.00D+00  8.22D-01  8.74D-01  5.25D-01
 E= -745.276811448246     Delta-E=       -0.000000000892 Rises=F Damp=F
 DIIS: error= 2.91D-07 at cycle   5 NSaved=   5.
 NSaved= 5 IEnMin= 5 EnMin= -745.276811448246     IErMin= 5 ErrMin= 2.91D-07
 ErrMax= 2.91D-07  0.00D+00 EMaxC= 1.00D-01 BMatC= 2.85D-11 BMatP= 8.33D-10
 IDIUse=1 WtCom= 1.00D+00 WtEn= 0.00D+00
 Coeff-Com: -0.309D-02 0.292D-01 0.220D+00 0.287D+00 0.468D+00
 Coeff:     -0.309D-02 0.292D-01 0.220D+00 0.287D+00 0.468D+00
 Gap=     0.187 Goal=   None    Shift=    0.000
 RMSDP=4.03D-08 MaxDP=1.05D-06 DE=-8.92D-10 OVMax= 2.11D-06

 Cycle  14  Pass 1  IDiag  1:
 RMSU=  2.29D-08    CP:  1.00D+00  8.22D-01  8.72D-01  5.35D-01  5.40D-01
 E= -745.276811448274     Delta-E=       -0.000000000028 Rises=F Damp=F
 DIIS: error= 9.00D-08 at cycle   6 NSaved=   6.
 NSaved= 6 IEnMin= 6 EnMin= -745.276811448274     IErMin= 6 ErrMin= 9.00D-08
 ErrMax= 9.00D-08  0.00D+00 EMaxC= 1.00D-01 BMatC= 1.78D-12 BMatP= 2.85D-11
 IDIUse=1 WtCom= 1.00D+00 WtEn= 0.00D+00
 Coeff-Com: -0.172D-02 0.108D-01 0.828D-01 0.114D+00 0.249D+00 0.545D+00
 Coeff:     -0.172D-02 0.108D-01 0.828D-01 0.114D+00 0.249D+00 0.545D+00
 Gap=     0.187 Goal=   None    Shift=    0.000
 RMSDP=1.08D-08 MaxDP=2.12D-07 DE=-2.84D-11 OVMax= 6.94D-07

 Cycle  15  Pass 1  IDiag  1:
 RMSU=  8.82D-09    CP:  1.00D+00  8.22D-01  8.72D-01  5.34D-01  5.94D-01
                    CP:  7.94D-01
 E= -745.276811448280     Delta-E=       -0.000000000006 Rises=F Damp=F
 DIIS: error= 3.31D-08 at cycle   7 NSaved=   7.
 NSaved= 7 IEnMin= 7 EnMin= -745.276811448280     IErMin= 7 ErrMin= 3.31D-08
 ErrMax= 3.31D-08  0.00D+00 EMaxC= 1.00D-01 BMatC= 1.73D-13 BMatP= 1.78D-12
 IDIUse=1 WtCom= 1.00D+00 WtEn= 0.00D+00
 Coeff-Com: -0.394D-03 0.132D-02 0.103D-01 0.167D-01 0.580D-01 0.273D+00
 Coeff-Com:  0.641D+00
 Coeff:     -0.394D-03 0.132D-02 0.103D-01 0.167D-01 0.580D-01 0.273D+00
 Coeff:      0.641D+00
 Gap=     0.187 Goal=   None    Shift=    0.000
 RMSDP=4.31D-09 MaxDP=9.85D-08 DE=-6.37D-12 OVMax= 2.64D-07

 SCF Done:  E(RB3LYP) =  -745.276811448     A.U. after   15 cycles
            NFock= 15  Conv=0.43D-08     -V/T= 2.0066
 KE= 7.403745198707D+02 PE=-2.763663383098D+03 EE= 7.651587575121D+02
 Leave Link  502 at Mon Oct 14 01:53:12 2019, MaxMem= 10737418240 cpu:              70.9 elap:               3.0
 (Enter /apps/cent7/gaussian/g16-A.03/g16-haswell/g16/l601.exe)
 Copying SCF densities to generalized density rwf, IOpCl= 0 IROHF=0.

 **********************************************************************

            Population analysis using the SCF density.

 **********************************************************************

 Orbital symmetries:
       Occupied  (A) (A) (A) (A) (A) (A) (A) (A) (A) (A) (A) (A)
                 (A) (A) (A) (A) (A) (A) (A) (A) (A) (A) (A) (A)
                 (A) (A) (A) (A) (A) (A) (A) (A) (A) (A) (A) (A)
                 (A)
       Virtual   (A) (A) (A) (A) (A) (A) (A) (A) (A) (A) (A) (A)
                 (A) (A) (A) (A) (A) (A) (A) (A) (A) (A) (A) (A)
                 (A) (A) (A) (A) (A) (A) (A) (A) (A) (A) (A) (A)
                 (A) (A) (A) (A) (A) (A) (A) (A) (A) (A) (A) (A)
                 (A) (A) (A) (A) (A) (A) (A) (A) (A) (A) (A) (A)
                 (A) (A) (A) (A) (A) (A) (A) (A) (A) (A) (A) (A)
                 (A) (A) (A) (A) (A) (A) (A) (A) (A) (A) (A) (A)
                 (A) (A) (A) (A) (A) (A) (A) (A) (A) (A) (A) (A)
                 (A) (A) (A) (A) (A) (A) (A) (A) (A) (A) (A) (A)
                 (A) (A) (A) (A) (A) (A) (A) (A) (A) (A) (A) (A)
 The electronic state is 1-A.
 Alpha  occ. eigenvalues --  -89.20327 -19.39034 -10.40628 -10.39715 -10.36930
 Alpha  occ. eigenvalues --  -10.36792 -10.35315 -10.35124 -10.35038  -8.25242
 Alpha  occ. eigenvalues --   -6.21837  -6.21402  -6.20842  -1.27246  -1.03960
 Alpha  occ. eigenvalues --   -0.99293  -0.91384  -0.90458  -0.86130  -0.78080
 Alpha  occ. eigenvalues --   -0.76642  -0.72427  -0.68115  -0.64839  -0.64215
 Alpha  occ. eigenvalues --   -0.61032  -0.61027  -0.60594  -0.59168  -0.57847
 Alpha  occ. eigenvalues --   -0.54373  -0.52587  -0.51454  -0.50395  -0.48006
 Alpha  occ. eigenvalues --   -0.42162  -0.40881
 Alpha virt. eigenvalues --   -0.22187  -0.17101  -0.16322  -0.12931  -0.12342
 Alpha virt. eigenvalues --   -0.06986  -0.05282  -0.02734  -0.02520  -0.02091
 Alpha virt. eigenvalues --   -0.00530   0.00986   0.02686   0.05094   0.06108
 Alpha virt. eigenvalues --    0.09108   0.12364   0.13806   0.14781   0.17773
 Alpha virt. eigenvalues --    0.19243   0.20936   0.25579   0.29043   0.31487
 Alpha virt. eigenvalues --    0.37139   0.37989   0.39041   0.39211   0.40308
 Alpha virt. eigenvalues --    0.40590   0.43790   0.43924   0.45589   0.46210
 Alpha virt. eigenvalues --    0.46630   0.48421   0.50750   0.55663   0.56494
 Alpha virt. eigenvalues --    0.57156   0.63419   0.65052   0.66193   0.66898
 Alpha virt. eigenvalues --    0.68474   0.69026   0.70012   0.71299   0.72401
 Alpha virt. eigenvalues --    0.73233   0.74354   0.76837   0.77094   0.79231
 Alpha virt. eigenvalues --    0.80171   0.80861   0.82924   0.85059   0.86977
 Alpha virt. eigenvalues --    0.94010   0.96126   0.98938   1.01885   1.03580
 Alpha virt. eigenvalues --    1.09434   1.10604   1.11701   1.25443   1.26195
 Alpha virt. eigenvalues --    1.27499   1.31019   1.32827   1.33269   1.34883
 Alpha virt. eigenvalues --    1.37321   1.50456   1.52111   1.54611   1.61068
 Alpha virt. eigenvalues --    1.62667   1.65769   1.67065   1.72118   1.74422
 Alpha virt. eigenvalues --    1.80615   1.82118   1.89779   1.90426   1.94596
 Alpha virt. eigenvalues --    1.96134   1.97288   1.98152   1.98654   2.05309
 Alpha virt. eigenvalues --    2.05934   2.11842   2.13204   2.14441   2.22861
 Alpha virt. eigenvalues --    2.34353   2.37996   2.40779   2.46105   2.48876
 Alpha virt. eigenvalues --    2.52356   2.56282   2.57306   2.60974   2.85262
 Alpha virt. eigenvalues --    3.18073   3.58717   3.74267   3.91956   3.94743
 Alpha virt. eigenvalues --    3.97437   4.02378   4.16552   4.17537   4.48846
          Condensed to atoms (all electrons):
               1          2          3          4          5          6
     1  O    8.278877   0.164903  -0.028375  -0.038214  -0.000538  -0.000040
     2  S    0.164903  14.724919   0.233298   0.236343  -0.035571   0.003452
     3  C   -0.028375   0.233298   5.391659  -0.029339   0.000313  -0.000131
     4  C   -0.038214   0.236343  -0.029339   5.216275   0.508295  -0.037093
     5  C   -0.000538  -0.035571   0.000313   0.508295   4.891010   0.534818
     6  C   -0.000040   0.003452  -0.000131  -0.037093   0.534818   4.836089
     7  C   -0.000001  -0.000107   0.000009  -0.034410  -0.030358   0.536463
     8  C    0.000118   0.003336   0.000083  -0.031389  -0.036941  -0.030958
     9  C    0.002001  -0.041674  -0.004088   0.463796  -0.029046  -0.036877
    10  H    0.001230  -0.024565   0.360997   0.002407  -0.000012   0.000000
    11  H    0.000074  -0.016945   0.349556  -0.005653  -0.000013   0.000003
    12  H    0.001065  -0.018910   0.359373   0.000630  -0.000013  -0.000005
    13  H   -0.000044   0.000616  -0.000055  -0.052250   0.364798  -0.027571
    14  H    0.000000  -0.000133   0.000001   0.004377  -0.036750   0.366494
    15  H   -0.000000   0.000011  -0.000000   0.000509   0.004342  -0.036084
    16  H    0.000001  -0.000157  -0.000001   0.004251   0.000515   0.003842
    17  H    0.001490  -0.004110  -0.000220  -0.055394   0.003389   0.000439
    18  H    0.249559  -0.011130   0.002016   0.001737   0.000060  -0.000003
               7          8          9         10         11         12
     1  O   -0.000001   0.000118   0.002001   0.001230   0.000074   0.001065
     2  S   -0.000107   0.003336  -0.041674  -0.024565  -0.016945  -0.018910
     3  C    0.000009   0.000083  -0.004088   0.360997   0.349556   0.359373
     4  C   -0.034410  -0.031389   0.463796   0.002407  -0.005653   0.000630
     5  C   -0.030358  -0.036941  -0.029046  -0.000012  -0.000013  -0.000013
     6  C    0.536463  -0.030958  -0.036877   0.000000   0.000003  -0.000005
     7  C    4.833120   0.531785  -0.029729  -0.000000  -0.000001   0.000003
     8  C    0.531785   4.823951   0.542674   0.000001  -0.000029  -0.000023
     9  C   -0.029729   0.542674   4.920077   0.000057   0.002566   0.000047
    10  H   -0.000000   0.000001   0.000057   0.432906  -0.019672  -0.016633
    11  H   -0.000001  -0.000029   0.002566  -0.019672   0.448700  -0.015750
    12  H    0.000003  -0.000023   0.000047  -0.016633  -0.015750   0.426919
    13  H    0.004040   0.000345   0.003794  -0.000001   0.000001   0.000014
    14  H   -0.035363   0.003845   0.000488  -0.000000   0.000000   0.000000
    15  H    0.363591  -0.036392   0.004412   0.000000  -0.000000  -0.000000
    16  H   -0.034958   0.366974  -0.038027  -0.000000   0.000002   0.000000
    17  H    0.003917  -0.026882   0.366845  -0.000017   0.001896   0.000023
    18  H   -0.000000   0.000001  -0.000247  -0.000020  -0.000137  -0.000036
              13         14         15         16         17         18
     1  O   -0.000044   0.000000  -0.000000   0.000001   0.001490   0.249559
     2  S    0.000616  -0.000133   0.000011  -0.000157  -0.004110  -0.011130
     3  C   -0.000055   0.000001  -0.000000  -0.000001  -0.000220   0.002016
     4  C   -0.052250   0.004377   0.000509   0.004251  -0.055394   0.001737
     5  C    0.364798  -0.036750   0.004342   0.000515   0.003389   0.000060
     6  C   -0.027571   0.366494  -0.036084   0.003842   0.000439  -0.000003
     7  C    0.004040  -0.035363   0.363591  -0.034958   0.003917  -0.000000
     8  C    0.000345   0.003845  -0.036392   0.366974  -0.026882   0.000001
     9  C    0.003794   0.000488   0.004412  -0.038027   0.366845  -0.000247
    10  H   -0.000001  -0.000000   0.000000  -0.000000  -0.000017  -0.000020
    11  H    0.000001   0.000000  -0.000000   0.000002   0.001896  -0.000137
    12  H    0.000014   0.000000  -0.000000   0.000000   0.000023  -0.000036
    13  H    0.520803  -0.004752  -0.000127   0.000010  -0.000131  -0.000008
    14  H   -0.004752   0.509759  -0.004158  -0.000136   0.000010  -0.000000
    15  H   -0.000127  -0.004158   0.509353  -0.004176  -0.000130   0.000000
    16  H    0.000010  -0.000136  -0.004176   0.511183  -0.004489  -0.000000
    17  H   -0.000131   0.000010  -0.000130  -0.004489   0.530352  -0.000061
    18  H   -0.000008  -0.000000   0.000000  -0.000000  -0.000061   0.271849
 Mulliken charges:
               1
     1  O   -0.632107
     2  S    0.786423
     3  C   -0.635096
     4  C   -0.154879
     5  C   -0.138298
     6  C   -0.112840
     7  C   -0.107999
     8  C   -0.110498
     9  C   -0.127068
    10  H    0.263321
    11  H    0.255403
    12  H    0.263295
    13  H    0.190519
    14  H    0.196318
    15  H    0.198850
    16  H    0.195166
    17  H    0.183071
    18  H    0.486420
 Sum of Mulliken charges =   1.00000
 Mulliken charges with hydrogens summed into heavy atoms:
               1
     1  O   -0.145687
     2  S    0.786423
     3  C    0.146922
     4  C   -0.154879
     5  C    0.052220
     6  C    0.083478
     7  C    0.090851
     8  C    0.084668
     9  C    0.056003
 Electronic spatial extent (au):  <R**2>=           1487.0203
 Charge=              1.0000 electrons
 Dipole moment (field-independent basis, Debye):
    X=              2.8044    Y=             -0.4496    Z=              0.2583  Tot=              2.8519
 Quadrupole moment (field-independent basis, Debye-Ang):
   XX=            -27.7953   YY=            -49.0642   ZZ=            -49.6270
   XY=             -1.1656   XZ=              0.0860   YZ=              2.4305
 Traceless Quadrupole moment (field-independent basis, Debye-Ang):
   XX=             14.3668   YY=             -6.9020   ZZ=             -7.4648
   XY=             -1.1656   XZ=              0.0860   YZ=              2.4305
 Octapole moment (field-independent basis, Debye-Ang**2):
  XXX=              7.3500  YYY=              3.2483  ZZZ=            -14.6286  XYY=             -5.5292
  XXY=             -1.6054  XXZ=              0.6450  XZZ=             36.7851  YZZ=             -3.6129
  YYZ=             -1.1466  XYZ=              9.4570
 Hexadecapole moment (field-independent basis, Debye-Ang**3):
 XXXX=          -1054.5149 YYYY=           -296.3138 ZZZZ=           -157.1070 XXXY=            -10.1287
 XXXZ=             -4.5780 YYYX=              5.1364 YYYZ=             -2.6148 ZZZX=            -37.9092
 ZZZY=             12.0394 XXYY=           -245.3320 XXZZ=           -213.9911 YYZZ=            -96.1876
 XXYZ=             13.3841 YYXZ=             -2.8729 ZZXY=             -7.0001
 N-N= 5.128532942667D+02 E-N=-2.763663390189D+03  KE= 7.403745198707D+02
 No NMR shielding tensors so no spin-rotation constants.
 Leave Link  601 at Mon Oct 14 01:53:12 2019, MaxMem= 10737418240 cpu:               3.2 elap:               0.2
 (Enter /apps/cent7/gaussian/g16-A.03/g16-haswell/g16/l701.exe)
 ... and contract with generalized density number  0.
 Compute integral first derivatives.
 Leave Link  701 at Mon Oct 14 01:53:13 2019, MaxMem= 10737418240 cpu:               2.6 elap:               0.1
 (Enter /apps/cent7/gaussian/g16-A.03/g16-haswell/g16/l702.exe)
 L702 exits ... SP integral derivatives will be done elsewhere.
 Leave Link  702 at Mon Oct 14 01:53:13 2019, MaxMem= 10737418240 cpu:               1.1 elap:               0.1
 (Enter /apps/cent7/gaussian/g16-A.03/g16-haswell/g16/l703.exe)
 Integral derivatives from FoFJK, PRISM(SPDF).
 Compute integral first derivatives, UseDBF=F ICtDFT=           0.
 Calling FoFJK, ICntrl=      2127 FMM=F ISym2X=0 I1Cent= 0 IOpClX= 0 NMat=1 NMatS=1 NMatT=0.
 FoFJK:  IHMeth= 1 ICntrl=    2127 DoSepK=F KAlg= 0 I1Cent=           0 FoldK=F
 IRaf=         0 NMat=       1 IRICut=       1 DoRegI=T DoRafI=F ISym2E= 0 IDoP0=0 IntGTp=1.
 FoFCou: FMM=F IPFlag=           0 FMFlag=      100000 FMFlg1=         800
         NFxFlg=           0 DoJE=F BraDBF=F KetDBF=F FulRan=T
         wScrn=  0.000000 ICntrl=      2127 IOpCl=  0 I1Cent=           0 NGrid=           0
         NMat0=    1 NMatS0=      1 NMatT0=    0 NMatD0=    1 NMtDS0=    0 NMtDT0=    0
 Symmetry not used in FoFCou.
 Leave Link  703 at Mon Oct 14 01:53:13 2019, MaxMem= 10737418240 cpu:              17.9 elap:               0.8
 (Enter /apps/cent7/gaussian/g16-A.03/g16-haswell/g16/l716.exe)
 Dipole        = 1.10332305D+00-1.76888050D-01 1.01622400D-01
 ***** Axes restored to original set *****
 -------------------------------------------------------------------
 Center     Atomic                   Forces (Hartrees/Bohr)
 Number     Number              X              Y              Z
 -------------------------------------------------------------------
      1        8          -0.037018680    0.004154943   -0.028980556
      2       16           0.042374946   -0.002157652    0.005776970
      3        6          -0.017242903    0.001880783    0.004026154
      4        6          -0.004480091    0.021423170   -0.007926814
      5        6           0.004270937   -0.002622131    0.003521384
      6        6          -0.007915679   -0.002768280   -0.003395628
      7        6           0.000326563   -0.008918721    0.001314973
      8        6           0.002975751   -0.010032677    0.003008792
      9        6          -0.001475357    0.005465849   -0.002747215
     10        1           0.000875455   -0.001590846    0.005292636
     11        1          -0.002489667    0.001508497   -0.000840837
     12        1           0.005229493    0.004079598    0.005045959
     13        1          -0.001189926    0.001716661   -0.000372836
     14        1          -0.002825557   -0.002616051   -0.000838504
     15        1          -0.000555039   -0.003141929    0.000171116
     16        1           0.001466249   -0.003264313    0.001209195
     17        1           0.001496837    0.002221771    0.001077084
     18        1           0.016176669   -0.005338670    0.014658127
 -------------------------------------------------------------------
 Cartesian Forces:  Max     0.042374946 RMS     0.010494136
 Leave Link  716 at Mon Oct 14 01:53:14 2019, MaxMem= 10737418240 cpu:               1.3 elap:               0.1
 (Enter /apps/cent7/gaussian/g16-A.03/g16-haswell/g16/l103.exe)

 GradGradGradGradGradGradGradGradGradGradGradGradGradGradGradGradGradGrad
 Berny optimization.
 FormGI is forming the generalized inverse of G from B-inverse, IUseBI=4.
 Internal  Forces:  Max     0.028575470 RMS     0.006644344
 Search for a local minimum.
 Step number   1 out of a maximum of   92
 All quantities printed in internal units (Hartrees-Bohrs-Radians)
 RMS Force = .66443D-02 SwitMx=.10000D-02 MixMth= 1
 Mixed Optimization -- RFO/linear search
 Second derivative matrix not updated -- first step.
 ITU=  0
     Eigenvalues ---    0.00230   0.00776   0.01581   0.01942   0.01951
     Eigenvalues ---    0.01977   0.01981   0.01981   0.01988   0.01992
     Eigenvalues ---    0.01998   0.02566   0.05626   0.07239   0.07239
     Eigenvalues ---    0.15990   0.16000   0.16000   0.16000   0.16000
     Eigenvalues ---    0.16000   0.16000   0.16000   0.16000   0.16000
     Eigenvalues ---    0.19727   0.22000   0.22000   0.23479   0.23831
     Eigenvalues ---    0.25000   0.28690   0.34808   0.34808   0.34812
     Eigenvalues ---    0.34815   0.34815   0.34816   0.34817   0.34820
     Eigenvalues ---    0.40337   0.40457   0.43862   0.44154   0.44318
     Eigenvalues ---    0.44507   0.50457   0.55473
 RFO step:  Lambda=-1.82726108D-02 EMin= 2.30000000D-03
 Linear search not attempted -- first point.
 Iteration  1 RMS(Cart)=  0.07134928 RMS(Int)=  0.00260090
 Iteration  2 RMS(Cart)=  0.00413116 RMS(Int)=  0.00130662
 Iteration  3 RMS(Cart)=  0.00001063 RMS(Int)=  0.00130660
 Iteration  4 RMS(Cart)=  0.00000007 RMS(Int)=  0.00130660
 ITry= 1 IFail=0 DXMaxC= 2.33D-01 DCOld= 1.00D+10 DXMaxT= 3.00D-01 DXLimC= 3.00D+00 Rises=F
 Variable       Old X    -DE/DX   Delta X   Delta X   Delta X     New X
                                 (Linear)    (Quad)   (Total)
    R1        3.03107   0.01055   0.00000   0.02017   0.02017   3.05124
    R2        1.81414   0.01587   0.00000   0.02770   0.02770   1.84183
    R3        3.45977  -0.01137   0.00000  -0.04433  -0.04433   3.41544
    R4        3.34354  -0.00343   0.00000  -0.01125  -0.01125   3.33229
    R5        2.05987   0.00151   0.00000   0.00411   0.00411   2.06398
    R6        2.05976   0.00298   0.00000   0.00814   0.00814   2.06790
    R7        2.05975   0.00175   0.00000   0.00477   0.00477   2.06452
    R8        2.66478  -0.00738   0.00000  -0.01561  -0.01558   2.64920
    R9        2.66900  -0.00671   0.00000  -0.01439  -0.01435   2.65465
   R10        2.65719  -0.01374   0.00000  -0.02943  -0.02944   2.62775
   R11        2.05973  -0.00203   0.00000  -0.00553  -0.00553   2.05420
   R12        2.66027  -0.00871   0.00000  -0.01923  -0.01926   2.64101
   R13        2.05982  -0.00368   0.00000  -0.01006  -0.01006   2.04976
   R14        2.65963  -0.00611   0.00000  -0.01371  -0.01374   2.64589
   R15        2.05976  -0.00319   0.00000  -0.00872  -0.00872   2.05104
   R16        2.66218  -0.01772   0.00000  -0.03864  -0.03863   2.62355
   R17        2.05967  -0.00349   0.00000  -0.00952  -0.00952   2.05016
   R18        2.05988  -0.00244   0.00000  -0.00665  -0.00665   2.05322
    A1        2.09440  -0.02858   0.00000  -0.16029  -0.16029   1.93410
    A2        1.82647  -0.01922   0.00000  -0.14250  -0.14538   1.68109
    A3        1.85179   0.00514   0.00000  -0.01656  -0.02455   1.82724
    A4        1.86038  -0.00210   0.00000  -0.04234  -0.04619   1.81419
    A5        1.91063  -0.00616   0.00000  -0.03514  -0.03587   1.87477
    A6        1.91060   0.00334   0.00000   0.02304   0.02317   1.93377
    A7        1.91061  -0.01128   0.00000  -0.06696  -0.06769   1.84292
    A8        1.91066   0.00311   0.00000   0.02481   0.02492   1.93558
    A9        1.91067   0.00673   0.00000   0.02917   0.02732   1.93799
   A10        1.91062   0.00425   0.00000   0.02507   0.02525   1.93587
   A11        2.07101  -0.01071   0.00000  -0.04107  -0.04111   2.02990
   A12        2.12682   0.00054   0.00000   0.00085   0.00081   2.12762
   A13        2.08535   0.01017   0.00000   0.04020   0.04024   2.12559
   A14        2.10020  -0.00730   0.00000  -0.02849  -0.02848   2.07173
   A15        2.09404   0.00421   0.00000   0.01742   0.01741   2.11145
   A16        2.08894   0.00308   0.00000   0.01107   0.01106   2.10000
   A17        2.09481  -0.00012   0.00000  -0.00008  -0.00013   2.09468
   A18        2.09320  -0.00138   0.00000  -0.00803  -0.00801   2.08519
   A19        2.09518   0.00150   0.00000   0.00811   0.00813   2.10331
   A20        2.09394   0.00364   0.00000   0.01441   0.01435   2.10829
   A21        2.09480  -0.00186   0.00000  -0.00743  -0.00740   2.08740
   A22        2.09445  -0.00178   0.00000  -0.00698  -0.00695   2.08750
   A23        2.09463   0.00005   0.00000  -0.00022  -0.00025   2.09438
   A24        2.09337   0.00146   0.00000   0.00843   0.00845   2.10182
   A25        2.09518  -0.00151   0.00000  -0.00821  -0.00820   2.08698
   A26        2.09743  -0.00645   0.00000  -0.02578  -0.02577   2.07166
   A27        2.09515   0.00463   0.00000   0.02080   0.02076   2.11591
   A28        2.09060   0.00181   0.00000   0.00497   0.00493   2.09553
    D1        2.59966   0.00241   0.00000   0.01670   0.01436   2.61402
    D2       -1.72007  -0.00595   0.00000  -0.09715  -0.09481  -1.81487
    D3       -1.36570  -0.00278   0.00000  -0.04643  -0.04319  -1.40890
    D4        0.72871  -0.00070   0.00000  -0.02345  -0.02103   0.70768
    D5        2.82306  -0.00035   0.00000  -0.01964  -0.01812   2.80494
    D6        2.96016   0.00054   0.00000   0.05018   0.04863   3.00880
    D7       -1.22861   0.00262   0.00000   0.07316   0.07080  -1.15780
    D8        0.86574   0.00296   0.00000   0.07697   0.07371   0.93945
    D9        2.20924   0.00970   0.00000   0.07651   0.07658   2.28583
   D10       -0.92948   0.01004   0.00000   0.08678   0.08664  -0.84284
   D11       -2.13417  -0.01062   0.00000  -0.10914  -0.10900  -2.24317
   D12        1.01029  -0.01028   0.00000  -0.09887  -0.09895   0.91135
   D13       -3.13721  -0.00007   0.00000  -0.00124  -0.00125  -3.13846
   D14        0.00451   0.00008   0.00000   0.00257   0.00252   0.00702
   D15        0.00159  -0.00041   0.00000  -0.01132  -0.01136  -0.00978
   D16       -3.13989  -0.00027   0.00000  -0.00751  -0.00759   3.13570
   D17        3.13948  -0.00030   0.00000  -0.00829  -0.00845   3.13103
   D18       -0.00221   0.00021   0.00000   0.00507   0.00497   0.00276
   D19        0.00079   0.00007   0.00000   0.00220   0.00229   0.00307
   D20       -3.14091   0.00058   0.00000   0.01556   0.01571  -3.12520
   D21       -0.00193   0.00042   0.00000   0.01123   0.01110   0.00917
   D22        3.13970   0.00020   0.00000   0.00529   0.00519  -3.13830
   D23        3.13954   0.00028   0.00000   0.00744   0.00736  -3.13628
   D24       -0.00201   0.00006   0.00000   0.00149   0.00144  -0.00057
   D25       -0.00011  -0.00007   0.00000  -0.00190  -0.00202  -0.00213
   D26        3.14145  -0.00021   0.00000  -0.00562  -0.00570   3.13575
   D27        3.14145   0.00015   0.00000   0.00405   0.00395  -3.13779
   D28       -0.00018   0.00002   0.00000   0.00033   0.00028   0.00010
   D29        0.00247  -0.00026   0.00000  -0.00714  -0.00719  -0.00471
   D30       -3.13915  -0.00023   0.00000  -0.00636  -0.00637   3.13767
   D31       -3.13909  -0.00012   0.00000  -0.00342  -0.00351   3.14059
   D32        0.00248  -0.00010   0.00000  -0.00265  -0.00269  -0.00021
   D33       -0.00281   0.00028   0.00000   0.00703   0.00701   0.00419
   D34        3.13888  -0.00023   0.00000  -0.00630  -0.00626   3.13262
   D35        3.13880   0.00025   0.00000   0.00625   0.00620  -3.13818
   D36       -0.00269  -0.00026   0.00000  -0.00707  -0.00707  -0.00975
         Item               Value     Threshold  Converged?
 Maximum Force            0.028575     0.000450     NO 
 RMS     Force            0.006644     0.000300     NO 
 Maximum Displacement     0.233120     0.001800     NO 
 RMS     Displacement     0.073862     0.001200     NO 
 Predicted change in Energy=-1.013777D-02
 Lowest energy point so far.  Saving SCF results.
 GradGradGradGradGradGradGradGradGradGradGradGradGradGradGradGradGradGrad

 Leave Link  103 at Mon Oct 14 01:53:14 2019, MaxMem= 10737418240 cpu:               0.9 elap:               0.1
 (Enter /apps/cent7/gaussian/g16-A.03/g16-haswell/g16/l202.exe)
                          Input orientation:                          
 ---------------------------------------------------------------------
 Center     Atomic      Atomic             Coordinates (Angstroms)
 Number     Number       Type             X           Y           Z
 ---------------------------------------------------------------------
      1          8           0       -1.819215   -1.898842    0.833851
      2         16           0       -0.372894   -1.737271    0.134466
      3          6           0       -0.893373   -2.248224   -1.519205
      4          6           0       -0.139298    0.004352   -0.012715
      5          6           0        1.088882    0.506826    0.439392
      6          6           0        1.324462    1.874367    0.350237
      7          6           0        0.342216    2.720423   -0.171843
      8          6           0       -0.884308    2.208682   -0.612495
      9          6           0       -1.134232    0.845031   -0.538807
     10          1           0       -0.922806   -3.339988   -1.529904
     11          1           0       -1.873798   -1.828838   -1.764855
     12          1           0       -0.125980   -1.869889   -2.198560
     13          1           0        1.847486   -0.155156    0.849203
     14          1           0        2.271674    2.276221    0.693524
     15          1           0        0.531177    3.787445   -0.233263
     16          1           0       -1.643967    2.871405   -1.013392
     17          1           0       -2.088811    0.447763   -0.872697
     18          1           0       -1.724557   -2.136634    1.774303
 ---------------------------------------------------------------------
                    Distance matrix (angstroms):
                    1          2          3          4          5
     1  O    0.000000
     2  S    1.614649   0.000000
     3  C    2.552670   1.807374   0.000000
     4  C    2.675994   1.763372   2.812870   0.000000
     5  C    3.794716   2.695503   3.918640   1.401894   0.000000
     6  C    4.934946   3.996436   5.040769   2.402349   1.390544
     7  C    5.198155   4.525068   5.294291   2.763009   2.414773
     8  C    4.453956   4.048462   4.548211   2.402883   2.810028
     9  C    3.143602   2.775107   3.253832   1.404780   2.452242
    10  H    2.909947   2.375128   1.092213   3.755044   4.766864
    11  H    2.600222   2.422503   1.094286   3.072307   4.369383
    12  H    3.473240   2.349800   1.092498   2.879388   3.752793
    13  H    4.060219   2.818514   4.183611   2.171557   1.087035
    14  H    5.846898   4.838843   5.948470   3.387175   2.143441
    15  H    6.244753   5.610263   6.333427   3.848372   3.394990
    16  H    5.118425   4.916614   5.199023   3.389007   3.894904
    17  H    2.914025   2.955185   3.019171   2.176415   3.438429
    18  H    0.974657   2.162303   3.398605   3.207850   4.084766
                    6          7          8          9         10
     6  C    0.000000
     7  C    1.397565   0.000000
     8  C    2.432547   1.400147   0.000000
     9  C    2.809823   2.414882   1.388321   0.000000
    10  H    5.981190   6.338232   5.624133   4.305968   0.000000
    11  H    5.330685   5.305109   4.313769   3.033106   1.800878
    12  H    4.756007   5.039618   4.441330   3.337985   1.800895
    13  H    2.154410   3.402547   3.897049   3.437672   4.845392
    14  H    1.084687   2.160784   3.416207   3.894502   6.833019
    15  H    2.151660   1.085364   2.154044   3.394811   7.388887
    16  H    3.415427   2.162388   1.084897   2.142720   6.274413
    17  H    3.896305   3.400892   2.149272   1.086520   4.017281
    18  H    5.235705   5.625836   5.028379   3.819593   3.606751
                   11         12         13         14         15
    11  H    0.000000
    12  H    1.801291   0.000000
    13  H    4.845871   4.015438   0.000000
    14  H    6.330883   5.594920   2.473007   0.000000
    15  H    6.298597   6.024922   4.295172   2.484364   0.000000
    16  H    4.765481   5.117497   4.981925   4.312778   2.485756
    17  H    2.454606   3.313930   4.338535   4.980978   4.292632
    18  H    3.555651   4.290716   4.188264   6.050722   6.649314
                   16         17         18
    16  H    0.000000
    17  H    2.468142   0.000000
    18  H    5.732207   3.717310   0.000000
 Stoichiometry    C7H9OS(1+)
 Framework group  C1[X(C7H9OS)]
 Deg. of freedom    48
 Full point group                 C1      NOp   1
 RotChk:  IX=0 Diff= 1.66D-02
 Largest Abelian subgroup         C1      NOp   1
 Largest concise Abelian subgroup C1      NOp   1
                         Standard orientation:                         
 ---------------------------------------------------------------------
 Center     Atomic      Atomic             Coordinates (Angstroms)
 Number     Number       Type             X           Y           Z
 ---------------------------------------------------------------------
      1          8           0        2.148370    0.268958   -1.264249
      2         16           0        1.559184   -0.555867   -0.007422
      3          6           0        2.240657    0.520902    1.274281
      4          6           0       -0.165241   -0.187393    0.000620
      5          6           0       -1.034148   -1.282976    0.100650
      6          6           0       -2.404959   -1.049648    0.107671
      7          6           0       -2.892417    0.256123    0.005047
      8          6           0       -2.015457    1.342246   -0.103075
      9          6           0       -0.643559    1.129330   -0.103592
     10          1           0        3.287351    0.241603    1.413393
     11          1           0        2.152334    1.572696    0.985508
     12          1           0        1.656376    0.312971    2.173687
     13          1           0       -0.649680   -2.297011    0.175229
     14          1           0       -3.088593   -1.887973    0.187676
     15          1           0       -3.963762    0.430009    0.005731
     16          1           0       -2.400484    2.353120   -0.186070
     17          1           0        0.037816    1.970605   -0.195837
     18          1           0        2.325489   -0.325314   -2.016196
 ---------------------------------------------------------------------
 Rotational constants (GHZ):           3.0793198           0.9001785           0.8274618
 Leave Link  202 at Mon Oct 14 01:53:14 2019, MaxMem= 10737418240 cpu:               0.3 elap:               0.0
 (Enter /apps/cent7/gaussian/g16-A.03/g16-haswell/g16/l301.exe)
 Standard basis: 6-31G(d) (6D, 7F)
 Ernie: Thresh=  0.10000D-02 Tol=  0.10000D-05 Strict=F.
 There are   157 symmetry adapted cartesian basis functions of A   symmetry.
 There are   157 symmetry adapted basis functions of A   symmetry.
   157 basis functions,   312 primitive gaussians,   157 cartesian basis functions
    37 alpha electrons       37 beta electrons
       nuclear repulsion energy       518.6002324424 Hartrees.
 IExCor=  402 DFT=T Ex+Corr=B3LYP ExCW=0 ScaHFX=  0.200000
 ScaDFX=  0.800000  0.720000  1.000000  0.810000 ScalE2=  1.000000  1.000000
 IRadAn=      5 IRanWt=     -1 IRanGd=            0 ICorTp=0 IEmpDi=  4
 NAtoms=   18 NActive=   18 NUniq=   18 SFac= 1.00D+00 NAtFMM=   60 NAOKFM=F Big=F
 Integral buffers will be    131072 words long.
 Raffenetti 2 integral format.
 Two-electron integral symmetry is turned on.
 Leave Link  301 at Mon Oct 14 01:53:14 2019, MaxMem= 10737418240 cpu:               1.2 elap:               0.1
 (Enter /apps/cent7/gaussian/g16-A.03/g16-haswell/g16/l302.exe)
 NPDir=0 NMtPBC=     1 NCelOv=     1 NCel=       1 NClECP=     1 NCelD=      1
         NCelK=      1 NCelE2=     1 NClLst=     1 CellRange=     0.0.
 One-electron integrals computed using PRISM.
 One-electron integral symmetry used in STVInt
 NBasis=   157 RedAO= T EigKep=  5.08D-04  NBF=   157
 NBsUse=   157 1.00D-06 EigRej= -1.00D+00 NBFU=   157
 Precomputing XC quadrature grid using
 IXCGrd= 4 IRadAn=           5 IRanWt=          -1 IRanGd=           0 AccXCQ= 0.00D+00.
 Generated NRdTot=       0 NPtTot=           0 NUsed=           0 NTot=          32
 NSgBfM=   157   157   157   157   157 MxSgAt=    18 MxSgA2=    18.
 Leave Link  302 at Mon Oct 14 01:53:14 2019, MaxMem= 10737418240 cpu:               3.0 elap:               0.1
 (Enter /apps/cent7/gaussian/g16-A.03/g16-haswell/g16/l303.exe)
 DipDrv:  MaxL=1.
 Leave Link  303 at Mon Oct 14 01:53:14 2019, MaxMem= 10737418240 cpu:               1.2 elap:               0.1
 (Enter /apps/cent7/gaussian/g16-A.03/g16-haswell/g16/l401.exe)
 Initial guess from the checkpoint file:  "33_p.chk"
 B after Tr=    -0.000000   -0.000000    0.000000
         Rot=    0.999990    0.002758    0.002775    0.002282 Ang=   0.52 deg.
 Guess basis will be translated and rotated to current coordinates.
 JPrj=2 DoOrth=T DoCkMO=T.
 Generating alternative initial guess.
 ExpMin= 1.17D-01 ExpMax= 2.19D+04 ExpMxC= 3.30D+03 IAcc=2 IRadAn=         4 AccDes= 0.00D+00
 Harris functional with IExCor=  402 and IRadAn=       4 diagonalized for initial guess.
 HarFok:  IExCor=  402 AccDes= 0.00D+00 IRadAn=         4 IDoV= 1 UseB2=F ITyADJ=14
 ICtDFT=  3500011 ScaDFX=  1.000000  1.000000  1.000000  1.000000
 FoFCou: FMM=F IPFlag=           0 FMFlag=      100000 FMFlg1=           0
         NFxFlg=           0 DoJE=T BraDBF=F KetDBF=T FulRan=T
         wScrn=  0.000000 ICntrl=       500 IOpCl=  0 I1Cent=   200000004 NGrid=           0
         NMat0=    1 NMatS0=      1 NMatT0=    0 NMatD0=    1 NMtDS0=    0 NMtDT0=    0
 Petite list used in FoFCou.
 Harris En= -745.342377670535    
 Leave Link  401 at Mon Oct 14 01:53:14 2019, MaxMem= 10737418240 cpu:               6.1 elap:               0.3
 (Enter /apps/cent7/gaussian/g16-A.03/g16-haswell/g16/l502.exe)
 Integral symmetry usage will be decided dynamically.
 Closed shell SCF:
 Using DIIS extrapolation, IDIIS=  1040.
 NGot= 10737418240 LenX= 10737363290 LenY= 10737338200
 Requested convergence on RMS density matrix=1.00D-08 within 128 cycles.
 Requested convergence on MAX density matrix=1.00D-06.
 Requested convergence on             energy=1.00D-06.
 No special actions if energy rises.
 Fock matrices will be formed incrementally for  20 cycles.
 Integral accuracy reduced to 1.0D-05 until final iterations.

 Cycle   1  Pass 0  IDiag  1:
 FoFJK:  IHMeth= 1 ICntrl=       0 DoSepK=F KAlg= 0 I1Cent=           0 FoldK=F
 IRaf= 940000000 NMat=       1 IRICut=       1 DoRegI=T DoRafI=F ISym2E= 0 IDoP0=0 IntGTp=1.
 FoFCou: FMM=F IPFlag=           0 FMFlag=      100000 FMFlg1=           0
         NFxFlg=           0 DoJE=F BraDBF=F KetDBF=F FulRan=T
         wScrn=  0.000000 ICntrl=         0 IOpCl=  0 I1Cent=           0 NGrid=           0
         NMat0=    1 NMatS0=      1 NMatT0=    0 NMatD0=    1 NMtDS0=    0 NMtDT0=    0
 Symmetry not used in FoFCou.
 E= -745.278991830999    
 DIIS: error= 4.48D-03 at cycle   1 NSaved=   1.
 NSaved= 1 IEnMin= 1 EnMin= -745.278991830999     IErMin= 1 ErrMin= 4.48D-03
 ErrMax= 4.48D-03  0.00D+00 EMaxC= 1.00D-01 BMatC= 3.69D-03 BMatP= 3.69D-03
 IDIUse=3 WtCom= 9.55D-01 WtEn= 4.48D-02
 Coeff-Com:  0.100D+01
 Coeff-En:   0.100D+01
 Coeff:      0.100D+01
 Gap=     1.862 Goal=   None    Shift=    0.000
 GapD=    1.862 DampG=2.000 DampE=1.000 DampFc=2.0000 IDamp=-1.
 RMSDP=9.19D-04 MaxDP=2.60D-02              OVMax= 2.90D-02

 Cycle   2  Pass 0  IDiag  1:
 RMSU=  9.19D-04    CP:  1.00D+00
 E= -745.285109644575     Delta-E=       -0.006117813575 Rises=F Damp=F
 DIIS: error= 1.58D-03 at cycle   2 NSaved=   2.
 NSaved= 2 IEnMin= 2 EnMin= -745.285109644575     IErMin= 2 ErrMin= 1.58D-03
 ErrMax= 1.58D-03  0.00D+00 EMaxC= 1.00D-01 BMatC= 4.75D-04 BMatP= 3.69D-03
 IDIUse=3 WtCom= 9.84D-01 WtEn= 1.58D-02
 Coeff-Com:  0.138D+00 0.862D+00
 Coeff-En:   0.000D+00 0.100D+01
 Coeff:      0.136D+00 0.864D+00
 Gap=     0.184 Goal=   None    Shift=    0.000
 RMSDP=2.71D-04 MaxDP=8.81D-03 DE=-6.12D-03 OVMax= 9.26D-03

 Cycle   3  Pass 0  IDiag  1:
 RMSU=  2.69D-04    CP:  1.00D+00  9.92D-01
 E= -745.284957650073     Delta-E=        0.000151994501 Rises=F Damp=F
 DIIS: error= 1.91D-03 at cycle   3 NSaved=   3.
 NSaved= 3 IEnMin= 2 EnMin= -745.285109644575     IErMin= 2 ErrMin= 1.58D-03
 ErrMax= 1.91D-03  0.00D+00 EMaxC= 1.00D-01 BMatC= 7.13D-04 BMatP= 4.75D-04
 IDIUse=3 WtCom= 1.86D-01 WtEn= 8.14D-01
 Coeff-Com: -0.180D-01 0.559D+00 0.459D+00
 Coeff-En:   0.000D+00 0.568D+00 0.432D+00
 Coeff:     -0.336D-02 0.566D+00 0.437D+00
 Gap=     0.186 Goal=   None    Shift=    0.000
 RMSDP=1.68D-04 MaxDP=5.71D-03 DE= 1.52D-04 OVMax= 5.46D-03

 Cycle   4  Pass 0  IDiag  1:
 RMSU=  6.83D-05    CP:  1.00D+00  1.03D+00  4.47D-01
 E= -745.285523687740     Delta-E=       -0.000566037667 Rises=F Damp=F
 DIIS: error= 2.04D-04 at cycle   4 NSaved=   4.
 NSaved= 4 IEnMin= 4 EnMin= -745.285523687740     IErMin= 4 ErrMin= 2.04D-04
 ErrMax= 2.04D-04  0.00D+00 EMaxC= 1.00D-01 BMatC= 1.77D-05 BMatP= 4.75D-04
 IDIUse=3 WtCom= 9.98D-01 WtEn= 2.04D-03
 Coeff-Com: -0.179D-01 0.229D+00 0.222D+00 0.568D+00
 Coeff-En:   0.000D+00 0.000D+00 0.000D+00 0.100D+01
 Coeff:     -0.178D-01 0.228D+00 0.221D+00 0.568D+00
 Gap=     0.186 Goal=   None    Shift=    0.000
 RMSDP=3.68D-05 MaxDP=9.42D-04 DE=-5.66D-04 OVMax= 1.53D-03

 Cycle   5  Pass 0  IDiag  1:
 RMSU=  2.28D-05    CP:  1.00D+00  1.04D+00  4.72D-01  6.00D-01
 E= -745.285539175486     Delta-E=       -0.000015487745 Rises=F Damp=F
 DIIS: error= 9.30D-05 at cycle   5 NSaved=   5.
 NSaved= 5 IEnMin= 5 EnMin= -745.285539175486     IErMin= 5 ErrMin= 9.30D-05
 ErrMax= 9.30D-05  0.00D+00 EMaxC= 1.00D-01 BMatC= 2.04D-06 BMatP= 1.77D-05
 IDIUse=1 WtCom= 1.00D+00 WtEn= 0.00D+00
 Coeff-Com: -0.821D-02 0.755D-01 0.829D-01 0.308D+00 0.541D+00
 Coeff:     -0.821D-02 0.755D-01 0.829D-01 0.308D+00 0.541D+00
 Gap=     0.185 Goal=   None    Shift=    0.000
 RMSDP=1.18D-05 MaxDP=3.30D-04 DE=-1.55D-05 OVMax= 7.33D-04

 Cycle   6  Pass 0  IDiag  1:
 RMSU=  8.20D-06    CP:  1.00D+00  1.04D+00  4.73D-01  6.61D-01  6.81D-01
 E= -745.285541174725     Delta-E=       -0.000001999239 Rises=F Damp=F
 DIIS: error= 3.35D-05 at cycle   6 NSaved=   6.
 NSaved= 6 IEnMin= 6 EnMin= -745.285541174725     IErMin= 6 ErrMin= 3.35D-05
 ErrMax= 3.35D-05  0.00D+00 EMaxC= 1.00D-01 BMatC= 2.48D-07 BMatP= 2.04D-06
 IDIUse=1 WtCom= 1.00D+00 WtEn= 0.00D+00
 Coeff-Com: -0.245D-02 0.153D-01 0.213D-01 0.108D+00 0.304D+00 0.553D+00
 Coeff:     -0.245D-02 0.153D-01 0.213D-01 0.108D+00 0.304D+00 0.553D+00
 Gap=     0.186 Goal=   None    Shift=    0.000
 RMSDP=4.53D-06 MaxDP=1.15D-04 DE=-2.00D-06 OVMax= 2.64D-04

 Initial convergence to 1.0D-05 achieved.  Increase integral accuracy.
 Cycle   7  Pass 1  IDiag  1:
 E= -745.285552712471     Delta-E=       -0.000011537746 Rises=F Damp=F
 DIIS: error= 1.86D-05 at cycle   1 NSaved=   1.
 NSaved= 1 IEnMin= 1 EnMin= -745.285552712471     IErMin= 1 ErrMin= 1.86D-05
 ErrMax= 1.86D-05  0.00D+00 EMaxC= 1.00D-01 BMatC= 4.46D-08 BMatP= 4.46D-08
 IDIUse=1 WtCom= 1.00D+00 WtEn= 0.00D+00
 Coeff-Com:  0.100D+01
 Coeff:      0.100D+01
 Gap=     0.186 Goal=   None    Shift=    0.000
 RMSDP=4.53D-06 MaxDP=1.15D-04 DE=-1.15D-05 OVMax= 1.77D-04

 Cycle   8  Pass 1  IDiag  1:
 RMSU=  4.93D-06    CP:  1.00D+00
 E= -745.285552663605     Delta-E=        0.000000048866 Rises=F Damp=F
 DIIS: error= 1.72D-05 at cycle   2 NSaved=   2.
 NSaved= 2 IEnMin= 1 EnMin= -745.285552712471     IErMin= 2 ErrMin= 1.72D-05
 ErrMax= 1.72D-05  0.00D+00 EMaxC= 1.00D-01 BMatC= 8.07D-08 BMatP= 4.46D-08
 IDIUse=1 WtCom= 1.00D+00 WtEn= 0.00D+00
 Coeff-Com:  0.584D+00 0.416D+00
 Coeff:      0.584D+00 0.416D+00
 Gap=     0.186 Goal=   None    Shift=    0.000
 RMSDP=2.31D-06 MaxDP=5.93D-05 DE= 4.89D-08 OVMax= 1.49D-04

 Cycle   9  Pass 1  IDiag  1:
 RMSU=  1.86D-06    CP:  1.00D+00  7.22D-01
 E= -745.285552749029     Delta-E=       -0.000000085424 Rises=F Damp=F
 DIIS: error= 4.39D-06 at cycle   3 NSaved=   3.
 NSaved= 3 IEnMin= 3 EnMin= -745.285552749029     IErMin= 3 ErrMin= 4.39D-06
 ErrMax= 4.39D-06  0.00D+00 EMaxC= 1.00D-01 BMatC= 4.57D-09 BMatP= 4.46D-08
 IDIUse=1 WtCom= 1.00D+00 WtEn= 0.00D+00
 Coeff-Com:  0.863D-01 0.200D+00 0.714D+00
 Coeff:      0.863D-01 0.200D+00 0.714D+00
 Gap=     0.186 Goal=   None    Shift=    0.000
 RMSDP=5.87D-07 MaxDP=1.70D-05 DE=-8.54D-08 OVMax= 3.97D-05

 Cycle  10  Pass 1  IDiag  1:
 RMSU=  3.76D-07    CP:  1.00D+00  7.73D-01  8.00D-01
 E= -745.285552753177     Delta-E=       -0.000000004148 Rises=F Damp=F
 DIIS: error= 1.67D-06 at cycle   4 NSaved=   4.
 NSaved= 4 IEnMin= 4 EnMin= -745.285552753177     IErMin= 4 ErrMin= 1.67D-06
 ErrMax= 1.67D-06  0.00D+00 EMaxC= 1.00D-01 BMatC= 1.13D-09 BMatP= 4.57D-09
 IDIUse=1 WtCom= 1.00D+00 WtEn= 0.00D+00
 Coeff-Com:  0.118D-02 0.889D-01 0.444D+00 0.466D+00
 Coeff:      0.118D-02 0.889D-01 0.444D+00 0.466D+00
 Gap=     0.186 Goal=   None    Shift=    0.000
 RMSDP=2.25D-07 MaxDP=6.14D-06 DE=-4.15D-09 OVMax= 9.64D-06

 Cycle  11  Pass 1  IDiag  1:
 RMSU=  9.08D-08    CP:  1.00D+00  7.74D-01  8.35D-01  4.80D-01
 E= -745.285552754260     Delta-E=       -0.000000001083 Rises=F Damp=F
 DIIS: error= 3.90D-07 at cycle   5 NSaved=   5.
 NSaved= 5 IEnMin= 5 EnMin= -745.285552754260     IErMin= 5 ErrMin= 3.90D-07
 ErrMax= 3.90D-07  0.00D+00 EMaxC= 1.00D-01 BMatC= 3.54D-11 BMatP= 1.13D-09
 IDIUse=1 WtCom= 1.00D+00 WtEn= 0.00D+00
 Coeff-Com: -0.259D-02 0.407D-01 0.214D+00 0.258D+00 0.490D+00
 Coeff:     -0.259D-02 0.407D-01 0.214D+00 0.258D+00 0.490D+00
 Gap=     0.186 Goal=   None    Shift=    0.000
 RMSDP=4.68D-08 MaxDP=1.48D-06 DE=-1.08D-09 OVMax= 1.47D-06

 Cycle  12  Pass 1  IDiag  1:
 RMSU=  2.46D-08    CP:  1.00D+00  7.74D-01  8.31D-01  4.98D-01  5.79D-01
 E= -745.285552754291     Delta-E=       -0.000000000031 Rises=F Damp=F
 DIIS: error= 1.38D-07 at cycle   6 NSaved=   6.
 NSaved= 6 IEnMin= 6 EnMin= -745.285552754291     IErMin= 6 ErrMin= 1.38D-07
 ErrMax= 1.38D-07  0.00D+00 EMaxC= 1.00D-01 BMatC= 2.73D-12 BMatP= 3.54D-11
 IDIUse=1 WtCom= 1.00D+00 WtEn= 0.00D+00
 Coeff-Com: -0.157D-02 0.136D-01 0.732D-01 0.970D-01 0.269D+00 0.549D+00
 Coeff:     -0.157D-02 0.136D-01 0.732D-01 0.970D-01 0.269D+00 0.549D+00
 Gap=     0.186 Goal=   None    Shift=    0.000
 RMSDP=9.99D-09 MaxDP=2.87D-07 DE=-3.07D-11 OVMax= 3.58D-07

 SCF Done:  E(RB3LYP) =  -745.285552754     A.U. after   12 cycles
            NFock= 12  Conv=0.10D-07     -V/T= 2.0063
 KE= 7.406539813198D+02 PE=-2.775304566348D+03 EE= 7.707647998318D+02
 Leave Link  502 at Mon Oct 14 01:53:17 2019, MaxMem= 10737418240 cpu:              58.7 elap:               2.5
 (Enter /apps/cent7/gaussian/g16-A.03/g16-haswell/g16/l701.exe)
 ... and contract with generalized density number  0.
 Compute integral first derivatives.
 Leave Link  701 at Mon Oct 14 01:53:17 2019, MaxMem= 10737418240 cpu:               2.5 elap:               0.1
 (Enter /apps/cent7/gaussian/g16-A.03/g16-haswell/g16/l702.exe)
 L702 exits ... SP integral derivatives will be done elsewhere.
 Leave Link  702 at Mon Oct 14 01:53:17 2019, MaxMem= 10737418240 cpu:               0.4 elap:               0.0
 (Enter /apps/cent7/gaussian/g16-A.03/g16-haswell/g16/l703.exe)
 Integral derivatives from FoFJK, PRISM(SPDF).
 Compute integral first derivatives, UseDBF=F ICtDFT=           0.
 Calling FoFJK, ICntrl=      2127 FMM=F ISym2X=0 I1Cent= 0 IOpClX= 0 NMat=1 NMatS=1 NMatT=0.
 FoFJK:  IHMeth= 1 ICntrl=    2127 DoSepK=F KAlg= 0 I1Cent=           0 FoldK=F
 IRaf=         0 NMat=       1 IRICut=       1 DoRegI=T DoRafI=F ISym2E= 0 IDoP0=0 IntGTp=1.
 FoFCou: FMM=F IPFlag=           0 FMFlag=      100000 FMFlg1=         800
         NFxFlg=           0 DoJE=F BraDBF=F KetDBF=F FulRan=T
         wScrn=  0.000000 ICntrl=      2127 IOpCl=  0 I1Cent=           0 NGrid=           0
         NMat0=    1 NMatS0=      1 NMatT0=    0 NMatD0=    1 NMtDS0=    0 NMtDT0=    0
 Symmetry not used in FoFCou.
 Leave Link  703 at Mon Oct 14 01:53:18 2019, MaxMem= 10737418240 cpu:              17.6 elap:               0.8
 (Enter /apps/cent7/gaussian/g16-A.03/g16-haswell/g16/l716.exe)
 Dipole        = 1.01061228D+00-2.80368825D-01 6.62713443D-02
 ***** Axes restored to original set *****
 -------------------------------------------------------------------
 Center     Atomic                   Forces (Hartrees/Bohr)
 Number     Number              X              Y              Z
 -------------------------------------------------------------------
      1        8          -0.018889909   -0.003724666    0.008078026
      2       16           0.012364985    0.004194363   -0.009565444
      3        6           0.003542344   -0.001363185   -0.002335235
      4        6           0.000955839    0.004227276   -0.000728983
      5        6           0.000672427   -0.003709422    0.001482735
      6        6          -0.000080639    0.003339902   -0.000799025
      7        6           0.001599207    0.000285868    0.000691849
      8        6           0.000640916    0.000357979    0.000158316
      9        6          -0.001953049   -0.002966187   -0.000842020
     10        1          -0.000402181    0.000177647   -0.000684837
[...]
 521,-0.0528823,0.0381151,0.0527101,-0.0488216,-0.0130754,-0.0307951,0.
 1163908,0.0022918,0.0037133,0.0281371,0.0879774,0.0824099,0.0257347,-0
 .0184795,0.0470899,0.0375397,0.033102,-0.0232188,0.0211603,0.1075918,0
 .0318883,-0.0244453,-0.0392875,-0.02799,0.0548009,-0.0034843,-0.039338
 3,-0.0043394,0.1152063,0.0885743,-0.0145624,-0.0114877,-0.01522,0.0107
 832,0.0075082,-0.0108541,0.0082998,0.1146937,0.0443374,0.0203976,-0.03
 66843,0.0218793,0.0363561,0.0195141,-0.0341427,0.025573,0.108872,0.041
 0424,-0.041965,-0.0360367,-0.0565124,0.0685694,-0.0154726,-0.030599,-0
 .0052131,0.1048653,0.2805368,0.0349023,-0.0597158,0.0250517,0.3708589,
 -0.0509759,-0.1348646,-0.1127212,0.3984956\Polar=85.0445157,14.5582367
 ,125.3392416,13.559629,-2.2888951,60.1131738\Quadrupole=-5.4108946,9.6
 070765,-4.196182,3.6221369,1.9939311,-0.7265383\PG=C01 [X(C7H9O1S1)]\N
 Imag=0\\0.24141746,0.00850197,0.05777462,-0.00169306,-0.12783013,0.549
 11935,-0.19033640,-0.00632543,0.06573599,0.31699327,-0.01193809,-0.031
 41922,0.01385655,0.02080246,0.28264526,0.06041300,0.01201888,-0.091903
 21,-0.01625158,-0.00367993,0.29596612,0.00337938,-0.00020798,0.0377970
 3,-0.06685490,-0.01256799,-0.06046911,0.57859434,-0.00379685,0.0015745
 8,0.00240286,0.00265064,-0.05611875,0.00357630,-0.01732716,0.56865385,
 -0.00369926,-0.00098278,-0.02079242,-0.01540340,-0.01806908,-0.1062973
 3,-0.06406721,-0.07451561,0.38899546,-0.00312183,-0.02597708,0.0085000
 1,-0.05567424,0.03143300,-0.01381940,0.00138005,-0.01311838,-0.0003130
 3,0.57900742,-0.00714381,-0.00401525,0.00348144,0.00053099,-0.12792554
 ,0.00430562,-0.00519504,-0.00887844,-0.00152673,-0.00809801,0.47388382
 ,0.00311171,0.00486383,0.00118357,-0.01219048,0.02225595,-0.04595544,0
 .00196796,-0.02401108,0.00561983,0.19850892,-0.04671370,0.20973349,0.0
 0288329,0.00227446,-0.00210602,-0.00382702,-0.01795036,0.00478222,0.00
 096989,0.00436044,-0.00003818,-0.27020014,-0.07420444,-0.08641639,0.60
 956254,0.00040318,-0.00119163,0.00111402,-0.02607179,-0.02758261,-0.00
 949249,0.00081750,-0.00337826,0.00124562,-0.03934793,-0.11785877,-0.00
 543044,-0.01693602,0.68889389,0.00482443,0.00559045,-0.00272925,0.0025
 6611,-0.00820033,-0.00028152,-0.00125121,-0.00116078,-0.00017370,-0.09
 231916,-0.01924350,-0.08743489,0.21025040,-0.08314016,0.23413944,0.000
 86321,0.00075827,0.00041772,-0.00417993,-0.00613531,-0.00413171,0.0003
 9483,-0.00154045,0.00026341,0.00726718,-0.02539528,0.00452303,-0.12552
 072,-0.07232299,-0.01773925,0.65469028,-0.00169872,-0.00195354,0.00098
 230,-0.00229849,0.00715319,-0.00152459,-0.00000618,-0.00109609,0.00038
 594,-0.06931847,-0.02106690,-0.02782513,-0.01158418,-0.33234239,0.0319
 8265,0.05402817,0.67377239,-0.00098842,-0.00181099,0.00050273,-0.00331
 945,-0.00116968,0.00585668,0.00089486,0.00155420,-0.00084913,0.0080613
 8,-0.00797653,0.01220558,-0.02479148,0.00493039,-0.07490747,0.21532450
 ,-0.04703762,0.23193606,0.00052182,-0.00061483,0.00037906,-0.00507139,
 -0.00104148,-0.00078187,0.00067242,-0.00062107,0.00003211,-0.04930737,
 0.00877497,-0.02022989,0.04386504,0.05649860,0.00885158,-0.22773319,0.
 05643185,-0.07673774,0.59325365,0.00054551,0.00011746,-0.00015193,-0.0
 0012810,0.00078531,-0.00000918,0.00000181,-0.00004659,0.00013252,0.007
 65742,-0.00333474,0.00279680,0.01638284,-0.03881287,0.01290728,0.11557
 113,-0.20884548,0.06743825,0.03260997,0.74311536,0.00014875,-0.0000121
 5,0.00001304,-0.00188987,-0.00064483,-0.00072920,0.00045137,-0.0005409
 6,0.00018749,-0.01850517,0.00299449,-0.01679284,0.01374400,0.02997241,
 0.00809184,-0.08443715,0.04214621,-0.10508770,0.18542500,-0.06227237,0
 .23069115,-0.00058295,-0.00165786,0.00015305,0.00035227,0.01389194,-0.
 00462848,-0.00108654,-0.00127243,-0.00013552,0.03790500,0.00460645,0.0
 1286902,-0.02321419,-0.02441987,-0.00331130,-0.03980377,0.03412034,-0.
 02463638,-0.27593773,-0.09479315,-0.07666824,0.62462191,-0.00220407,-0
 .00025305,0.00029579,0.00741744,0.00654486,0.00067223,-0.00112409,0.00
 053549,0.00028839,0.05279597,-0.04892921,0.03024882,-0.03136971,-0.037
 35363,-0.00903476,0.00047152,0.06229217,-0.00718442,-0.03510524,-0.157
 65400,-0.00296645,-0.01576360,0.70431063,-0.00082178,-0.00204101,0.000
 64583,-0.00214211,0.00539018,0.00258305,-0.00035078,0.00044643,0.00012
 771,0.00604802,0.00885857,0.00874924,-0.00323892,-0.00675245,-0.006624
 57,-0.02014864,0.00814843,-0.00256306,-0.08336226,-0.02832017,-0.09546
 576,0.20560772,-0.07603449,0.22879515,-0.00247893,-0.00014243,0.000811
 09,0.01175872,-0.00194888,0.00314326,-0.00069003,0.00017436,0.00121126
 ,-0.21816417,0.10016269,-0.08156240,-0.04156450,-0.00270428,-0.0203169
 0,-0.00618021,0.02054137,-0.00283942,0.01127490,-0.03429311,0.00623487
 ,-0.12476763,-0.07231360,-0.01768531,0.64655385,0.00182936,0.00528739,
 -0.00105901,0.01109192,-0.04953201,0.01202412,0.00191456,0.00168751,0.
 00078857,0.06062813,-0.15598802,0.03795020,0.03347016,0.04882804,0.007
 54095,0.01340898,-0.05068261,0.01195497,-0.07304488,-0.01000444,-0.028
 88096,-0.01086387,-0.34499876,0.03016658,0.06451723,0.66870448,-0.0032
 5551,0.00105025,0.00082213,0.00535497,0.00709260,-0.00142793,0.0004140
 2,-0.00157425,-0.00012195,-0.07607961,0.05139410,-0.09250438,-0.025212
 35,-0.00628210,-0.00250947,-0.00190916,0.01415304,-0.00820079,0.011264
 96,-0.01206935,0.01208140,-0.02544682,0.00401229,-0.07185481,0.2048847
 6,-0.03957160,0.21722178,-0.00053478,0.00031456,0.00071454,-0.00237740
 ,-0.00821350,0.00070686,-0.05741555,-0.04740231,0.00261332,-0.00031474
 ,-0.00072228,-0.00205818,0.00057989,-0.00005164,0.00003398,0.00000258,
 -0.00016087,0.00028630,0.00003964,-0.00000459,-0.00003515,-0.00025032,
 -0.00020303,0.00023504,-0.00033836,0.00048774,-0.00029290,0.05563796,0
 .00062793,0.00082773,0.00049206,-0.00175908,-0.00601159,-0.00177338,-0
 .04698829,-0.32551252,0.02016023,-0.00115950,0.00015525,-0.00006993,0.
 00028679,-0.00006558,-0.00026187,-0.00003562,-0.00011120,0.00004195,-0
 .00008151,0.00003232,-0.00005188,-0.00005517,0.00001795,-0.00014767,0.
 00000993,0.00038969,0.00003580,0.05238531,0.34316377,0.00023889,0.0010
 5829,0.00140133,-0.00617527,-0.02928614,-0.00264253,0.00536087,0.02120
 668,-0.04638093,-0.00305977,-0.00138708,-0.00577297,0.00120854,-0.0012
 6857,-0.00010516,-0.00043257,-0.00034622,0.00051478,-0.00011793,-0.000
 01565,-0.00016257,-0.00025449,-0.00010825,0.00022807,-0.00066342,0.000
 61688,-0.00019405,-0.00126488,-0.01951896,0.05156486,0.00071183,-0.000
 41750,0.00042871,-0.00507458,0.00175894,-0.00384357,-0.24352802,0.1191
 0150,-0.05890718,0.00002594,0.00001934,0.00004698,0.00001574,0.0001526
 3,0.00007019,0.00010116,-0.00005212,0.00004990,0.00007719,-0.00001905,
 -0.00005019,-0.00001429,-0.00022026,0.00003665,-0.00012480,0.00015147,
 0.00042379,0.00737577,-0.00375466,0.00307439,0.25506276,0.00042392,-0.
 00058010,0.00265944,-0.01091520,0.00561348,-0.01006907,0.11888539,-0.1
 2058242,0.03732130,-0.00010160,-0.00011851,0.00143098,0.00011617,-0.00
 002575,0.00014585,0.00018635,0.00015211,0.00003463,0.00026713,0.000013
 61,0.00016489,-0.00007176,-0.00045771,0.00022377,-0.00097205,0.0003296
 8,-0.00048222,0.02605334,-0.01105752,0.00798513,-0.12797541,0.12472053
 ,0.00114977,-0.00026270,0.00509430,-0.02695793,0.00885383,-0.02336187,
 -0.05853314,0.03893952,-0.06122999,0.00206314,0.00051945,0.00190822,-0
 .00014167,0.00027779,0.00011623,0.00021032,0.00009095,0.00014905,0.000
 23231,0.00006688,0.00013676,0.00019593,-0.00043498,0.00011439,-0.00093
 822,0.00013702,-0.00007636,0.00000862,0.00070478,0.00036704,0.06553944
 ,-0.03662806,0.06751494,0.00011578,-0.00045099,-0.00482814,0.00712934,
 0.00275022,-0.00475135,-0.20972028,-0.04106304,0.13531886,0.00029571,-
 0.00000252,-0.00010158,0.00020294,0.00012710,0.00031555,0.00002864,-0.
 00016190,-0.00006821,-0.00008806,0.00004320,-0.00004323,0.00012309,0.0
 0005346,-0.00001118,-0.00026147,-0.00000144,-0.00036628,-0.00277616,0.
 00054858,0.00175907,-0.01523219,-0.00618330,0.01694550,0.21897077,-0.0
 0029694,0.00093793,-0.00379702,0.00751671,-0.00074217,-0.00603247,-0.0
 4124512,-0.05762790,0.03609189,-0.00034840,0.00016129,0.00021792,-0.00
 011241,-0.00015561,0.00019260,-0.00003403,-0.00005181,-0.00012103,-0.0
 0000888,-0.00002385,0.00000452,-0.00003378,-0.00008291,0.00006075,0.00
 013677,-0.00007458,0.00000462,-0.02234915,-0.00208944,0.02110695,0.011
 08871,0.00310771,-0.01145409,0.04479584,0.05674297,-0.00121106,0.00084
 165,-0.00731428,0.01671426,0.00262338,-0.01653579,0.13510599,0.0343433
 2,-0.15789068,-0.00018627,0.00173146,0.00076849,-0.00061686,-0.0004977
 0,0.00025684,-0.00016842,0.00015234,-0.00024806,-0.00003863,0.00003878
 ,-0.00004048,0.00035385,0.00015117,0.00003313,0.00017480,-0.00053578,0
 .00017795,-0.00062676,0.00035447,0.00140426,-0.00715468,-0.00218757,0.
 00859696,-0.14391527,-0.03576904,0.17100083,0.00009277,-0.00036841,0.0
 0027705,-0.00135982,0.00176115,0.00031705,0.00040056,-0.00011864,-0.00
 020463,-0.01474753,0.01635097,-0.00896568,-0.19227692,0.11904434,-0.08
 422199,0.00916620,-0.00471164,0.00266919,0.00148135,-0.00222764,-0.002
 22300,-0.00006038,-0.00052598,0.00036862,-0.00210355,-0.00389697,-0.00
 284128,0.00003652,-0.00000848,0.00008960,0.00004095,0.00012643,0.00020
 673,-0.00000035,-0.00000621,0.00001289,0.19972496,0.00046481,-0.000057
 85,-0.00022261,-0.00151420,0.00103780,-0.00116374,-0.00001288,-0.00012
 609,0.00011819,-0.00978312,0.01035036,-0.00551502,0.11948071,-0.166190
 17,0.06948346,0.02299389,-0.01323880,0.01213703,-0.00272789,-0.0051202
 6,0.00046181,-0.00080632,-0.00059011,-0.00035369,-0.00268381,-0.000844
 88,-0.00027589,-0.00002681,-0.00002438,-0.00001645,-0.00003150,0.00003
 689,0.00003767,0.00002433,0.00002589,0.00002243,-0.12629208,0.17354877
 ,0.00089484,0.00059144,-0.00000424,-0.00001103,-0.00021986,-0.00305046
 ,-0.00034699,-0.00064251,0.00032528,-0.00542663,0.00554275,-0.00225958
 ,-0.08368754,0.06980700,-0.08146478,-0.00125552,0.00006815,0.00417949,
 -0.00226554,0.00080243,0.00615551,0.00058562,-0.00009986,-0.00048873,-
 0.00295026,-0.00117704,0.00433078,-0.00008522,-0.00001896,-0.00023643,
 0.00000474,0.00002194,-0.00002288,-0.00000287,0.00002661,0.00002269,0.
 09292952,-0.07456662,0.07577670,0.00007986,0.00019170,-0.00009902,0.00
 027926,0.00018831,-0.00021496,-0.00006551,-0.00010283,0.00002938,0.002
 19460,-0.00059492,-0.00181702,0.00045487,0.00015291,-0.00118015,-0.275
 32749,-0.09486373,-0.08922141,-0.01374674,-0.00923702,-0.00643378,-0.0
 0015200,0.00295470,-0.00345067,0.00022184,0.00067314,0.00026018,-0.000
 00794,-0.00000510,-0.00003260,0.00000321,-0.00000703,0.00000749,0.0000
 1015,0.00000754,0.00001711,-0.00002311,0.00015310,0.00171675,0.2867241
 4,-0.00037113,-0.00037516,0.00033761,-0.00102635,-0.00019555,-0.000583
 91,0.00009191,-0.00037361,0.00011510,0.00001971,-0.00435635,0.00158810
 ,-0.02807508,-0.00861205,-0.01062203,-0.09451831,-0.09947307,-0.032700
 89,0.01873108,0.01203641,0.00703044,0.00255555,-0.00240082,0.00224911,
 0.00054565,-0.00083780,0.00030944,-0.00003002,-0.00000089,-0.00013716,
 0.00000605,0.00000959,0.00002026,-0.00002854,-0.00001790,-0.00002446,0
 .00032778,0.00108139,-0.00056203,0.10089839,0.10213085,-0.00018001,-0.
 00032083,0.00013205,-0.00003148,0.00046789,0.00055040,0.00005936,0.000
 35101,0.00002257,-0.00159412,0.00094120,0.00582222,0.00247867,0.001404
 21,0.00403473,-0.08943967,-0.03264141,-0.07281844,-0.00983448,-0.00509
 762,0.00043379,-0.00353619,0.00240065,0.00523765,0.00018841,0.00057032
 ,-0.00058157,0.00001361,0.00003355,0.00009340,-0.00001495,0.00000626,-
 0.00004086,-0.00002454,-0.00002385,-0.00001955,0.00171901,-0.00057952,
 -0.00321995,0.09848543,0.03352281,0.06455275,-0.00006433,-0.00012418,0
 .00004990,-0.00020922,-0.00005760,0.00044970,0.00008591,0.00007965,-0.
 00002615,-0.00114575,0.00045356,-0.00060684,-0.00188816,0.00257327,-0.
 00433816,0.00854553,0.02314673,-0.00161548,-0.06707618,-0.04954875,-0.
 00396028,-0.00002393,-0.02817139,0.00123551,-0.00363488,-0.00190439,-0
 .00409247,0.00004229,-0.00000620,0.00005058,0.00001048,0.00007579,0.00
 005641,-0.00000669,-0.00000039,-0.00001435,0.00028602,0.00121611,0.000
 07192,0.00016675,-0.00005427,0.00177502,0.06471655,0.00003596,0.000075
 85,-0.00001331,0.00001132,-0.00026848,-0.00008276,-0.00002450,0.000002
 81,-0.00000910,0.00033414,0.00109300,0.00004135,0.00236769,-0.00051667
 ,0.00198886,-0.00473038,-0.01294675,0.00032161,-0.04959170,-0.33871219
 ,0.01623395,-0.00016903,-0.00556445,0.00128694,-0.00175011,0.00089345,
 0.00003144,0.00000402,0.00000170,-0.00000257,0.00001149,-0.00000020,0.
 00000194,0.00000292,-0.00000445,0.00000087,-0.00031825,-0.00062132,-0.
 00008794,0.00016551,0.00077413,-0.00052200,0.05331006,0.35539618,0.000
 37442,0.00036068,-0.00009300,0.00018301,-0.00031809,-0.00104660,-0.000
 14374,-0.00020965,-0.00000483,-0.00043327,0.00007628,-0.00009102,-0.00
 429308,0.00226600,0.00535939,0.00179988,0.01211035,0.00488983,-0.00397
 344,0.01618114,-0.04660856,-0.00213724,-0.01045530,0.00576094,-0.00419
 924,-0.00022798,0.00509933,-0.00005399,0.00000791,-0.00006963,0.000015
 93,-0.00004030,-0.00000848,0.00002467,-0.00000469,0.00004103,0.0002593
 6,0.00057163,-0.00030228,0.00174581,-0.00060843,-0.00315365,0.00915077
 ,-0.01874235,0.03341381,-0.00014819,0.00022327,0.00002068,0.00058922,-
 0.00105472,0.00005934,0.00008107,0.00001393,0.00006132,0.00170800,-0.0
 0181490,-0.00206235,-0.00031757,-0.00103032,0.00018027,-0.00254579,-0.
 00336980,-0.00338238,-0.01410307,0.01813722,-0.00968707,-0.19733807,0.
 12355699,-0.08051005,0.00839854,-0.00605932,0.00273529,-0.00001321,0.0
 0001017,-0.00000763,-0.00000043,0.00001527,-0.00001191,-0.00001330,0.0
 0001167,-0.00001482,-0.00011189,0.00017080,0.00036100,-0.00066488,0.00
 097309,-0.00040648,0.00033809,0.00018811,0.00162356,0.20397185,-0.0002
 6987,0.00023283,0.00008850,0.00110542,-0.00149953,0.00052445,-0.000002
 23,0.00010845,0.00009558,-0.00225346,-0.00372833,0.00035790,-0.0007776
 1,-0.00043886,-0.00037295,-0.00299057,-0.00052621,-0.00039282,-0.01015
 661,0.01225209,-0.00522735,0.12343572,-0.16954958,0.06710427,0.0219788
 8,-0.01578268,0.01148303,-0.00000495,0.00002826,-0.00002342,0.00001047
 ,-0.00003105,-0.00003413,-0.00001295,-0.00001629,-0.00000752,0.0001367
 0,0.00008317,-0.00007552,-0.00055433,0.00051480,-0.00032749,0.00041295
 ,0.00068565,-0.00035821,-0.13038583,0.17664492,0.00021924,-0.00014264,
 -0.00007483,-0.00035147,-0.00021987,0.00052902,-0.00016030,0.00017078,
 -0.00009289,-0.00205633,0.00092069,0.00632523,0.00018824,-0.00041126,-
 0.00036345,-0.00347279,-0.00051226,0.00523656,-0.00643748,0.00649707,0
 .00047693,-0.08027228,0.06726133,-0.08047893,-0.00047909,-0.00052773,0
 .00345376,0.00003791,0.00000439,0.00004156,0.00002248,-0.00007363,-0.0
 0003715,0.00001221,-0.00001624,0.00000380,0.00039102,-0.00007801,-0.00
 086228,-0.00017744,0.00032407,-0.00017086,0.00161991,-0.00047679,-0.00
 295351,0.08927799,-0.07220585,0.07247151,0.00036874,-0.00020679,0.0000
 3798,-0.00158914,-0.00125021,0.00042887,-0.00002541,-0.00018253,-0.000
 17092,-0.01468457,-0.00752327,-0.00522907,0.00010412,0.00348663,-0.002
 63562,0.00034676,0.00008066,0.00049160,0.00207217,-0.00070598,-0.00206
 230,0.00013917,-0.00037617,-0.00168116,-0.27789813,-0.09255973,-0.0859
 4327,0.00032521,-0.00010797,0.00030178,0.00065253,0.00062375,0.0004746
 6,-0.00002594,0.00006374,-0.00001123,-0.00037805,-0.00062175,-0.000587
 84,-0.00016558,-0.00000344,0.00035731,-0.00014029,0.00013747,0.0000479
 8,0.00013413,0.00029713,0.00168617,0.29069772,-0.00003851,-0.00036614,
 -0.00025352,0.00123889,0.00108242,-0.00008498,0.00014873,-0.00047947,0
 .00021692,0.01781411,0.01085737,0.00615760,0.00229824,-0.00294272,0.00
 200447,0.00040583,-0.00085930,0.00015615,-0.00010930,-0.00575271,0.001
 61757,-0.02898046,-0.00598027,-0.01029456,-0.09130923,-0.09677710,-0.0
 2924593,-0.00017745,0.00002815,-0.00003578,0.00019624,-0.00101454,-0.0
 0074718,-0.00005590,0.00011015,-0.00002038,0.00085528,0.00056589,0.000
 53833,-0.00003227,0.00013667,-0.00016362,-0.00139415,-0.00028610,-0.00
 061132,0.00042786,0.00105882,-0.00054876,0.09881615,0.10049594,0.00121
 550,0.00019189,-0.00028569,-0.00082625,-0.00115015,-0.00154816,0.00019
 462,-0.00021694,0.00003700,-0.00901149,-0.00379762,-0.00266192,-0.0026
 3336,0.00283953,0.00411777,0.00060321,-0.00025807,-0.00054367,-0.00256
 769,0.00111790,0.00656313,0.00127968,0.00126442,0.00521226,-0.08448403
 ,-0.02958885,-0.06510659,-0.00021579,0.00010424,-0.00011733,0.00005978
 ,-0.00072392,0.00013889,0.00009771,-0.00009970,0.00003823,-0.00079937,
 -0.00019533,0.00090335,0.00038931,-0.00015215,-0.00089864,0.00021375,0
 .00003987,-0.00027997,0.00181673,-0.00053061,-0.00356527,0.09455619,0.
 03116387,0.05796601,-0.05316672,0.02422924,-0.10659657,-0.00054804,-0.
 01042787,0.03859174,-0.00657221,0.00016520,0.00343581,-0.00242356,-0.0
 0020448,0.00021225,0.00017089,-0.00037132,0.00022123,-0.00011527,-0.00
 012301,-0.00017734,-0.00019443,0.00000830,-0.00000857,0.00009035,0.000
 12706,-0.00012869,-0.00000118,0.00015791,0.00010168,-0.00001142,0.0000
 9287,-0.00007516,-0.00010324,-0.00054721,-0.00050744,0.00124803,0.0008
 1432,0.00157945,-0.00016774,-0.00000339,0.00005506,0.00001856,-0.00004
 206,-0.00001489,-0.00000219,0.00001525,0.00000861,0.00003549,0.0000311
 5,-0.00004800,0.00006656,-0.00010406,0.00011148,0.06167612,0.01492535,
 -0.02661646,0.10761697,-0.00232715,-0.00356687,0.00137490,0.00284157,0
 .00165748,-0.00185696,-0.00117651,-0.00030102,0.00165584,-0.00002768,-
 0.00025437,0.00019979,-0.00012121,-0.00017573,-0.00017519,-0.00021021,
 -0.00004542,-0.00002935,0.00027729,0.00011339,0.00000900,0.00005061,-0
 .00059736,-0.00006525,0.00010162,0.00022830,0.00017233,-0.00002633,-0.
 00011579,-0.00008893,-0.00038507,-0.00019905,-0.00121742,-0.00012835,0
 .00008368,0.00005168,0.00001195,-0.00004065,-0.00002155,-0.00000680,-0
 .00000217,0.00000232,-0.00001347,-0.00003647,0.00003473,0.00003231,0.0
 0012295,-0.00000837,-0.01381790,0.02974555,-0.06074144,0.10683587,-0.4
 3571738,-0.00500403,0.00241758,-0.01070524,0.00307640,-0.00011930,-0.0
 0148148,-0.00037723,-0.00012086,0.00115718,0.00052379,-0.00058181,0.00
 047802,-0.00000720,-0.00007505,-0.00025242,0.00016192,-0.00004276,0.00
 005608,-0.00001792,-0.00027659,-0.00001156,-0.00053017,-0.00018065,-0.
 00060922,-0.00001731,-0.00009673,0.00006632,0.00019759,0.00021057,0.00
 064082,-0.00036091,-0.00038772,-0.00029539,0.00001591,0.00013466,0.000
 21780,-0.00002439,-0.00010589,0.00002395,-0.00001975,-0.00001000,0.000
 04718,-0.00005349,-0.00009787,0.00006081,-0.00006112,0.00015110,0.0000
 3059,0.06323935,-0.10765454,0.44629396\\0.00001167,-0.00000169,-0.0000
 1565,-0.00001482,0.00000799,0.00001550,0.00000786,0.00000494,-0.000007
 57,-0.00000990,-0.00000232,-0.00000835,0.00000743,-0.00000375,0.000001
 06,-0.00000196,0.00000406,0.00000159,0.00000357,-0.00000100,0.00000002
 ,0.00000004,-0.00000185,0.00000014,0.00000157,-0.00000070,-0.00000283,
 -0.00000159,0.00000055,0.00000146,-0.00000036,-0.00000169,0.00000435,-
 0.00000272,-0.00000394,-0.00000139,-0.00000156,-0.00000041,-0.00000076
 ,-0.00000035,0.00000074,0.00000116,0.00000019,-0.00000001,0.00000022,-
 0.00000045,0.00000019,0.00000080,0.00000068,0.00000273,-0.00000040,0.0
 0000071,-0.00000384,0.00001066\\\@


 When I told the people of Northern Ireland that I was
 an atheist, a woman in the audience stood up and said,
 "Yes, but is it the God of the Catholics or the God
 of the Protestants in whom you don't believe?"
                               -- Quentin Crisp
 Job cpu time:       0 days  0 hours  8 minutes 32.3 seconds.
 Elapsed time:       0 days  0 hours  0 minutes 22.0 seconds.
 File lengths (MBytes):  RWF=     61 Int=      0 D2E=      0 Chk=      3 Scr=      1
 Normal termination of Gaussian 16 at Mon Oct 14 01:54:15 2019.
real 67.56
user 1487.63
sys 13.87
Machine:
brown-a136
brown-a136
brown-a136
brown-a136
brown-a136
brown-a136
brown-a136
brown-a136
brown-a136
brown-a136
brown-a136
brown-a136
brown-a136
brown-a136
brown-a136
brown-a136
brown-a136
brown-a136
brown-a136
brown-a136
brown-a136
brown-a136
brown-a136
brown-a136
