Title Card Required                                                     
Freq      RB3LYP                                                      6-31G(d)            
Number of atoms                            I               18
Info1-9                                    I   N=           9
          46          46        1002           0           0         100
           6          18        -502
Full Title                                 C   N=           2
Title Card Required     
Route                                      C   N=           6
#P opt freq b3lyp/6-31g(d) geom=connectivity temperature=0.0
01          
Charge                                     I                0
Multiplicity                               I                1
Number of electrons                        I               80
Number of alpha electrons                  I               40
Number of beta electrons                   I               40
Number of basis functions                  I              170
Number of independent functions            I              170
Number of point charges in /Mol/           I                0
Number of translation vectors              I                0
Atomic numbers                             I   N=          18
           8          16           6           6           6           6
           6           6           6           6           1           1
           1           1           1           1           1           1
Nuclear charges                            R   N=          18
  8.00000000E+00  1.60000000E+01  6.00000000E+00  6.00000000E+00  6.00000000E+00
  6.00000000E+00  6.00000000E+00  6.00000000E+00  6.00000000E+00  6.00000000E+00
  1.00000000E+00  1.00000000E+00  1.00000000E+00  1.00000000E+00  1.00000000E+00
  1.00000000E+00  1.00000000E+00  1.00000000E+00
Current cartesian coordinates              R   N=          54
 -3.65418951E+00 -3.26773771E+00 -1.56848018E-01 -2.85838752E+00 -7.33085959E-01
 -1.22615695E+00 -4.18464059E+00  1.66212088E+00  8.49633226E-01 -3.01366030E+00
  3.59942523E+00  1.94209271E+00  4.83255861E-01 -3.01575194E-01 -5.24060848E-01
  1.89733979E+00  1.49761420E+00 -1.83693920E+00  4.47966707E+00  1.71313288E+00
 -1.33607216E+00  5.62134923E+00  1.14129859E-01  4.27375470E-01  4.18954757E+00
 -1.70902960E+00  1.69304861E+00  1.60609589E+00 -1.92946578E+00  1.21560886E+00
 -6.20789314E+00  1.34645998E+00  1.04479339E+00 -4.07480530E+00  4.94684542E+00
  3.07436933E+00 -9.95046396E-01  3.92055944E+00  1.76498992E+00  1.00261431E+00
  2.70931915E+00 -3.23486840E+00  5.60054591E+00  3.11172318E+00 -2.33795910E+00
  7.63442058E+00  2.75116499E-01  7.98726500E-01  5.08935548E+00 -2.96484367E+00
  3.04590892E+00  4.44797833E-01 -3.35201786E+00  2.13321477E+00
Number of symbols in /Mol/                 I                0
Force Field                                I                0
Atom Types                                 C   N=          18
                                                            
                                                            
                                                            
                                    
Int Atom Types                             I   N=          18
           0           0           0           0           0           0
           0           0           0           0           0           0
           0           0           0           0           0           0
MM charges                                 R   N=          18
  0.00000000E+00  0.00000000E+00  0.00000000E+00  0.00000000E+00  0.00000000E+00
  0.00000000E+00  0.00000000E+00  0.00000000E+00  0.00000000E+00  0.00000000E+00
  0.00000000E+00  0.00000000E+00  0.00000000E+00  0.00000000E+00  0.00000000E+00
  0.00000000E+00  0.00000000E+00  0.00000000E+00
Integer atomic weights                     I   N=          18
          16          32          12          12          12          12
          12          12          12          12           1           1
           1           1           1           1           1           1
Real atomic weights                        R   N=          18
  1.59949146E+01  3.19720718E+01  1.20000000E+01  1.20000000E+01  1.20000000E+01
  1.20000000E+01  1.20000000E+01  1.20000000E+01  1.20000000E+01  1.20000000E+01
  1.00782504E+00  1.00782504E+00  1.00782504E+00  1.00782504E+00  1.00782504E+00
  1.00782504E+00  1.00782504E+00  1.00782504E+00
Atom fragment info                         I   N=          18
           0           0           0           0           0           0
           0           0           0           0           0           0
           0           0           0           0           0           0
Atom residue num                           I   N=          18
           0           0           0           0           0           0
           0           0           0           0           0           0
           0           0           0           0           0           0
Nuclear spins                              I   N=          18
           0           0           0           0           0           0
           0           0           0           0           1           1
           1           1           1           1           1           1
Nuclear ZEff                               R   N=          18
 -5.60000000E+00 -1.36000000E+01 -3.60000000E+00 -3.60000000E+00 -3.60000000E+00
 -3.60000000E+00 -3.60000000E+00 -3.60000000E+00 -3.60000000E+00 -3.60000000E+00
 -1.00000000E+00 -1.00000000E+00 -1.00000000E+00 -1.00000000E+00 -1.00000000E+00
 -1.00000000E+00 -1.00000000E+00 -1.00000000E+00
Nuclear ZNuc                               R   N=          18
  8.00000000E+00  1.60000000E+01  6.00000000E+00  6.00000000E+00  6.00000000E+00
  6.00000000E+00  6.00000000E+00  6.00000000E+00  6.00000000E+00  6.00000000E+00
  1.00000000E+00  1.00000000E+00  1.00000000E+00  1.00000000E+00  1.00000000E+00
  1.00000000E+00  1.00000000E+00  1.00000000E+00
Nuclear QMom                               R   N=          18
  0.00000000E+00  0.00000000E+00  0.00000000E+00  0.00000000E+00  0.00000000E+00
  0.00000000E+00  0.00000000E+00  0.00000000E+00  0.00000000E+00  0.00000000E+00
  0.00000000E+00  0.00000000E+00  0.00000000E+00  0.00000000E+00  0.00000000E+00
  0.00000000E+00  0.00000000E+00  0.00000000E+00
Nuclear GFac                               R   N=          18
  0.00000000E+00  0.00000000E+00  0.00000000E+00  0.00000000E+00  0.00000000E+00
  0.00000000E+00  0.00000000E+00  0.00000000E+00  0.00000000E+00  0.00000000E+00
  2.79284600E+00  2.79284600E+00  2.79284600E+00  2.79284600E+00  2.79284600E+00
  2.79284600E+00  2.79284600E+00  2.79284600E+00
MicOpt                                     I   N=          18
          -1          -1          -1          -1          -1          -1
          -1          -1          -1          -1          -1          -1
          -1          -1          -1          -1          -1          -1
Number of residues                         I                0
Number of secondary structures             I                0
Redundant internal dimensions              I   N=           4
          81          18          27          36
Redundant internal coordinate indices      I   N=         324
           1           2           0           0           2           3
           0           0           2           5           0           0
           3           4           0           0           3          11
           0           0           4          12           0           0
           4          13           0           0           5           6
           0           0           5          10           0           0
           6           7           0           0           6          14
           0           0           7           8           0           0
           7          15           0           0           8           9
           0           0           8          16           0           0
           9          10           0           0           9          17
           0           0          10          18           0           0
           1           2           3           0           1           2
           5           0           3           2           5           0
           2           3           4           0           2           3
          11           0           4           3          11           0
           3           4          12           0           3           4
          13           0          12           4          13           0
           2           5           6           0           2           5
          10           0           6           5          10           0
           5           6           7           0           5           6
          14           0           7           6          14           0
           6           7           8           0           6           7
          15           0           8           7          15           0
           7           8           9           0           7           8
          16           0           9           8          16           0
           8           9          10           0           8           9
          17           0          10           9          17           0
           5          10           9           0           5          10
          18           0           9          10          18           0
           1           2           3           4           1           2
           3          11           5           2           3           4
           5           2           3          11           1           2
           5           6           1           2           5          10
           3           2           5           6           3           2
           5          10           2           3           4          12
           2           3           4          13          11           3
           4          12          11           3           4          13
           2           5           6           7           2           5
           6          14          10           5           6           7
          10           5           6          14           2           5
          10           9           2           5          10          18
           6           5          10           9           6           5
          10          18           5           6           7           8
           5           6           7          15          14           6
           7           8          14           6           7          15
           6           7           8           9           6           7
           8          16          15           7           8           9
          15           7           8          16           7           8
           9          10           7           8           9          17
          16           8           9          10          16           8
           9          17           8           9          10           5
           8           9          10          18          17           9
          10           5          17           9          10          18
Redundant internal coordinates             R   N=          81
  2.86377057E+00  3.43582128E+00  3.44176132E+00  2.51352555E+00  2.05700758E+00
  2.05514482E+00  2.05165657E+00  2.63825044E+00  2.63386563E+00  2.63926700E+00
  2.05498628E+00  2.64007506E+00  2.05333914E+00  2.64119194E+00  2.05335690E+00
  2.63643006E+00  2.05352240E+00  2.05286829E+00  1.85892169E+00  1.88031418E+00
  1.73567406E+00  2.23962904E+00  1.90711562E+00  2.13562071E+00  2.09930193E+00
  2.14300685E+00  2.04087498E+00  2.09947051E+00  2.06139727E+00  2.11961860E+00
  2.07793660E+00  2.10280641E+00  2.10243529E+00  2.09487629E+00  2.09108097E+00
  2.09715641E+00  2.09871446E+00  2.09124963E+00  2.09315199E+00  2.09687418E+00
  2.09473756E+00  2.09156260E+00  2.07793416E+00  2.07414909E+00  2.13095525E+00
  2.25108039E+00 -9.33757444E-01  2.99793557E-01 -2.88504427E+00  2.83749470E+00
 -2.26351836E-01 -1.51129160E+00  1.70804718E+00  3.08891453E+00 -5.46251593E-02
 -4.34568780E-03  3.13529993E+00 -3.09404552E+00  4.35397227E-02 -3.28391678E-02
  3.10474607E+00  3.08969730E+00 -3.38713617E-02  2.67947199E-02 -3.09677395E+00
  1.79523344E-02 -3.13648134E+00 -3.11963378E+00  9.11784896E-03  2.27462192E-03
  3.13121343E+00 -3.12643191E+00  2.50688987E-03 -8.41197463E-03  3.12813881E+00
 -3.13733694E+00 -7.86160296E-04 -5.87929667E-03  3.11707657E+00  3.14074602E+00
 -1.94834142E-02
ZRed-IntVec                                I   N=          81
           0           0           0           0           0           0
           0           0           0           0           0           0
           0           0           0           0           0           0
           0           0           0           0           0           0
           0           0           0           0           0           0
           0           0           0           0           0           0
           0           0           0           0           0           0
           0           0           0           0           0           0
           0           0           0           0           0           0
           0           0           0           0           0           0
           0           0           0           0           0           0
           0           0           0           0           0           0
           0           0           0           0           0           0
           0           0           0
ZRed-FPVec                                 R   N=          81
  0.00000000E+00  0.00000000E+00  0.00000000E+00  0.00000000E+00  0.00000000E+00
  0.00000000E+00  0.00000000E+00  0.00000000E+00  0.00000000E+00  0.00000000E+00
  0.00000000E+00  0.00000000E+00  0.00000000E+00  0.00000000E+00  0.00000000E+00
  0.00000000E+00  0.00000000E+00  0.00000000E+00  0.00000000E+00  0.00000000E+00
  0.00000000E+00  0.00000000E+00  0.00000000E+00  0.00000000E+00  0.00000000E+00
  0.00000000E+00  0.00000000E+00  0.00000000E+00  0.00000000E+00  0.00000000E+00
  0.00000000E+00  0.00000000E+00  0.00000000E+00  0.00000000E+00  0.00000000E+00
  0.00000000E+00  0.00000000E+00  0.00000000E+00  0.00000000E+00  0.00000000E+00
  0.00000000E+00  0.00000000E+00  0.00000000E+00  0.00000000E+00  0.00000000E+00
  0.00000000E+00  0.00000000E+00  0.00000000E+00  0.00000000E+00  0.00000000E+00
  0.00000000E+00  0.00000000E+00  0.00000000E+00  0.00000000E+00  0.00000000E+00
  0.00000000E+00  0.00000000E+00  0.00000000E+00  0.00000000E+00  0.00000000E+00
  0.00000000E+00  0.00000000E+00  0.00000000E+00  0.00000000E+00  0.00000000E+00
  0.00000000E+00  0.00000000E+00  0.00000000E+00  0.00000000E+00  0.00000000E+00
  0.00000000E+00  0.00000000E+00  0.00000000E+00  0.00000000E+00  0.00000000E+00
  0.00000000E+00  0.00000000E+00  0.00000000E+00  0.00000000E+00  0.00000000E+00
  0.00000000E+00
ZRed-Constraint1                           R   N=          81
  2.86377057E+00  3.43582128E+00  3.44176132E+00  2.51352555E+00  2.05700758E+00
  2.05514482E+00  2.05165657E+00  2.63825044E+00  2.63386563E+00  2.63926700E+00
  2.05498628E+00  2.64007506E+00  2.05333914E+00  2.64119194E+00  2.05335690E+00
  2.63643006E+00  2.05352240E+00  2.05286829E+00  1.85892169E+00  1.88031418E+00
  1.73567406E+00  2.23962904E+00  1.90711562E+00  2.13562071E+00  2.09930193E+00
  2.14300685E+00  2.04087498E+00  2.09947051E+00  2.06139727E+00  2.11961860E+00
  2.07793660E+00  2.10280641E+00  2.10243529E+00  2.09487629E+00  2.09108097E+00
  2.09715641E+00  2.09871446E+00  2.09124963E+00  2.09315199E+00  2.09687418E+00
  2.09473756E+00  2.09156260E+00  2.07793416E+00  2.07414909E+00  2.13095525E+00
  2.25108039E+00 -9.33757444E-01  2.99793557E-01 -2.88504427E+00  2.83749470E+00
 -2.26351836E-01 -1.51129160E+00  1.70804718E+00  3.08891453E+00 -5.46251593E-02
 -4.34568780E-03  3.13529993E+00 -3.09404552E+00  4.35397227E-02 -3.28391678E-02
  3.10474607E+00  3.08969730E+00 -3.38713617E-02  2.67947199E-02 -3.09677395E+00
  1.79523344E-02 -3.13648134E+00 -3.11963378E+00  9.11784896E-03  2.27462192E-03
  3.13121343E+00 -3.12643191E+00  2.50688987E-03 -8.41197463E-03  3.12813881E+00
 -3.13733694E+00 -7.86160296E-04 -5.87929667E-03  3.11707657E+00  3.14074602E+00
 -1.94834142E-02
ZRed-Constraint2                           R   N=          81
  3.03685660E+00  3.29917339E+00  3.35338365E+00  2.52571648E+00  2.05978228E+00
  2.05980864E+00  2.05972232E+00  2.66557832E+00  2.66892438E+00  2.65932435E+00
  2.05969105E+00  2.65964696E+00  2.05985343E+00  2.65828321E+00  2.05977433E+00
  2.66069704E+00  2.05983776E+00  2.05969802E+00  1.83156444E+00  1.82801691E+00
  1.92261782E+00  2.17954443E+00  2.30091077E+00  1.80273010E+00  2.09432861E+00
  2.09436975E+00  2.09448694E+00  2.07457251E+00  2.12286290E+00  2.08538881E+00
  2.09628574E+00  2.09557598E+00  2.09132358E+00  2.09775008E+00  2.09247192E+00
  2.09296330E+00  2.09388119E+00  2.09510928E+00  2.09419484E+00  2.09264051E+00
  2.09453804E+00  2.09600676E+00  2.10036224E+00  2.09423597E+00  2.08858709E+00
  2.24812317E+00 -8.93368077E-01  2.89225169E-01 -2.85226608E+00  2.24019994E+00
 -8.72357823E-01 -2.08179591E+00  1.08883164E+00 -2.12799734E+00  1.01359260E+00
  1.01351768E+00 -2.12807769E+00 -3.10813141E+00  3.36219901E-02  5.06195851E-03
 -3.13636995E+00  3.10318645E+00 -3.84128762E-02 -9.19539677E-03  3.13239058E+00
  4.62533295E-03 -3.13698886E+00 -3.13712767E+00  4.44344952E-03 -1.02430196E-02
  3.13129809E+00  3.13137117E+00 -1.02730270E-02  6.10719058E-03 -3.13551230E+00
 -3.13543394E+00  6.13187350E-03  3.62895714E-03 -3.13795705E+00 -3.13793684E+00
  3.66246882E-03
SymInf integers                            I   N=          26
           1           1           1           1           1           0
           0           0           0           0           0           0
           0           0           0           0           0           0
           0           0           0           0           0           0
           0           0
RotTr to input orientation                 R   N=          12
  3.61964592E-01  9.23504411E-01  1.26969432E-01  6.33864876E-01 -1.43961442E-01
 -7.59927906E-01 -6.83518071E-01  3.55548457E-01 -6.37485954E-01 -1.01727869E+00
 -1.52093255E-01 -5.37855253E-01
Number of contracted shells                I               57
Number of primitive shells                 I              148
Pure/Cartesian d shells                    I                1
Pure/Cartesian f shells                    I                0
Highest angular momentum                   I                2
Largest degree of contraction              I                6
Shell types                                I   N=          57
           0          -1          -1           2           0          -1
          -1          -1           2           0          -1          -1
           2           0          -1          -1           2           0
          -1          -1           2           0          -1          -1
           2           0          -1          -1           2           0
          -1          -1           2           0          -1          -1
           2           0          -1          -1           2           0
           0           0           0           0           0           0
           0           0           0           0           0           0
           0           0           0
Number of primitives per shell             I   N=          57
           6           3           1           1           6           6
           3           1           1           6           3           1
           1           6           3           1           1           6
           3           1           1           6           3           1
           1           6           3           1           1           6
           3           1           1           6           3           1
           1           6           3           1           1           3
           1           3           1           3           1           3
           1           3           1           3           1           3
           1           3           1
Shell to atom map                          I   N=          57
           1           1           1           1           2           2
           2           2           2           3           3           3
           3           4           4           4           4           5
           5           5           5           6           6           6
           6           7           7           7           7           8
           8           8           8           9           9           9
           9          10          10          10          10          11
          11          12          12          13          13          14
          14          15          15          16          16          17
          17          18          18
Primitive exponents                        R   N=         148
  5.48467166E+03  8.25234946E+02  1.88046958E+02  5.29645000E+01  1.68975704E+01
  5.79963534E+00  1.55396162E+01  3.59993359E+00  1.01376175E+00  2.70005823E-01
  8.00000000E-01  2.19171000E+04  3.30149000E+03  7.54146000E+02  2.12711000E+02
  6.79896000E+01  2.30515000E+01  4.23735000E+02  1.00710000E+02  3.21599000E+01
  1.18079000E+01  4.63110000E+00  1.87025000E+00  2.61584000E+00  9.22167000E-01
  3.41287000E-01  1.17167000E-01  6.50000000E-01  3.04752488E+03  4.57369518E+02
  1.03948685E+02  2.92101553E+01  9.28666296E+00  3.16392696E+00  7.86827235E+00
  1.88128854E+00  5.44249258E-01  1.68714478E-01  8.00000000E-01  3.04752488E+03
  4.57369518E+02  1.03948685E+02  2.92101553E+01  9.28666296E+00  3.16392696E+00
  7.86827235E+00  1.88128854E+00  5.44249258E-01  1.68714478E-01  8.00000000E-01
  3.04752488E+03  4.57369518E+02  1.03948685E+02  2.92101553E+01  9.28666296E+00
  3.16392696E+00  7.86827235E+00  1.88128854E+00  5.44249258E-01  1.68714478E-01
  8.00000000E-01  3.04752488E+03  4.57369518E+02  1.03948685E+02  2.92101553E+01
  9.28666296E+00  3.16392696E+00  7.86827235E+00  1.88128854E+00  5.44249258E-01
  1.68714478E-01  8.00000000E-01  3.04752488E+03  4.57369518E+02  1.03948685E+02
  2.92101553E+01  9.28666296E+00  3.16392696E+00  7.86827235E+00  1.88128854E+00
  5.44249258E-01  1.68714478E-01  8.00000000E-01  3.04752488E+03  4.57369518E+02
  1.03948685E+02  2.92101553E+01  9.28666296E+00  3.16392696E+00  7.86827235E+00
  1.88128854E+00  5.44249258E-01  1.68714478E-01  8.00000000E-01  3.04752488E+03
  4.57369518E+02  1.03948685E+02  2.92101553E+01  9.28666296E+00  3.16392696E+00
  7.86827235E+00  1.88128854E+00  5.44249258E-01  1.68714478E-01  8.00000000E-01
  3.04752488E+03  4.57369518E+02  1.03948685E+02  2.92101553E+01  9.28666296E+00
  3.16392696E+00  7.86827235E+00  1.88128854E+00  5.44249258E-01  1.68714478E-01
  8.00000000E-01  1.87311370E+01  2.82539436E+00  6.40121692E-01  1.61277759E-01
  1.87311370E+01  2.82539436E+00  6.40121692E-01  1.61277759E-01  1.87311370E+01
  2.82539436E+00  6.40121692E-01  1.61277759E-01  1.87311370E+01  2.82539436E+00
  6.40121692E-01  1.61277759E-01  1.87311370E+01  2.82539436E+00  6.40121692E-01
  1.61277759E-01  1.87311370E+01  2.82539436E+00  6.40121692E-01  1.61277759E-01
  1.87311370E+01  2.82539436E+00  6.40121692E-01  1.61277759E-01  1.87311370E+01
  2.82539436E+00  6.40121692E-01  1.61277759E-01
Contraction coefficients                   R   N=         148
  1.83107443E-03  1.39501722E-02  6.84450781E-02  2.32714336E-01  4.70192898E-01
  3.58520853E-01 -1.10777550E-01 -1.48026263E-01  1.13076702E+00  1.00000000E+00
  1.00000000E+00  1.86924085E-03  1.42303065E-02  6.96962317E-02  2.38487108E-01
  4.83307220E-01  3.38074154E-01 -2.37677050E-03 -3.16930067E-02 -1.13317024E-01
  5.60900118E-02  5.92255124E-01  4.55006095E-01 -2.50373114E-01  6.69567631E-02
  1.05450627E+00  1.00000000E+00  1.00000000E+00  1.83473713E-03  1.40373228E-02
  6.88426223E-02  2.32184443E-01  4.67941348E-01  3.62311985E-01 -1.19332420E-01
 -1.60854152E-01  1.14345644E+00  1.00000000E+00  1.00000000E+00  1.83473713E-03
  1.40373228E-02  6.88426223E-02  2.32184443E-01  4.67941348E-01  3.62311985E-01
 -1.19332420E-01 -1.60854152E-01  1.14345644E+00  1.00000000E+00  1.00000000E+00
  1.83473713E-03  1.40373228E-02  6.88426223E-02  2.32184443E-01  4.67941348E-01
  3.62311985E-01 -1.19332420E-01 -1.60854152E-01  1.14345644E+00  1.00000000E+00
  1.00000000E+00  1.83473713E-03  1.40373228E-02  6.88426223E-02  2.32184443E-01
  4.67941348E-01  3.62311985E-01 -1.19332420E-01 -1.60854152E-01  1.14345644E+00
  1.00000000E+00  1.00000000E+00  1.83473713E-03  1.40373228E-02  6.88426223E-02
  2.32184443E-01  4.67941348E-01  3.62311985E-01 -1.19332420E-01 -1.60854152E-01
  1.14345644E+00  1.00000000E+00  1.00000000E+00  1.83473713E-03  1.40373228E-02
  6.88426223E-02  2.32184443E-01  4.67941348E-01  3.62311985E-01 -1.19332420E-01
 -1.60854152E-01  1.14345644E+00  1.00000000E+00  1.00000000E+00  1.83473713E-03
  1.40373228E-02  6.88426223E-02  2.32184443E-01  4.67941348E-01  3.62311985E-01
 -1.19332420E-01 -1.60854152E-01  1.14345644E+00  1.00000000E+00  1.00000000E+00
  1.83473713E-03  1.40373228E-02  6.88426223E-02  2.32184443E-01  4.67941348E-01
  3.62311985E-01 -1.19332420E-01 -1.60854152E-01  1.14345644E+00  1.00000000E+00
  1.00000000E+00  3.34946043E-02  2.34726953E-01  8.13757326E-01  1.00000000E+00
  3.34946043E-02  2.34726953E-01  8.13757326E-01  1.00000000E+00  3.34946043E-02
  2.34726953E-01  8.13757326E-01  1.00000000E+00  3.34946043E-02  2.34726953E-01
  8.13757326E-01  1.00000000E+00  3.34946043E-02  2.34726953E-01  8.13757326E-01
  1.00000000E+00  3.34946043E-02  2.34726953E-01  8.13757326E-01  1.00000000E+00
  3.34946043E-02  2.34726953E-01  8.13757326E-01  1.00000000E+00  3.34946043E-02
  2.34726953E-01  8.13757326E-01  1.00000000E+00
P(S=P) Contraction coefficients            R   N=         148
  0.00000000E+00  0.00000000E+00  0.00000000E+00  0.00000000E+00  0.00000000E+00
  0.00000000E+00  7.08742682E-02  3.39752839E-01  7.27158577E-01  1.00000000E+00
  0.00000000E+00  0.00000000E+00  0.00000000E+00  0.00000000E+00  0.00000000E+00
  0.00000000E+00  0.00000000E+00  4.06100998E-03  3.06812999E-02  1.30451999E-01
  3.27204999E-01  4.52850998E-01  2.56041999E-01 -1.45104895E-02  3.10262776E-01
  7.54482456E-01  1.00000000E+00  0.00000000E+00  0.00000000E+00  0.00000000E+00
  0.00000000E+00  0.00000000E+00  0.00000000E+00  0.00000000E+00  6.89990666E-02
  3.16423961E-01  7.44308291E-01  1.00000000E+00  0.00000000E+00  0.00000000E+00
  0.00000000E+00  0.00000000E+00  0.00000000E+00  0.00000000E+00  0.00000000E+00
  6.89990666E-02  3.16423961E-01  7.44308291E-01  1.00000000E+00  0.00000000E+00
  0.00000000E+00  0.00000000E+00  0.00000000E+00  0.00000000E+00  0.00000000E+00
  0.00000000E+00  6.89990666E-02  3.16423961E-01  7.44308291E-01  1.00000000E+00
  0.00000000E+00  0.00000000E+00  0.00000000E+00  0.00000000E+00  0.00000000E+00
  0.00000000E+00  0.00000000E+00  6.89990666E-02  3.16423961E-01  7.44308291E-01
  1.00000000E+00  0.00000000E+00  0.00000000E+00  0.00000000E+00  0.00000000E+00
  0.00000000E+00  0.00000000E+00  0.00000000E+00  6.89990666E-02  3.16423961E-01
  7.44308291E-01  1.00000000E+00  0.00000000E+00  0.00000000E+00  0.00000000E+00
  0.00000000E+00  0.00000000E+00  0.00000000E+00  0.00000000E+00  6.89990666E-02
  3.16423961E-01  7.44308291E-01  1.00000000E+00  0.00000000E+00  0.00000000E+00
  0.00000000E+00  0.00000000E+00  0.00000000E+00  0.00000000E+00  0.00000000E+00
  6.89990666E-02  3.16423961E-01  7.44308291E-01  1.00000000E+00  0.00000000E+00
  0.00000000E+00  0.00000000E+00  0.00000000E+00  0.00000000E+00  0.00000000E+00
  0.00000000E+00  6.89990666E-02  3.16423961E-01  7.44308291E-01  1.00000000E+00
  0.00000000E+00  0.00000000E+00  0.00000000E+00  0.00000000E+00  0.00000000E+00
  0.00000000E+00  0.00000000E+00  0.00000000E+00  0.00000000E+00  0.00000000E+00
  0.00000000E+00  0.00000000E+00  0.00000000E+00  0.00000000E+00  0.00000000E+00
  0.00000000E+00  0.00000000E+00  0.00000000E+00  0.00000000E+00  0.00000000E+00
  0.00000000E+00  0.00000000E+00  0.00000000E+00  0.00000000E+00  0.00000000E+00
  0.00000000E+00  0.00000000E+00  0.00000000E+00  0.00000000E+00  0.00000000E+00
  0.00000000E+00  0.00000000E+00  0.00000000E+00
Coordinates of each shell                  R   N=         171
 -3.65418951E+00 -3.26773771E+00 -1.56848018E-01 -3.65418951E+00 -3.26773771E+00
 -1.56848018E-01 -3.65418951E+00 -3.26773771E+00 -1.56848018E-01 -3.65418951E+00
 -3.26773771E+00 -1.56848018E-01 -2.85838752E+00 -7.33085959E-01 -1.22615695E+00
 -2.85838752E+00 -7.33085959E-01 -1.22615695E+00 -2.85838752E+00 -7.33085959E-01
 -1.22615695E+00 -2.85838752E+00 -7.33085959E-01 -1.22615695E+00 -2.85838752E+00
 -7.33085959E-01 -1.22615695E+00 -4.18464059E+00  1.66212088E+00  8.49633226E-01
 -4.18464059E+00  1.66212088E+00  8.49633226E-01 -4.18464059E+00  1.66212088E+00
  8.49633226E-01 -4.18464059E+00  1.66212088E+00  8.49633226E-01 -3.01366030E+00
  3.59942523E+00  1.94209271E+00 -3.01366030E+00  3.59942523E+00  1.94209271E+00
 -3.01366030E+00  3.59942523E+00  1.94209271E+00 -3.01366030E+00  3.59942523E+00
  1.94209271E+00  4.83255861E-01 -3.01575194E-01 -5.24060848E-01  4.83255861E-01
 -3.01575194E-01 -5.24060848E-01  4.83255861E-01 -3.01575194E-01 -5.24060848E-01
  4.83255861E-01 -3.01575194E-01 -5.24060848E-01  1.89733979E+00  1.49761420E+00
 -1.83693920E+00  1.89733979E+00  1.49761420E+00 -1.83693920E+00  1.89733979E+00
  1.49761420E+00 -1.83693920E+00  1.89733979E+00  1.49761420E+00 -1.83693920E+00
  4.47966707E+00  1.71313288E+00 -1.33607216E+00  4.47966707E+00  1.71313288E+00
 -1.33607216E+00  4.47966707E+00  1.71313288E+00 -1.33607216E+00  4.47966707E+00
  1.71313288E+00 -1.33607216E+00  5.62134923E+00  1.14129859E-01  4.27375470E-01