 Entering Gaussian System, Link 0=/apps/cent7/gaussian/g16-A.03/g16-haswell/g16/g16
 Initial command:
 /apps/cent7/gaussian/g16-A.03/g16-haswell/g16/l1.exe "/scratch/brown/finej/gaussian/Gau-142151.inp" -scrdir="/scratch/brown/finej/gaussian/"
 Entering Link 1 = /apps/cent7/gaussian/g16-A.03/g16-haswell/g16/l1.exe PID=    142152.
  
 Copyright (c) 1988,1990,1992,1993,1995,1998,2003,2009,2016,
            Gaussian, Inc.  All Rights Reserved.
  
 This is part of the Gaussian(R) 16 program.  It is based on
 the Gaussian(R) 09 system (copyright 2009, Gaussian, Inc.),
 the Gaussian(R) 03 system (copyright 2003, Gaussian, Inc.),
 the Gaussian(R) 98 system (copyright 1998, Gaussian, Inc.),
 the Gaussian(R) 94 system (copyright 1995, Gaussian, Inc.),
 the Gaussian 92(TM) system (copyright 1992, Gaussian, Inc.),
 the Gaussian 90(TM) system (copyright 1990, Gaussian, Inc.),
 the Gaussian 88(TM) system (copyright 1988, Gaussian, Inc.),
 the Gaussian 86(TM) system (copyright 1986, Carnegie Mellon
 University), and the Gaussian 82(TM) system (copyright 1983,
 Carnegie Mellon University). Gaussian is a federally registered
 trademark of Gaussian, Inc.
  
 This software contains proprietary and confidential information,
 including trade secrets, belonging to Gaussian, Inc.
  
 This software is provided under written license and may be
 used, copied, transmitted, or stored only in accord with that
 written license.
  
 The following legend is applicable only to US Government
 contracts under FAR:
  
                    RESTRICTED RIGHTS LEGEND
  
 Use, reproduction and disclosure by the US Government is
 subject to restrictions as set forth in subparagraphs (a)
 and (c) of the Commercial Computer Software - Restricted
 Rights clause in FAR 52.227-19.
  
 Gaussian, Inc.
 340 Quinnipiac St., Bldg. 40, Wallingford CT 06492
  
  
 ---------------------------------------------------------------
 Warning -- This program may not be used in any manner that
 competes with the business of Gaussian, Inc. or will provide
 assistance to any competitor of Gaussian, Inc.  The licensee
 of this program is prohibited from giving any competitor of
 Gaussian, Inc. access to this program.  By using this program,
 the user acknowledges that Gaussian, Inc. is engaged in the
 business of creating and licensing software in the field of
 computational chemistry and represents and warrants to the
 licensee that it is not a competitor of Gaussian, Inc. and that
 it will not use this program in any manner prohibited above.
 ---------------------------------------------------------------
  

 Cite this work as:
 Gaussian 16, Revision A.03,
 M. J. Frisch, G. W. Trucks, H. B. Schlegel, G. E. Scuseria, 
 M. A. Robb, J. R. Cheeseman, G. Scalmani, V. Barone, 
 G. A. Petersson, H. Nakatsuji, X. Li, M. Caricato, A. V. Marenich, 
 J. Bloino, B. G. Janesko, R. Gomperts, B. Mennucci, H. P. Hratchian, 
 J. V. Ortiz, A. F. Izmaylov, J. L. Sonnenberg, D. Williams-Young, 
 F. Ding, F. Lipparini, F. Egidi, J. Goings, B. Peng, A. Petrone, 
 T. Henderson, D. Ranasinghe, V. G. Zakrzewski, J. Gao, N. Rega, 
 G. Zheng, W. Liang, M. Hada, M. Ehara, K. Toyota, R. Fukuda, 
 J. Hasegawa, M. Ishida, T. Nakajima, Y. Honda, O. Kitao, H. Nakai, 
 T. Vreven, K. Throssell, J. A. Montgomery, Jr., J. E. Peralta, 
 F. Ogliaro, M. J. Bearpark, J. J. Heyd, E. N. Brothers, K. N. Kudin, 
 V. N. Staroverov, T. A. Keith, R. Kobayashi, J. Normand, 
 K. Raghavachari, A. P. Rendell, J. C. Burant, S. S. Iyengar, 
 J. Tomasi, M. Cossi, J. M. Millam, M. Klene, C. Adamo, R. Cammi, 
 J. W. Ochterski, R. L. Martin, K. Morokuma, O. Farkas, 
 J. B. Foresman, and D. J. Fox, Gaussian, Inc., Wallingford CT, 2016.
 
 ******************************************
 Gaussian 16:  ES64L-G16RevA.03 25-Dec-2016
                14-Oct-2019 
 ******************************************
 %chk=34.chk
 %nprocshared=24
 Will use up to   24 processors via shared memory.
 %mem=80GB
 --------------------------------------------------------------
 #P opt freq b3lyp/6-31g(d) geom=connectivity temperature=0.001
 --------------------------------------------------------------
 1/18=20,19=15,26=3,38=1,57=2,112=-1000/1,3;
 2/9=110,12=2,17=6,18=5,40=1/2;
 3/5=1,6=6,7=1,11=2,25=1,30=1,71=1,74=-5/1,2,3;
 4//1;
 5/5=2,38=5/2;
 6/7=2,8=2,9=2,10=2,28=1/1;
 7//1,2,3,16;
 1/18=20,19=15,26=3/3(2);
 2/9=110/2;
 99//99;
 2/9=110/2;
 3/5=1,6=6,7=1,11=2,25=1,30=1,71=1,74=-5/1,2,3;
 4/5=5,16=3,69=1/1;
 5/5=2,38=5/2;
 7//1,2,3,16;
 1/18=20,19=15,26=3/3(-5);
 2/9=110/2;
 6/7=2,8=2,9=2,10=2,19=2,28=1/1;
 99/9=1/99;
 Leave Link    1 at Mon Oct 14 01:53:15 2019, MaxMem= 10737418240 cpu:               0.9 elap:               0.0
 (Enter /apps/cent7/gaussian/g16-A.03/g16-haswell/g16/l101.exe)
 -------------------
 Title Card Required
 -------------------
 Symbolic Z-matrix:
 Charge =  0 Multiplicity = 1
 O                    -1.7228   -1.8291    1.0796 
 S                    -0.5112   -1.6817    0.0342 
 C                    -1.171    -2.2027   -1.4959 
 C                    -1.0971   -1.5091   -2.636 
 C                    -0.1627    0.0577   -0.0106 
 C                     1.1654    0.4913    0.1839 
 C                     1.4648    1.8663    0.1938 
 C                     0.4406    2.815     0.0154 
 C                    -0.8848    2.3888   -0.1858 
 C                    -1.1851    1.0133   -0.2009 
 H                    -1.7145   -3.1023   -1.7847 
 H                    -2.009    -1.2263   -3.1619 
 H                    -0.125    -1.2263   -3.0398 
 H                     1.9626   -0.2381    0.3268 
 H                     2.493     2.1973    0.3401 
 H                     0.6738    3.8796    0.0331 
 H                    -1.6776    3.1229   -0.3297 
 H                    -2.2128    0.6872   -0.3605 
 
 ITRead=  0  0  0  0  0  0  0  0  0  0  0  0  0  0  0  0  0  0
 MicOpt= -1 -1 -1 -1 -1 -1 -1 -1 -1 -1 -1 -1 -1 -1 -1 -1 -1 -1
 NAtoms=     18 NQM=       18 NQMF=       0 NMMI=      0 NMMIF=      0
                NMic=       0 NMicF=      0.
                    Isotopes and Nuclear Properties:
 (Nuclear quadrupole moments (NQMom) in fm**2, nuclear magnetic moments (NMagM)
  in nuclear magnetons)

  Atom         1           2           3           4           5           6           7           8           9          10
 IAtWgt=          16          32          12          12          12          12          12          12          12          12
 AtmWgt=  15.9949146  31.9720718  12.0000000  12.0000000  12.0000000  12.0000000  12.0000000  12.0000000  12.0000000  12.0000000
 NucSpn=           0           0           0           0           0           0           0           0           0           0
 AtZEff=  -0.0000000  -0.0000000  -0.0000000  -0.0000000  -0.0000000  -0.0000000  -0.0000000  -0.0000000  -0.0000000  -0.0000000
 NQMom=    0.0000000   0.0000000   0.0000000   0.0000000   0.0000000   0.0000000   0.0000000   0.0000000   0.0000000   0.0000000
 NMagM=    0.0000000   0.0000000   0.0000000   0.0000000   0.0000000   0.0000000   0.0000000   0.0000000   0.0000000   0.0000000
 AtZNuc=   8.0000000  16.0000000   6.0000000   6.0000000   6.0000000   6.0000000   6.0000000   6.0000000   6.0000000   6.0000000

  Atom        11          12          13          14          15          16          17          18
 IAtWgt=           1           1           1           1           1           1           1           1
 AtmWgt=   1.0078250   1.0078250   1.0078250   1.0078250   1.0078250   1.0078250   1.0078250   1.0078250
 NucSpn=           1           1           1           1           1           1           1           1
 AtZEff=  -0.0000000  -0.0000000  -0.0000000  -0.0000000  -0.0000000  -0.0000000  -0.0000000  -0.0000000
 NQMom=    0.0000000   0.0000000   0.0000000   0.0000000   0.0000000   0.0000000   0.0000000   0.0000000
 NMagM=    2.7928460   2.7928460   2.7928460   2.7928460   2.7928460   2.7928460   2.7928460   2.7928460
 AtZNuc=   1.0000000   1.0000000   1.0000000   1.0000000   1.0000000   1.0000000   1.0000000   1.0000000
 Leave Link  101 at Mon Oct 14 01:53:16 2019, MaxMem= 10737418240 cpu:               9.5 elap:               0.4
 (Enter /apps/cent7/gaussian/g16-A.03/g16-haswell/g16/l103.exe)

 GradGradGradGradGradGradGradGradGradGradGradGradGradGradGradGradGradGrad
 Berny optimization.
 Initialization pass.
                           ----------------------------
                           !    Initial Parameters    !
                           ! (Angstroms and Degrees)  !
 --------------------------                            --------------------------
 ! Name  Definition              Value          Derivative Info.                !
 --------------------------------------------------------------------------------
 ! R1    R(1,2)                  1.607          estimate D2E/DX2                !
 ! R2    R(2,3)                  1.7458         estimate D2E/DX2                !
 ! R3    R(2,5)                  1.7745         estimate D2E/DX2                !
 ! R4    R(3,4)                  1.3366         estimate D2E/DX2                !
 ! R5    R(3,11)                 1.09           estimate D2E/DX2                !
 ! R6    R(4,12)                 1.09           estimate D2E/DX2                !
 ! R7    R(4,13)                 1.09           estimate D2E/DX2                !
 ! R8    R(5,6)                  1.4106         estimate D2E/DX2                !
 ! R9    R(5,10)                 1.4123         estimate D2E/DX2                !
 ! R10   R(6,7)                  1.4073         estimate D2E/DX2                !
 ! R11   R(6,14)                 1.0899         estimate D2E/DX2                !
 ! R12   R(7,8)                  1.4074         estimate D2E/DX2                !
 ! R13   R(7,15)                 1.09           estimate D2E/DX2                !
 ! R14   R(8,9)                  1.4067         estimate D2E/DX2                !
 ! R15   R(8,16)                 1.09           estimate D2E/DX2                !
 ! R16   R(9,10)                 1.408          estimate D2E/DX2                !
 ! R17   R(9,17)                 1.09           estimate D2E/DX2                !
 ! R18   R(10,18)                1.0899         estimate D2E/DX2                !
 ! A1    A(1,2,3)              104.9409         estimate D2E/DX2                !
 ! A2    A(1,2,5)              104.7377         estimate D2E/DX2                !
 ! A3    A(3,2,5)              110.1579         estimate D2E/DX2                !
 ! A4    A(2,3,4)              124.8787         estimate D2E/DX2                !
 ! A5    A(2,3,11)             131.8325         estimate D2E/DX2                !
 ! A6    A(4,3,11)             103.2888         estimate D2E/DX2                !
 ! A7    A(3,4,12)             119.9962         estimate D2E/DX2                !
 ! A8    A(3,4,13)             119.9985         estimate D2E/DX2                !
 ! A9    A(12,4,13)            120.0053         estimate D2E/DX2                !
 ! A10   A(2,5,6)              118.8642         estimate D2E/DX2                !
 ! A11   A(2,5,10)             121.6311         estimate D2E/DX2                !
 ! A12   A(6,5,10)             119.484          estimate D2E/DX2                !
 ! A13   A(5,6,7)              120.1083         estimate D2E/DX2                !
 ! A14   A(5,6,14)             120.0677         estimate D2E/DX2                !
 ! A15   A(7,6,14)             119.824          estimate D2E/DX2                !
 ! A16   A(6,7,8)              120.1922         estimate D2E/DX2                !
 ! A17   A(6,7,15)             119.8898         estimate D2E/DX2                !
 ! A18   A(8,7,15)             119.918          estimate D2E/DX2                !
 ! A19   A(7,8,9)              119.9706         estimate D2E/DX2                !
 ! A20   A(7,8,16)             120.0409         estimate D2E/DX2                !
 ! A21   A(9,8,16)             119.9885         estimate D2E/DX2                !
 ! A22   A(8,9,10)             119.8995         estimate D2E/DX2                !
 ! A23   A(8,9,17)             120.0082         estimate D2E/DX2                !
 ! A24   A(10,9,17)            120.0923         estimate D2E/DX2                !
 ! A25   A(5,10,9)             120.3419         estimate D2E/DX2                !
 ! A26   A(5,10,18)            119.9909         estimate D2E/DX2                !
 ! A27   A(9,10,18)            119.6672         estimate D2E/DX2                !
 ! D1    D(1,2,3,4)            128.808          estimate D2E/DX2                !
 ! D2    D(1,2,3,11)           -51.1862         estimate D2E/DX2                !
 ! D3    D(5,2,3,4)             16.5714         estimate D2E/DX2                !
 ! D4    D(5,2,3,11)          -163.4228         estimate D2E/DX2                !
 ! D5    D(1,2,5,6)            128.354          estimate D2E/DX2                !
 ! D6    D(1,2,5,10)           -49.9824         estimate D2E/DX2                !
 ! D7    D(3,2,5,6)           -119.2781         estimate D2E/DX2                !
 ! D8    D(3,2,5,10)            62.3855         estimate D2E/DX2                !
 ! D9    D(2,3,4,12)          -121.9253         estimate D2E/DX2                !
 ! D10   D(2,3,4,13)            58.0746         estimate D2E/DX2                !
 ! D11   D(11,3,4,12)           58.0703         estimate D2E/DX2                !
 ! D12   D(11,3,4,13)         -121.9299         estimate D2E/DX2                !
 ! D13   D(2,5,6,7)           -178.0828         estimate D2E/DX2                !
 ! D14   D(2,5,6,14)             1.9264         estimate D2E/DX2                !
 ! D15   D(10,5,6,7)             0.29           estimate D2E/DX2                !
 ! D16   D(10,5,6,14)         -179.7008         estimate D2E/DX2                !
 ! D17   D(2,5,10,9)           177.7995         estimate D2E/DX2                !
 ! D18   D(2,5,10,18)           -2.2009         estimate D2E/DX2                !
 ! D19   D(6,5,10,9)            -0.5269         estimate D2E/DX2                !
 ! D20   D(6,5,10,18)          179.4728         estimate D2E/DX2                !
 ! D21   D(5,6,7,8)              0.265          estimate D2E/DX2                !
 ! D22   D(5,6,7,15)          -179.7362         estimate D2E/DX2                !
 ! D23   D(14,6,7,8)          -179.7442         estimate D2E/DX2                !
 ! D24   D(14,6,7,15)            0.2546         estimate D2E/DX2                !
 ! D25   D(6,7,8,9)             -0.5869         estimate D2E/DX2                !
 ! D26   D(6,7,8,16)           179.4102         estimate D2E/DX2                !
 ! D27   D(15,7,8,9)           179.4144         estimate D2E/DX2                !
 ! D28   D(15,7,8,16)           -0.5886         estimate D2E/DX2                !
 ! D29   D(7,8,9,10)             0.3499         estimate D2E/DX2                !
 ! D30   D(7,8,9,17)          -179.6516         estimate D2E/DX2                !
 ! D31   D(16,8,9,10)         -179.6471         estimate D2E/DX2                !
 ! D32   D(16,8,9,17)            0.3513         estimate D2E/DX2                !
 ! D33   D(8,9,10,5)             0.2079         estimate D2E/DX2                !
 ! D34   D(8,9,10,18)         -179.7917         estimate D2E/DX2                !
 ! D35   D(17,9,10,5)         -179.7905         estimate D2E/DX2                !
 ! D36   D(17,9,10,18)           0.2098         estimate D2E/DX2                !
 --------------------------------------------------------------------------------
 Trust Radius=3.00D-01 FncErr=1.00D-07 GrdErr=1.00D-06 EigMax=2.50D+02 EigMin=1.00D-04
 Number of steps in this run=     91 maximum allowed number of steps=    108.
 GradGradGradGradGradGradGradGradGradGradGradGradGradGradGradGradGradGrad

 Leave Link  103 at Mon Oct 14 01:53:16 2019, MaxMem= 10737418240 cpu:               0.2 elap:               0.0
 (Enter /apps/cent7/gaussian/g16-A.03/g16-haswell/g16/l202.exe)
                          Input orientation:                          
 ---------------------------------------------------------------------
 Center     Atomic      Atomic             Coordinates (Angstroms)
 Number     Number       Type             X           Y           Z
 ---------------------------------------------------------------------
      1          8           0       -1.722800   -1.829100    1.079600
      2         16           0       -0.511200   -1.681700    0.034200
      3          6           0       -1.171000   -2.202700   -1.495900
      4          6           0       -1.097100   -1.509100   -2.636000
      5          6           0       -0.162700    0.057700   -0.010600
      6          6           0        1.165400    0.491300    0.183900
      7          6           0        1.464800    1.866300    0.193800
      8          6           0        0.440600    2.815000    0.015400
      9          6           0       -0.884800    2.388800   -0.185800
     10          6           0       -1.185100    1.013300   -0.200900
     11          1           0       -1.714500   -3.102300   -1.784700
     12          1           0       -2.009000   -1.226300   -3.161900
     13          1           0       -0.125000   -1.226300   -3.039800
     14          1           0        1.962600   -0.238100    0.326800
     15          1           0        2.493000    2.197300    0.340100
     16          1           0        0.673800    3.879600    0.033100
     17          1           0       -1.677600    3.122900   -0.329700
     18          1           0       -2.212800    0.687200   -0.360500
 ---------------------------------------------------------------------
                    Distance matrix (angstroms):
                    1          2          3          4          5
     1  O    0.000000
     2  S    1.607035   0.000000
     3  C    2.660312   1.745847   0.000000
     4  C    3.781479   2.739167   1.336552   0.000000
     5  C    2.680012   1.774534   2.886554   3.196982   0.000000
     6  C    3.811592   2.748695   3.941843   4.131869   1.410563
     7  C    4.959982   4.064278   5.134130   5.095530   2.441633
     8  C    5.232637   4.596367   5.482572   5.300215   2.822649
     9  C    4.482651   4.093525   4.783319   4.608923   2.446661
    10  C    3.163549   2.787909   3.466970   3.507130   1.412334
    11  H    3.134537   2.602774   1.089990   1.908974   3.942222
    12  H    4.293670   3.558911   2.105031   1.090004   3.871456
    13  H    4.459348   3.131456   2.105018   1.089958   3.290308
    14  H    4.084135   2.879111   4.123268   4.444703   2.172150
    15  H    5.876370   4.915835   6.012969   5.956794   3.428355
    16  H    6.279181   5.686148   6.537240   6.268833   3.912616
    17  H    5.148832   4.957529   5.475279   5.206863   3.433977
    18  H    2.940366   2.943284   3.275058   3.353568   2.172927
                    6          7          8          9         10
     6  C    0.000000
     7  C    1.407254   0.000000
     8  C    2.439940   1.407425   0.000000
     9  C    2.817890   2.436744   1.406703   0.000000
    10  C    2.438320   2.811648   2.436352   1.407980   0.000000
    11  H    5.008310   6.221688   6.549752   5.779019   4.441492
    12  H    4.921518   5.735171   5.694548   4.815594   3.802912
    13  H    3.873955   4.748453   5.097672   4.668143   3.768153
    14  H    1.089942   2.166563   3.425620   3.907819   3.428190
    15  H    2.167339   1.090027   2.167794   3.423854   3.901661
    16  H    3.427096   2.169074   1.089986   2.167864   3.424316
    17  H    3.907909   3.424584   2.168102   1.090019   2.170152
    18  H    3.427387   3.901572   3.421895   2.165536   1.089945
                   11         12         13         14         15
    11  H    0.000000
    12  H    2.345802   0.000000
    13  H    2.760645   1.887952   0.000000
    14  H    5.116946   5.377841   4.082721   0.000000
    15  H    7.092502   6.652296   5.477106   2.492524   0.000000
    16  H    7.599691   6.593607   6.012571   4.324664   2.496772
    17  H    6.393082   5.200646   5.354507   4.997836   4.324265
    18  H    4.078843   3.398655   3.898595   4.331573   4.991572
                   16         17         18
    16  H    0.000000
    17  H    2.496658   0.000000
    18  H    4.321898   2.493997   0.000000
 Stoichiometry    C8H8OS
 Framework group  C1[X(C8H8OS)]
 Deg. of freedom    48
 Full point group                 C1      NOp   1
 Largest Abelian subgroup         C1      NOp   1
 Largest concise Abelian subgroup C1      NOp   1
                         Standard orientation:                         
 ---------------------------------------------------------------------
 Center     Atomic      Atomic             Coordinates (Angstroms)
 Number     Number       Type             X           Y           Z
 ---------------------------------------------------------------------
      1          8           0       -1.795923   -1.334251    1.260705
      2         16           0       -1.427415   -0.741755   -0.186953
      3          6           0       -2.417228    0.686656   -0.353969
      4          6           0       -1.962922    1.895214   -0.699461
      5          6           0        0.284221   -0.289086   -0.067110
      6          6           0        1.183402   -0.760466   -1.046377
      7          6           0        2.553126   -0.450994   -0.954480
      8          6           0        3.033088    0.325046    0.117081
      9          6           0        2.140424    0.803801    1.093175
     10          6           0        0.768973    0.499135    0.999853
     11          1           0       -3.486841    0.849468   -0.221688
     12          1           0       -2.118898    2.746081   -0.036283
     13          1           0       -1.436503    2.029891   -1.644317
     14          1           0        0.818855   -1.365408   -1.876512
     15          1           0        3.244172   -0.813505   -1.715533
     16          1           0        4.095926    0.555203    0.191041
     17          1           0        2.510647    1.409642    1.920238
     18          1           0        0.080169    0.874898    1.756380
 ---------------------------------------------------------------------
 Rotational constants (GHZ):           2.1456326           0.7713801           0.7318546
 Leave Link  202 at Mon Oct 14 01:53:16 2019, MaxMem= 10737418240 cpu:               0.3 elap:               0.0
 (Enter /apps/cent7/gaussian/g16-A.03/g16-haswell/g16/l301.exe)
 Standard basis: 6-31G(d) (6D, 7F)
 Ernie: Thresh=  0.10000D-02 Tol=  0.10000D-05 Strict=F.
 There are   170 symmetry adapted cartesian basis functions of A   symmetry.
 There are   170 symmetry adapted basis functions of A   symmetry.
   170 basis functions,   336 primitive gaussians,   170 cartesian basis functions
    40 alpha electrons       40 beta electrons
       nuclear repulsion energy       571.0408640387 Hartrees.
 IExCor=  402 DFT=T Ex+Corr=B3LYP ExCW=0 ScaHFX=  0.200000
 ScaDFX=  0.800000  0.720000  1.000000  0.810000 ScalE2=  1.000000  1.000000
 IRadAn=      5 IRanWt=     -1 IRanGd=            0 ICorTp=0 IEmpDi=  4
 NAtoms=   18 NActive=   18 NUniq=   18 SFac= 1.00D+00 NAtFMM=   60 NAOKFM=F Big=F
 Integral buffers will be    131072 words long.
 Raffenetti 2 integral format.
 Two-electron integral symmetry is turned on.
 Leave Link  301 at Mon Oct 14 01:53:16 2019, MaxMem= 10737418240 cpu:               1.3 elap:               0.1
 (Enter /apps/cent7/gaussian/g16-A.03/g16-haswell/g16/l302.exe)
 NPDir=0 NMtPBC=     1 NCelOv=     1 NCel=       1 NClECP=     1 NCelD=      1
         NCelK=      1 NCelE2=     1 NClLst=     1 CellRange=     0.0.
 One-electron integrals computed using PRISM.
 One-electron integral symmetry used in STVInt
 NBasis=   170 RedAO= T EigKep=  5.47D-04  NBF=   170
 NBsUse=   170 1.00D-06 EigRej= -1.00D+00 NBFU=   170
 Precomputing XC quadrature grid using
 IXCGrd= 4 IRadAn=           5 IRanWt=          -1 IRanGd=           0 AccXCQ= 0.00D+00.
 Generated NRdTot=       0 NPtTot=           0 NUsed=           0 NTot=          32
 NSgBfM=   170   170   170   170   170 MxSgAt=    18 MxSgA2=    18.
 Leave Link  302 at Mon Oct 14 01:53:16 2019, MaxMem= 10737418240 cpu:               3.4 elap:               0.2
 (Enter /apps/cent7/gaussian/g16-A.03/g16-haswell/g16/l303.exe)
 DipDrv:  MaxL=1.
 Leave Link  303 at Mon Oct 14 01:53:16 2019, MaxMem= 10737418240 cpu:               0.7 elap:               0.1
 (Enter /apps/cent7/gaussian/g16-A.03/g16-haswell/g16/l401.exe)
 ExpMin= 1.17D-01 ExpMax= 2.19D+04 ExpMxC= 3.30D+03 IAcc=3 IRadAn=         5 AccDes= 0.00D+00
 Harris functional with IExCor=  402 and IRadAn=       5 diagonalized for initial guess.
 HarFok:  IExCor=  402 AccDes= 0.00D+00 IRadAn=         5 IDoV= 1 UseB2=F ITyADJ=14
 ICtDFT=  3500011 ScaDFX=  1.000000  1.000000  1.000000  1.000000
 FoFCou: FMM=F IPFlag=           0 FMFlag=      100000 FMFlg1=           0
         NFxFlg=           0 DoJE=T BraDBF=F KetDBF=T FulRan=T
         wScrn=  0.000000 ICntrl=       500 IOpCl=  0 I1Cent=   200000004 NGrid=           0
         NMat0=    1 NMatS0=      1 NMatT0=    0 NMatD0=    1 NMtDS0=    0 NMtDT0=    0
 Petite list used in FoFCou.
 Harris En= -782.935288940912    
 JPrj=0 DoOrth=F DoCkMO=F.
 Leave Link  401 at Mon Oct 14 01:53:16 2019, MaxMem= 10737418240 cpu:               7.0 elap:               0.3
 (Enter /apps/cent7/gaussian/g16-A.03/g16-haswell/g16/l502.exe)
 Integral symmetry usage will be decided dynamically.
 Closed shell SCF:
 Using DIIS extrapolation, IDIIS=  1040.
 NGot= 10737418240 LenX= 10737354419 LenY= 10737325078
 Requested convergence on RMS density matrix=1.00D-08 within 128 cycles.
 Requested convergence on MAX density matrix=1.00D-06.
 Requested convergence on             energy=1.00D-06.
 No special actions if energy rises.
 Fock matrices will be formed incrementally for  20 cycles.
 Integral accuracy reduced to 1.0D-05 until final iterations.

 Cycle   1  Pass 0  IDiag  1:
 FoFJK:  IHMeth= 1 ICntrl=       0 DoSepK=F KAlg= 0 I1Cent=           0 FoldK=F
 IRaf= 930000000 NMat=       1 IRICut=       1 DoRegI=T DoRafI=F ISym2E= 0 IDoP0=0 IntGTp=1.
 FoFCou: FMM=F IPFlag=           0 FMFlag=      100000 FMFlg1=           0
         NFxFlg=           0 DoJE=F BraDBF=F KetDBF=F FulRan=T
         wScrn=  0.000000 ICntrl=         0 IOpCl=  0 I1Cent=           0 NGrid=           0
         NMat0=    1 NMatS0=      1 NMatT0=    0 NMatD0=    1 NMtDS0=    0 NMtDT0=    0
 Symmetry not used in FoFCou.
 E= -782.528931802388    
 DIIS: error= 3.20D-02 at cycle   1 NSaved=   1.
 NSaved= 1 IEnMin= 1 EnMin= -782.528931802388     IErMin= 1 ErrMin= 3.20D-02
 ErrMax= 3.20D-02  0.00D+00 EMaxC= 1.00D-01 BMatC= 3.82D-01 BMatP= 3.82D-01
 IDIUse=3 WtCom= 6.80D-01 WtEn= 3.20D-01
 Coeff-Com:  0.100D+01
 Coeff-En:   0.100D+01
 Coeff:      0.100D+01
 Gap=     0.183 Goal=   None    Shift=    0.000
 GapD=    0.183 DampG=1.000 DampE=0.500 DampFc=0.5000 IDamp=-1.
 Damping current iteration by 5.00D-01
 RMSDP=1.79D-02 MaxDP=5.34D-01              OVMax= 5.84D-01

 Cycle   2  Pass 0  IDiag  1:
 RMSU=  8.95D-03    CP:  1.00D+00
 E= -782.377287541770     Delta-E=        0.151644260618 Rises=F Damp=T
 DIIS: error= 4.26D-02 at cycle   2 NSaved=   2.
 NSaved= 2 IEnMin= 1 EnMin= -782.528931802388     IErMin= 1 ErrMin= 3.20D-02
 ErrMax= 4.26D-02  0.00D+00 EMaxC= 1.00D-01 BMatC= 2.23D-01 BMatP= 3.82D-01
 IDIUse=3 WtCom= 5.74D-01 WtEn= 4.26D-01
 Coeff-Com:  0.412D+00 0.588D+00
 Coeff-En:   0.618D+00 0.382D+00
 Coeff:      0.500D+00 0.500D+00
 Gap=     0.111 Goal=   None    Shift=    0.000
 RMSDP=7.84D-03 MaxDP=2.42D-01 DE= 1.52D-01 OVMax= 4.53D-01

 Cycle   3  Pass 0  IDiag  1:
 RMSU=  4.25D-03    CP:  9.81D-01  2.67D-01
 E= -782.762774568411     Delta-E=       -0.385487026640 Rises=F Damp=F
 DIIS: error= 1.98D-02 at cycle   3 NSaved=   3.
 NSaved= 3 IEnMin= 3 EnMin= -782.762774568411     IErMin= 3 ErrMin= 1.98D-02
 ErrMax= 1.98D-02  0.00D+00 EMaxC= 1.00D-01 BMatC= 1.20D-01 BMatP= 2.23D-01
 IDIUse=3 WtCom= 8.02D-01 WtEn= 1.98D-01
 EnCoef did     2 forward-backward iterations
 Coeff-Com:  0.218D+00 0.358D+00 0.424D+00
 Coeff-En:   0.138D+00 0.291D-01 0.833D+00
 Coeff:      0.202D+00 0.293D+00 0.505D+00
 Gap=     0.153 Goal=   None    Shift=    0.000
 RMSDP=3.86D-03 MaxDP=8.84D-02 DE=-3.85D-01 OVMax= 1.47D-01

 Cycle   4  Pass 0  IDiag  1:
 RMSU=  2.29D-03    CP:  9.96D-01  4.30D-01  3.62D-01
 E= -782.874164299262     Delta-E=       -0.111389730851 Rises=F Damp=F
 DIIS: error= 8.58D-03 at cycle   4 NSaved=   4.
 NSaved= 4 IEnMin= 4 EnMin= -782.874164299262     IErMin= 4 ErrMin= 8.58D-03
 ErrMax= 8.58D-03  0.00D+00 EMaxC= 1.00D-01 BMatC= 2.02D-02 BMatP= 1.20D-01
 IDIUse=3 WtCom= 9.14D-01 WtEn= 8.58D-02
 Coeff-Com:  0.671D-01 0.684D-01 0.288D+00 0.576D+00
 Coeff-En:   0.000D+00 0.000D+00 0.139D+00 0.861D+00
 Coeff:      0.614D-01 0.625D-01 0.276D+00 0.601D+00
 Gap=     0.133 Goal=   None    Shift=    0.000
 RMSDP=1.49D-03 MaxDP=4.21D-02 DE=-1.11D-01 OVMax= 8.22D-02

 Cycle   5  Pass 0  IDiag  1:
 RMSU=  6.82D-04    CP:  9.93D-01  3.59D-01  5.40D-01  6.15D-01
 E= -782.889258049077     Delta-E=       -0.015093749816 Rises=F Damp=F
 DIIS: error= 3.73D-03 at cycle   5 NSaved=   5.
 NSaved= 5 IEnMin= 5 EnMin= -782.889258049077     IErMin= 5 ErrMin= 3.73D-03
 ErrMax= 3.73D-03  0.00D+00 EMaxC= 1.00D-01 BMatC= 4.44D-03 BMatP= 2.02D-02
 IDIUse=3 WtCom= 9.63D-01 WtEn= 3.73D-02
 Coeff-Com:  0.127D-01-0.135D-02 0.129D+00 0.419D+00 0.441D+00
 Coeff-En:   0.000D+00 0.000D+00 0.000D+00 0.212D+00 0.788D+00
 Coeff:      0.122D-01-0.130D-02 0.124D+00 0.411D+00 0.454D+00
 Gap=     0.122 Goal=   None    Shift=    0.000
 RMSDP=5.30D-04 MaxDP=2.24D-02 DE=-1.51D-02 OVMax= 4.40D-02

 Cycle   6  Pass 0  IDiag  1:
 RMSU=  2.53D-04    CP:  9.93D-01  3.73D-01  5.19D-01  7.25D-01  4.73D-01
 E= -782.893736712362     Delta-E=       -0.004478663285 Rises=F Damp=F
 DIIS: error= 9.49D-04 at cycle   6 NSaved=   6.
 NSaved= 6 IEnMin= 6 EnMin= -782.893736712362     IErMin= 6 ErrMin= 9.49D-04
 ErrMax= 9.49D-04  0.00D+00 EMaxC= 1.00D-01 BMatC= 3.65D-04 BMatP= 4.44D-03
 IDIUse=3 WtCom= 9.91D-01 WtEn= 9.49D-03
 Coeff-Com:  0.981D-04-0.776D-02 0.267D-01 0.123D+00 0.269D+00 0.589D+00
 Coeff-En:   0.000D+00 0.000D+00 0.000D+00 0.000D+00 0.749D-01 0.925D+00
 Coeff:      0.972D-04-0.769D-02 0.265D-01 0.121D+00 0.267D+00 0.592D+00
 Gap=     0.121 Goal=   None    Shift=    0.000
 RMSDP=1.27D-04 MaxDP=5.00D-03 DE=-4.48D-03 OVMax= 9.34D-03

 Cycle   7  Pass 0  IDiag  1:
 RMSU=  7.79D-05    CP:  9.93D-01  3.71D-01  5.19D-01  7.26D-01  5.44D-01
                    CP:  6.68D-01
 E= -782.894102784449     Delta-E=       -0.000366072087 Rises=F Damp=F
 DIIS: error= 2.22D-04 at cycle   7 NSaved=   7.
 NSaved= 7 IEnMin= 7 EnMin= -782.894102784449     IErMin= 7 ErrMin= 2.22D-04
 ErrMax= 2.22D-04  0.00D+00 EMaxC= 1.00D-01 BMatC= 1.71D-05 BMatP= 3.65D-04
 IDIUse=3 WtCom= 9.98D-01 WtEn= 2.22D-03
 Coeff-Com:  0.139D-03-0.375D-02 0.442D-02 0.229D-01 0.950D-01 0.266D+00
 Coeff-Com:  0.616D+00
 Coeff-En:   0.000D+00 0.000D+00 0.000D+00 0.000D+00 0.000D+00 0.000D+00
 Coeff-En:   0.100D+01
 Coeff:      0.138D-03-0.374D-02 0.441D-02 0.229D-01 0.948D-01 0.265D+00
 Coeff:      0.617D+00
 Gap=     0.122 Goal=   None    Shift=    0.000
 RMSDP=4.30D-05 MaxDP=1.24D-03 DE=-3.66D-04 OVMax= 1.95D-03

 Cycle   8  Pass 0  IDiag  1:
 RMSU=  2.65D-05    CP:  9.93D-01  3.69D-01  5.21D-01  7.20D-01  5.55D-01
                    CP:  7.01D-01  7.26D-01
 E= -782.894119076475     Delta-E=       -0.000016292026 Rises=F Damp=F
 DIIS: error= 7.46D-05 at cycle   8 NSaved=   8.
 NSaved= 8 IEnMin= 8 EnMin= -782.894119076475     IErMin= 8 ErrMin= 7.46D-05
 ErrMax= 7.46D-05  0.00D+00 EMaxC= 1.00D-01 BMatC= 2.81D-06 BMatP= 1.71D-05
 IDIUse=1 WtCom= 1.00D+00 WtEn= 0.00D+00
 Coeff-Com:  0.215D-03-0.155D-02 0.488D-05 0.361D-03 0.282D-01 0.901D-01
 Coeff-Com:  0.353D+00 0.530D+00
 Coeff:      0.215D-03-0.155D-02 0.488D-05 0.361D-03 0.282D-01 0.901D-01
 Coeff:      0.353D+00 0.530D+00
 Gap=     0.122 Goal=   None    Shift=    0.000
 RMSDP=1.38D-05 MaxDP=4.95D-04 DE=-1.63D-05 OVMax= 7.11D-04

 Cycle   9  Pass 0  IDiag  1:
 RMSU=  8.34D-06    CP:  9.93D-01  3.68D-01  5.21D-01  7.19D-01  5.58D-01
                    CP:  7.13D-01  7.95D-01  7.22D-01
 E= -782.894121742099     Delta-E=       -0.000002665624 Rises=F Damp=F
 DIIS: error= 2.82D-05 at cycle   9 NSaved=   9.
 NSaved= 9 IEnMin= 9 EnMin= -782.894121742099     IErMin= 9 ErrMin= 2.82D-05
 ErrMax= 2.82D-05  0.00D+00 EMaxC= 1.00D-01 BMatC= 2.67D-07 BMatP= 2.81D-06
 IDIUse=1 WtCom= 1.00D+00 WtEn= 0.00D+00
 Coeff-Com:  0.159D-03-0.415D-03-0.536D-03-0.280D-02 0.457D-02 0.186D-01
 Coeff-Com:  0.132D+00 0.295D+00 0.554D+00
 Coeff:      0.159D-03-0.415D-03-0.536D-03-0.280D-02 0.457D-02 0.186D-01
 Coeff:      0.132D+00 0.295D+00 0.554D+00
 Gap=     0.122 Goal=   None    Shift=    0.000
 RMSDP=4.31D-06 MaxDP=1.13D-04 DE=-2.67D-06 OVMax= 2.50D-04

 Initial convergence to 1.0D-05 achieved.  Increase integral accuracy.
 Cycle  10  Pass 1  IDiag  1:
 E= -782.894136980583     Delta-E=       -0.000015238484 Rises=F Damp=F
 DIIS: error= 1.42D-05 at cycle   1 NSaved=   1.
 NSaved= 1 IEnMin= 1 EnMin= -782.894136980583     IErMin= 1 ErrMin= 1.42D-05
 ErrMax= 1.42D-05  0.00D+00 EMaxC= 1.00D-01 BMatC= 5.66D-08 BMatP= 5.66D-08
 IDIUse=1 WtCom= 1.00D+00 WtEn= 0.00D+00
 Coeff-Com:  0.100D+01
 Coeff:      0.100D+01
 Gap=     0.122 Goal=   None    Shift=    0.000
 RMSDP=4.31D-06 MaxDP=1.13D-04 DE=-1.52D-05 OVMax= 2.72D-04

 Cycle  11  Pass 1  IDiag  1:
 RMSU=  6.24D-06    CP:  1.00D+00
 E= -782.894136878800     Delta-E=        0.000000101783 Rises=F Damp=F
 DIIS: error= 2.68D-05 at cycle   2 NSaved=   2.
 NSaved= 2 IEnMin= 1 EnMin= -782.894136980583     IErMin= 1 ErrMin= 1.42D-05
 ErrMax= 2.68D-05  0.00D+00 EMaxC= 1.00D-01 BMatC= 1.43D-07 BMatP= 5.66D-08
 IDIUse=1 WtCom= 1.00D+00 WtEn= 0.00D+00
 Coeff-Com:  0.626D+00 0.374D+00
 Coeff:      0.626D+00 0.374D+00
 Gap=     0.122 Goal=   None    Shift=    0.000
 RMSDP=2.79D-06 MaxDP=5.55D-05 DE= 1.02D-07 OVMax= 1.94D-04

 Cycle  12  Pass 1  IDiag  1:
 RMSU=  2.29D-06    CP:  1.00D+00  7.45D-01
 E= -782.894137037174     Delta-E=       -0.000000158374 Rises=F Damp=F
 DIIS: error= 3.35D-06 at cycle   3 NSaved=   3.
 NSaved= 3 IEnMin= 3 EnMin= -782.894137037174     IErMin= 3 ErrMin= 3.35D-06
 ErrMax= 3.35D-06  0.00D+00 EMaxC= 1.00D-01 BMatC= 3.89D-09 BMatP= 5.66D-08
 IDIUse=1 WtCom= 1.00D+00 WtEn= 0.00D+00
 Coeff-Com:  0.848D-01 0.151D+00 0.764D+00
 Coeff:      0.848D-01 0.151D+00 0.764D+00
 Gap=     0.122 Goal=   None    Shift=    0.000
 RMSDP=6.52D-07 MaxDP=1.46D-05 DE=-1.58D-07 OVMax= 2.60D-05

 Cycle  13  Pass 1  IDiag  1:
 RMSU=  4.91D-07    CP:  1.00D+00  7.92D-01  8.66D-01
 E= -782.894137039974     Delta-E=       -0.000000002800 Rises=F Damp=F
 DIIS: error= 2.06D-06 at cycle   4 NSaved=   4.
 NSaved= 4 IEnMin= 4 EnMin= -782.894137039974     IErMin= 4 ErrMin= 2.06D-06
 ErrMax= 2.06D-06  0.00D+00 EMaxC= 1.00D-01 BMatC= 1.51D-09 BMatP= 3.89D-09
 IDIUse=1 WtCom= 1.00D+00 WtEn= 0.00D+00
 Coeff-Com: -0.110D-02 0.651D-01 0.490D+00 0.446D+00
 Coeff:     -0.110D-02 0.651D-01 0.490D+00 0.446D+00
 Gap=     0.122 Goal=   None    Shift=    0.000
 RMSDP=3.25D-07 MaxDP=7.70D-06 DE=-2.80D-09 OVMax= 1.42D-05

 Cycle  14  Pass 1  IDiag  1:
 RMSU=  2.06D-07    CP:  1.00D+00  7.89D-01  9.07D-01  5.36D-01
 E= -782.894137041354     Delta-E=       -0.000000001380 Rises=F Damp=F
 DIIS: error= 7.84D-07 at cycle   5 NSaved=   5.
 NSaved= 5 IEnMin= 5 EnMin= -782.894137041354     IErMin= 5 ErrMin= 7.84D-07
 ErrMax= 7.84D-07  0.00D+00 EMaxC= 1.00D-01 BMatC= 1.29D-10 BMatP= 1.51D-09
 IDIUse=1 WtCom= 1.00D+00 WtEn= 0.00D+00
 Coeff-Com: -0.579D-02 0.365D-01 0.290D+00 0.305D+00 0.374D+00
 Coeff:     -0.579D-02 0.365D-01 0.290D+00 0.305D+00 0.374D+00
 Gap=     0.122 Goal=   None    Shift=    0.000
 RMSDP=1.02D-07 MaxDP=2.79D-06 DE=-1.38D-09 OVMax= 3.73D-06

 Cycle  15  Pass 1  IDiag  1:
 RMSU=  7.56D-08    CP:  1.00D+00  7.90D-01  9.02D-01  5.90D-01  7.14D-01
 E= -782.894137041466     Delta-E=       -0.000000000112 Rises=F Damp=F
 DIIS: error= 1.60D-07 at cycle   6 NSaved=   6.
 NSaved= 6 IEnMin= 6 EnMin= -782.894137041466     IErMin= 6 ErrMin= 1.60D-07
 ErrMax= 1.60D-07  0.00D+00 EMaxC= 1.00D-01 BMatC= 8.25D-12 BMatP= 1.29D-10
 IDIUse=1 WtCom= 1.00D+00 WtEn= 0.00D+00
 Coeff-Com: -0.293D-02 0.870D-02 0.700D-01 0.967D-01 0.204D+00 0.623D+00
 Coeff:     -0.293D-02 0.870D-02 0.700D-01 0.967D-01 0.204D+00 0.623D+00
 Gap=     0.122 Goal=   None    Shift=    0.000
 RMSDP=4.02D-08 MaxDP=1.14D-06 DE=-1.12D-10 OVMax= 2.52D-06

 Cycle  16  Pass 1  IDiag  1:
 RMSU=  2.77D-08    CP:  1.00D+00  7.91D-01  9.04D-01  5.98D-01  8.44D-01
                    CP:  9.43D-01
 E= -782.894137041478     Delta-E=       -0.000000000013 Rises=F Damp=F
 DIIS: error= 8.44D-08 at cycle   7 NSaved=   7.
 NSaved= 7 IEnMin= 7 EnMin= -782.894137041478     IErMin= 7 ErrMin= 8.44D-08
 ErrMax= 8.44D-08  0.00D+00 EMaxC= 1.00D-01 BMatC= 1.62D-12 BMatP= 8.25D-12
 IDIUse=1 WtCom= 1.00D+00 WtEn= 0.00D+00
 Coeff-Com:  0.537D-04-0.402D-02-0.347D-01-0.218D-01-0.174D-01 0.307D+00
 Coeff-Com:  0.770D+00
 Coeff:      0.537D-04-0.402D-02-0.347D-01-0.218D-01-0.174D-01 0.307D+00
 Coeff:      0.770D+00
 Gap=     0.122 Goal=   None    Shift=    0.000
 RMSDP=2.03D-08 MaxDP=5.28D-07 DE=-1.27D-11 OVMax= 1.80D-06

 Cycle  17  Pass 1  IDiag  1:
 RMSU=  7.99D-09    CP:  1.00D+00  7.92D-01  9.05D-01  6.17D-01  8.89D-01
                    CP:  1.11D+00  9.88D-01
 E= -782.894137041476     Delta-E=        0.000000000002 Rises=F Damp=F
 DIIS: error= 2.87D-08 at cycle   8 NSaved=   8.
 NSaved= 8 IEnMin= 7 EnMin= -782.894137041478     IErMin= 8 ErrMin= 2.87D-08
 ErrMax= 2.87D-08  0.00D+00 EMaxC= 1.00D-01 BMatC= 3.11D-13 BMatP= 1.62D-12
 IDIUse=1 WtCom= 1.00D+00 WtEn= 0.00D+00
 Coeff-Com:  0.303D-03-0.386D-02-0.324D-01-0.265D-01-0.371D-01 0.136D+00
 Coeff-Com:  0.496D+00 0.467D+00
 Coeff:      0.303D-03-0.386D-02-0.324D-01-0.265D-01-0.371D-01 0.136D+00
 Coeff:      0.496D+00 0.467D+00
 Gap=     0.122 Goal=   None    Shift=    0.000
 RMSDP=5.00D-09 MaxDP=1.66D-07 DE= 2.05D-12 OVMax= 4.01D-07

 SCF Done:  E(RB3LYP) =  -782.894137041     A.U. after   17 cycles
            NFock= 17  Conv=0.50D-08     -V/T= 2.0066
 KE= 7.777332102060D+02 PE=-2.981210128165D+03 EE= 8.495419168787D+02
 Leave Link  502 at Mon Oct 14 01:53:20 2019, MaxMem= 10737418240 cpu:              91.2 elap:               3.9
 (Enter /apps/cent7/gaussian/g16-A.03/g16-haswell/g16/l601.exe)
 Copying SCF densities to generalized density rwf, IOpCl= 0 IROHF=0.

 **********************************************************************

            Population analysis using the SCF density.

 **********************************************************************

 Orbital symmetries:
       Occupied  (A) (A) (A) (A) (A) (A) (A) (A) (A) (A) (A) (A)
                 (A) (A) (A) (A) (A) (A) (A) (A) (A) (A) (A) (A)
                 (A) (A) (A) (A) (A) (A) (A) (A) (A) (A) (A) (A)
                 (A) (A) (A) (A)
       Virtual   (A) (A) (A) (A) (A) (A) (A) (A) (A) (A) (A) (A)
                 (A) (A) (A) (A) (A) (A) (A) (A) (A) (A) (A) (A)
                 (A) (A) (A) (A) (A) (A) (A) (A) (A) (A) (A) (A)
                 (A) (A) (A) (A) (A) (A) (A) (A) (A) (A) (A) (A)
                 (A) (A) (A) (A) (A) (A) (A) (A) (A) (A) (A) (A)
                 (A) (A) (A) (A) (A) (A) (A) (A) (A) (A) (A) (A)
                 (A) (A) (A) (A) (A) (A) (A) (A) (A) (A) (A) (A)
                 (A) (A) (A) (A) (A) (A) (A) (A) (A) (A) (A) (A)
                 (A) (A) (A) (A) (A) (A) (A) (A) (A) (A) (A) (A)
                 (A) (A) (A) (A) (A) (A) (A) (A) (A) (A) (A) (A)
                 (A) (A) (A) (A) (A) (A) (A) (A) (A) (A)
 The electronic state is 1-A.
 Alpha  occ. eigenvalues --  -88.98400 -19.09405 -10.23214 -10.22049 -10.21967
 Alpha  occ. eigenvalues --  -10.21605 -10.21478 -10.21291 -10.21184 -10.21152
 Alpha  occ. eigenvalues --   -8.03138  -5.99538  -5.99509  -5.98818  -0.95648
 Alpha  occ. eigenvalues --   -0.86791  -0.81361  -0.77288  -0.76066  -0.69745
 Alpha  occ. eigenvalues --   -0.62249  -0.61766  -0.57173  -0.52796  -0.49005
 Alpha  occ. eigenvalues --   -0.47081  -0.46754  -0.45061  -0.43851  -0.43003
 Alpha  occ. eigenvalues --   -0.40221  -0.37946  -0.36981  -0.36421  -0.35268
 Alpha  occ. eigenvalues --   -0.27850  -0.26812  -0.24160  -0.24019  -0.19805
 Alpha virt. eigenvalues --   -0.07560  -0.04508  -0.02057   0.03228   0.07626
 Alpha virt. eigenvalues --    0.08467   0.10521   0.11836   0.12979   0.14017
 Alpha virt. eigenvalues --    0.14766   0.15885   0.16986   0.17940   0.20491
 Alpha virt. eigenvalues --    0.24403   0.27092   0.28359   0.28933   0.31728
 Alpha virt. eigenvalues --    0.35287   0.37056   0.38195   0.40280   0.47142
 Alpha virt. eigenvalues --    0.49576   0.51714   0.52204   0.53116   0.54675
 Alpha virt. eigenvalues --    0.55426   0.57412   0.57873   0.59004   0.59217
 Alpha virt. eigenvalues --    0.60118   0.60496   0.61892   0.63218   0.65298
 Alpha virt. eigenvalues --    0.67513   0.73171   0.76233   0.79467   0.81467
 Alpha virt. eigenvalues --    0.82198   0.82349   0.82431   0.83160   0.84396
 Alpha virt. eigenvalues --    0.84920   0.86289   0.88587   0.89664   0.90914
 Alpha virt. eigenvalues --    0.91674   0.92637   0.94108   0.95846   0.99176
 Alpha virt. eigenvalues --    1.00398   1.02584   1.07046   1.07842   1.08712
 Alpha virt. eigenvalues --    1.10530   1.11931   1.14609   1.16222   1.23581
 Alpha virt. eigenvalues --    1.24763   1.28632   1.39974   1.40562   1.41824
 Alpha virt. eigenvalues --    1.45766   1.46980   1.49085   1.53122   1.54558
 Alpha virt. eigenvalues --    1.60834   1.69384   1.73068   1.77418   1.79325
 Alpha virt. eigenvalues --    1.80757   1.85669   1.88040   1.90871   1.91262
 Alpha virt. eigenvalues --    1.95016   1.97052   1.99053   2.00878   2.05677
 Alpha virt. eigenvalues --    2.07591   2.09884   2.11709   2.11880   2.12938
 Alpha virt. eigenvalues --    2.14006   2.17302   2.22621   2.26685   2.27643
 Alpha virt. eigenvalues --    2.29178   2.40007   2.50290   2.51908   2.54828
 Alpha virt. eigenvalues --    2.60664   2.61805   2.64540   2.66997   2.70442
 Alpha virt. eigenvalues --    2.70793   2.73688   2.75721   3.00057   3.32816
 Alpha virt. eigenvalues --    3.80338   3.95198   4.05984   4.08848   4.12632
 Alpha virt. eigenvalues --    4.16712   4.28345   4.31219   4.34028   4.63564
          Condensed to atoms (all electrons):
               1          2          3          4          5          6
     1  O    8.440482   0.281385  -0.039025  -0.000032  -0.044257  -0.000174
     2  S    0.281385  15.057519  -0.002923  -0.028085   0.022577  -0.025787
     3  C   -0.039025  -0.002923   5.550194   0.520457   0.018260  -0.000597
     4  C   -0.000032  -0.028085   0.520457   5.175205  -0.013280   0.000176
     5  C   -0.044257   0.022577   0.018260  -0.013280   5.348576   0.506334
     6  C   -0.000174  -0.025787  -0.000597   0.000176   0.506334   4.938057
     7  C   -0.000061   0.003392  -0.000198   0.000010  -0.031547   0.508728
     8  C   -0.000005  -0.000575   0.000020  -0.000005  -0.035451  -0.029504
     9  C    0.000236   0.005235  -0.000010  -0.000247  -0.028981  -0.037933
    10  C    0.000079  -0.024442  -0.008739   0.006200   0.463372  -0.035086
    11  H   -0.002385  -0.028468   0.374356  -0.063484   0.001613  -0.000023
    12  H   -0.000051   0.003518  -0.037164   0.367199   0.000680   0.000003
    13  H   -0.000040  -0.005016  -0.057335   0.370113  -0.000902   0.000210
    14  H   -0.000070   0.006203  -0.000411   0.000097  -0.049241   0.358573
    15  H    0.000000  -0.000065   0.000001   0.000000   0.004380  -0.040552
    16  H   -0.000000   0.000009   0.000000   0.000000   0.000474   0.004589
    17  H    0.000004  -0.000083  -0.000003   0.000006   0.004579   0.000555
    18  H    0.004816  -0.000465   0.000269   0.002803  -0.051235   0.004438
               7          8          9         10         11         12
     1  O   -0.000061  -0.000005   0.000236   0.000079  -0.002385  -0.000051
     2  S    0.003392  -0.000575   0.005235  -0.024442  -0.028468   0.003518
     3  C   -0.000198   0.000020  -0.000010  -0.008739   0.374356  -0.037164
     4  C    0.000010  -0.000005  -0.000247   0.006200  -0.063484   0.367199
     5  C   -0.031547  -0.035451  -0.028981   0.463372   0.001613   0.000680
     6  C    0.508728  -0.029504  -0.037933  -0.035086  -0.000023   0.000003
     7  C    4.879116   0.543494  -0.031565  -0.035941   0.000000  -0.000001
     8  C    0.543494   4.852364   0.534814  -0.026509  -0.000000   0.000000
     9  C   -0.031565   0.534814   4.872786   0.521129   0.000001   0.000001
    10  C   -0.035941  -0.026509   0.521129   4.931700   0.000030  -0.000223
    11  H    0.000000  -0.000000   0.000001   0.000030   0.509147  -0.007326
    12  H   -0.000001   0.000000   0.000001  -0.000223  -0.007326   0.532134
    13  H    0.000034  -0.000004  -0.000033   0.000550   0.008120  -0.038274
    14  H   -0.037945   0.004205   0.000394   0.004957  -0.000002  -0.000001
    15  H    0.362053  -0.041527   0.004360   0.000459  -0.000000   0.000000
    16  H   -0.041128   0.359577  -0.041432   0.004584   0.000000  -0.000000
    17  H    0.004297  -0.041849   0.363131  -0.042468  -0.000000  -0.000000
    18  H    0.000485   0.004035  -0.038795   0.361614  -0.000056  -0.000178
              13         14         15         16         17         18
     1  O   -0.000040  -0.000070   0.000000  -0.000000   0.000004   0.004816
     2  S   -0.005016   0.006203  -0.000065   0.000009  -0.000083  -0.000465
     3  C   -0.057335  -0.000411   0.000001   0.000000  -0.000003   0.000269
     4  C    0.370113   0.000097   0.000000   0.000000   0.000006   0.002803
     5  C   -0.000902  -0.049241   0.004380   0.000474   0.004579  -0.051235
     6  C    0.000210   0.358573  -0.040552   0.004589   0.000555   0.004438
     7  C    0.000034  -0.037945   0.362053  -0.041128   0.004297   0.000485
     8  C   -0.000004   0.004205  -0.041527   0.359577  -0.041849   0.004035
     9  C   -0.000033   0.000394   0.004360  -0.041432   0.363131  -0.038795
    10  C    0.000550   0.004957   0.000459   0.004584  -0.042468   0.361614
    11  H    0.008120  -0.000002  -0.000000   0.000000  -0.000000  -0.000056
    12  H   -0.038274  -0.000001   0.000000  -0.000000  -0.000000  -0.000178
    13  H    0.555364   0.000032  -0.000000   0.000000   0.000000   0.000100
    14  H    0.000032   0.560878  -0.005265  -0.000149   0.000013  -0.000129
    15  H   -0.000000  -0.005265   0.576105  -0.005042  -0.000165   0.000012
    16  H    0.000000  -0.000149  -0.005042   0.578579  -0.004992  -0.000148
    17  H    0.000000   0.000013  -0.000165  -0.004992   0.575586  -0.004610
    18  H    0.000100  -0.000129   0.000012  -0.000148  -0.004610   0.548742
 Mulliken charges:
               1
     1  O   -0.640902
     2  S    0.736071
     3  C   -0.317152
     4  C   -0.337131
     5  C   -0.115951
     6  C   -0.152007
     7  C   -0.123223
     8  C   -0.123080
     9  C   -0.123091
    10  C   -0.121263
    11  H    0.208477
    12  H    0.179686
    13  H    0.167081
    14  H    0.157859
    15  H    0.145246
    16  H    0.145080
    17  H    0.146001
    18  H    0.168301
 Sum of Mulliken charges =  -0.00000
 Mulliken charges with hydrogens summed into heavy atoms:
               1
     1  O   -0.640902
     2  S    0.736071
     3  C   -0.108675
     4  C    0.009635
     5  C   -0.115951
     6  C    0.005853
     7  C    0.022022
     8  C    0.022000
     9  C    0.022910
    10  C    0.047038
 Electronic spatial extent (au):  <R**2>=           1707.8921
 Charge=             -0.0000 electrons
 Dipole moment (field-independent basis, Debye):
    X=              2.4641    Y=              3.4928    Z=             -2.6313  Tot=              5.0195
 Quadrupole moment (field-independent basis, Debye-Ang):
   XX=            -58.0985   YY=            -66.7817   ZZ=            -65.1353
   XY=             -6.4122   XZ=              4.6250   YZ=              6.7330
 Traceless Quadrupole moment (field-independent basis, Debye-Ang):
   XX=              5.2400   YY=             -3.4432   ZZ=             -1.7968
   XY=             -6.4122   XZ=              4.6250   YZ=              6.7330
 Octapole moment (field-independent basis, Debye-Ang**2):
  XXX=              8.2752  YYY=              5.2843  ZZZ=             -1.0098  XYY=             -1.1734
  XXY=             16.0576  XXZ=            -10.1296  XZZ=              9.2004  YZZ=              4.6966
  YYZ=             -2.4658  XYZ=              0.2672
 Hexadecapole moment (field-independent basis, Debye-Ang**3):
 XXXX=          -1361.8996 YYYY=           -426.7820 ZZZZ=           -329.4114 XXXY=             -7.2439
 XXXZ=              5.3052 YYYX=            -10.6837 YYYZ=              8.8495 ZZZX=             -1.5691
 ZZZY=             12.0194 XXYY=           -335.0596 XXZZ=           -316.2241 YYZZ=           -124.6502
 XXYZ=             29.9406 YYXZ=              4.9200 ZZXY=             -5.8116
 N-N= 5.710408640387D+02 E-N=-2.981210131550D+03  KE= 7.777332102060D+02
 No NMR shielding tensors so no spin-rotation constants.
 Leave Link  601 at Mon Oct 14 01:53:20 2019, MaxMem= 10737418240 cpu:               2.2 elap:               0.1
 (Enter /apps/cent7/gaussian/g16-A.03/g16-haswell/g16/l701.exe)
 ... and contract with generalized density number  0.
 Compute integral first derivatives.
 Leave Link  701 at Mon Oct 14 01:53:21 2019, MaxMem= 10737418240 cpu:               2.7 elap:               0.1
 (Enter /apps/cent7/gaussian/g16-A.03/g16-haswell/g16/l702.exe)
 L702 exits ... SP integral derivatives will be done elsewhere.
 Leave Link  702 at Mon Oct 14 01:53:21 2019, MaxMem= 10737418240 cpu:               0.4 elap:               0.0
 (Enter /apps/cent7/gaussian/g16-A.03/g16-haswell/g16/l703.exe)
 Integral derivatives from FoFJK, PRISM(SPDF).
 Compute integral first derivatives, UseDBF=F ICtDFT=           0.
 Calling FoFJK, ICntrl=      2127 FMM=F ISym2X=0 I1Cent= 0 IOpClX= 0 NMat=1 NMatS=1 NMatT=0.
 FoFJK:  IHMeth= 1 ICntrl=    2127 DoSepK=F KAlg= 0 I1Cent=           0 FoldK=F
 IRaf=         0 NMat=       1 IRICut=       1 DoRegI=T DoRafI=F ISym2E= 0 IDoP0=0 IntGTp=1.
 FoFCou: FMM=F IPFlag=           0 FMFlag=      100000 FMFlg1=         800
         NFxFlg=           0 DoJE=F BraDBF=F KetDBF=F FulRan=T
         wScrn=  0.000000 ICntrl=      2127 IOpCl=  0 I1Cent=           0 NGrid=           0
         NMat0=    1 NMatS0=      1 NMatT0=    0 NMatD0=    1 NMtDS0=    0 NMtDT0=    0
 Symmetry not used in FoFCou.
 Leave Link  703 at Mon Oct 14 01:53:22 2019, MaxMem= 10737418240 cpu:              20.6 elap:               0.9
 (Enter /apps/cent7/gaussian/g16-A.03/g16-haswell/g16/l716.exe)
 Dipole        = 9.69443810D-01 1.37416217D+00-1.03523573D+00
 ***** Axes restored to original set *****
 -------------------------------------------------------------------
 Center     Atomic                   Forces (Hartrees/Bohr)
 Number     Number              X              Y              Z
 -------------------------------------------------------------------
      1        8           0.032205480    0.004955351   -0.042076377
      2       16           0.000725099   -0.044670971    0.083532405
      3        6          -0.021199086    0.003300546   -0.030122050
      4        6           0.019630583    0.023907017   -0.021894710
      5        6          -0.001499482    0.026582623   -0.022137290
      6        6          -0.003422786    0.000840714   -0.001335616
      7        6          -0.008665043   -0.001419583   -0.000251785
      8        6           0.000022761   -0.008510469   -0.000093910
      9        6           0.005396815   -0.009430215    0.001844642
     10        6           0.002328041    0.004618022   -0.000073337
     11        1          -0.025276266   -0.001444398    0.044219433
     12        1           0.003850510   -0.027650714   -0.022393655
     13        1          -0.003594971    0.035652039    0.008997891
     14        1          -0.002380569    0.000699858   -0.000371000
     15        1          -0.002487036   -0.001595409    0.000123273
     16        1          -0.000248914   -0.002502654   -0.000314373
     17        1           0.001440088   -0.002454581    0.000401694
     18        1           0.003174776   -0.000877177    0.001944765
 -------------------------------------------------------------------
 Cartesian Forces:  Max     0.083532405 RMS     0.019910557
 Leave Link  716 at Mon Oct 14 01:53:22 2019, MaxMem= 10737418240 cpu:               0.8 elap:               0.1
 (Enter /apps/cent7/gaussian/g16-A.03/g16-haswell/g16/l103.exe)

 GradGradGradGradGradGradGradGradGradGradGradGradGradGradGradGradGradGrad
 Berny optimization.
 FormGI is forming the generalized inverse of G from B-inverse, IUseBI=4.
 Internal  Forces:  Max     0.054141914 RMS     0.014808439
 Search for a local minimum.
 Step number   1 out of a maximum of   91
 All quantities printed in internal units (Hartrees-Bohrs-Radians)
 RMS Force = .14808D-01 SwitMx=.10000D-02 MixMth= 1
 Mixed Optimization -- RFO/linear search
 Second derivative matrix not updated -- first step.
 ITU=  0
     Eigenvalues ---    0.00707   0.01087   0.01560   0.01767   0.01942
     Eigenvalues ---    0.01956   0.01970   0.01980   0.01991   0.01992
     Eigenvalues ---    0.01994   0.01996   0.02928   0.02928   0.06737
     Eigenvalues ---    0.16000   0.16000   0.16000   0.16000   0.16000
     Eigenvalues ---    0.16000   0.16000   0.16000   0.17905   0.22000
     Eigenvalues ---    0.22000   0.22000   0.23476   0.24989   0.25000
     Eigenvalues ---    0.28230   0.30893   0.34809   0.34810   0.34812
     Eigenvalues ---    0.34814   0.34814   0.34817   0.34819   0.34819
     Eigenvalues ---    0.40330   0.40474   0.43865   0.44170   0.44376
     Eigenvalues ---    0.44466   0.49881   0.57985
 RFO step:  Lambda=-7.79426883D-02 EMin= 7.07165119D-03
 Linear search not attempted -- first point.
 Maximum step size (   0.300) exceeded in Quadratic search.
    -- Step size scaled by   0.846
 Iteration  1 RMS(Cart)=  0.13751554 RMS(Int)=  0.01209955
 Iteration  2 RMS(Cart)=  0.01692113 RMS(Int)=  0.00112859
 Iteration  3 RMS(Cart)=  0.00038717 RMS(Int)=  0.00106967
 Iteration  4 RMS(Cart)=  0.00000025 RMS(Int)=  0.00106967
 ITry= 1 IFail=0 DXMaxC= 8.13D-01 DCOld= 1.00D+10 DXMaxT= 3.00D-01 DXLimC= 3.00D+00 Rises=F
 Variable       Old X    -DE/DX   Delta X   Delta X   Delta X     New X
                                 (Linear)    (Quad)   (Total)
    R1        3.03686  -0.05211   0.00000  -0.07644  -0.07644   2.96041
    R2        3.29917   0.01855   0.00000   0.04056   0.04056   3.33974
    R3        3.35338   0.00510   0.00000   0.01198   0.01198   3.36536
    R4        2.52572   0.04776   0.00000   0.06144   0.06144   2.58715
    R5        2.05978   0.00208   0.00000   0.00413   0.00413   2.06391
    R6        2.05981   0.00041   0.00000   0.00081   0.00081   2.06062
    R7        2.05972   0.00271   0.00000   0.00538   0.00538   2.06510
    R8        2.66558  -0.01287   0.00000  -0.02112  -0.02111   2.64447
    R9        2.66892  -0.01192   0.00000  -0.01969  -0.01968   2.64925
   R10        2.65932  -0.01181   0.00000  -0.01910  -0.01910   2.64022
   R11        2.05969  -0.00226   0.00000  -0.00448  -0.00448   2.05521
   R12        2.65965  -0.01031   0.00000  -0.01663  -0.01665   2.64300
   R13        2.05985  -0.00281   0.00000  -0.00559  -0.00559   2.05427
   R14        2.65828  -0.00745   0.00000  -0.01199  -0.01200   2.64628
   R15        2.05977  -0.00250   0.00000  -0.00497  -0.00497   2.05480
   R16        2.66070  -0.01446   0.00000  -0.02350  -0.02350   2.63720
   R17        2.05984  -0.00275   0.00000  -0.00547  -0.00547   2.05437
   R18        2.05970  -0.00302   0.00000  -0.00599  -0.00599   2.05371
    A1        1.83156  -0.00347   0.00000  -0.04052  -0.04306   1.78851
    A2        1.82802   0.01456   0.00000   0.01922   0.01279   1.84080
    A3        1.92262  -0.05414   0.00000  -0.15283  -0.15487   1.76775
    A4        2.17954   0.00409   0.00000   0.01161   0.01154   2.19109
    A5        2.30091  -0.04373   0.00000  -0.15402  -0.15407   2.14684
    A6        1.80273   0.03964   0.00000   0.14242   0.14234   1.94507
    A7        2.09433   0.00020   0.00000   0.00071   0.00071   2.09503
    A8        2.09437   0.01093   0.00000   0.03886   0.03886   2.13323
    A9        2.09449  -0.01113   0.00000  -0.03956  -0.03956   2.05493
   A10        2.07457  -0.00564   0.00000  -0.01464  -0.01467   2.05990
   A11        2.12286  -0.00091   0.00000  -0.00242  -0.00246   2.12041
   A12        2.08539   0.00652   0.00000   0.01680   0.01681   2.10220
   A13        2.09629  -0.00311   0.00000  -0.00857  -0.00855   2.08773
   A14        2.09558   0.00043   0.00000   0.00028   0.00027   2.09585
   A15        2.09132   0.00268   0.00000   0.00829   0.00828   2.09960
   A16        2.09775  -0.00086   0.00000  -0.00195  -0.00197   2.09578
   A17        2.09247  -0.00038   0.00000  -0.00192  -0.00191   2.09056
   A18        2.09296   0.00125   0.00000   0.00387   0.00388   2.09684
   A19        2.09388   0.00111   0.00000   0.00369   0.00366   2.09754
   A20        2.09511  -0.00081   0.00000  -0.00275  -0.00273   2.09238
   A21        2.09419  -0.00030   0.00000  -0.00094  -0.00093   2.09326
   A22        2.09264   0.00023   0.00000   0.00100   0.00099   2.09364
   A23        2.09454   0.00072   0.00000   0.00249   0.00249   2.09703
   A24        2.09601  -0.00096   0.00000  -0.00349  -0.00349   2.09252
   A25        2.10036  -0.00388   0.00000  -0.01093  -0.01092   2.08944
   A26        2.09424  -0.00002   0.00000  -0.00149  -0.00151   2.09272
   A27        2.08859   0.00390   0.00000   0.01243   0.01241   2.10099
    D1        2.24812  -0.00830   0.00000  -0.06931  -0.06557   2.18255
    D2       -0.89337  -0.00557   0.00000  -0.04514  -0.04304  -0.93641
    D3        0.28923   0.00042   0.00000  -0.00396  -0.00607   0.28316
    D4       -2.85227   0.00315   0.00000   0.02020   0.01647  -2.83580
    D5        2.24020   0.01072   0.00000   0.05798   0.05764   2.29784
    D6       -0.87236   0.01180   0.00000   0.06844   0.06798  -0.80438
    D7       -2.08180  -0.00949   0.00000  -0.04550  -0.04504  -2.12684
    D8        1.08883  -0.00842   0.00000  -0.03504  -0.03470   1.05413
    D9       -2.12800  -0.03049   0.00000  -0.23964  -0.23874  -2.36674
   D10        1.01359  -0.03040   0.00000  -0.23888  -0.23798   0.77562
   D11        1.01352  -0.03259   0.00000  -0.25815  -0.25906   0.75446
   D12       -2.12808  -0.03249   0.00000  -0.25739  -0.25829  -2.38637
   D13       -3.10813   0.00113   0.00000   0.01009   0.01007  -3.09806
   D14        0.03362   0.00071   0.00000   0.00640   0.00640   0.04002
   D15        0.00506  -0.00004   0.00000  -0.00045  -0.00048   0.00458
   D16       -3.13637  -0.00046   0.00000  -0.00414  -0.00415  -3.14052
   D17        3.10319  -0.00109   0.00000  -0.00929  -0.00934   3.09385
   D18       -0.03841  -0.00021   0.00000  -0.00170  -0.00177  -0.04018
   D19       -0.00920   0.00019   0.00000   0.00175   0.00178  -0.00742
   D20        3.13239   0.00107   0.00000   0.00934   0.00934  -3.14146
   D21        0.00463  -0.00027   0.00000  -0.00235  -0.00235   0.00228
   D22       -3.13699  -0.00029   0.00000  -0.00251  -0.00250  -3.13949
   D23       -3.13713   0.00015   0.00000   0.00133   0.00133  -3.13580
   D24        0.00444   0.00013   0.00000   0.00117   0.00117   0.00562
   D25       -0.01024   0.00046   0.00000   0.00394   0.00395  -0.00629
   D26        3.13130   0.00016   0.00000   0.00138   0.00138   3.13268
   D27        3.13137   0.00047   0.00000   0.00410   0.00411   3.13548
   D28       -0.01027   0.00017   0.00000   0.00153   0.00153  -0.00874
   D29        0.00611  -0.00031   0.00000  -0.00267  -0.00267   0.00343
   D30       -3.13551  -0.00052   0.00000  -0.00441  -0.00443  -3.13995
   D31       -3.13543  -0.00001   0.00000  -0.00011  -0.00010  -3.13553
   D32        0.00613  -0.00022   0.00000  -0.00185  -0.00186   0.00427
   D33        0.00363  -0.00004   0.00000  -0.00023  -0.00024   0.00339
   D34       -3.13796  -0.00091   0.00000  -0.00780  -0.00784   3.13739
   D35       -3.13794   0.00017   0.00000   0.00151   0.00152  -3.13642
   D36        0.00366  -0.00070   0.00000  -0.00605  -0.00609  -0.00242
         Item               Value     Threshold  Converged?
 Maximum Force            0.054142     0.000450     NO 
 RMS     Force            0.014808     0.000300     NO 
 Maximum Displacement     0.813168     0.001800     NO 
 RMS     Displacement     0.148640     0.001200     NO 
 Predicted change in Energy=-5.172025D-02
 Lowest energy point so far.  Saving SCF results.
 GradGradGradGradGradGradGradGradGradGradGradGradGradGradGradGradGradGrad

 Leave Link  103 at Mon Oct 14 01:53:22 2019, MaxMem= 10737418240 cpu:               1.0 elap:               0.1
 (Enter /apps/cent7/gaussian/g16-A.03/g16-haswell/g16/l202.exe)
                          Input orientation:                          
 ---------------------------------------------------------------------
 Center     Atomic      Atomic             Coordinates (Angstroms)
 Number     Number       Type             X           Y           Z
 ---------------------------------------------------------------------
      1          8           0       -1.719724   -1.872639    1.077452
      2         16           0       -0.473469   -1.748391    0.136390
      3          6           0       -1.160534   -2.094603   -1.454670
      4          6           0       -1.070224   -1.283734   -2.554063
      5          6           0       -0.150425   -0.002076    0.003989
      6          6           0        1.163822    0.439670    0.193517
      7          6           0        1.445757    1.807351    0.149083
      8          6           0        0.418141    2.727798   -0.080932
      9          6           0       -0.895304    2.282632   -0.275021
     10          6           0       -1.181444    0.917324   -0.234948
     11          1           0       -1.737939   -2.996328   -1.669943
     12          1           0       -1.948708   -1.106638   -3.175311
     13          1           0       -0.136040   -0.795990   -2.843252
     14          1           0        1.959263   -0.278826    0.377485
     15          1           0        2.466074    2.153286    0.294010
     16          1           0        0.639753    3.792022   -0.106605
     17          1           0       -1.693431    2.998408   -0.455295
     18          1           0       -2.198968    0.564536   -0.380786
 ---------------------------------------------------------------------
                    Distance matrix (angstroms):
                    1          2          3          4          5
     1  O    0.000000
     2  S    1.566584   0.000000
     3  C    2.602614   1.767312   0.000000
     4  C    3.735848   2.794739   1.369062   0.000000
     5  C    2.667214   1.780872   2.743479   3.005380   0.000000
     6  C    3.800388   2.733422   3.813357   3.938310   1.399395
     7  C    4.942112   4.040655   4.958833   4.815804   2.417204
     8  C    5.203493   4.569296   5.256893   4.942065   2.789747
     9  C    4.446923   4.073862   4.541157   4.235988   2.419211
    10  C    3.129861   2.783013   3.249594   3.199269   1.401922
    11  H    2.968364   2.533588   1.092175   2.039727   3.779920
    12  H    4.327261   3.681785   2.134924   1.090434   3.815996
    13  H    4.363387   3.146299   2.159663   1.092806   2.955890
    14  H    4.070029   2.852356   4.048082   4.333775   2.160295
    15  H    5.860269   4.887622   5.852754   5.694737   3.402318
    16  H    6.249600   5.656367   6.301640   5.888749   3.877085
    17  H    5.106575   4.936649   5.217422   4.809362   3.405101
    18  H    2.880270   2.931630   3.050015   3.068110   2.160007
                    6          7          8          9         10
     6  C    0.000000
     7  C    1.397145   0.000000
     8  C    2.422168   1.398616   0.000000
     9  C    2.802863   2.426175   1.400350   0.000000
    10  C    2.431462   2.800324   2.420787   1.395546   0.000000
    11  H    4.868139   6.043187   6.319751   5.524785   4.205421
    12  H    4.840239   5.573627   5.466265   4.583502   3.651144
    13  H    3.526821   4.270074   4.511609   4.080466   3.291134
    14  H    1.087569   2.160553   3.409545   3.890422   3.416122
    15  H    2.154632   1.087070   2.159787   3.411655   3.887388
    16  H    3.406316   2.157299   1.087356   2.159403   3.405454
    17  H    3.889987   3.411509   2.161507   1.087125   2.154436
    18  H    3.413762   3.887077   3.408647   2.159301   1.086776
                   11         12         13         14         15
    11  H    0.000000
    12  H    2.425177   0.000000
    13  H    2.963819   1.868832   0.000000
    14  H    5.024548   5.346014   3.876970   0.000000
    15  H    6.931764   6.492580   5.031067   2.485758   0.000000
    16  H    7.360647   6.333557   5.398235   4.306652   2.486242
    17  H    6.116715   4.931030   4.746079   4.977546   4.310125
    18  H    3.815000   3.265704   3.488616   4.310118   4.974143
                   16         17         18
    16  H    0.000000
    17  H    2.489006   0.000000
    18  H    4.306991   2.486936   0.000000
 Stoichiometry    C8H8OS
 Framework group  C1[X(C8H8OS)]
 Deg. of freedom    48
 Full point group                 C1      NOp   1
 RotChk:  IX=0 Diff= 1.52D-01
 Largest Abelian subgroup         C1      NOp   1
 Largest concise Abelian subgroup C1      NOp   1
                         Standard orientation:                         
 ---------------------------------------------------------------------
 Center     Atomic      Atomic             Coordinates (Angstroms)
 Number     Number       Type             X           Y           Z
 ---------------------------------------------------------------------
      1          8           0       -1.919208   -1.117489    1.305155
      2         16           0       -1.474836   -0.787980   -0.160500
      3          6           0       -2.240143    0.778822   -0.448301
      4          6           0       -1.594876    1.918235   -0.847924
      5          6           0        0.240000   -0.321970   -0.043548
      6          6           0        1.143622   -0.910773   -0.935222
      7          6           0        2.504424   -0.609142   -0.839031
      8          6           0        2.958702    0.274392    0.145410
      9          6           0        2.051633    0.865855    1.033317
     10          6           0        0.690975    0.570411    0.939134
     11          1           0       -3.308268    0.954769   -0.303398
     12          1           0       -1.823636    2.871257   -0.369944
     13          1           0       -0.844760    1.914893   -1.642619
     14          1           0        0.787161   -1.601482   -1.695921
     15          1           0        3.208437   -1.063514   -1.531587
     16          1           0        4.019483    0.500464    0.222715
     17          1           0        2.405077    1.553730    1.797350
     18          1           0       -0.018490    1.022499    1.627145
 ---------------------------------------------------------------------
 Rotational constants (GHZ):           2.1365409           0.8205343           0.7639916
 Leave Link  202 at Mon Oct 14 01:53:22 2019, MaxMem= 10737418240 cpu:               0.4 elap:               0.0
 (Enter /apps/cent7/gaussian/g16-A.03/g16-haswell/g16/l301.exe)
 Standard basis: 6-31G(d) (6D, 7F)
 Ernie: Thresh=  0.10000D-02 Tol=  0.10000D-05 Strict=F.
 There are   170 symmetry adapted cartesian basis functions of A   symmetry.
 There are   170 symmetry adapted basis functions of A   symmetry.
   170 basis functions,   336 primitive gaussians,   170 cartesian basis functions
    40 alpha electrons       40 beta electrons
       nuclear repulsion energy       577.6970760415 Hartrees.
 IExCor=  402 DFT=T Ex+Corr=B3LYP ExCW=0 ScaHFX=  0.200000
 ScaDFX=  0.800000  0.720000  1.000000  0.810000 ScalE2=  1.000000  1.000000
 IRadAn=      5 IRanWt=     -1 IRanGd=            0 ICorTp=0 IEmpDi=  4
 NAtoms=   18 NActive=   18 NUniq=   18 SFac= 1.00D+00 NAtFMM=   60 NAOKFM=F Big=F
 Integral buffers will be    131072 words long.
 Raffenetti 2 integral format.
 Two-electron integral symmetry is turned on.
 Leave Link  301 at Mon Oct 14 01:53:22 2019, MaxMem= 10737418240 cpu:               2.0 elap:               0.1
 (Enter /apps/cent7/gaussian/g16-A.03/g16-haswell/g16/l302.exe)
 NPDir=0 NMtPBC=     1 NCelOv=     1 NCel=       1 NClECP=     1 NCelD=      1
         NCelK=      1 NCelE2=     1 NClLst=     1 CellRange=     0.0.
 One-electron integrals computed using PRISM.
 One-electron integral symmetry used in STVInt
 NBasis=   170 RedAO= T EigKep=  5.10D-04  NBF=   170
 NBsUse=   170 1.00D-06 EigRej= -1.00D+00 NBFU=   170
 Precomputing XC quadrature grid using
 IXCGrd= 4 IRadAn=           5 IRanWt=          -1 IRanGd=           0 AccXCQ= 0.00D+00.
 Generated NRdTot=       0 NPtTot=           0 NUsed=           0 NTot=          32
 NSgBfM=   170   170   170   170   170 MxSgAt=    18 MxSgA2=    18.
 Leave Link  302 at Mon Oct 14 01:53:22 2019, MaxMem= 10737418240 cpu:               3.1 elap:               0.1
 (Enter /apps/cent7/gaussian/g16-A.03/g16-haswell/g16/l303.exe)
 DipDrv:  MaxL=1.
 Leave Link  303 at Mon Oct 14 01:53:22 2019, MaxMem= 10737418240 cpu:               0.7 elap:               0.0
 (Enter /apps/cent7/gaussian/g16-A.03/g16-haswell/g16/l401.exe)
 Initial guess from the checkpoint file:  "34.chk"
 B after Tr=    -0.000000   -0.000000   -0.000000
         Rot=    0.998643    0.044612    0.014796    0.022441 Ang=   5.97 deg.
 Guess basis will be translated and rotated to current coordinates.
 JPrj=2 DoOrth=T DoCkMO=T.
 Generating alternative initial guess.
 ExpMin= 1.17D-01 ExpMax= 2.19D+04 ExpMxC= 3.30D+03 IAcc=2 IRadAn=         4 AccDes= 0.00D+00
 Harris functional with IExCor=  402 and IRadAn=       4 diagonalized for initial guess.
 HarFok:  IExCor=  402 AccDes= 0.00D+00 IRadAn=         4 IDoV= 1 UseB2=F ITyADJ=14
 ICtDFT=  3500011 ScaDFX=  1.000000  1.000000  1.000000  1.000000
 FoFCou: FMM=F IPFlag=           0 FMFlag=      100000 FMFlg1=           0
         NFxFlg=           0 DoJE=T BraDBF=F KetDBF=T FulRan=T
         wScrn=  0.000000 ICntrl=       500 IOpCl=  0 I1Cent=   200000004 NGrid=           0
         NMat0=    1 NMatS0=      1 NMatT0=    0 NMatD0=    1 NMtDS0=    0 NMtDT0=    0
 Petite list used in FoFCou.
 Harris En= -782.981818416090    
 Leave Link  401 at Mon Oct 14 01:53:22 2019, MaxMem= 10737418240 cpu:               7.1 elap:               0.3
 (Enter /apps/cent7/gaussian/g16-A.03/g16-haswell/g16/l502.exe)
 Integral symmetry usage will be decided dynamically.
 Closed shell SCF:
 Using DIIS extrapolation, IDIIS=  1040.
 NGot= 10737418240 LenX= 10737354419 LenY= 10737325078
 Requested convergence on RMS density matrix=1.00D-08 within 128 cycles.
 Requested convergence on MAX density matrix=1.00D-06.
 Requested convergence on             energy=1.00D-06.
 No special actions if energy rises.
 Fock matrices will be formed incrementally for  20 cycles.
 Integral accuracy reduced to 1.0D-05 until final iterations.

 Cycle   1  Pass 0  IDiag  1:
 FoFJK:  IHMeth= 1 ICntrl=       0 DoSepK=F KAlg= 0 I1Cent=           0 FoldK=F
 IRaf= 930000000 NMat=       1 IRICut=       1 DoRegI=T DoRafI=F ISym2E= 0 IDoP0=0 IntGTp=1.
 FoFCou: FMM=F IPFlag=           0 FMFlag=      100000 FMFlg1=           0
         NFxFlg=           0 DoJE=F BraDBF=F KetDBF=F FulRan=T
         wScrn=  0.000000 ICntrl=         0 IOpCl=  0 I1Cent=           0 NGrid=           0
         NMat0=    1 NMatS0=      1 NMatT0=    0 NMatD0=    1 NMtDS0=    0 NMtDT0=    0
 Symmetry not used in FoFCou.
 E= -782.925033671519    
 DIIS: error= 7.32D-03 at cycle   1 NSaved=   1.
 NSaved= 1 IEnMin= 1 EnMin= -782.925033671519     IErMin= 1 ErrMin= 7.32D-03
 ErrMax= 7.32D-03  0.00D+00 EMaxC= 1.00D-01 BMatC= 9.17D-03 BMatP= 9.17D-03
 IDIUse=3 WtCom= 9.27D-01 WtEn= 7.32D-02
 Coeff-Com:  0.100D+01
 Coeff-En:   0.100D+01
 Coeff:      0.100D+01
 Gap=     1.852 Goal=   None    Shift=    0.000
 GapD=    1.852 DampG=2.000 DampE=1.000 DampFc=2.0000 IDamp=-1.
 RMSDP=1.46D-03 MaxDP=2.88D-02              OVMax= 4.38D-02

 Cycle   2  Pass 0  IDiag  1:
 RMSU=  1.45D-03    CP:  9.96D-01
 E= -782.943588119096     Delta-E=       -0.018554447577 Rises=F Damp=F
 DIIS: error= 3.23D-03 at cycle   2 NSaved=   2.
 NSaved= 2 IEnMin= 2 EnMin= -782.943588119096     IErMin= 2 ErrMin= 3.23D-03
 ErrMax= 3.23D-03  0.00D+00 EMaxC= 1.00D-01 BMatC= 1.38D-03 BMatP= 9.17D-03
 IDIUse=3 WtCom= 9.68D-01 WtEn= 3.23D-02
 Coeff-Com:  0.119D+00 0.881D+00
 Coeff-En:   0.000D+00 0.100D+01
 Coeff:      0.115D+00 0.885D+00
 Gap=     0.146 Goal=   None    Shift=    0.000
 RMSDP=9.26D-04 MaxDP=2.73D-02 DE=-1.86D-02 OVMax= 3.54D-02

 Cycle   3  Pass 0  IDiag  1:
 RMSU=  8.95D-04    CP:  1.00D+00  8.69D-01
 E= -782.940120367920     Delta-E=        0.003467751175 Rises=F Damp=F
 DIIS: error= 7.38D-03 at cycle   3 NSaved=   3.
 NSaved= 3 IEnMin= 2 EnMin= -782.943588119096     IErMin= 2 ErrMin= 3.23D-03
 ErrMax= 7.38D-03  0.00D+00 EMaxC= 1.00D-01 BMatC= 5.66D-03 BMatP= 1.38D-03
 IDIUse=3 WtCom= 1.04D-01 WtEn= 8.96D-01
 Coeff-Com: -0.466D-01 0.702D+00 0.345D+00
 Coeff-En:   0.000D+00 0.734D+00 0.266D+00
 Coeff:     -0.486D-02 0.730D+00 0.274D+00
 Gap=     0.153 Goal=   None    Shift=    0.000
 RMSDP=5.06D-04 MaxDP=1.37D-02 DE= 3.47D-03 OVMax= 1.86D-02

 Cycle   4  Pass 0  IDiag  1:
 RMSU=  8.99D-05    CP:  9.97D-01  9.77D-01  4.81D-01
 E= -782.944829447349     Delta-E=       -0.004709079428 Rises=F Damp=F
 DIIS: error= 9.26D-04 at cycle   4 NSaved=   4.
 NSaved= 4 IEnMin= 4 EnMin= -782.944829447349     IErMin= 4 ErrMin= 9.26D-04
 ErrMax= 9.26D-04  0.00D+00 EMaxC= 1.00D-01 BMatC= 1.51D-04 BMatP= 1.38D-03
 IDIUse=3 WtCom= 9.91D-01 WtEn= 9.26D-03
 Coeff-Com: -0.255D-01 0.270D+00 0.186D-01 0.737D+00
 Coeff-En:   0.000D+00 0.349D-01 0.000D+00 0.965D+00
 Coeff:     -0.253D-01 0.268D+00 0.184D-01 0.739D+00
 Gap=     0.155 Goal=   None    Shift=    0.000
 RMSDP=1.08D-04 MaxDP=3.07D-03 DE=-4.71D-03 OVMax= 3.76D-03

 Cycle   5  Pass 0  IDiag  1:
 RMSU=  4.18D-05    CP:  9.97D-01  1.01D+00  3.84D-01  8.45D-01
 E= -782.944962387691     Delta-E=       -0.000132940342 Rises=F Damp=F
 DIIS: error= 1.57D-04 at cycle   5 NSaved=   5.
 NSaved= 5 IEnMin= 5 EnMin= -782.944962387691     IErMin= 5 ErrMin= 1.57D-04
 ErrMax= 1.57D-04  0.00D+00 EMaxC= 1.00D-01 BMatC= 5.16D-06 BMatP= 1.51D-04
 IDIUse=3 WtCom= 9.98D-01 WtEn= 1.57D-03
 Coeff-Com: -0.806D-02 0.670D-01-0.242D-01 0.381D+00 0.584D+00
 Coeff-En:   0.000D+00 0.000D+00 0.000D+00 0.000D+00 0.100D+01
 Coeff:     -0.805D-02 0.669D-01-0.242D-01 0.381D+00 0.585D+00
 Gap=     0.155 Goal=   None    Shift=    0.000
 RMSDP=2.13D-05 MaxDP=4.81D-04 DE=-1.33D-04 OVMax= 1.17D-03

 Cycle   6  Pass 0  IDiag  1:
 RMSU=  1.42D-05    CP:  9.97D-01  1.01D+00  3.90D-01  9.45D-01  7.16D-01
 E= -782.944967464192     Delta-E=       -0.000005076501 Rises=F Damp=F
 DIIS: error= 8.96D-05 at cycle   6 NSaved=   6.
 NSaved= 6 IEnMin= 6 EnMin= -782.944967464192     IErMin= 6 ErrMin= 8.96D-05
 ErrMax= 8.96D-05  0.00D+00 EMaxC= 1.00D-01 BMatC= 1.00D-06 BMatP= 5.16D-06
 IDIUse=1 WtCom= 1.00D+00 WtEn= 0.00D+00
 Coeff-Com: -0.704D-03-0.347D-02-0.190D-01 0.113D+00 0.348D+00 0.562D+00
 Coeff:     -0.704D-03-0.347D-02-0.190D-01 0.113D+00 0.348D+00 0.562D+00
 Gap=     0.155 Goal=   None    Shift=    0.000
 RMSDP=8.31D-06 MaxDP=1.61D-04 DE=-5.08D-06 OVMax= 4.92D-04

 Initial convergence to 1.0D-05 achieved.  Increase integral accuracy.
 Cycle   7  Pass 1  IDiag  1:
 E= -782.944961202549     Delta-E=        0.000006261643 Rises=F Damp=F
 DIIS: error= 2.26D-05 at cycle   1 NSaved=   1.
 NSaved= 1 IEnMin= 1 EnMin= -782.944961202549     IErMin= 1 ErrMin= 2.26D-05
 ErrMax= 2.26D-05  0.00D+00 EMaxC= 1.00D-01 BMatC= 1.45D-07 BMatP= 1.45D-07
 IDIUse=1 WtCom= 1.00D+00 WtEn= 0.00D+00
 Coeff-Com:  0.100D+01
 Coeff:      0.100D+01
 Gap=     0.155 Goal=   None    Shift=    0.000
 RMSDP=8.31D-06 MaxDP=1.61D-04 DE= 6.26D-06 OVMax= 3.36D-04

 Cycle   8  Pass 1  IDiag  1:
 RMSU=  7.71D-06    CP:  1.00D+00
 E= -782.944960876258     Delta-E=        0.000000326291 Rises=F Damp=F
 DIIS: error= 4.42D-05 at cycle   2 NSaved=   2.
 NSaved= 2 IEnMin= 1 EnMin= -782.944961202549     IErMin= 1 ErrMin= 2.26D-05
 ErrMax= 4.42D-05  0.00D+00 EMaxC= 1.00D-01 BMatC= 4.34D-07 BMatP= 1.45D-07
 IDIUse=1 WtCom= 1.00D+00 WtEn= 0.00D+00
 Coeff-Com:  0.642D+00 0.358D+00
 Coeff:      0.642D+00 0.358D+00
 Gap=     0.155 Goal=   None    Shift=    0.000
 RMSDP=4.78D-06 MaxDP=1.26D-04 DE= 3.26D-07 OVMax= 2.30D-04

 Cycle   9  Pass 1  IDiag  1:
 RMSU=  2.52D-06    CP:  1.00D+00  4.75D-01
 E= -782.944961347647     Delta-E=       -0.000000471389 Rises=F Damp=F
 DIIS: error= 7.87D-06 at cycle   3 NSaved=   3.
 NSaved= 3 IEnMin= 3 EnMin= -782.944961347647     IErMin= 3 ErrMin= 7.87D-06
 ErrMax= 7.87D-06  0.00D+00 EMaxC= 1.00D-01 BMatC= 1.51D-08 BMatP= 1.45D-07
 IDIUse=1 WtCom= 1.00D+00 WtEn= 0.00D+00
 Coeff-Com:  0.268D+00 0.195D+00 0.537D+00
 Coeff:      0.268D+00 0.195D+00 0.537D+00
 Gap=     0.155 Goal=   None    Shift=    0.000
 RMSDP=1.18D-06 MaxDP=3.56D-05 DE=-4.71D-07 OVMax= 4.49D-05

 Cycle  10  Pass 1  IDiag  1:
 RMSU=  9.73D-07    CP:  1.00D+00  5.23D-01  7.94D-01
 E= -782.944961358648     Delta-E=       -0.000000011002 Rises=F Damp=F
 DIIS: error= 4.99D-06 at cycle   4 NSaved=   4.
 NSaved= 4 IEnMin= 4 EnMin= -782.944961358648     IErMin= 4 ErrMin= 4.99D-06
 ErrMax= 4.99D-06  0.00D+00 EMaxC= 1.00D-01 BMatC= 3.79D-09 BMatP= 1.51D-08
 IDIUse=1 WtCom= 1.00D+00 WtEn= 0.00D+00
 Coeff-Com:  0.333D-01 0.502D-01 0.356D+00 0.560D+00
 Coeff:      0.333D-01 0.502D-01 0.356D+00 0.560D+00
 Gap=     0.155 Goal=   None    Shift=    0.000
 RMSDP=5.57D-07 MaxDP=1.38D-05 DE=-1.10D-08 OVMax= 2.15D-05

 Cycle  11  Pass 1  IDiag  1:
 RMSU=  3.10D-07    CP:  1.00D+00  5.12D-01  8.61D-01  5.75D-01
 E= -782.944961361467     Delta-E=       -0.000000002818 Rises=F Damp=F
 DIIS: error= 1.77D-06 at cycle   5 NSaved=   5.
 NSaved= 5 IEnMin= 5 EnMin= -782.944961361467     IErMin= 5 ErrMin= 1.77D-06
 ErrMax= 1.77D-06  0.00D+00 EMaxC= 1.00D-01 BMatC= 5.88D-10 BMatP= 3.79D-09
 IDIUse=1 WtCom= 1.00D+00 WtEn= 0.00D+00
 Coeff-Com:  0.470D-03 0.177D-01 0.193D+00 0.382D+00 0.407D+00
 Coeff:      0.470D-03 0.177D-01 0.193D+00 0.382D+00 0.407D+00
 Gap=     0.155 Goal=   None    Shift=    0.000
 RMSDP=1.96D-07 MaxDP=4.92D-06 DE=-2.82D-09 OVMax= 8.46D-06

 Cycle  12  Pass 1  IDiag  1:
 RMSU=  8.47D-08    CP:  1.00D+00  5.18D-01  8.61D-01  6.32D-01  4.83D-01
 E= -782.944961362048     Delta-E=       -0.000000000582 Rises=F Damp=F
 DIIS: error= 2.59D-07 at cycle   6 NSaved=   6.
 NSaved= 6 IEnMin= 6 EnMin= -782.944961362048     IErMin= 6 ErrMin= 2.59D-07
 ErrMax= 2.59D-07  0.00D+00 EMaxC= 1.00D-01 BMatC= 1.64D-11 BMatP= 5.88D-10
 IDIUse=1 WtCom= 1.00D+00 WtEn= 0.00D+00
 Coeff-Com: -0.292D-02 0.510D-02 0.678D-01 0.151D+00 0.199D+00 0.581D+00
 Coeff:     -0.292D-02 0.510D-02 0.678D-01 0.151D+00 0.199D+00 0.581D+00
 Gap=     0.155 Goal=   None    Shift=    0.000
 RMSDP=4.15D-08 MaxDP=1.12D-06 DE=-5.82D-10 OVMax= 2.71D-06

 Cycle  13  Pass 1  IDiag  1:
 RMSU=  3.18D-08    CP:  1.00D+00  5.17D-01  8.62D-01  6.25D-01  5.28D-01
                    CP:  7.52D-01
 E= -782.944961362059     Delta-E=       -0.000000000010 Rises=F Damp=F
 DIIS: error= 1.31D-07 at cycle   7 NSaved=   7.
 NSaved= 7 IEnMin= 7 EnMin= -782.944961362059     IErMin= 7 ErrMin= 1.31D-07
 ErrMax= 1.31D-07  0.00D+00 EMaxC= 1.00D-01 BMatC= 4.96D-12 BMatP= 1.64D-11
 IDIUse=1 WtCom= 1.00D+00 WtEn= 0.00D+00
 Coeff-Com: -0.203D-02 0.142D-02 0.227D-01 0.573D-01 0.809D-01 0.382D+00
 Coeff-Com:  0.458D+00
 Coeff:     -0.203D-02 0.142D-02 0.227D-01 0.573D-01 0.809D-01 0.382D+00
 Coeff:      0.458D+00
 Gap=     0.155 Goal=   None    Shift=    0.000
 RMSDP=1.79D-08 MaxDP=4.82D-07 DE=-1.02D-11 OVMax= 9.01D-07

 Cycle  14  Pass 1  IDiag  1:
[...]
 1424096,-0.0446583,0.0636514,-0.1759718,-0.0234887,-0.039643,-0.009341
 8,-0.0565328,0.1038452,-0.0803324,-0.0148569,-0.0804034,-0.0086211,-0.
 0134014,-0.0141984,-0.092553,-0.0230151,0.1190995,-0.0307844,0.020073,
 -0.0387042,0.0614507,-0.0541998,-0.0070782,-0.0669408,-0.0949381,0.068
 5658,-0.0610051,-0.0028179,-0.0649486,0.0117978,0.016074,-0.0055351,0.
 0278108,0.0919507,0.0197951,0.0610031,0.0106162,0.0861191,-0.0062611,-
 0.0005535,0.0184231,0.0034512,0.1014522,-0.0965212,-0.0517576,0.023033
 2,-0.0460753,0.0313464,-0.001189,0.0306265,0.0096347,0.1092637,0.05292
 67,-0.0488086,0.0074506,-0.0491798,-0.099884,0.005064,0.0108556,0.0094
 85,0.1091567,-0.0104696,0.0800979,0.0189649,0.0697632,-0.0569826,-0.01
 87593,0.0235972,-0.0071285,0.1069261,0.0301116,0.0063658,0.0106967,-0.
 0233531,0.1258913,0.023282,0.0167266,-0.0012202,0.1116897\Polar=95.485
 7152,15.5659602,123.3205151,-11.7675801,5.5628749,76.4977987\Quadrupol
 e=-1.8059433,3.619145,-1.8132017,-1.8971675,2.2056961,4.1496864\PG=C01
  [X(C8H8O1S1)]\NImag=0\\0.38696717,0.00715312,0.03939370,-0.16433488,-
 0.00120256,0.10891495,-0.38180528,0.02492667,0.12298379,0.49184423,0.0
 0453776,-0.05078143,-0.00095378,-0.00175313,0.26434245,0.13845289,-0.0
 0750792,-0.09501237,-0.10599580,0.00958243,0.27465382,0.00255885,0.002
 43953,0.03604622,-0.05784933,-0.01470397,-0.04267916,0.28988208,-0.010
 45931,0.00660174,0.00006090,0.00569724,-0.05661088,-0.00087866,0.26797
 195,0.51747019,0.00704722,-0.00179232,-0.01168025,-0.00709397,-0.01509
 695,-0.11324644,-0.13028079,-0.15142173,0.58450178,0.00190225,-0.00003
 848,-0.00157285,0.00324251,0.00363221,0.00076447,-0.12325117,-0.112253
 60,0.13449010,0.28470173,0.00443608,-0.00050420,-0.00437151,0.00108970
 ,0.00914812,-0.00030802,-0.11196625,-0.19956874,0.16679789,0.27850818,
 0.55309689,0.00487928,-0.00012517,-0.00161174,-0.00072513,0.00381925,-
 0.02860986,0.14470265,0.18566594,-0.39444747,-0.09858333,-0.06569273,0
 .77147001,-0.00869694,-0.03245726,0.00849227,-0.06041582,0.02505659,0.
 00506058,0.00205558,-0.00812398,-0.00528732,-0.00032756,-0.00052675,0.
 00032458,0.65590622,0.00113224,0.00483824,0.00170290,-0.02044021,-0.12
 092403,0.00308588,-0.00083166,-0.00743439,-0.00510386,-0.00055702,-0.0
 0031513,0.00147796,-0.04992842,0.50419594,0.01061184,0.00616088,-0.001
 29887,0.00154695,0.02087725,-0.04197227,-0.00532549,-0.02514724,0.0052
 2620,0.00069658,0.00066794,-0.00117012,-0.08032236,0.00602745,0.143577
 79,0.00197093,0.00209613,-0.00052670,-0.00404302,-0.01382167,0.0017583
 7,0.00005010,0.00141245,-0.00064513,-0.00051555,-0.00006554,0.00032867
 ,-0.31952380,-0.05979625,0.03702456,0.68312353,-0.00552334,-0.00517618
 ,0.00342186,-0.02104743,-0.00546249,0.00197550,0.00053908,-0.00045640,
 -0.00049298,-0.00051316,-0.00077858,-0.00130424,-0.01287138,-0.1230532
 2,0.00578345,-0.04210416,0.70453758,0.00050864,0.00128534,0.00044678,0
 .00209804,0.00141100,-0.00005911,0.00058679,0.00005096,-0.00192535,-0.
 00066586,-0.00105938,-0.00078811,0.03339243,0.01200442,-0.05954754,-0.
 07302872,-0.00855299,0.13872576,-0.00121591,-0.00189226,0.00114698,-0.
 00381812,0.00116791,0.00099477,0.00083377,0.00038585,-0.00008874,-0.00
 001416,-0.00023643,-0.00024104,-0.00257141,-0.03497866,0.00217205,-0.1
 4130759,-0.08967180,0.01277237,0.72811889,0.00068029,-0.00086246,-0.00
 098499,-0.00056027,0.00572477,0.00058054,-0.00010655,-0.00113536,0.000
 92978,0.00024132,0.00064360,0.00051262,-0.08661957,0.00393821,0.011855
 77,-0.02205385,-0.32203782,0.00909276,0.01504402,0.67131037,-0.0002667
 1,-0.00041141,-0.00002433,0.00203498,0.00044967,0.00460848,0.00021616,
 0.00140748,-0.00015089,0.00010349,0.00036423,-0.00011188,0.00202012,0.
 00388379,0.00754379,0.01222917,0.01795973,-0.06067574,-0.08503719,-0.0
 1086209,0.14193520,-0.00006001,-0.00085799,-0.00059169,-0.00194003,0.0
 0172250,0.00056976,0.00015156,-0.00069099,0.00106920,0.00011827,0.0005
 7781,0.00024055,-0.06234844,0.01755854,0.00703840,0.05698500,0.0515704
 7,-0.00802267,-0.22687612,0.07032323,0.02249154,0.66461193,-0.00011297
 ,-0.00006103,0.00019669,0.00102484,-0.00064297,-0.00052626,-0.00047469
 ,0.00012192,0.00010216,-0.00018161,-0.00047271,-0.00018689,0.01910054,
 -0.00639922,-0.00190359,0.00237557,-0.05128297,0.00095057,0.13669826,-
 0.23916197,-0.01777781,0.01860565,0.73973807,0.00012376,0.00014240,-0.
 00000363,0.00028051,-0.00008485,-0.00053030,-0.00005855,-0.00020953,-0
 .00000657,0.00002999,0.00003550,0.00002285,0.00778805,-0.00275535,-0.0
 0837273,-0.00757623,-0.00665869,0.00790631,0.02228270,-0.00846160,-0.0
 6378237,-0.07947119,-0.00987800,0.14527239,0.00188767,-0.00249201,0.00
 011058,-0.00284097,0.00514660,0.00142242,-0.00070430,0.00031541,-0.001
 17659,-0.00003466,-0.00046711,0.00000804,0.05443867,0.00286992,-0.0061
 4138,-0.03573055,-0.03277301,0.00565868,-0.04621447,0.05712407,0.00685
 334,-0.32117182,-0.07832746,0.04078052,0.68941021,-0.00057230,0.001791
 95,0.00050573,0.00449489,-0.00011156,-0.00126936,-0.00041207,0.0001675
 6,-0.00083622,-0.00014039,-0.00033755,-0.00023741,0.05305847,-0.053572
 98,-0.00653348,-0.03322444,-0.03230870,0.00560016,0.00910939,0.0562252
 1,-0.00197856,-0.01202685,-0.14140419,0.00247935,-0.03781781,0.7105401
 0,-0.00114922,0.00102367,0.00025257,0.00201035,-0.00280020,0.00484630,
 0.00058699,0.00192692,0.00010629,0.00002172,0.00003038,-0.00004099,-0.
 00772239,-0.00016066,0.00838011,0.00492359,0.00506076,-0.00785368,0.00
 781755,-0.00874687,0.00621056,0.04073628,0.01228087,-0.06734408,-0.086
 92223,-0.00034896,0.14601000,-0.00357901,0.00326995,0.00092119,0.01522
 384,-0.00478413,-0.00483079,-0.00056074,-0.00130047,0.00101314,0.00011
 698,-0.00004555,-0.00049374,-0.22500911,0.12672129,0.02729125,-0.04445
 974,0.00943199,0.00738332,-0.00453190,0.01664151,-0.00049595,0.0024494
 8,-0.03703266,0.00095820,-0.14386188,-0.09239609,0.01395115,0.71862826
 ,0.00031936,0.00273850,-0.00165871,0.01025005,-0.03929429,0.00051035,0
 .00043264,-0.00038261,0.00346028,0.00005954,0.00066970,0.00008032,0.08
 080589,-0.21426409,-0.01339690,0.05379444,0.05187515,-0.01030681,0.014
 54697,-0.06447424,-0.00101445,-0.08465547,0.00697466,0.01305180,-0.025
 42988,-0.32471948,0.00714909,0.02968087,0.67561418,-0.00021886,0.00027
 505,0.00050425,-0.00063389,0.00259826,0.00125440,0.00008893,-0.0004372
 2,-0.00032755,-0.00009357,-0.00021307,0.00009356,0.02735772,-0.0201819
 4,-0.06248140,0.00534253,-0.00307274,0.00647051,-0.00054410,-0.0013911
 7,-0.00700709,0.00182565,0.00552493,0.00647133,0.01303187,0.01796714,-
 0.06290392,-0.09730549,-0.01026199,0.14888885,0.00067410,0.00048495,-0
 .00124470,0.00027883,-0.00359990,0.00250525,-0.11746280,-0.13422992,-0
 .01172983,-0.00060341,-0.00949449,-0.00175525,0.00054763,0.00082879,-0
 .00011452,0.00003068,-0.00038177,-0.00007359,-0.00010555,0.00029056,-0
 .00003595,0.00023699,-0.00004720,-0.00006238,-0.00009862,-0.00021757,0
 .00000281,-0.00022589,0.00012497,-0.00004509,0.11364190,0.00246398,0.0
 0068190,0.00083066,-0.00533378,-0.00404217,-0.00104693,-0.13503042,-0.
 25809586,-0.01498371,-0.00683807,-0.00722263,-0.00337497,-0.00123979,-
 0.00003432,-0.00075918,0.00016424,0.00012210,0.00003208,0.00011987,-0.
 00030443,0.00009248,-0.00018695,0.00003073,0.00001709,-0.00004312,0.00
 011285,0.00006132,-0.00001171,0.00026534,-0.00006753,0.14753360,0.2666
 8967,0.00245113,0.00251604,0.00256789,-0.01501555,-0.02262137,-0.00512
 170,-0.01368635,-0.02298181,-0.05118941,0.01506277,0.02507939,0.004341
 24,-0.00048530,0.00052035,-0.00536892,0.00033191,-0.00049562,0.0002964
 8,0.00007361,-0.00022378,0.00045202,-0.00015180,-0.00022108,-0.0000612
 4,0.00005705,0.00002122,0.00049907,-0.00050465,-0.00045183,0.00000274,
 0.01062254,0.01759812,0.05663166,-0.00236326,0.00024747,-0.00372369,0.
 01107158,-0.00437423,0.00712097,0.00628861,0.00244947,0.01143364,-0.04
 807512,-0.02755257,-0.04006474,-0.00101564,-0.00089124,-0.00103408,0.0
 0003203,-0.00028302,-0.00026902,-0.00002051,0.00015847,-0.00009170,0.0
 0010355,0.00005012,-0.00000297,-0.00005975,-0.00007525,0.00007703,-0.0
 0002711,0.00028698,-0.00004667,-0.00523374,0.00402223,-0.00048840,0.03
 784262,0.00003224,0.00000315,0.00329754,-0.00674351,0.00080438,-0.0024
 8067,0.00079187,0.00886596,0.01737738,-0.02653868,-0.09323534,-0.10318
 938,0.00038785,0.00003893,-0.00036977,0.00017705,0.00023331,-0.0002968
 5,0.00012758,0.00015612,-0.00009258,0.00006545,0.00002503,0.00000834,-
 0.00005515,-0.00004842,0.00001898,-0.00009906,0.00027105,-0.00000923,0
 .00385205,-0.00133632,0.00027296,0.03098696,0.08909039,0.00161214,0.00
 014447,-0.00160051,0.00065611,0.00130911,0.00236124,-0.00343193,-0.009
 37766,-0.02275171,-0.03947809,-0.10076333,-0.29039308,-0.00001995,0.00
 046242,0.00024762,0.00008996,-0.00015927,0.00007303,-0.00003271,-0.000
 03956,0.00001147,-0.00004888,-0.00003435,0.00001152,0.00004089,0.00004
 551,-0.00002255,-0.00006191,-0.00018126,0.00002893,-0.00035545,0.00052
 018,0.00120120,0.04044250,0.10745832,0.30920525,0.00056842,-0.00016868
 ,0.00232617,-0.00606165,0.00168582,-0.00462406,-0.00188092,-0.01054575
 ,0.00077158,-0.11737582,-0.13399224,-0.00861781,0.00079952,0.00063381,
 -0.00042686,0.00015226,0.00035512,-0.00024969,-0.00000859,-0.00042464,
 0.00006002,-0.00012139,-0.00002456,0.00005088,-0.00005696,0.00024153,-
 0.00003397,-0.00017558,0.00026857,-0.00007948,0.00835370,-0.00567040,0
 .00203642,0.00137658,-0.00305343,0.00059050,0.11462008,-0.00049922,0.0
 0025487,-0.00117821,0.00345119,-0.00233016,0.00037349,-0.00797559,-0.0
 0889372,0.00079406,-0.13535919,-0.26144956,-0.01733934,0.00002737,-0.0
 0005242,-0.00184419,-0.00033913,-0.00023023,-0.00060535,-0.00011322,-0
 .00000644,-0.00027720,0.00012686,-0.00009938,0.00002185,-0.00000196,-0
 .00017888,-0.00000471,-0.00013348,0.00029973,0.00002650,-0.00521005,0.
 00323936,0.00118514,-0.00493792,-0.00476106,0.00059610,0.15066475,0.27
 433462,-0.00027052,-0.00037720,0.00024733,0.00027108,0.00137355,0.0005
 0142,0.01379897,0.02292147,0.00574598,-0.01064816,-0.02036005,-0.05854
 316,0.00054865,0.00050081,-0.00126996,-0.00059875,-0.00044587,-0.00048
 169,-0.00021261,-0.00058754,-0.00003179,-0.00029512,0.00012822,-0.0000
 3437,0.00022376,0.00019862,-0.00011330,0.00014445,-0.00059844,0.000027
 57,0.00211943,0.00125197,-0.00366974,-0.01343379,-0.02211018,0.0016796
 4,0.00841699,0.01790522,0.05593064,0.00040141,-0.00032305,0.00038193,-
 0.00035011,0.00158089,-0.00113275,-0.00007501,-0.00043752,0.00033493,0
 .00009246,-0.00013842,0.00001339,-0.01687444,0.02280811,0.00167711,-0.
 18842209,0.13773318,0.01650696,0.01032901,-0.00780640,-0.00087654,0.00
 040081,-0.00225235,0.00091401,-0.00025717,-0.00096663,-0.00003599,-0.0
 0460326,-0.00332929,0.00164987,0.00000483,0.00000943,-0.00014707,0.000
 06616,0.00004798,0.00003303,-0.00010409,0.00027250,-0.00007875,0.19885
 907,0.00064584,-0.00018014,-0.00025385,-0.00060430,0.00071750,0.000025
 23,-0.00012356,-0.00006556,-0.00012083,-0.00008726,0.00020352,-0.00003
 758,-0.00511634,0.00993672,0.00041792,0.13660018,-0.20679431,-0.013029
 74,0.02294413,-0.01695232,-0.00295599,-0.00345874,-0.00428487,0.000764
 61,-0.00098922,-0.00022121,0.00013914,-0.00175667,0.00021217,0.0005117
 1,0.00005236,-0.00005710,0.00002255,-0.00006387,-0.00003787,0.00002017
 ,0.00003595,-0.00012197,0.00003761,-0.14867708,0.21695795,0.00003793,0
 .00036295,-0.00006300,-0.00121781,-0.00060663,-0.00197406,-0.00017136,
 -0.00060134,0.00010440,-0.00001759,-0.00018870,-0.00007019,0.00278114,
 -0.00335560,0.00070931,0.01668842,-0.01256487,-0.03691589,-0.00165419,
 0.00122020,0.00299917,0.00099747,0.00058122,0.00706391,0.00004766,0.00
 016743,-0.00036525,0.00194701,0.00034208,0.00625485,0.00012599,-0.0001
 2455,-0.00026806,0.00007606,0.00010089,-0.00002097,-0.00029495,0.00026
 701,-0.00010096,-0.01860042,0.01467449,0.02697752,-0.00023803,-0.00017
 802,0.00010347,0.00016240,0.00068346,-0.00006135,0.00000721,-0.0000251
 9,0.00005629,-0.00001904,-0.00006442,-0.00006976,0.00149124,-0.0017594
 8,0.00087232,-0.00441513,-0.00001787,0.00089532,-0.31921692,-0.0623688
 4,0.04041295,-0.01619118,-0.00768235,0.00266897,-0.00067070,0.00400537
 ,0.00101633,0.00049998,0.00055207,-0.00016059,-0.00001205,-0.00000016,
 -0.00005517,-0.00000135,0.00000018,-0.00002311,-0.00001871,0.00000311,
 0.00005685,0.00071852,-0.00023666,-0.00062730,0.33800316,-0.00064261,-
 0.00050004,0.00032726,-0.00072511,0.00079600,-0.00001750,0.00010556,-0
 .00006922,0.00008345,-0.00000213,-0.00007622,-0.00010779,-0.00068246,-
 0.00551702,0.00035562,-0.03080103,-0.00302845,0.00425103,-0.06253049,-
 0.07516994,0.00933908,0.02357250,0.01004579,-0.00336146,0.00280181,-0.
 00342751,-0.00029775,0.00045967,-0.00116212,-0.00000957,-0.00002117,-0
 .00000306,-0.00006582,-0.00000961,0.00002129,-0.00003273,-0.00001811,0
 .00000773,0.00001628,0.00032196,0.00117754,-0.00016866,0.06743401,0.07
 547095,-0.00005791,-0.00018216,-0.00017609,0.00003090,-0.00000847,0.00
 057086,0.00001493,0.00009510,0.00006363,-0.00003348,-0.00001349,-0.000
 00557,0.00115219,0.00040909,0.00686034,0.00134242,-0.00027368,0.002049
 04,0.04002421,0.00955283,-0.04133354,0.00251905,0.00087180,0.00213336,
 0.00097932,-0.00048544,0.00683007,-0.00019724,0.00022828,-0.00042055,-
 0.00001182,0.00002857,0.00001171,0.00002237,-0.00000622,-0.00000184,-0
 .00001135,0.00002781,0.00003759,-0.00055324,-0.00009257,-0.00381975,-0
 .04449411,-0.01011130,0.03180228,0.00017997,-0.00018660,-0.00001692,-0
 .00017508,-0.00006838,-0.00007151,0.00001383,-0.00004465,0.00003725,0.
 00000471,-0.00000893,-0.00000702,-0.00123627,0.00069344,0.00009585,-0.
 00266774,0.00314232,0.00132086,0.01045199,0.02220621,-0.00126769,-0.08
 225601,-0.07520484,0.00747275,-0.00326150,-0.03083878,0.00113792,-0.00
 559626,-0.00044097,0.00198146,-0.00000096,0.00000014,-0.00002415,0.000
 00662,0.00000267,-0.00000749,-0.00001703,0.00000903,-0.00000261,0.0003
 9363,0.00120121,-0.00007486,0.00084101,-0.00047136,-0.00066136,0.08246
 797,-0.00011624,-0.00013676,0.00004588,0.00004998,0.00016349,0.0000121
 9,0.00001029,0.00000763,0.00000221,-0.00001129,-0.00000645,-0.00003952
 ,0.00060218,0.00066517,-0.00010573,0.00401236,-0.00137261,-0.00047985,
 -0.00904239,-0.01737157,0.00144804,-0.07511360,-0.31735313,0.01379861,
 0.00024998,-0.00297142,-0.00001566,-0.00127283,0.00145887,0.00024075,-
 0.00000696,-0.00000537,-0.00002010,-0.00000666,-0.00001411,-0.00001677
 ,0.00001262,-0.00000909,0.00005186,-0.00049605,-0.00092991,0.00009849,
 0.00019775,0.00093076,-0.00008264,0.08104711,0.33630203,0.00004918,-0.
 00000762,-0.00003203,-0.00034183,-0.00013602,-0.00080158,-0.00008934,-
 0.00023530,-0.00003051,-0.00000981,-0.00001830,0.00000112,0.00025537,0
 .00010077,-0.00039610,0.00132555,-0.00026319,0.00688003,-0.00112405,-0
 .00290195,0.00291844,0.00731954,0.01356740,-0.03804561,0.00123491,0.00
 486623,0.00265284,0.00194948,-0.00015417,0.00680507,0.00001037,-0.0000
 2019,-0.00007463,0.00000345,0.00000018,-0.00000439,-0.00000225,0.00001
 912,0.00003392,-0.00007483,-0.00010473,0.00020581,-0.00065248,0.000013
 90,-0.00376437,-0.00918435,-0.01491334,0.02728008,-0.00005337,0.000195
 73,0.00004939,0.00029503,-0.00070642,-0.00007333,0.00003125,0.00001539
 ,0.00001902,0.00000757,-0.00001010,-0.00000869,0.00076429,-0.00206377,
 0.00110085,-0.00033362,-0.00099114,-0.00001805,-0.00441557,-0.00311702
 ,0.00181590,-0.01567100,0.02430972,0.00267896,-0.18890342,0.13797779,0
 .02284970,0.01000534,-0.00828497,-0.00108295,-0.00001025,0.00001600,0.
 00000572,0.00000186,0.00000924,0.00000333,-0.00000492,-0.00000564,-0.0
 0002330,0.00006913,0.00015215,-0.00021626,-0.00088882,0.00127644,0.000
 12884,0.00093316,-0.00027707,-0.00073972,0.19757435,-0.00059811,0.0003
 3873,0.00021626,0.00152191,-0.00065662,-0.00045100,0.00001476,-0.00003
 383,0.00020052,-0.00002230,-0.00001693,-0.00009720,-0.00266552,-0.0047
 0111,0.00058482,-0.00102525,-0.00029957,0.00008873,-0.00197402,0.00058
 585,0.00040684,-0.00678715,0.00943213,0.00097172,0.13850834,-0.2074979
 2,-0.02002833,0.02188561,-0.01792915,-0.00329604,-0.00002037,0.0000078
 8,-0.00007819,0.00002242,-0.00000495,-0.00003434,0.00000536,-0.0000067
 2,0.00001782,0.00014575,0.00007280,-0.00002746,-0.00046458,0.00037691,
 0.00004603,0.00037993,0.00081409,-0.00010430,-0.14886254,0.21833123,0.
 00007666,0.00005815,0.00007908,-0.00022164,0.00003824,0.00023616,-0.00
 003317,0.00009587,-0.00009318,0.00000002,-0.00001418,-0.00001958,0.000
 87574,0.00064739,0.00713018,0.00020045,0.00031132,-0.00033667,0.001758
 92,0.00056623,0.00679182,0.00295596,-0.00384526,0.00227662,0.02302831,
 -0.02006062,-0.04028344,-0.00132162,0.00108013,0.00321284,0.00004561,-
 0.00002077,0.00002736,-0.00000825,-0.00000182,0.00000100,0.00002621,-0
 .00001729,0.00000466,-0.00018229,-0.00004720,-0.00129730,0.00020382,-0
 .00022484,0.00026639,-0.00075652,0.00000122,-0.00372728,-0.02576157,0.
 02160195,0.02963002,0.00090105,-0.00221920,-0.00055055,-0.00281901,-0.
 00140192,0.00081928,-0.00008855,-0.00013638,0.00003002,0.00003001,-0.0
 0004296,0.00006935,-0.01798373,-0.00199943,0.00323692,-0.00092571,0.00
 340593,0.00120421,0.00058317,0.00034747,-0.00016595,0.00157838,-0.0008
 2403,0.00114202,-0.00186978,-0.00019926,0.00073239,-0.31429340,-0.0689
 8177,0.04893267,-0.00001541,0.00002492,-0.00008271,0.00000687,0.000008
 72,-0.00000894,-0.00004491,0.00002060,-0.00001658,-0.00064886,-0.00051
 812,0.00017307,-0.00005159,-0.00006788,-0.00019370,-0.00008206,0.00016
 082,0.00007081,0.00059899,-0.00006425,-0.00088664,0.33512454,-0.002876
 80,0.00155947,-0.00000205,0.00470128,-0.00084011,-0.00165929,-0.000680
 92,-0.00048843,0.00010089,0.00010193,0.00022219,0.00017612,0.02119259,
 0.01265472,-0.00267104,0.00259890,-0.00448660,-0.00043608,0.00029531,-
 0.00110760,0.00001875,-0.00034528,-0.00520589,0.00011822,-0.02861940,-
 0.00203786,0.00471202,-0.06925824,-0.07815338,0.01179616,0.00006212,-0
 .00004858,-0.00005617,-0.00002976,-0.00007154,0.00008300,-0.00000574,0
 .00000333,0.00007584,0.00150701,0.00036705,-0.00017694,-0.00007838,0.0
 0012660,-0.00000353,-0.00141756,-0.00017163,0.00029151,0.00036621,0.00
 118719,-0.00016851,0.07248674,0.07649105,0.00044744,-0.00036258,-0.001
 51004,-0.00066710,0.00084951,-0.00170500,-0.00028548,-0.00093414,0.000
 10106,-0.00006638,0.00002742,-0.00011703,0.00378849,0.00073420,0.00220
 259,0.00078994,-0.00022847,0.00573584,-0.00010852,-0.00011116,-0.00035
 332,0.00081796,0.00016938,0.00702262,0.00076285,-0.00010133,0.00313940
 ,0.04965221,0.01212223,-0.04687440,-0.00000342,-0.00003465,-0.00027765
 ,-0.00001270,0.00002210,-0.00002586,0.00006164,0.00004999,0.00003622,0
 .00017065,0.00002905,0.00058047,-0.00014244,0.00001082,-0.00110355,0.0
 0002837,-0.00002564,0.00009920,-0.00072782,-0.00001781,-0.00389866,-0.
 05450566,-0.01219890,0.03694810\\-0.00001994,0.00000109,0.00000330,0.0
 0002114,-0.00001365,0.00001782,0.00000518,-0.00001014,-0.00002794,0.00
 000048,-0.00000194,-0.00001259,0.00001232,0.00003014,0.00000388,-0.000
 01469,-0.00002057,-0.00000541,-0.00000315,0.00001558,0.00000044,0.0000
 1313,-0.00000422,-0.00000082,-0.00001129,-0.00000567,0.00000231,0.0000
 0267,-0.00000431,-0.00000647,-0.00000798,0.00000087,0.00001387,0.00000
 170,0.00000410,-0.00000072,-0.00000086,0.00000602,0.00000771,0.0000023
 2,0.00000163,0.00000191,0.00000034,-0.00000095,0.00000079,-0.00000041,
 0.00000024,-0.00000075,0.00000078,-0.00000045,0.00000054,-0.00000173,0
 .00000224,0.00000212\\\@


 SUCCESS IS COUNTED SWEETEST
 BY THOSE WHO NE'ER SUCCEED.
 TO COMPREHEND NECTAR
 REQUIRES SOREST NEED.
           EMILY DICKINSON
 Job cpu time:       0 days  0 hours 10 minutes 12.1 seconds.
 Elapsed time:       0 days  0 hours  0 minutes 26.0 seconds.
 File lengths (MBytes):  RWF=     71 Int=      0 D2E=      0 Chk=      4 Scr=      1
 Normal termination of Gaussian 16 at Mon Oct 14 01:54:45 2019.
real 90.26
user 2005.00
sys 16.77
Machine:
brown-a405
brown-a405
brown-a405
brown-a405
brown-a405
brown-a405
brown-a405
brown-a405
brown-a405
brown-a405
brown-a405
brown-a405
brown-a405
brown-a405
brown-a405
brown-a405
brown-a405
brown-a405
brown-a405
brown-a405
brown-a405
brown-a405
brown-a405
brown-a405
