 Entering Gaussian System, Link 0=/apps/cent7/gaussian/g16-A.03/g16-haswell/g16/g16
 Initial command:
 /apps/cent7/gaussian/g16-A.03/g16-haswell/g16/l1.exe "/scratch/brown/finej/gaussian/Gau-225943.inp" -scrdir="/scratch/brown/finej/gaussian/"
 Entering Link 1 = /apps/cent7/gaussian/g16-A.03/g16-haswell/g16/l1.exe PID=    225946.
  
 Copyright (c) 1988,1990,1992,1993,1995,1998,2003,2009,2016,
            Gaussian, Inc.  All Rights Reserved.
  
 This is part of the Gaussian(R) 16 program.  It is based on
 the Gaussian(R) 09 system (copyright 2009, Gaussian, Inc.),
 the Gaussian(R) 03 system (copyright 2003, Gaussian, Inc.),
 the Gaussian(R) 98 system (copyright 1998, Gaussian, Inc.),
 the Gaussian(R) 94 system (copyright 1995, Gaussian, Inc.),
 the Gaussian 92(TM) system (copyright 1992, Gaussian, Inc.),
 the Gaussian 90(TM) system (copyright 1990, Gaussian, Inc.),
 the Gaussian 88(TM) system (copyright 1988, Gaussian, Inc.),
 the Gaussian 86(TM) system (copyright 1986, Carnegie Mellon
 University), and the Gaussian 82(TM) system (copyright 1983,
 Carnegie Mellon University). Gaussian is a federally registered
 trademark of Gaussian, Inc.
  
 This software contains proprietary and confidential information,
 including trade secrets, belonging to Gaussian, Inc.
  
 This software is provided under written license and may be
 used, copied, transmitted, or stored only in accord with that
 written license.
  
 The following legend is applicable only to US Government
 contracts under FAR:
  
                    RESTRICTED RIGHTS LEGEND
  
 Use, reproduction and disclosure by the US Government is
 subject to restrictions as set forth in subparagraphs (a)
 and (c) of the Commercial Computer Software - Restricted
 Rights clause in FAR 52.227-19.
  
 Gaussian, Inc.
 340 Quinnipiac St., Bldg. 40, Wallingford CT 06492
  
  
 ---------------------------------------------------------------
 Warning -- This program may not be used in any manner that
 competes with the business of Gaussian, Inc. or will provide
 assistance to any competitor of Gaussian, Inc.  The licensee
 of this program is prohibited from giving any competitor of
 Gaussian, Inc. access to this program.  By using this program,
 the user acknowledges that Gaussian, Inc. is engaged in the
 business of creating and licensing software in the field of
 computational chemistry and represents and warrants to the
 licensee that it is not a competitor of Gaussian, Inc. and that
 it will not use this program in any manner prohibited above.
 ---------------------------------------------------------------
  

 Cite this work as:
 Gaussian 16, Revision A.03,
 M. J. Frisch, G. W. Trucks, H. B. Schlegel, G. E. Scuseria, 
 M. A. Robb, J. R. Cheeseman, G. Scalmani, V. Barone, 
 G. A. Petersson, H. Nakatsuji, X. Li, M. Caricato, A. V. Marenich, 
 J. Bloino, B. G. Janesko, R. Gomperts, B. Mennucci, H. P. Hratchian, 
 J. V. Ortiz, A. F. Izmaylov, J. L. Sonnenberg, D. Williams-Young, 
 F. Ding, F. Lipparini, F. Egidi, J. Goings, B. Peng, A. Petrone, 
 T. Henderson, D. Ranasinghe, V. G. Zakrzewski, J. Gao, N. Rega, 
 G. Zheng, W. Liang, M. Hada, M. Ehara, K. Toyota, R. Fukuda, 
 J. Hasegawa, M. Ishida, T. Nakajima, Y. Honda, O. Kitao, H. Nakai, 
 T. Vreven, K. Throssell, J. A. Montgomery, Jr., J. E. Peralta, 
 F. Ogliaro, M. J. Bearpark, J. J. Heyd, E. N. Brothers, K. N. Kudin, 
 V. N. Staroverov, T. A. Keith, R. Kobayashi, J. Normand, 
 K. Raghavachari, A. P. Rendell, J. C. Burant, S. S. Iyengar, 
 J. Tomasi, M. Cossi, J. M. Millam, M. Klene, C. Adamo, R. Cammi, 
 J. W. Ochterski, R. L. Martin, K. Morokuma, O. Farkas, 
 J. B. Foresman, and D. J. Fox, Gaussian, Inc., Wallingford CT, 2016.
 
 ******************************************
 Gaussian 16:  ES64L-G16RevA.03 25-Dec-2016
                14-Oct-2019 
 ******************************************
 %chk=34_p.chk
 %nprocshared=24
 Will use up to   24 processors via shared memory.
 %mem=80GB
 --------------------------------------------------------------
 #P opt freq b3lyp/6-31g(d) geom=connectivity temperature=0.001
 --------------------------------------------------------------
 1/18=20,19=15,26=3,38=1,57=2,112=-1000/1,3;
 2/9=110,12=2,17=6,18=5,40=1/2;
 3/5=1,6=6,7=1,11=2,25=1,30=1,71=1,74=-5/1,2,3;
 4//1;
 5/5=2,38=5/2;
 6/7=2,8=2,9=2,10=2,28=1/1;
 7//1,2,3,16;
 1/18=20,19=15,26=3/3(2);
 2/9=110/2;
 99//99;
 2/9=110/2;
 3/5=1,6=6,7=1,11=2,25=1,30=1,71=1,74=-5/1,2,3;
 4/5=5,16=3,69=1/1;
 5/5=2,38=5/2;
 7//1,2,3,16;
 1/18=20,19=15,26=3/3(-5);
 2/9=110/2;
 6/7=2,8=2,9=2,10=2,19=2,28=1/1;
 99/9=1/99;
 Leave Link    1 at Mon Oct 14 01:53:22 2019, MaxMem= 10737418240 cpu:               0.9 elap:               0.0
 (Enter /apps/cent7/gaussian/g16-A.03/g16-haswell/g16/l101.exe)
 -------------------
 Title Card Required
 -------------------
 Symbolic Z-matrix:
 Charge =  1 Multiplicity = 1
 O                    -1.7228   -1.8291    1.0796 
 S                    -0.5112   -1.6817    0.0342 
 C                    -1.171    -2.2027   -1.4959 
 C                    -1.0971   -1.5091   -2.636 
 C                    -0.1627    0.0577   -0.0106 
 C                     1.1654    0.4913    0.1839 
 C                     1.4648    1.8663    0.1938 
 C                     0.4406    2.815     0.0154 
 C                    -0.8848    2.3888   -0.1858 
 C                    -1.1851    1.0133   -0.2009 
 H                    -1.7145   -3.1023   -1.7847 
 H                    -2.009    -1.2263   -3.1619 
 H                    -0.125    -1.2263   -3.0398 
 H                     1.9626   -0.2381    0.3268 
 H                     2.493     2.1973    0.3401 
 H                     0.6738    3.8796    0.0331 
 H                    -1.6776    3.1229   -0.3297 
 H                    -2.2128    0.6872   -0.3605 
 H                    -1.53851  -1.96064   2.01252 
 
 ITRead=  0  0  0  0  0  0  0  0  0  0  0  0  0  0  0  0  0  0  0
 MicOpt= -1 -1 -1 -1 -1 -1 -1 -1 -1 -1 -1 -1 -1 -1 -1 -1 -1 -1 -1
 NAtoms=     19 NQM=       19 NQMF=       0 NMMI=      0 NMMIF=      0
                NMic=       0 NMicF=      0.
                    Isotopes and Nuclear Properties:
 (Nuclear quadrupole moments (NQMom) in fm**2, nuclear magnetic moments (NMagM)
  in nuclear magnetons)

  Atom         1           2           3           4           5           6           7           8           9          10
 IAtWgt=          16          32          12          12          12          12          12          12          12          12
 AtmWgt=  15.9949146  31.9720718  12.0000000  12.0000000  12.0000000  12.0000000  12.0000000  12.0000000  12.0000000  12.0000000
 NucSpn=           0           0           0           0           0           0           0           0           0           0
 AtZEff=  -0.0000000  -0.0000000  -0.0000000  -0.0000000  -0.0000000  -0.0000000  -0.0000000  -0.0000000  -0.0000000  -0.0000000
 NQMom=    0.0000000   0.0000000   0.0000000   0.0000000   0.0000000   0.0000000   0.0000000   0.0000000   0.0000000   0.0000000
 NMagM=    0.0000000   0.0000000   0.0000000   0.0000000   0.0000000   0.0000000   0.0000000   0.0000000   0.0000000   0.0000000
 AtZNuc=   8.0000000  16.0000000   6.0000000   6.0000000   6.0000000   6.0000000   6.0000000   6.0000000   6.0000000   6.0000000

  Atom        11          12          13          14          15          16          17          18          19
 IAtWgt=           1           1           1           1           1           1           1           1           1
 AtmWgt=   1.0078250   1.0078250   1.0078250   1.0078250   1.0078250   1.0078250   1.0078250   1.0078250   1.0078250
 NucSpn=           1           1           1           1           1           1           1           1           1
 AtZEff=  -0.0000000  -0.0000000  -0.0000000  -0.0000000  -0.0000000  -0.0000000  -0.0000000  -0.0000000  -0.0000000
 NQMom=    0.0000000   0.0000000   0.0000000   0.0000000   0.0000000   0.0000000   0.0000000   0.0000000   0.0000000
 NMagM=    2.7928460   2.7928460   2.7928460   2.7928460   2.7928460   2.7928460   2.7928460   2.7928460   2.7928460
 AtZNuc=   1.0000000   1.0000000   1.0000000   1.0000000   1.0000000   1.0000000   1.0000000   1.0000000   1.0000000
 Leave Link  101 at Mon Oct 14 01:53:23 2019, MaxMem= 10737418240 cpu:               8.4 elap:               0.4
 (Enter /apps/cent7/gaussian/g16-A.03/g16-haswell/g16/l103.exe)

 GradGradGradGradGradGradGradGradGradGradGradGradGradGradGradGradGradGrad
 Berny optimization.
 Initialization pass.
                           ----------------------------
                           !    Initial Parameters    !
                           ! (Angstroms and Degrees)  !
 --------------------------                            --------------------------
 ! Name  Definition              Value          Derivative Info.                !
 --------------------------------------------------------------------------------
 ! R1    R(1,2)                  1.607          estimate D2E/DX2                !
 ! R2    R(1,19)                 0.96           estimate D2E/DX2                !
 ! R3    R(2,3)                  1.7458         estimate D2E/DX2                !
 ! R4    R(2,5)                  1.7745         estimate D2E/DX2                !
 ! R5    R(3,4)                  1.3366         estimate D2E/DX2                !
 ! R6    R(3,11)                 1.09           estimate D2E/DX2                !
 ! R7    R(4,12)                 1.09           estimate D2E/DX2                !
 ! R8    R(4,13)                 1.09           estimate D2E/DX2                !
 ! R9    R(5,6)                  1.4106         estimate D2E/DX2                !
 ! R10   R(5,10)                 1.4123         estimate D2E/DX2                !
 ! R11   R(6,7)                  1.4073         estimate D2E/DX2                !
 ! R12   R(6,14)                 1.0899         estimate D2E/DX2                !
 ! R13   R(7,8)                  1.4074         estimate D2E/DX2                !
 ! R14   R(7,15)                 1.09           estimate D2E/DX2                !
 ! R15   R(8,9)                  1.4067         estimate D2E/DX2                !
 ! R16   R(8,16)                 1.09           estimate D2E/DX2                !
 ! R17   R(9,10)                 1.408          estimate D2E/DX2                !
 ! R18   R(9,17)                 1.09           estimate D2E/DX2                !
 ! R19   R(10,18)                1.0899         estimate D2E/DX2                !
 ! A1    A(2,1,19)             120.0            estimate D2E/DX2                !
 ! A2    A(1,2,3)              104.9409         estimate D2E/DX2                !
 ! A3    A(1,2,5)              104.7377         estimate D2E/DX2                !
 ! A4    A(3,2,5)              110.1579         estimate D2E/DX2                !
 ! A5    A(2,3,4)              124.8787         estimate D2E/DX2                !
 ! A6    A(2,3,11)             131.8325         estimate D2E/DX2                !
 ! A7    A(4,3,11)             103.2888         estimate D2E/DX2                !
 ! A8    A(3,4,12)             119.9962         estimate D2E/DX2                !
 ! A9    A(3,4,13)             119.9985         estimate D2E/DX2                !
 ! A10   A(12,4,13)            120.0053         estimate D2E/DX2                !
 ! A11   A(2,5,6)              118.8642         estimate D2E/DX2                !
 ! A12   A(2,5,10)             121.6311         estimate D2E/DX2                !
 ! A13   A(6,5,10)             119.484          estimate D2E/DX2                !
 ! A14   A(5,6,7)              120.1083         estimate D2E/DX2                !
 ! A15   A(5,6,14)             120.0677         estimate D2E/DX2                !
 ! A16   A(7,6,14)             119.824          estimate D2E/DX2                !
 ! A17   A(6,7,8)              120.1922         estimate D2E/DX2                !
 ! A18   A(6,7,15)             119.8898         estimate D2E/DX2                !
 ! A19   A(8,7,15)             119.918          estimate D2E/DX2                !
 ! A20   A(7,8,9)              119.9706         estimate D2E/DX2                !
 ! A21   A(7,8,16)             120.0409         estimate D2E/DX2                !
 ! A22   A(9,8,16)             119.9885         estimate D2E/DX2                !
 ! A23   A(8,9,10)             119.8995         estimate D2E/DX2                !
 ! A24   A(8,9,17)             120.0082         estimate D2E/DX2                !
 ! A25   A(10,9,17)            120.0923         estimate D2E/DX2                !
 ! A26   A(5,10,9)             120.3419         estimate D2E/DX2                !
 ! A27   A(5,10,18)            119.9909         estimate D2E/DX2                !
 ! A28   A(9,10,18)            119.6672         estimate D2E/DX2                !
 ! D1    D(19,1,2,3)           154.3746         estimate D2E/DX2                !
 ! D2    D(19,1,2,5)           -89.5858         estimate D2E/DX2                !
 ! D3    D(1,2,3,4)            128.808          estimate D2E/DX2                !
 ! D4    D(1,2,3,11)           -51.1862         estimate D2E/DX2                !
 ! D5    D(5,2,3,4)             16.5714         estimate D2E/DX2                !
 ! D6    D(5,2,3,11)          -163.4228         estimate D2E/DX2                !
 ! D7    D(1,2,5,6)            128.354          estimate D2E/DX2                !
 ! D8    D(1,2,5,10)           -49.9824         estimate D2E/DX2                !
 ! D9    D(3,2,5,6)           -119.2781         estimate D2E/DX2                !
 ! D10   D(3,2,5,10)            62.3855         estimate D2E/DX2                !
 ! D11   D(2,3,4,12)          -121.9253         estimate D2E/DX2                !
 ! D12   D(2,3,4,13)            58.0746         estimate D2E/DX2                !
 ! D13   D(11,3,4,12)           58.0703         estimate D2E/DX2                !
 ! D14   D(11,3,4,13)         -121.9299         estimate D2E/DX2                !
 ! D15   D(2,5,6,7)           -178.0828         estimate D2E/DX2                !
 ! D16   D(2,5,6,14)             1.9264         estimate D2E/DX2                !
 ! D17   D(10,5,6,7)             0.29           estimate D2E/DX2                !
 ! D18   D(10,5,6,14)         -179.7008         estimate D2E/DX2                !
 ! D19   D(2,5,10,9)           177.7995         estimate D2E/DX2                !
 ! D20   D(2,5,10,18)           -2.2009         estimate D2E/DX2                !
 ! D21   D(6,5,10,9)            -0.5269         estimate D2E/DX2                !
 ! D22   D(6,5,10,18)          179.4728         estimate D2E/DX2                !
 ! D23   D(5,6,7,8)              0.265          estimate D2E/DX2                !
 ! D24   D(5,6,7,15)          -179.7362         estimate D2E/DX2                !
 ! D25   D(14,6,7,8)          -179.7442         estimate D2E/DX2                !
 ! D26   D(14,6,7,15)            0.2546         estimate D2E/DX2                !
 ! D27   D(6,7,8,9)             -0.5869         estimate D2E/DX2                !
 ! D28   D(6,7,8,16)           179.4102         estimate D2E/DX2                !
 ! D29   D(15,7,8,9)           179.4144         estimate D2E/DX2                !
 ! D30   D(15,7,8,16)           -0.5886         estimate D2E/DX2                !
 ! D31   D(7,8,9,10)             0.3499         estimate D2E/DX2                !
 ! D32   D(7,8,9,17)          -179.6516         estimate D2E/DX2                !
 ! D33   D(16,8,9,10)         -179.6471         estimate D2E/DX2                !
 ! D34   D(16,8,9,17)            0.3513         estimate D2E/DX2                !
 ! D35   D(8,9,10,5)             0.2079         estimate D2E/DX2                !
 ! D36   D(8,9,10,18)         -179.7917         estimate D2E/DX2                !
 ! D37   D(17,9,10,5)         -179.7905         estimate D2E/DX2                !
 ! D38   D(17,9,10,18)           0.2098         estimate D2E/DX2                !
 --------------------------------------------------------------------------------
 Trust Radius=3.00D-01 FncErr=1.00D-07 GrdErr=1.00D-06 EigMax=2.50D+02 EigMin=1.00D-04
 Number of steps in this run=     95 maximum allowed number of steps=    114.
 GradGradGradGradGradGradGradGradGradGradGradGradGradGradGradGradGradGrad

 Leave Link  103 at Mon Oct 14 01:53:23 2019, MaxMem= 10737418240 cpu:               0.4 elap:               0.0
 (Enter /apps/cent7/gaussian/g16-A.03/g16-haswell/g16/l202.exe)
                          Input orientation:                          
 ---------------------------------------------------------------------
 Center     Atomic      Atomic             Coordinates (Angstroms)
 Number     Number       Type             X           Y           Z
 ---------------------------------------------------------------------
      1          8           0       -1.722800   -1.829100    1.079600
      2         16           0       -0.511200   -1.681700    0.034200
      3          6           0       -1.171000   -2.202700   -1.495900
      4          6           0       -1.097100   -1.509100   -2.636000
      5          6           0       -0.162700    0.057700   -0.010600
      6          6           0        1.165400    0.491300    0.183900
      7          6           0        1.464800    1.866300    0.193800
      8          6           0        0.440600    2.815000    0.015400
      9          6           0       -0.884800    2.388800   -0.185800
     10          6           0       -1.185100    1.013300   -0.200900
     11          1           0       -1.714500   -3.102300   -1.784700
     12          1           0       -2.009000   -1.226300   -3.161900
     13          1           0       -0.125000   -1.226300   -3.039800
     14          1           0        1.962600   -0.238100    0.326800
     15          1           0        2.493000    2.197300    0.340100
     16          1           0        0.673800    3.879600    0.033100
     17          1           0       -1.677600    3.122900   -0.329700
     18          1           0       -2.212800    0.687200   -0.360500
     19          1           0       -1.538511   -1.960640    2.012517
 ---------------------------------------------------------------------
                    Distance matrix (angstroms):
                    1          2          3          4          5
     1  O    0.000000
     2  S    1.607035   0.000000
     3  C    2.660312   1.745847   0.000000
     4  C    3.781479   2.739167   1.336552   0.000000
     5  C    2.680012   1.774534   2.886554   3.196982   0.000000
     6  C    3.811592   2.748695   3.941843   4.131869   1.410563
     7  C    4.959982   4.064278   5.134130   5.095530   2.441633
     8  C    5.232637   4.596367   5.482572   5.300215   2.822649
     9  C    4.482651   4.093525   4.783319   4.608923   2.446661
    10  C    3.163549   2.787909   3.466970   3.507130   1.412334
    11  H    3.134537   2.602774   1.089990   1.908974   3.942222
    12  H    4.293670   3.558911   2.105031   1.090004   3.871456
    13  H    4.459348   3.131456   2.105018   1.089958   3.290308
    14  H    4.084135   2.879111   4.123268   4.444703   2.172150
    15  H    5.876370   4.915835   6.012969   5.956794   3.428355
    16  H    6.279181   5.686148   6.537240   6.268833   3.912616
    17  H    5.148832   4.957529   5.475279   5.206863   3.433977
    18  H    2.940366   2.943284   3.275058   3.353568   2.172927
    19  H    0.960000   2.246534   3.535909   4.691210   3.171681
                    6          7          8          9         10
     6  C    0.000000
     7  C    1.407254   0.000000
     8  C    2.439940   1.407425   0.000000
     9  C    2.817890   2.436744   1.406703   0.000000
    10  C    2.438320   2.811648   2.436352   1.407980   0.000000
    11  H    5.008310   6.221688   6.549752   5.779019   4.441492
    12  H    4.921518   5.735171   5.694548   4.815594   3.802912
    13  H    3.873955   4.748453   5.097672   4.668143   3.768153
    14  H    1.089942   2.166563   3.425620   3.907819   3.428190
    15  H    2.167339   1.090027   2.167794   3.423854   3.901661
    16  H    3.427096   2.169074   1.089986   2.167864   3.424316
    17  H    3.907909   3.424584   2.168102   1.090019   2.170152
    18  H    3.427387   3.901572   3.421895   2.165536   1.089945
    19  H    4.082522   5.193562   5.541850   4.917069   3.724035
                   11         12         13         14         15
    11  H    0.000000
    12  H    2.345802   0.000000
    13  H    2.760645   1.887952   0.000000
    14  H    5.116946   5.377841   4.082721   0.000000
    15  H    7.092502   6.652296   5.477106   2.492524   0.000000
    16  H    7.599691   6.593607   6.012571   4.324664   2.496772
    17  H    6.393082   5.200646   5.354507   4.997836   4.324265
    18  H    4.078843   3.398655   3.898595   4.331573   4.991572
    19  H    3.969033   5.247400   5.297469   4.250479   6.028145
                   16         17         18         19
    16  H    0.000000
    17  H    2.496658   0.000000
    18  H    4.321898   2.493997   0.000000
    19  H    6.551398   5.598902   3.618969   0.000000
 Stoichiometry    C8H9OS(1+)
 Framework group  C1[X(C8H9OS)]
 Deg. of freedom    51
 Full point group                 C1      NOp   1
 Largest Abelian subgroup         C1      NOp   1
 Largest concise Abelian subgroup C1      NOp   1
                         Standard orientation:                         
 ---------------------------------------------------------------------
 Center     Atomic      Atomic             Coordinates (Angstroms)
 Number     Number       Type             X           Y           Z
 ---------------------------------------------------------------------
      1          8           0       -1.809230   -1.440094    1.027191
      2         16           0       -1.416415   -0.650866   -0.316452
      3          6           0       -2.380245    0.804405   -0.281787
      4          6           0       -1.902177    2.041821   -0.444954
      5          6           0        0.301352   -0.251495   -0.119603
      6          6           0        1.202114   -0.592244   -1.150237
      7          6           0        2.575892   -0.324277   -1.004329
      8          6           0        3.058240    0.279451    0.171978
      9          6           0        2.164150    0.627838    1.200590
     10          6           0        0.788741    0.364863    1.053957
     11          1           0       -3.448214    0.965724   -0.135172
     12          1           0       -2.050326    2.790298    0.333469
     13          1           0       -1.364206    2.302412   -1.356374
     14          1           0        0.835653   -1.063789   -2.062008
     15          1           0        3.268233   -0.585166   -1.804805
     16          1           0        4.124029    0.477126    0.286372
     17          1           0        2.536331    1.100614    2.109494
     18          1           0        0.098910    0.639478    1.851893
     19          1           0       -1.712337   -2.394270    1.069148
 ---------------------------------------------------------------------
 Rotational constants (GHZ):           2.0855286           0.7666162           0.7227646
 Leave Link  202 at Mon Oct 14 01:53:23 2019, MaxMem= 10737418240 cpu:               0.6 elap:               0.0
 (Enter /apps/cent7/gaussian/g16-A.03/g16-haswell/g16/l301.exe)
 Standard basis: 6-31G(d) (6D, 7F)
 Ernie: Thresh=  0.10000D-02 Tol=  0.10000D-05 Strict=F.
 There are   172 symmetry adapted cartesian basis functions of A   symmetry.
 There are   172 symmetry adapted basis functions of A   symmetry.
   172 basis functions,   340 primitive gaussians,   172 cartesian basis functions
    40 alpha electrons       40 beta electrons
       nuclear repulsion energy       586.1235027333 Hartrees.
 IExCor=  402 DFT=T Ex+Corr=B3LYP ExCW=0 ScaHFX=  0.200000
 ScaDFX=  0.800000  0.720000  1.000000  0.810000 ScalE2=  1.000000  1.000000
 IRadAn=      5 IRanWt=     -1 IRanGd=            0 ICorTp=0 IEmpDi=  4
 NAtoms=   19 NActive=   19 NUniq=   19 SFac= 1.00D+00 NAtFMM=   60 NAOKFM=F Big=F
 Integral buffers will be    131072 words long.
 Raffenetti 2 integral format.
 Two-electron integral symmetry is turned on.
 Leave Link  301 at Mon Oct 14 01:53:23 2019, MaxMem= 10737418240 cpu:               1.4 elap:               0.1
 (Enter /apps/cent7/gaussian/g16-A.03/g16-haswell/g16/l302.exe)
 NPDir=0 NMtPBC=     1 NCelOv=     1 NCel=       1 NClECP=     1 NCelD=      1
         NCelK=      1 NCelE2=     1 NClLst=     1 CellRange=     0.0.
 One-electron integrals computed using PRISM.
 One-electron integral symmetry used in STVInt
 NBasis=   172 RedAO= T EigKep=  5.47D-04  NBF=   172
 NBsUse=   172 1.00D-06 EigRej= -1.00D+00 NBFU=   172
 Precomputing XC quadrature grid using
 IXCGrd= 4 IRadAn=           5 IRanWt=          -1 IRanGd=           0 AccXCQ= 0.00D+00.
 Generated NRdTot=       0 NPtTot=           0 NUsed=           0 NTot=          32
 NSgBfM=   172   172   172   172   172 MxSgAt=    19 MxSgA2=    19.
 Leave Link  302 at Mon Oct 14 01:53:23 2019, MaxMem= 10737418240 cpu:               3.9 elap:               0.2
 (Enter /apps/cent7/gaussian/g16-A.03/g16-haswell/g16/l303.exe)
 DipDrv:  MaxL=1.
 Leave Link  303 at Mon Oct 14 01:53:23 2019, MaxMem= 10737418240 cpu:               1.3 elap:               0.1
 (Enter /apps/cent7/gaussian/g16-A.03/g16-haswell/g16/l401.exe)
 ExpMin= 1.17D-01 ExpMax= 2.19D+04 ExpMxC= 3.30D+03 IAcc=3 IRadAn=         5 AccDes= 0.00D+00
 Harris functional with IExCor=  402 and IRadAn=       5 diagonalized for initial guess.
 HarFok:  IExCor=  402 AccDes= 0.00D+00 IRadAn=         5 IDoV= 1 UseB2=F ITyADJ=14
 ICtDFT=  3500011 ScaDFX=  1.000000  1.000000  1.000000  1.000000
 FoFCou: FMM=F IPFlag=           0 FMFlag=      100000 FMFlg1=           0
         NFxFlg=           0 DoJE=T BraDBF=F KetDBF=T FulRan=T
         wScrn=  0.000000 ICntrl=       500 IOpCl=  0 I1Cent=   200000004 NGrid=           0
         NMat0=    1 NMatS0=      1 NMatT0=    0 NMatD0=    1 NMtDS0=    0 NMtDT0=    0
 Petite list used in FoFCou.
 Harris En= -783.316364652998    
 JPrj=0 DoOrth=F DoCkMO=F.
 Leave Link  401 at Mon Oct 14 01:53:23 2019, MaxMem= 10737418240 cpu:               7.9 elap:               0.4
 (Enter /apps/cent7/gaussian/g16-A.03/g16-haswell/g16/l502.exe)
 Integral symmetry usage will be decided dynamically.
 Closed shell SCF:
 Using DIIS extrapolation, IDIIS=  1040.
 NGot= 10737418240 LenX= 10737352958 LenY= 10737322933
 Requested convergence on RMS density matrix=1.00D-08 within 128 cycles.
 Requested convergence on MAX density matrix=1.00D-06.
 Requested convergence on             energy=1.00D-06.
 No special actions if energy rises.
 Fock matrices will be formed incrementally for  20 cycles.
 Integral accuracy reduced to 1.0D-05 until final iterations.

 Cycle   1  Pass 0  IDiag  1:
 FoFJK:  IHMeth= 1 ICntrl=       0 DoSepK=F KAlg= 0 I1Cent=           0 FoldK=F
 IRaf= 930000000 NMat=       1 IRICut=       1 DoRegI=T DoRafI=F ISym2E= 0 IDoP0=0 IntGTp=1.
 FoFCou: FMM=F IPFlag=           0 FMFlag=      100000 FMFlg1=           0
         NFxFlg=           0 DoJE=F BraDBF=F KetDBF=F FulRan=T
         wScrn=  0.000000 ICntrl=         0 IOpCl=  0 I1Cent=           0 NGrid=           0
         NMat0=    1 NMatS0=      1 NMatT0=    0 NMatD0=    1 NMtDS0=    0 NMtDT0=    0
 Symmetry not used in FoFCou.
 E= -782.926872110225    
 DIIS: error= 3.21D-02 at cycle   1 NSaved=   1.
 NSaved= 1 IEnMin= 1 EnMin= -782.926872110225     IErMin= 1 ErrMin= 3.21D-02
 ErrMax= 3.21D-02  0.00D+00 EMaxC= 1.00D-01 BMatC= 3.27D-01 BMatP= 3.27D-01
 IDIUse=3 WtCom= 6.79D-01 WtEn= 3.21D-01
 Coeff-Com:  0.100D+01
 Coeff-En:   0.100D+01
 Coeff:      0.100D+01
 Gap=     0.226 Goal=   None    Shift=    0.000
 GapD=    0.226 DampG=1.000 DampE=0.500 DampFc=0.5000 IDamp=-1.
 Damping current iteration by 5.00D-01
 RMSDP=1.03D-02 MaxDP=3.59D-01              OVMax= 4.67D-01

 Cycle   2  Pass 0  IDiag  1:
 RMSU=  5.12D-03    CP:  9.90D-01
 E= -782.974272977538     Delta-E=       -0.047400867313 Rises=F Damp=T
 DIIS: error= 1.04D-02 at cycle   2 NSaved=   2.
 NSaved= 2 IEnMin= 2 EnMin= -782.974272977538     IErMin= 2 ErrMin= 1.04D-02
 ErrMax= 1.04D-02  0.00D+00 EMaxC= 1.00D-01 BMatC= 5.41D-02 BMatP= 3.27D-01
 IDIUse=3 WtCom= 8.96D-01 WtEn= 1.04D-01
 Coeff-Com:  0.236D+00 0.764D+00
 Coeff-En:   0.435D+00 0.565D+00
 Coeff:      0.256D+00 0.744D+00
 Gap=     0.191 Goal=   None    Shift=    0.000
 RMSDP=3.48D-03 MaxDP=1.02D-01 DE=-4.74D-02 OVMax= 4.16D-01

 Cycle   3  Pass 0  IDiag  1:
 RMSU=  2.32D-03    CP:  9.83D-01  4.94D-01
 E= -783.228140647788     Delta-E=       -0.253867670250 Rises=F Damp=F
 DIIS: error= 1.19D-02 at cycle   3 NSaved=   3.
 NSaved= 3 IEnMin= 3 EnMin= -783.228140647788     IErMin= 2 ErrMin= 1.04D-02
 ErrMax= 1.19D-02  0.00D+00 EMaxC= 1.00D-01 BMatC= 2.84D-02 BMatP= 5.41D-02
 IDIUse=3 WtCom= 8.81D-01 WtEn= 1.19D-01
 Coeff-Com:  0.741D-01 0.421D+00 0.505D+00
 Coeff-En:   0.000D+00 0.000D+00 0.100D+01
 Coeff:      0.653D-01 0.371D+00 0.563D+00
 Gap=     0.126 Goal=   None    Shift=    0.000
 RMSDP=1.75D-03 MaxDP=6.30D-02 DE=-2.54D-01 OVMax= 1.49D-01

 Cycle   4  Pass 0  IDiag  1:
 RMSU=  1.29D-03    CP:  9.85D-01  6.51D-01  6.26D-01
 E= -783.251001776578     Delta-E=       -0.022861128790 Rises=F Damp=F
 DIIS: error= 6.78D-03 at cycle   4 NSaved=   4.
 NSaved= 4 IEnMin= 4 EnMin= -783.251001776578     IErMin= 4 ErrMin= 6.78D-03
 ErrMax= 6.78D-03  0.00D+00 EMaxC= 1.00D-01 BMatC= 1.15D-02 BMatP= 2.84D-02
 IDIUse=3 WtCom= 9.32D-01 WtEn= 6.78D-02
 Coeff-Com: -0.135D-02 0.980D-01 0.392D+00 0.512D+00
 Coeff-En:   0.000D+00 0.000D+00 0.297D+00 0.703D+00
 Coeff:     -0.126D-02 0.914D-01 0.385D+00 0.525D+00
 Gap=     0.129 Goal=   None    Shift=    0.000
 RMSDP=6.92D-04 MaxDP=2.83D-02 DE=-2.29D-02 OVMax= 6.32D-02

 Cycle   5  Pass 0  IDiag  1:
 RMSU=  3.51D-04    CP:  9.86D-01  6.25D-01  7.50D-01  6.10D-01
 E= -783.262806372005     Delta-E=       -0.011804595427 Rises=F Damp=F
 DIIS: error= 1.57D-03 at cycle   5 NSaved=   5.
 NSaved= 5 IEnMin= 5 EnMin= -783.262806372005     IErMin= 5 ErrMin= 1.57D-03
 ErrMax= 1.57D-03  0.00D+00 EMaxC= 1.00D-01 BMatC= 4.37D-04 BMatP= 1.15D-02
 IDIUse=3 WtCom= 9.84D-01 WtEn= 1.57D-02
 Coeff-Com: -0.642D-02 0.135D-01 0.140D+00 0.251D+00 0.602D+00
 Coeff-En:   0.000D+00 0.000D+00 0.000D+00 0.000D+00 0.100D+01
 Coeff:     -0.631D-02 0.133D-01 0.138D+00 0.247D+00 0.608D+00
 Gap=     0.131 Goal=   None    Shift=    0.000
 RMSDP=1.89D-04 MaxDP=7.66D-03 DE=-1.18D-02 OVMax= 1.67D-02

 Cycle   6  Pass 0  IDiag  1:
 RMSU=  1.27D-04    CP:  9.85D-01  6.20D-01  7.54D-01  6.52D-01  6.46D-01
 E= -783.263181642348     Delta-E=       -0.000375270344 Rises=F Damp=F
 DIIS: error= 6.36D-04 at cycle   6 NSaved=   6.
 NSaved= 6 IEnMin= 6 EnMin= -783.263181642348     IErMin= 6 ErrMin= 6.36D-04
 ErrMax= 6.36D-04  0.00D+00 EMaxC= 1.00D-01 BMatC= 9.49D-05 BMatP= 4.37D-04
 IDIUse=3 WtCom= 9.94D-01 WtEn= 6.36D-03
 Coeff-Com: -0.342D-02 0.150D-02 0.609D-01 0.115D+00 0.386D+00 0.440D+00
 Coeff-En:   0.000D+00 0.000D+00 0.000D+00 0.000D+00 0.152D+00 0.848D+00
 Coeff:     -0.340D-02 0.149D-02 0.605D-01 0.114D+00 0.385D+00 0.443D+00
 Gap=     0.131 Goal=   None    Shift=    0.000
 RMSDP=7.14D-05 MaxDP=2.05D-03 DE=-3.75D-04 OVMax= 5.48D-03

 Cycle   7  Pass 0  IDiag  1:
 RMSU=  4.28D-05    CP:  9.85D-01  6.18D-01  7.57D-01  6.52D-01  6.85D-01
                    CP:  5.69D-01
 E= -783.263275038451     Delta-E=       -0.000093396103 Rises=F Damp=F
 DIIS: error= 2.82D-04 at cycle   7 NSaved=   7.
 NSaved= 7 IEnMin= 7 EnMin= -783.263275038451     IErMin= 7 ErrMin= 2.82D-04
 ErrMax= 2.82D-04  0.00D+00 EMaxC= 1.00D-01 BMatC= 8.89D-06 BMatP= 9.49D-05
 IDIUse=3 WtCom= 9.97D-01 WtEn= 2.82D-03
 Coeff-Com: -0.703D-03-0.211D-02 0.108D-01 0.195D-01 0.126D+00 0.258D+00
 Coeff-Com:  0.589D+00
 Coeff-En:   0.000D+00 0.000D+00 0.000D+00 0.000D+00 0.000D+00 0.427D-01
 Coeff-En:   0.957D+00
 Coeff:     -0.701D-03-0.210D-02 0.108D-01 0.194D-01 0.125D+00 0.257D+00
 Coeff:      0.590D+00
 Gap=     0.131 Goal=   None    Shift=    0.000
 RMSDP=2.15D-05 MaxDP=5.88D-04 DE=-9.34D-05 OVMax= 1.20D-03

 Cycle   8  Pass 0  IDiag  1:
 RMSU=  1.29D-05    CP:  9.85D-01  6.18D-01  7.58D-01  6.51D-01  6.97D-01
                    CP:  6.38D-01  6.73D-01
 E= -783.263284318844     Delta-E=       -0.000009280393 Rises=F Damp=F
 DIIS: error= 3.35D-05 at cycle   8 NSaved=   8.
 NSaved= 8 IEnMin= 8 EnMin= -783.263284318844     IErMin= 8 ErrMin= 3.35D-05
 ErrMax= 3.35D-05  0.00D+00 EMaxC= 1.00D-01 BMatC= 5.79D-07 BMatP= 8.89D-06
 IDIUse=1 WtCom= 1.00D+00 WtEn= 0.00D+00
 Coeff-Com:  0.653D-04-0.964D-03 0.172D-03-0.210D-02 0.214D-01 0.620D-01
 Coeff-Com:  0.262D+00 0.657D+00
 Coeff:      0.653D-04-0.964D-03 0.172D-03-0.210D-02 0.214D-01 0.620D-01
 Coeff:      0.262D+00 0.657D+00
 Gap=     0.131 Goal=   None    Shift=    0.000
 RMSDP=5.71D-06 MaxDP=1.44D-04 DE=-9.28D-06 OVMax= 2.48D-04

 Initial convergence to 1.0D-05 achieved.  Increase integral accuracy.
 Cycle   9  Pass 1  IDiag  1:
 E= -783.263282983522     Delta-E=        0.000001335322 Rises=F Damp=F
 DIIS: error= 1.51D-05 at cycle   1 NSaved=   1.
 NSaved= 1 IEnMin= 1 EnMin= -783.263282983522     IErMin= 1 ErrMin= 1.51D-05
 ErrMax= 1.51D-05  0.00D+00 EMaxC= 1.00D-01 BMatC= 9.38D-08 BMatP= 9.38D-08
 IDIUse=1 WtCom= 1.00D+00 WtEn= 0.00D+00
 Coeff-Com:  0.100D+01
 Coeff:      0.100D+01
 Gap=     0.131 Goal=   None    Shift=    0.000
 RMSDP=5.71D-06 MaxDP=1.44D-04 DE= 1.34D-06 OVMax= 3.04D-04

 Cycle  10  Pass 1  IDiag  1:
 RMSU=  7.12D-06    CP:  1.00D+00
 E= -783.263282862275     Delta-E=        0.000000121247 Rises=F Damp=F
 DIIS: error= 2.40D-05 at cycle   2 NSaved=   2.
 NSaved= 2 IEnMin= 1 EnMin= -783.263282983522     IErMin= 1 ErrMin= 1.51D-05
 ErrMax= 2.40D-05  0.00D+00 EMaxC= 1.00D-01 BMatC= 1.94D-07 BMatP= 9.38D-08
 IDIUse=1 WtCom= 1.00D+00 WtEn= 0.00D+00
 Coeff-Com:  0.598D+00 0.402D+00
 Coeff:      0.598D+00 0.402D+00
 Gap=     0.131 Goal=   None    Shift=    0.000
 RMSDP=3.24D-06 MaxDP=1.21D-04 DE= 1.21D-07 OVMax= 3.09D-04

 Cycle  11  Pass 1  IDiag  1:
 RMSU=  2.57D-06    CP:  1.00D+00  7.25D-01
 E= -783.263283059653     Delta-E=       -0.000000197379 Rises=F Damp=F
 DIIS: error= 6.81D-06 at cycle   3 NSaved=   3.
 NSaved= 3 IEnMin= 3 EnMin= -783.263283059653     IErMin= 3 ErrMin= 6.81D-06
 ErrMax= 6.81D-06  0.00D+00 EMaxC= 1.00D-01 BMatC= 1.41D-08 BMatP= 9.38D-08
 IDIUse=1 WtCom= 1.00D+00 WtEn= 0.00D+00
 Coeff-Com:  0.238D+00 0.243D+00 0.519D+00
 Coeff:      0.238D+00 0.243D+00 0.519D+00
 Gap=     0.131 Goal=   None    Shift=    0.000
 RMSDP=8.99D-07 MaxDP=3.91D-05 DE=-1.97D-07 OVMax= 8.64D-05

 Cycle  12  Pass 1  IDiag  1:
 RMSU=  6.92D-07    CP:  1.00D+00  7.54D-01  7.92D-01
 E= -783.263283072487     Delta-E=       -0.000000012834 Rises=F Damp=F
 DIIS: error= 2.25D-06 at cycle   4 NSaved=   4.
 NSaved= 4 IEnMin= 4 EnMin= -783.263283072487     IErMin= 4 ErrMin= 2.25D-06
 ErrMax= 2.25D-06  0.00D+00 EMaxC= 1.00D-01 BMatC= 2.18D-09 BMatP= 1.41D-08
 IDIUse=1 WtCom= 1.00D+00 WtEn= 0.00D+00
 Coeff-Com:  0.119D-01 0.696D-01 0.319D+00 0.600D+00
 Coeff:      0.119D-01 0.696D-01 0.319D+00 0.600D+00
 Gap=     0.131 Goal=   None    Shift=    0.000
 RMSDP=3.33D-07 MaxDP=1.35D-05 DE=-1.28D-08 OVMax= 2.84D-05

 Cycle  13  Pass 1  IDiag  1:
 RMSU=  1.54D-07    CP:  1.00D+00  7.59D-01  8.37D-01  6.12D-01
 E= -783.263283074641     Delta-E=       -0.000000002154 Rises=F Damp=F
 DIIS: error= 7.71D-07 at cycle   5 NSaved=   5.
 NSaved= 5 IEnMin= 5 EnMin= -783.263283074641     IErMin= 5 ErrMin= 7.71D-07
 ErrMax= 7.71D-07  0.00D+00 EMaxC= 1.00D-01 BMatC= 1.86D-10 BMatP= 2.18D-09
 IDIUse=1 WtCom= 1.00D+00 WtEn= 0.00D+00
 Coeff-Com: -0.335D-02 0.324D-01 0.160D+00 0.366D+00 0.445D+00
 Coeff:     -0.335D-02 0.324D-01 0.160D+00 0.366D+00 0.445D+00
 Gap=     0.131 Goal=   None    Shift=    0.000
 RMSDP=9.38D-08 MaxDP=1.88D-06 DE=-2.15D-09 OVMax= 5.95D-06

 Cycle  14  Pass 1  IDiag  1:
 RMSU=  5.35D-08    CP:  1.00D+00  7.62D-01  8.33D-01  6.30D-01  5.31D-01
 E= -783.263283074815     Delta-E=       -0.000000000174 Rises=F Damp=F
 DIIS: error= 3.37D-07 at cycle   6 NSaved=   6.
 NSaved= 6 IEnMin= 6 EnMin= -783.263283074815     IErMin= 6 ErrMin= 3.37D-07
 ErrMax= 3.37D-07  0.00D+00 EMaxC= 1.00D-01 BMatC= 1.32D-11 BMatP= 1.86D-10
 IDIUse=1 WtCom= 1.00D+00 WtEn= 0.00D+00
 Coeff-Com: -0.266D-02 0.139D-01 0.615D-01 0.166D+00 0.246D+00 0.515D+00
 Coeff:     -0.266D-02 0.139D-01 0.615D-01 0.166D+00 0.246D+00 0.515D+00
 Gap=     0.131 Goal=   None    Shift=    0.000
 RMSDP=2.72D-08 MaxDP=5.14D-07 DE=-1.74D-10 OVMax= 1.90D-06

 Cycle  15  Pass 1  IDiag  1:
 RMSU=  2.12D-08    CP:  1.00D+00  7.62D-01  8.31D-01  6.33D-01  5.92D-01
                    CP:  7.60D-01
 E= -783.263283074827     Delta-E=       -0.000000000013 Rises=F Damp=F
 DIIS: error= 9.06D-08 at cycle   7 NSaved=   7.
 NSaved= 7 IEnMin= 7 EnMin= -783.263283074827     IErMin= 7 ErrMin= 9.06D-08
 ErrMax= 9.06D-08  0.00D+00 EMaxC= 1.00D-01 BMatC= 2.05D-12 BMatP= 1.32D-11
 IDIUse=1 WtCom= 1.00D+00 WtEn= 0.00D+00
 Coeff-Com: -0.776D-03 0.205D-02 0.645D-03 0.243D-01 0.337D-01 0.255D+00
 Coeff-Com:  0.685D+00
 Coeff:     -0.776D-03 0.205D-02 0.645D-03 0.243D-01 0.337D-01 0.255D+00
 Coeff:      0.685D+00
 Gap=     0.131 Goal=   None    Shift=    0.000
 RMSDP=8.38D-09 MaxDP=1.74D-07 DE=-1.25D-11 OVMax= 4.40D-07

 SCF Done:  E(RB3LYP) =  -783.263283075     A.U. after   15 cycles
            NFock= 15  Conv=0.84D-08     -V/T= 2.0066
 KE= 7.781205358618D+02 PE=-2.997652501471D+03 EE= 8.501451798008D+02
 Leave Link  502 at Mon Oct 14 01:53:27 2019, MaxMem= 10737418240 cpu:              81.2 elap:               3.4
 (Enter /apps/cent7/gaussian/g16-A.03/g16-haswell/g16/l601.exe)
 Copying SCF densities to generalized density rwf, IOpCl= 0 IROHF=0.

 **********************************************************************

            Population analysis using the SCF density.

 **********************************************************************

 Orbital symmetries:
       Occupied  (A) (A) (A) (A) (A) (A) (A) (A) (A) (A) (A) (A)
                 (A) (A) (A) (A) (A) (A) (A) (A) (A) (A) (A) (A)
                 (A) (A) (A) (A) (A) (A) (A) (A) (A) (A) (A) (A)
                 (A) (A) (A) (A)
       Virtual   (A) (A) (A) (A) (A) (A) (A) (A) (A) (A) (A) (A)
                 (A) (A) (A) (A) (A) (A) (A) (A) (A) (A) (A) (A)
                 (A) (A) (A) (A) (A) (A) (A) (A) (A) (A) (A) (A)
                 (A) (A) (A) (A) (A) (A) (A) (A) (A) (A) (A) (A)
                 (A) (A) (A) (A) (A) (A) (A) (A) (A) (A) (A) (A)
                 (A) (A) (A) (A) (A) (A) (A) (A) (A) (A) (A) (A)
                 (A) (A) (A) (A) (A) (A) (A) (A) (A) (A) (A) (A)
                 (A) (A) (A) (A) (A) (A) (A) (A) (A) (A) (A) (A)
                 (A) (A) (A) (A) (A) (A) (A) (A) (A) (A) (A) (A)
                 (A) (A) (A) (A) (A) (A) (A) (A) (A) (A) (A) (A)
                 (A) (A) (A) (A) (A) (A) (A) (A) (A) (A) (A) (A)
 The electronic state is 1-A.
 Alpha  occ. eigenvalues --  -89.20032 -19.37928 -10.40050 -10.39859 -10.39059
 Alpha  occ. eigenvalues --  -10.36890 -10.36662 -10.35252 -10.35002 -10.34993
 Alpha  occ. eigenvalues --   -8.24851  -6.21422  -6.21075  -6.20441  -1.26232
 Alpha  occ. eigenvalues --   -1.04207  -1.00148  -0.94186  -0.90394  -0.89034
 Alpha  occ. eigenvalues --   -0.78064  -0.76934  -0.76042  -0.72072  -0.68349
 Alpha  occ. eigenvalues --   -0.65642  -0.63545  -0.61949  -0.60795  -0.59806
 Alpha  occ. eigenvalues --   -0.58323  -0.57729  -0.54438  -0.52548  -0.51757
 Alpha  occ. eigenvalues --   -0.50309  -0.48631  -0.42227  -0.40855  -0.39415
 Alpha virt. eigenvalues --   -0.26330  -0.21106  -0.16149  -0.15275  -0.11771
 Alpha virt. eigenvalues --   -0.10052  -0.05682  -0.03150  -0.02431  -0.01183
 Alpha virt. eigenvalues --    0.00029   0.00193   0.01874   0.04256   0.04896
 Alpha virt. eigenvalues --    0.05261   0.08511   0.11409   0.13789   0.14781
 Alpha virt. eigenvalues --    0.16031   0.18309   0.20207   0.21476   0.22689
 Alpha virt. eigenvalues --    0.30105   0.33037   0.36758   0.37352   0.38884
 Alpha virt. eigenvalues --    0.40298   0.40683   0.40799   0.42803   0.44147
 Alpha virt. eigenvalues --    0.44681   0.46233   0.46667   0.46736   0.48596
 Alpha virt. eigenvalues --    0.49805   0.52138   0.55474   0.58681   0.63097
 Alpha virt. eigenvalues --    0.64199   0.65192   0.66845   0.67115   0.68480
 Alpha virt. eigenvalues --    0.69020   0.69910   0.70319   0.72149   0.72451
 Alpha virt. eigenvalues --    0.73144   0.76242   0.77549   0.78588   0.79019
 Alpha virt. eigenvalues --    0.79754   0.82549   0.83261   0.84176   0.86541
 Alpha virt. eigenvalues --    0.88231   0.93054   0.95482   0.98000   1.01214
 Alpha virt. eigenvalues --    1.03271   1.09741   1.11010   1.11818   1.25923
 Alpha virt. eigenvalues --    1.26287   1.27515   1.31062   1.31529   1.32982
 Alpha virt. eigenvalues --    1.34925   1.38178   1.43487   1.51718   1.54721
 Alpha virt. eigenvalues --    1.56663   1.61279   1.62494   1.66271   1.67324
 Alpha virt. eigenvalues --    1.70761   1.72546   1.75923   1.80768   1.82873
 Alpha virt. eigenvalues --    1.89614   1.90824   1.92779   1.95710   1.97161
 Alpha virt. eigenvalues --    1.97629   1.98426   2.00630   2.04956   2.11937
 Alpha virt. eigenvalues --    2.13305   2.14391   2.20885   2.23743   2.32664
 Alpha virt. eigenvalues --    2.37072   2.38723   2.41448   2.46212   2.48917
 Alpha virt. eigenvalues --    2.51889   2.53559   2.56411   2.58177   2.61274
 Alpha virt. eigenvalues --    2.85448   3.18313   3.60043   3.75039   3.91932
 Alpha virt. eigenvalues --    3.94246   3.97011   4.00014   4.11038   4.16816
 Alpha virt. eigenvalues --    4.18547   4.49020
          Condensed to atoms (all electrons):
               1          2          3          4          5          6
     1  O    8.303371   0.149175  -0.036090  -0.000585  -0.036358  -0.000399
     2  S    0.149175  14.698330   0.242440  -0.050269   0.241413  -0.035317
     3  C   -0.036090   0.242440   5.371084   0.533972  -0.023483   0.000641
     4  C   -0.000585  -0.050269   0.533972   5.090520  -0.012029   0.000221
     5  C   -0.036358   0.241413  -0.023483  -0.012029   5.221544   0.506385
     6  C   -0.000399  -0.035317   0.000641   0.000221   0.506385   4.895369
     7  C   -0.000044   0.003383  -0.000123  -0.000005  -0.036314   0.532550
     8  C   -0.000001  -0.000089   0.000008  -0.000015  -0.034035  -0.030171
     9  C    0.000153   0.003104   0.000076  -0.000165  -0.032055  -0.036355
    10  C    0.001817  -0.034028  -0.004438   0.006227   0.455864  -0.031939
    11  H   -0.001081  -0.014006   0.350721  -0.040305   0.000956  -0.000009
    12  H    0.000020   0.005533  -0.037951   0.367590   0.000393   0.000008
    13  H   -0.000054  -0.006748  -0.057642   0.379219  -0.000272   0.000192
    14  H   -0.000046   0.001387  -0.000119   0.000059  -0.050953   0.364424
    15  H    0.000000  -0.000122   0.000001   0.000000   0.004300  -0.036606
    16  H   -0.000000   0.000010   0.000000  -0.000000   0.000482   0.004323
    17  H    0.000002  -0.000145  -0.000002   0.000003   0.004233   0.000486
    18  H    0.001909  -0.003231   0.001103   0.002121  -0.054666   0.003410
    19  H    0.248040  -0.008805   0.002402  -0.000027   0.002249   0.000060
               7          8          9         10         11         12
     1  O   -0.000044  -0.000001   0.000153   0.001817  -0.001081   0.000020
     2  S    0.003383  -0.000089   0.003104  -0.034028  -0.014006   0.005533
     3  C   -0.000123   0.000008   0.000076  -0.004438   0.350721  -0.037951
     4  C   -0.000005  -0.000015  -0.000165   0.006227  -0.040305   0.367590
     5  C   -0.036314  -0.034035  -0.032055   0.455864   0.000956   0.000393
     6  C    0.532550  -0.030171  -0.036355  -0.031939  -0.000009   0.000008
     7  C    4.841617   0.535319  -0.031433  -0.036666   0.000000  -0.000001
     8  C    0.535319   4.833064   0.531805  -0.029462  -0.000000   0.000000
     9  C   -0.031433   0.531805   4.832483   0.538567   0.000001   0.000001
    10  C   -0.036666  -0.029462   0.538567   4.923761   0.000043  -0.000153
    11  H    0.000000  -0.000000   0.000001   0.000043   0.430012  -0.006564
    12  H   -0.000001   0.000000   0.000001  -0.000153  -0.006564   0.455063
    13  H    0.000029  -0.000003  -0.000028   0.000376   0.005965  -0.027788
    14  H   -0.027911   0.003974   0.000330   0.003822  -0.000001  -0.000000
    15  H    0.366651  -0.035482   0.003874   0.000477  -0.000000   0.000000
    16  H   -0.036097   0.363711  -0.036496   0.004387   0.000000  -0.000000
    17  H    0.003871  -0.035101   0.367175  -0.038054  -0.000000  -0.000000
    18  H    0.000415   0.003921  -0.028312   0.366931  -0.000026  -0.000070
    19  H   -0.000005  -0.000000   0.000000  -0.000262   0.000047   0.000001
              13         14         15         16         17         18
     1  O   -0.000054  -0.000046   0.000000  -0.000000   0.000002   0.001909
     2  S   -0.006748   0.001387  -0.000122   0.000010  -0.000145  -0.003231
     3  C   -0.057642  -0.000119   0.000001   0.000000  -0.000002   0.001103
     4  C    0.379219   0.000059   0.000000  -0.000000   0.000003   0.002121
     5  C   -0.000272  -0.050953   0.004300   0.000482   0.004233  -0.054666
     6  C    0.000192   0.364424  -0.036606   0.004323   0.000486   0.003410
     7  C    0.000029  -0.027911   0.366651  -0.036097   0.003871   0.000415
     8  C   -0.000003   0.003974  -0.035482   0.363711  -0.035101   0.003921
     9  C   -0.000028   0.000330   0.003874  -0.036496   0.367175  -0.028312
    10  C    0.000376   0.003822   0.000477   0.004387  -0.038054   0.366931
    11  H    0.005965  -0.000001  -0.000000   0.000000  -0.000000  -0.000026
    12  H   -0.027788  -0.000000   0.000000  -0.000000  -0.000000  -0.000070
    13  H    0.482004   0.000012  -0.000000   0.000000  -0.000000   0.000059
    14  H    0.000012   0.516571  -0.004743  -0.000123   0.000010  -0.000127
    15  H   -0.000000  -0.004743   0.509796  -0.004178  -0.000138   0.000010
    16  H    0.000000  -0.000123  -0.004178   0.510022  -0.004165  -0.000128
    17  H   -0.000000   0.000010  -0.000138  -0.004165   0.511860  -0.004498
    18  H    0.000059  -0.000127   0.000010  -0.000128  -0.004498   0.521947
    19  H    0.000001  -0.000006  -0.000000   0.000000  -0.000000  -0.000073
              19
     1  O    0.248040
     2  S   -0.008805
     3  C    0.002402
     4  C   -0.000027
     5  C    0.002249
     6  C    0.000060
     7  C   -0.000005
     8  C   -0.000000
     9  C    0.000000
    10  C   -0.000262
    11  H    0.000047
    12  H    0.000001
    13  H    0.000001
    14  H   -0.000006
    15  H   -0.000000
    16  H    0.000000
    17  H   -0.000000
    18  H   -0.000073
    19  H    0.272269
 Mulliken charges:
               1
     1  O   -0.629827
     2  S    0.807985
     3  C   -0.342601
     4  C   -0.276532
     5  C   -0.157654
     6  C   -0.137272
     7  C   -0.115237
     8  C   -0.107442
     9  C   -0.112724
    10  C   -0.127271
    11  H    0.274248
    12  H    0.243918
    13  H    0.224679
    14  H    0.193443
    15  H    0.196159
    16  H    0.198252
    17  H    0.194463
    18  H    0.189305
    19  H    0.484108
 Sum of Mulliken charges =   1.00000
 Mulliken charges with hydrogens summed into heavy atoms:
               1
     1  O   -0.145719
     2  S    0.807985
     3  C   -0.068352
     4  C    0.192065
     5  C   -0.157654
     6  C    0.056171
     7  C    0.080922
     8  C    0.090810
     9  C    0.081739
    10  C    0.062034
 Electronic spatial extent (au):  <R**2>=           1705.4822
 Charge=              1.0000 electrons
 Dipole moment (field-independent basis, Debye):
    X=             -1.7800    Y=              0.1886    Z=             -0.3642  Tot=              1.8266
 Quadrupole moment (field-independent basis, Debye-Ang):
   XX=            -34.9186   YY=            -47.9228   ZZ=            -56.2354
   XY=             -0.4820   XZ=              0.4229   YZ=              0.2038
 Traceless Quadrupole moment (field-independent basis, Debye-Ang):
   XX=             11.4404   YY=             -1.5639   ZZ=             -9.8765
   XY=             -0.4820   XZ=              0.4229   YZ=              0.2038
 Octapole moment (field-independent basis, Debye-Ang**2):
  XXX=              6.1680  YYY=            -16.4226  ZZZ=              3.0332  XYY=            -34.9263
  XXY=             10.4486  XXZ=             -2.5750  XZZ=              6.8718  YZZ=             -1.8785
  YYZ=             10.5791  XYZ=             12.9540
 Hexadecapole moment (field-independent basis, Debye-Ang**3):
 XXXX=          -1153.3404 YYYY=           -309.9426 ZZZZ=           -302.9036 XXXY=              5.1856
 XXXZ=             -5.5205 YYYX=             26.1817 YYYZ=            -35.4543 ZZZX=             -8.9633
 ZZZY=              4.2656 XXYY=           -269.0857 XXZZ=           -276.7209 YYZZ=           -102.8690
 XXYZ=             10.8296 YYXZ=            -17.7707 ZZXY=              7.0443
 N-N= 5.861235027333D+02 E-N=-2.997652512870D+03  KE= 7.781205358618D+02
 No NMR shielding tensors so no spin-rotation constants.
 Leave Link  601 at Mon Oct 14 01:53:27 2019, MaxMem= 10737418240 cpu:               2.3 elap:               0.1
 (Enter /apps/cent7/gaussian/g16-A.03/g16-haswell/g16/l701.exe)
 ... and contract with generalized density number  0.
 Compute integral first derivatives.
 Leave Link  701 at Mon Oct 14 01:53:27 2019, MaxMem= 10737418240 cpu:               3.2 elap:               0.2
 (Enter /apps/cent7/gaussian/g16-A.03/g16-haswell/g16/l702.exe)
 L702 exits ... SP integral derivatives will be done elsewhere.
 Leave Link  702 at Mon Oct 14 01:53:27 2019, MaxMem= 10737418240 cpu:               0.5 elap:               0.0
 (Enter /apps/cent7/gaussian/g16-A.03/g16-haswell/g16/l703.exe)
 Integral derivatives from FoFJK, PRISM(SPDF).
 Compute integral first derivatives, UseDBF=F ICtDFT=           0.
 Calling FoFJK, ICntrl=      2127 FMM=F ISym2X=0 I1Cent= 0 IOpClX= 0 NMat=1 NMatS=1 NMatT=0.
 FoFJK:  IHMeth= 1 ICntrl=    2127 DoSepK=F KAlg= 0 I1Cent=           0 FoldK=F
 IRaf=         0 NMat=       1 IRICut=       1 DoRegI=T DoRafI=F ISym2E= 0 IDoP0=0 IntGTp=1.
 FoFCou: FMM=F IPFlag=           0 FMFlag=      100000 FMFlg1=         800
         NFxFlg=           0 DoJE=F BraDBF=F KetDBF=F FulRan=T
         wScrn=  0.000000 ICntrl=      2127 IOpCl=  0 I1Cent=           0 NGrid=           0
         NMat0=    1 NMatS0=      1 NMatT0=    0 NMatD0=    1 NMtDS0=    0 NMtDT0=    0
 Symmetry not used in FoFCou.
 Leave Link  703 at Mon Oct 14 01:53:28 2019, MaxMem= 10737418240 cpu:              21.5 elap:               0.9
 (Enter /apps/cent7/gaussian/g16-A.03/g16-haswell/g16/l716.exe)
 Dipole        =-7.00310465D-01 7.41902925D-02-1.43278112D-01
 ***** Axes restored to original set *****
 -------------------------------------------------------------------
 Center     Atomic                   Forces (Hartrees/Bohr)
 Number     Number              X              Y              Z
 -------------------------------------------------------------------
      1        8          -0.049617363    0.004555680   -0.028893547
      2       16           0.072757812   -0.024726331    0.024244241
      3        6          -0.033833537    0.001863531    0.003995355
      4        6           0.025840530    0.030930990   -0.022114166
      5        6          -0.006260369    0.020332482   -0.013826701
      6        6           0.004865698   -0.003189241    0.001637566
      7        6          -0.008137878   -0.003521715   -0.001328697
      8        6          -0.000357806   -0.008483348   -0.000049215
      9        6           0.004015266   -0.009800699    0.001553492
     10        6          -0.004203575    0.004621362   -0.003031213
     11        1          -0.023591880   -0.003665723    0.040061799
     12        1           0.002847204   -0.031094743   -0.022334467
     13        1          -0.004090498    0.034174467    0.007470682
     14        1          -0.001329104    0.001856387    0.000107858
     15        1          -0.002993858   -0.002680437   -0.000147428
     16        1          -0.000457108   -0.003134523   -0.000229684
     17        1           0.001534934   -0.003511313    0.000602691
     18        1           0.002179114    0.001373561    0.001206909
     19        1           0.020832420   -0.005900386    0.011074526
 -------------------------------------------------------------------
 Cartesian Forces:  Max     0.072757812 RMS     0.018552381
 Leave Link  716 at Mon Oct 14 01:53:28 2019, MaxMem= 10737418240 cpu:               1.3 elap:               0.1
 (Enter /apps/cent7/gaussian/g16-A.03/g16-haswell/g16/l103.exe)

 GradGradGradGradGradGradGradGradGradGradGradGradGradGradGradGradGradGrad
 Berny optimization.
 FormGI is forming the generalized inverse of G from B-inverse, IUseBI=4.
 Internal  Forces:  Max     0.050552963 RMS     0.013452072
 Search for a local minimum.
 Step number   1 out of a maximum of   95
 All quantities printed in internal units (Hartrees-Bohrs-Radians)
 RMS Force = .13452D-01 SwitMx=.10000D-02 MixMth= 1
 Mixed Optimization -- RFO/linear search
 Second derivative matrix not updated -- first step.
 ITU=  0
     Eigenvalues ---    0.00707   0.01087   0.01560   0.01767   0.01942
     Eigenvalues ---    0.01956   0.01970   0.01980   0.01991   0.01992
     Eigenvalues ---    0.01994   0.01996   0.02526   0.02928   0.02928
     Eigenvalues ---    0.06291   0.16000   0.16000   0.16000   0.16000
     Eigenvalues ---    0.16000   0.16000   0.16000   0.16000   0.16000
     Eigenvalues ---    0.17904   0.19729   0.22000   0.22000   0.22000
     Eigenvalues ---    0.23476   0.24989   0.28230   0.30893   0.34809
     Eigenvalues ---    0.34810   0.34812   0.34814   0.34814   0.34817
     Eigenvalues ---    0.34819   0.34819   0.40330   0.40474   0.43865
     Eigenvalues ---    0.44170   0.44376   0.44466   0.49881   0.55473
     Eigenvalues ---    0.57985
 RFO step:  Lambda=-7.83613626D-02 EMin= 7.07165119D-03
 Linear search not attempted -- first point.
 Maximum step size (   0.300) exceeded in Quadratic search.
    -- Step size scaled by   0.851
 Iteration  1 RMS(Cart)=  0.11120790 RMS(Int)=  0.01339924
 Iteration  2 RMS(Cart)=  0.01661262 RMS(Int)=  0.00127112
 Iteration  3 RMS(Cart)=  0.00055258 RMS(Int)=  0.00115663
 Iteration  4 RMS(Cart)=  0.00000058 RMS(Int)=  0.00115663
 ITry= 1 IFail=0 DXMaxC= 7.01D-01 DCOld= 1.00D+10 DXMaxT= 3.00D-01 DXLimC= 3.00D+00 Rises=F
 Variable       Old X    -DE/DX   Delta X   Delta X   Delta X     New X
                                 (Linear)    (Quad)   (Total)
    R1        3.03686   0.01023   0.00000   0.01509   0.01509   3.05195
    R2        1.81414   0.01557   0.00000   0.02094   0.02094   1.83507
    R3        3.29917  -0.00341   0.00000  -0.00749  -0.00749   3.29168
    R4        3.35338  -0.00786   0.00000  -0.01856  -0.01856   3.33482
    R5        2.52572   0.05055   0.00000   0.06538   0.06538   2.59110
    R6        2.05978   0.00417   0.00000   0.00833   0.00833   2.06811
    R7        2.05981   0.00033   0.00000   0.00065   0.00065   2.06046
    R8        2.05972   0.00245   0.00000   0.00489   0.00489   2.06461
    R9        2.66558  -0.00819   0.00000  -0.01324  -0.01323   2.65235
   R10        2.66892  -0.00696   0.00000  -0.01128  -0.01126   2.65766
   R11        2.65932  -0.01498   0.00000  -0.02440  -0.02440   2.63492
   R12        2.05969  -0.00220   0.00000  -0.00439  -0.00439   2.05530
   R13        2.65965  -0.00782   0.00000  -0.01295  -0.01297   2.64667
   R14        2.05985  -0.00366   0.00000  -0.00730  -0.00730   2.05255
   R15        2.65828  -0.00561   0.00000  -0.00934  -0.00936   2.64892
   R16        2.05977  -0.00316   0.00000  -0.00631  -0.00631   2.05346
   R17        2.66070  -0.01679   0.00000  -0.02740  -0.02739   2.63330
   R18        2.05984  -0.00356   0.00000  -0.00711  -0.00711   2.05273
   R19        2.05970  -0.00264   0.00000  -0.00527  -0.00527   2.05442
    A1        2.09440  -0.03298   0.00000  -0.11780  -0.11780   1.97659
    A2        1.83156  -0.02639   0.00000  -0.11595  -0.11773   1.71383
    A3        1.82802   0.01553   0.00000   0.02337   0.01592   1.84393
    A4        1.92262  -0.01941   0.00000  -0.07963  -0.08128   1.84134
    A5        2.17954   0.00176   0.00000   0.00503   0.00503   2.18457
    A6        2.30091  -0.03942   0.00000  -0.14016  -0.14016   2.16075
    A7        1.80273   0.03766   0.00000   0.13513   0.13512   1.93785
    A8        2.09433  -0.00324   0.00000  -0.01158  -0.01176   2.08257
    A9        2.09437   0.01341   0.00000   0.04788   0.04771   2.14208
   A10        2.09449  -0.01016   0.00000  -0.03630  -0.03647   2.05802
   A11        2.07457  -0.01178   0.00000  -0.03116  -0.03119   2.04339
   A12        2.12286  -0.00002   0.00000  -0.00065  -0.00067   2.12219
   A13        2.08539   0.01179   0.00000   0.03177   0.03181   2.11720
   A14        2.09629  -0.00742   0.00000  -0.02025  -0.02023   2.07605
   A15        2.09558   0.00423   0.00000   0.01198   0.01197   2.10755
   A16        2.09132   0.00319   0.00000   0.00827   0.00826   2.09958
   A17        2.09775  -0.00036   0.00000  -0.00088  -0.00091   2.09684
   A18        2.09247  -0.00152   0.00000  -0.00564  -0.00563   2.08684
   A19        2.09296   0.00188   0.00000   0.00653   0.00654   2.09950
   A20        2.09388   0.00374   0.00000   0.01042   0.01038   2.10426
   A21        2.09511  -0.00207   0.00000  -0.00592  -0.00590   2.08921
   A22        2.09419  -0.00167   0.00000  -0.00450  -0.00448   2.08972
   A23        2.09264   0.00017   0.00000   0.00061   0.00060   2.09324
   A24        2.09454   0.00148   0.00000   0.00527   0.00527   2.09981
   A25        2.09601  -0.00164   0.00000  -0.00588  -0.00587   2.09013
   A26        2.10036  -0.00792   0.00000  -0.02166  -0.02164   2.07872
   A27        2.09424   0.00456   0.00000   0.01300   0.01298   2.10722
   A28        2.08859   0.00335   0.00000   0.00867   0.00865   2.09724
    D1        2.69435   0.00976   0.00000   0.03635   0.03625   2.73059
    D2       -1.56357  -0.01651   0.00000  -0.09181  -0.09171  -1.65527
    D3        2.24812  -0.00441   0.00000  -0.05667  -0.05326   2.19486
    D4       -0.89337  -0.00507   0.00000  -0.06258  -0.05881  -0.95218
    D5        0.28923  -0.00044   0.00000   0.00996   0.00619   0.29541
    D6       -2.85227  -0.00111   0.00000   0.00405   0.00064  -2.85162
    D7        2.24020   0.01489   0.00000   0.07148   0.07183   2.31203
    D8       -0.87236   0.01489   0.00000   0.07284   0.07314  -0.79922
    D9       -2.08180  -0.01610   0.00000  -0.08483  -0.08513  -2.16693
   D10        1.08883  -0.01609   0.00000  -0.08347  -0.08382   1.00501
   D11       -2.12800  -0.03436   0.00000  -0.27201  -0.27222  -2.40021
   D12        1.01359  -0.02988   0.00000  -0.23657  -0.23677   0.77682
   D13        1.01352  -0.03386   0.00000  -0.26750  -0.26729   0.74622
   D14       -2.12808  -0.02937   0.00000  -0.23205  -0.23185  -2.35993
   D15       -3.10813   0.00001   0.00000   0.00036   0.00037  -3.10776
   D16        0.03362  -0.00008   0.00000  -0.00052  -0.00051   0.03311
   D17        0.00506  -0.00019   0.00000  -0.00149  -0.00149   0.00357
   D18       -3.13637  -0.00027   0.00000  -0.00236  -0.00237  -3.13874
   D19        3.10319  -0.00042   0.00000  -0.00290  -0.00291   3.10027
   D20       -0.03841   0.00022   0.00000   0.00269   0.00267  -0.03574
   D21       -0.00920  -0.00003   0.00000  -0.00051  -0.00050  -0.00969
   D22        3.13239   0.00061   0.00000   0.00508   0.00509   3.13748
   D23        0.00463   0.00016   0.00000   0.00131   0.00130   0.00593
   D24       -3.13699  -0.00004   0.00000  -0.00039  -0.00039  -3.13738
   D25       -3.13713   0.00024   0.00000   0.00219   0.00218  -3.13495
   D26        0.00444   0.00005   0.00000   0.00049   0.00049   0.00493
   D27       -0.01024   0.00012   0.00000   0.00094   0.00092  -0.00932
   D28        3.13130  -0.00008   0.00000  -0.00064  -0.00066   3.13064
   D29        3.13137   0.00031   0.00000   0.00264   0.00263   3.13400
   D30       -0.01027   0.00011   0.00000   0.00106   0.00105  -0.00922
   D31        0.00611  -0.00036   0.00000  -0.00300  -0.00301   0.00309
   D32       -3.13551  -0.00038   0.00000  -0.00300  -0.00301  -3.13853
   D33       -3.13543  -0.00016   0.00000  -0.00142  -0.00143  -3.13687
   D34        0.00613  -0.00018   0.00000  -0.00142  -0.00143   0.00470
   D35        0.00363   0.00027   0.00000   0.00266   0.00265   0.00628
   D36       -3.13796  -0.00037   0.00000  -0.00290  -0.00291  -3.14086
   D37       -3.13794   0.00028   0.00000   0.00266   0.00265  -3.13529
   D38        0.00366  -0.00036   0.00000  -0.00290  -0.00291   0.00075
         Item               Value     Threshold  Converged?
 Maximum Force            0.050553     0.000450     NO 
 RMS     Force            0.013452     0.000300     NO 
 Maximum Displacement     0.700690     0.001800     NO 
 RMS     Displacement     0.117575     0.001200     NO 
 Predicted change in Energy=-5.327058D-02
 Lowest energy point so far.  Saving SCF results.
 GradGradGradGradGradGradGradGradGradGradGradGradGradGradGradGradGradGrad

 Leave Link  103 at Mon Oct 14 01:53:29 2019, MaxMem= 10737418240 cpu:               1.1 elap:               0.1
 (Enter /apps/cent7/gaussian/g16-A.03/g16-haswell/g16/l202.exe)
                          Input orientation:                          
 ---------------------------------------------------------------------
 Center     Atomic      Atomic             Coordinates (Angstroms)
 Number     Number       Type             X           Y           Z
 ---------------------------------------------------------------------
      1          8           0       -1.748109   -1.860818    1.016894
      2         16           0       -0.438818   -1.697500    0.085561
      3          6           0       -1.164404   -2.123168   -1.439720
      4          6           0       -1.128489   -1.353046   -2.573596
      5          6           0       -0.133019    0.038119   -0.005677
      6          6           0        1.185093    0.467071    0.214715
      7          6           0        1.462891    1.833275    0.192347
      8          6           0        0.435313    2.756139   -0.039969
      9          6           0       -0.877887    2.319545   -0.263114
     10          6           0       -1.169141    0.956892   -0.251036
     11          1           0       -1.709846   -3.055563   -1.615339
     12          1           0       -2.029646   -1.251656   -3.178985
     13          1           0       -0.220062   -0.855511   -2.921271
     14          1           0        1.979990   -0.251498    0.401021
     15          1           0        2.480162    2.176137    0.357749
     16          1           0        0.657941    3.819718   -0.045729
     17          1           0       -1.671171    3.038795   -0.445699
     18          1           0       -2.186190    0.614131   -0.424329
     19          1           0       -1.536519   -2.027902    1.949796
 ---------------------------------------------------------------------
                    Distance matrix (angstroms):
                    1          2          3          4          5
     1  O    0.000000
     2  S    1.615022   0.000000
     3  C    2.538600   1.741882   0.000000
     4  C    3.678774   2.768648   1.371150   0.000000
     5  C    2.694462   1.764712   2.791307   3.085532   0.000000
     6  C    3.829652   2.709084   3.868673   4.054647   1.403565
     7  C    4.963540   4.011767   5.021929   4.951599   2.410131
     8  C    5.215418   4.540348   5.322221   5.074460   2.777015
     9  C    4.457706   4.055984   4.604801   4.346154   2.413713
    10  C    3.143618   2.773529   3.301479   3.275935   1.406376
    11  H    2.890939   2.520498   1.094399   2.038332   3.827304
    12  H    4.249205   3.658794   2.129136   1.090348   3.915430
    13  H    4.342201   3.130150   2.166502   1.092547   3.050711
    14  H    4.107059   2.835677   4.096180   4.441216   2.171195
    15  H    5.883005   4.857941   5.915892   5.836975   3.395867
    16  H    6.259931   5.626705   6.370404   6.028178   3.863640
    17  H    5.113834   4.922745   5.281170   4.910266   3.400527
    18  H    2.897311   2.942267   3.093198   3.099656   2.173148
    19  H    0.971079   2.188489   3.411211   4.591622   3.172085
                    6          7          8          9         10
     6  C    0.000000
     7  C    1.394341   0.000000
     8  C    2.422161   1.400559   0.000000
     9  C    2.813515   2.433752   1.401750   0.000000
    10  C    2.449340   2.809311   2.419940   1.393485   0.000000
    11  H    4.913117   6.102027   6.392134   5.604682   4.272409
    12  H    4.980539   5.751565   5.656135   4.752087   3.767100
    13  H    3.682132   4.444831   4.666415   4.192793   3.363883
    14  H    1.087618   2.158058   3.409747   3.901128   3.435463
    15  H    2.149085   1.086164   2.162404   3.417972   3.895457
    16  H    3.403815   2.156520   1.086645   2.157902   3.402375
    17  H    3.899763   3.418001   2.163744   1.086258   2.150407
    18  H    3.434466   3.896460   3.407082   2.155478   1.087155
    19  H    4.079530   5.195553   5.543855   4.922505   3.726609
                   11         12         13         14         15
    11  H    0.000000
    12  H    2.408598   0.000000
    13  H    2.960598   1.870278   0.000000
    14  H    5.054045   5.467535   4.030222   0.000000
    15  H    6.987125   6.678070   5.218627   2.479003   0.000000
    16  H    7.439057   6.539056   5.558543   4.303742   2.486894
    17  H    6.205703   5.099738   4.837333   4.987378   4.315469
    18  H    3.887423   3.330735   3.501461   4.334463   4.982605
    19  H    3.714339   5.210578   5.180236   4.233219   6.028455
                   16         17         18         19
    16  H    0.000000
    17  H    2.488892   0.000000
    18  H    4.302117   2.478850   0.000000
    19  H    6.556861   5.606063   3.610939   0.000000
 Stoichiometry    C8H9OS(1+)
 Framework group  C1[X(C8H9OS)]
 Deg. of freedom    51
 Full point group                 C1      NOp   1
 RotChk:  IX=0 Diff= 2.65D-01
 Largest Abelian subgroup         C1      NOp   1
 Largest concise Abelian subgroup C1      NOp   1
                         Standard orientation:                         
 ---------------------------------------------------------------------
 Center     Atomic      Atomic             Coordinates (Angstroms)
 Number     Number       Type             X           Y           Z
 ---------------------------------------------------------------------
      1          8           0       -1.914470   -1.117931    1.226099
      2         16           0       -1.407335   -0.731674   -0.257786
      3          6           0       -2.266207    0.773967   -0.429645
      4          6           0       -1.693119    1.978122   -0.748448
      5          6           0        0.291392   -0.287972   -0.079837
      6          6           0        1.198264   -0.854210   -0.989206
      7          6           0        2.555528   -0.562572   -0.858948
      8          6           0        2.998707    0.277373    0.170445
      9          6           0        2.086232    0.842139    1.072294
     10          6           0        0.725955    0.565590    0.949958
     11          1           0       -3.347975    0.876157   -0.299090
     12          1           0       -2.009526    2.877011   -0.218595
     13          1           0       -0.947979    2.086587   -1.540067
     14          1           0        0.851999   -1.511096   -1.783885
     15          1           0        3.265681   -0.992173   -1.559575
     16          1           0        4.059193    0.491712    0.271563
     17          1           0        2.434204    1.495311    1.867428
     18          1           0        0.014935    1.002140    1.646938
     19          1           0       -1.867923   -2.070032    1.411386
 ---------------------------------------------------------------------
 Rotational constants (GHZ):           2.1077339           0.7994695           0.7459310
 Leave Link  202 at Mon Oct 14 01:53:29 2019, MaxMem= 10737418240 cpu:               0.3 elap:               0.0
 (Enter /apps/cent7/gaussian/g16-A.03/g16-haswell/g16/l301.exe)
 Standard basis: 6-31G(d) (6D, 7F)
 Ernie: Thresh=  0.10000D-02 Tol=  0.10000D-05 Strict=F.
 There are   172 symmetry adapted cartesian basis functions of A   symmetry.
 There are   172 symmetry adapted basis functions of A   symmetry.
   172 basis functions,   340 primitive gaussians,   172 cartesian basis functions
    40 alpha electrons       40 beta electrons
       nuclear repulsion energy       591.2781257343 Hartrees.
 IExCor=  402 DFT=T Ex+Corr=B3LYP ExCW=0 ScaHFX=  0.200000
 ScaDFX=  0.800000  0.720000  1.000000  0.810000 ScalE2=  1.000000  1.000000
 IRadAn=      5 IRanWt=     -1 IRanGd=            0 ICorTp=0 IEmpDi=  4
 NAtoms=   19 NActive=   19 NUniq=   19 SFac= 1.00D+00 NAtFMM=   60 NAOKFM=F Big=F
 Integral buffers will be    131072 words long.
 Raffenetti 2 integral format.
 Two-electron integral symmetry is turned on.
 Leave Link  301 at Mon Oct 14 01:53:29 2019, MaxMem= 10737418240 cpu:               1.3 elap:               0.1
 (Enter /apps/cent7/gaussian/g16-A.03/g16-haswell/g16/l302.exe)
 NPDir=0 NMtPBC=     1 NCelOv=     1 NCel=       1 NClECP=     1 NCelD=      1
         NCelK=      1 NCelE2=     1 NClLst=     1 CellRange=     0.0.
 One-electron integrals computed using PRISM.
 One-electron integral symmetry used in STVInt
 NBasis=   172 RedAO= T EigKep=  5.16D-04  NBF=   172
 NBsUse=   172 1.00D-06 EigRej= -1.00D+00 NBFU=   172
 Precomputing XC quadrature grid using
 IXCGrd= 4 IRadAn=           5 IRanWt=          -1 IRanGd=           0 AccXCQ= 0.00D+00.
 Generated NRdTot=       0 NPtTot=           0 NUsed=           0 NTot=          32
 NSgBfM=   172   172   172   172   172 MxSgAt=    19 MxSgA2=    19.
 Leave Link  302 at Mon Oct 14 01:53:29 2019, MaxMem= 10737418240 cpu:               3.2 elap:               0.2
 (Enter /apps/cent7/gaussian/g16-A.03/g16-haswell/g16/l303.exe)
 DipDrv:  MaxL=1.
 Leave Link  303 at Mon Oct 14 01:53:29 2019, MaxMem= 10737418240 cpu:               0.6 elap:               0.0
 (Enter /apps/cent7/gaussian/g16-A.03/g16-haswell/g16/l401.exe)
 Initial guess from the checkpoint file:  "34_p.chk"
 B after Tr=    -0.000000   -0.000000   -0.000000
         Rot=    0.995572    0.092496    0.011263    0.012382 Ang=  10.79 deg.
 Guess basis will be translated and rotated to current coordinates.
 JPrj=2 DoOrth=T DoCkMO=T.
 Generating alternative initial guess.
 ExpMin= 1.17D-01 ExpMax= 2.19D+04 ExpMxC= 3.30D+03 IAcc=2 IRadAn=         4 AccDes= 0.00D+00
 Harris functional with IExCor=  402 and IRadAn=       4 diagonalized for initial guess.
 HarFok:  IExCor=  402 AccDes= 0.00D+00 IRadAn=         4 IDoV= 1 UseB2=F ITyADJ=14
 ICtDFT=  3500011 ScaDFX=  1.000000  1.000000  1.000000  1.000000
 FoFCou: FMM=F IPFlag=           0 FMFlag=      100000 FMFlg1=           0
         NFxFlg=           0 DoJE=T BraDBF=F KetDBF=T FulRan=T
         wScrn=  0.000000 ICntrl=       500 IOpCl=  0 I1Cent=   200000004 NGrid=           0
         NMat0=    1 NMatS0=      1 NMatT0=    0 NMatD0=    1 NMtDS0=    0 NMtDT0=    0
 Petite list used in FoFCou.
 Harris En= -783.363084800712    
 Leave Link  401 at Mon Oct 14 01:53:29 2019, MaxMem= 10737418240 cpu:               6.6 elap:               0.3
 (Enter /apps/cent7/gaussian/g16-A.03/g16-haswell/g16/l502.exe)
 Integral symmetry usage will be decided dynamically.
 Closed shell SCF:
 Using DIIS extrapolation, IDIIS=  1040.
 NGot= 10737418240 LenX= 10737352958 LenY= 10737322933
 Requested convergence on RMS density matrix=1.00D-08 within 128 cycles.
 Requested convergence on MAX density matrix=1.00D-06.
 Requested convergence on             energy=1.00D-06.
 No special actions if energy rises.
 Fock matrices will be formed incrementally for  20 cycles.
 Integral accuracy reduced to 1.0D-05 until final iterations.

 Cycle   1  Pass 0  IDiag  1:
 FoFJK:  IHMeth= 1 ICntrl=       0 DoSepK=F KAlg= 0 I1Cent=           0 FoldK=F
 IRaf= 930000000 NMat=       1 IRICut=       1 DoRegI=T DoRafI=F ISym2E= 0 IDoP0=0 IntGTp=1.
 FoFCou: FMM=F IPFlag=           0 FMFlag=      100000 FMFlg1=           0
         NFxFlg=           0 DoJE=F BraDBF=F KetDBF=F FulRan=T
         wScrn=  0.000000 ICntrl=         0 IOpCl=  0 I1Cent=           0 NGrid=           0
         NMat0=    1 NMatS0=      1 NMatT0=    0 NMatD0=    1 NMtDS0=    0 NMtDT0=    0
 Symmetry not used in FoFCou.
 E= -783.297614354260    
 DIIS: error= 6.65D-03 at cycle   1 NSaved=   1.
 NSaved= 1 IEnMin= 1 EnMin= -783.297614354260     IErMin= 1 ErrMin= 6.65D-03
 ErrMax= 6.65D-03  0.00D+00 EMaxC= 1.00D-01 BMatC= 7.79D-03 BMatP= 7.79D-03
 IDIUse=3 WtCom= 9.33D-01 WtEn= 6.65D-02
 Coeff-Com:  0.100D+01
 Coeff-En:   0.100D+01
 Coeff:      0.100D+01
 Gap=     1.893 Goal=   None    Shift=    0.000
 GapD=    1.893 DampG=2.000 DampE=1.000 DampFc=2.0000 IDamp=-1.
 RMSDP=1.17D-03 MaxDP=2.22D-02              OVMax= 6.01D-02

 Cycle   2  Pass 0  IDiag  1:
 RMSU=  1.17D-03    CP:  1.00D+00
 E= -783.314528852420     Delta-E=       -0.016914498160 Rises=F Damp=F
 DIIS: error= 1.07D-03 at cycle   2 NSaved=   2.
 NSaved= 2 IEnMin= 2 EnMin= -783.314528852420     IErMin= 2 ErrMin= 1.07D-03
 ErrMax= 1.07D-03  0.00D+00 EMaxC= 1.00D-01 BMatC= 3.82D-04 BMatP= 7.79D-03
 IDIUse=3 WtCom= 9.89D-01 WtEn= 1.07D-02
 Coeff-Com:  0.879D-02 0.991D+00
 Coeff-En:   0.000D+00 0.100D+01
 Coeff:      0.870D-02 0.991D+00
 Gap=     0.162 Goal=   None    Shift=    0.000
 RMSDP=2.91D-04 MaxDP=9.34D-03 DE=-1.69D-02 OVMax= 1.26D-02

 Cycle   3  Pass 0  IDiag  1:
 RMSU=  2.86D-04    CP:  1.00D+00  1.04D+00
 E= -783.314455828082     Delta-E=        0.000073024337 Rises=F Damp=F
 DIIS: error= 1.22D-03 at cycle   3 NSaved=   3.
 NSaved= 3 IEnMin= 2 EnMin= -783.314528852420     IErMin= 2 ErrMin= 1.07D-03
 ErrMax= 1.22D-03  0.00D+00 EMaxC= 1.00D-01 BMatC= 6.54D-04 BMatP= 3.82D-04
 IDIUse=3 WtCom= 2.23D-01 WtEn= 7.77D-01
 Coeff-Com: -0.386D-01 0.596D+00 0.443D+00
 Coeff-En:   0.000D+00 0.537D+00 0.463D+00
 Coeff:     -0.860D-02 0.550D+00 0.459D+00
 Gap=     0.164 Goal=   None    Shift=    0.000
 RMSDP=1.96D-04 MaxDP=6.51D-03 DE= 7.30D-05 OVMax= 8.99D-03

 Cycle   4  Pass 0  IDiag  1:
 RMSU=  9.22D-05    CP:  1.00D+00  1.07D+00  4.15D-01
 E= -783.315026388006     Delta-E=       -0.000570559924 Rises=F Damp=F
 DIIS: error= 4.96D-04 at cycle   4 NSaved=   4.
 NSaved= 4 IEnMin= 4 EnMin= -783.315026388006     IErMin= 4 ErrMin= 4.96D-04
 ErrMax= 4.96D-04  0.00D+00 EMaxC= 1.00D-01 BMatC= 6.76D-05 BMatP= 3.82D-04
 IDIUse=3 WtCom= 9.95D-01 WtEn= 4.96D-03
 Coeff-Com: -0.214D-01 0.219D+00 0.283D+00 0.519D+00
 Coeff-En:   0.000D+00 0.000D+00 0.726D-01 0.927D+00
 Coeff:     -0.213D-01 0.218D+00 0.282D+00 0.521D+00
 Gap=     0.164 Goal=   None    Shift=    0.000
 RMSDP=5.87D-05 MaxDP=1.84D-03 DE=-5.71D-04 OVMax= 3.51D-03

 Cycle   5  Pass 0  IDiag  1:
 RMSU=  3.54D-05    CP:  1.00D+00  1.08D+00  5.20D-01  6.14D-01
 E= -783.315090495260     Delta-E=       -0.000064107254 Rises=F Damp=F
 DIIS: error= 1.61D-04 at cycle   5 NSaved=   5.
 NSaved= 5 IEnMin= 5 EnMin= -783.315090495260     IErMin= 5 ErrMin= 1.61D-04
 ErrMax= 1.61D-04  0.00D+00 EMaxC= 1.00D-01 BMatC= 5.99D-06 BMatP= 6.76D-05
 IDIUse=3 WtCom= 9.98D-01 WtEn= 1.61D-03
 Coeff-Com: -0.632D-02 0.340D-01 0.948D-01 0.306D+00 0.571D+00
 Coeff-En:   0.000D+00 0.000D+00 0.000D+00 0.335D-01 0.967D+00
 Coeff:     -0.631D-02 0.340D-01 0.947D-01 0.306D+00 0.572D+00
 Gap=     0.164 Goal=   None    Shift=    0.000
 RMSDP=1.72D-05 MaxDP=6.35D-04 DE=-6.41D-05 OVMax= 1.01D-03

 Cycle   6  Pass 0  IDiag  1:
 RMSU=  1.18D-05    CP:  1.00D+00  1.08D+00  5.22D-01  6.80D-01  6.93D-01
 E= -783.315096667072     Delta-E=       -0.000006171811 Rises=F Damp=F
 DIIS: error= 5.23D-05 at cycle   6 NSaved=   6.
 NSaved= 6 IEnMin= 6 EnMin= -783.315096667072     IErMin= 6 ErrMin= 5.23D-05
 ErrMax= 5.23D-05  0.00D+00 EMaxC= 1.00D-01 BMatC= 5.70D-07 BMatP= 5.99D-06
 IDIUse=1 WtCom= 1.00D+00 WtEn= 0.00D+00
 Coeff-Com: -0.660D-03-0.889D-02 0.147D-01 0.102D+00 0.306D+00 0.587D+00
 Coeff:     -0.660D-03-0.889D-02 0.147D-01 0.102D+00 0.306D+00 0.587D+00
 Gap=     0.164 Goal=   None    Shift=    0.000
 RMSDP=6.90D-06 MaxDP=2.24D-04 DE=-6.17D-06 OVMax= 3.66D-04

 Initial convergence to 1.0D-05 achieved.  Increase integral accuracy.
 Cycle   7  Pass 1  IDiag  1:
 E= -783.315093627040     Delta-E=        0.000003040032 Rises=F Damp=F
 DIIS: error= 2.31D-05 at cycle   1 NSaved=   1.
 NSaved= 1 IEnMin= 1 EnMin= -783.315093627040     IErMin= 1 ErrMin= 2.31D-05
 ErrMax= 2.31D-05  0.00D+00 EMaxC= 1.00D-01 BMatC= 1.73D-07 BMatP= 1.73D-07
 IDIUse=1 WtCom= 1.00D+00 WtEn= 0.00D+00
 Coeff-Com:  0.100D+01
 Coeff:      0.100D+01
 Gap=     0.164 Goal=   None    Shift=    0.000
 RMSDP=6.90D-06 MaxDP=2.24D-04 DE= 3.04D-06 OVMax= 3.90D-04

 Cycle   8  Pass 1  IDiag  1:
 RMSU=  8.09D-06    CP:  1.00D+00
 E= -783.315093185950     Delta-E=        0.000000441089 Rises=F Damp=F
 DIIS: error= 5.42D-05 at cycle   2 NSaved=   2.
 NSaved= 2 IEnMin= 1 EnMin= -783.315093627040     IErMin= 1 ErrMin= 2.31D-05
 ErrMax= 5.42D-05  0.00D+00 EMaxC= 1.00D-01 BMatC= 5.84D-07 BMatP= 1.73D-07
 IDIUse=1 WtCom= 1.00D+00 WtEn= 0.00D+00
 Coeff-Com:  0.655D+00 0.345D+00
 Coeff:      0.655D+00 0.345D+00
 Gap=     0.164 Goal=   None    Shift=    0.000
 RMSDP=4.92D-06 MaxDP=1.58D-04 DE= 4.41D-07 OVMax= 2.98D-04

 Cycle   9  Pass 1  IDiag  1:
 RMSU=  2.48D-06    CP:  1.00D+00  4.75D-01
 E= -783.315093785354     Delta-E=       -0.000000599404 Rises=F Damp=F
 DIIS: error= 6.67D-06 at cycle   3 NSaved=   3.
 NSaved= 3 IEnMin= 3 EnMin= -783.315093785354     IErMin= 3 ErrMin= 6.67D-06
 ErrMax= 6.67D-06  0.00D+00 EMaxC= 1.00D-01 BMatC= 9.78D-09 BMatP= 1.73D-07
 IDIUse=1 WtCom= 1.00D+00 WtEn= 0.00D+00
 Coeff-Com:  0.210D+00 0.158D+00 0.632D+00
 Coeff:      0.210D+00 0.158D+00 0.632D+00
 Gap=     0.164 Goal=   None    Shift=    0.000
 RMSDP=8.12D-07 MaxDP=3.86D-05 DE=-5.99D-07 OVMax= 4.29D-05

 Cycle  10  Pass 1  IDiag  1:
 RMSU=  7.44D-07    CP:  1.00D+00  4.90D-01  8.79D-01
 E= -783.315093792751     Delta-E=       -0.000000007397 Rises=F Damp=F
 DIIS: error= 2.88D-06 at cycle   4 NSaved=   4.
 NSaved= 4 IEnMin= 4 EnMin= -783.315093792751     IErMin= 4 ErrMin= 2.88D-06
 ErrMax= 2.88D-06  0.00D+00 EMaxC= 1.00D-01 BMatC= 2.88D-09 BMatP= 9.78D-09
 IDIUse=1 WtCom= 1.00D+00 WtEn= 0.00D+00
 Coeff-Com:  0.130D-01 0.398D-01 0.394D+00 0.553D+00
 Coeff:      0.130D-01 0.398D-01 0.394D+00 0.553D+00
 Gap=     0.164 Goal=   None    Shift=    0.000
 RMSDP=3.54D-07 MaxDP=1.48D-05 DE=-7.40D-09 OVMax= 1.63D-05

 Cycle  11  Pass 1  IDiag  1:
 RMSU=  1.59D-07    CP:  1.00D+00  5.01D-01  9.07D-01  6.04D-01
 E= -783.315093795520     Delta-E=       -0.000000002769 Rises=F Damp=F
 DIIS: error= 7.18D-07 at cycle   5 NSaved=   5.
 NSaved= 5 IEnMin= 5 EnMin= -783.315093795520     IErMin= 5 ErrMin= 7.18D-07
 ErrMax= 7.18D-07  0.00D+00 EMaxC= 1.00D-01 BMatC= 2.02D-10 BMatP= 2.88D-09
 IDIUse=1 WtCom= 1.00D+00 WtEn= 0.00D+00
 Coeff-Com: -0.191D-02 0.175D-01 0.210D+00 0.338D+00 0.437D+00
 Coeff:     -0.191D-02 0.175D-01 0.210D+00 0.338D+00 0.437D+00
 Gap=     0.164 Goal=   None    Shift=    0.000
 RMSDP=9.02D-08 MaxDP=3.54D-06 DE=-2.77D-09 OVMax= 3.57D-06

 Cycle  12  Pass 1  IDiag  1:
 RMSU=  4.66D-08    CP:  1.00D+00  5.03D-01  9.08D-01  6.06D-01  5.20D-01
 E= -783.315093795703     Delta-E=       -0.000000000183 Rises=F Damp=F
 DIIS: error= 1.19D-07 at cycle   6 NSaved=   6.
 NSaved= 6 IEnMin= 6 EnMin= -783.315093795703     IErMin= 6 ErrMin= 1.19D-07
 ErrMax= 1.19D-07  0.00D+00 EMaxC= 1.00D-01 BMatC= 5.86D-12 BMatP= 2.02D-10
 IDIUse=1 WtCom= 1.00D+00 WtEn= 0.00D+00
 Coeff-Com: -0.206D-02 0.468D-02 0.580D-01 0.103D+00 0.189D+00 0.647D+00
 Coeff:     -0.206D-02 0.468D-02 0.580D-01 0.103D+00 0.189D+00 0.647D+00
 Gap=     0.164 Goal=   None    Shift=    0.000
[...]
 -0.00631953,0.01262116,-0.04144164,-0.00129467,-0.01994585,0.00794195,
 0.00043097,0.00124404,-0.00191211,0.10036052,-0.02535843,0.13928886,0.
 00317098,0.00306771,-0.00265623,-0.00550125,-0.02096147,0.00307030,0.0
 0164988,0.00274606,0.00020083,0.00060329,0.00056245,0.00022088,-0.3055
 9606,-0.06063819,-0.04734515,0.67460800,0.00026120,-0.00170863,0.00137
 045,-0.02866685,-0.02384066,-0.00610179,0.00077827,-0.00434406,0.00089
 626,0.00004581,-0.00005237,0.00029989,-0.02321949,-0.11076694,0.001350
 06,-0.04237941,0.70435641,0.00379819,0.00477150,-0.00239660,0.00070823
 ,-0.00595914,-0.00242355,-0.00156926,-0.00188653,-0.00076830,-0.000033
 12,-0.00034836,0.00070834,-0.04999661,-0.00444055,-0.05894665,0.107865
 45,-0.04128347,0.15481273,0.00064222,0.00021000,0.00047889,-0.00575140
 ,-0.00548078,-0.00244449,0.00059189,-0.00137634,0.00004475,0.00008291,
 0.00005096,0.00002031,0.00356198,-0.02823048,0.00187302,-0.13754554,-0
 .08154568,-0.01039424,0.72854561,-0.00175825,-0.00177791,0.00095771,-0
 .00108720,0.00840062,-0.00066460,-0.00066771,-0.00049499,0.00067552,-0
 .00031810,-0.00002612,-0.00033177,-0.07578128,-0.01356776,-0.01476000,
 -0.01612089,-0.33050801,0.01248729,0.03117767,0.67578763,-0.00104617,-
 0.00186769,0.00052153,-0.00120981,0.00050276,0.00683228,0.00088628,0.0
 0168566,-0.00108553,-0.00007523,-0.00006364,-0.00000050,0.00201493,-0.
 00526423,0.00811440,-0.01290761,-0.00112175,-0.06556609,0.10896775,-0.
 02061563,0.15501817,0.00005083,-0.00074719,0.00022347,-0.00480326,-0.0
 0005550,0.00029385,0.00027032,-0.00009433,0.00021159,-0.00026403,0.000
 26415,-0.00034285,-0.05431945,0.01270958,-0.01063107,0.05174195,0.0554
 1523,0.00587030,-0.24220742,0.06870304,-0.03573338,0.65610083,0.000498
 75,0.00010738,-0.00024226,0.00043337,0.00087130,0.00012802,0.00009352,
 0.00004888,0.00000356,-0.00005239,-0.00018919,0.00016563,0.01207315,-0
 .00499153,0.00228989,0.01226741,-0.04548171,0.00491670,0.13239593,-0.2
 2590686,0.03146040,0.01751642,0.74785964,-0.00001596,0.00009270,-0.000
 07762,-0.00078918,-0.00008559,-0.00047042,0.00004874,-0.00032873,0.000
 30003,-0.00004210,0.00014638,-0.00004029,-0.00907440,0.00211412,-0.009
 73883,0.00771239,0.01283967,0.00680589,-0.03886584,0.01957116,-0.07182
 207,0.09240117,-0.02333237,0.16233483,-0.00048827,-0.00200831,0.000218
 76,0.00053946,0.01488872,-0.00260637,-0.00093345,-0.00137966,-0.000295
 77,0.00015347,-0.00051216,0.00066508,0.04373450,0.00044603,0.00694325,
 -0.02766269,-0.02618073,-0.00188746,-0.04470470,0.04326673,-0.01201939
 ,-0.30945614,-0.08590066,-0.04015419,0.68780172,-0.00145835,0.00026917
 ,0.00055097,0.00741234,0.00421095,-0.00071211,-0.00075236,-0.00000873,
 0.00027058,-0.00009365,-0.00043857,0.00040736,0.05131012,-0.05364934,0
 .01283368,-0.03322706,-0.03322276,-0.00457383,0.00668985,0.05978235,-0
 .00161418,-0.02189069,-0.14937524,-0.00020487,-0.03889204,0.71620080,-
 0.00074041,-0.00150845,0.00066602,-0.00042396,0.00242801,0.00410229,-0
 .00002207,0.00081209,0.00001377,0.00012283,0.00020080,-0.00003652,0.00
 395796,0.00249416,0.00790857,-0.00259699,-0.00382849,-0.00632522,-0.00
 990016,0.00616885,0.00483503,-0.04219801,-0.01217887,-0.07096724,0.099
 29574,-0.02980297,0.15252278,-0.00249329,0.00076330,0.00144964,0.01305
 134,-0.00485393,-0.00001625,-0.00121106,0.00012124,0.00151295,-0.00033
 146,-0.00010584,-0.00070688,-0.23276486,0.11648541,-0.03684638,-0.0466
 4635,0.00324320,-0.01002318,-0.00485993,0.02022291,-0.00080860,0.00757
 712,-0.03770098,0.00178602,-0.13763595,-0.08233741,-0.00999555,0.71853
 286,0.00191721,0.00469508,-0.00123023,0.00818008,-0.05036513,0.0059596
 2,0.00260139,0.00203297,0.00120352,0.00025866,0.00042381,-0.00100472,0
 .07511601,-0.17154653,0.01886471,0.04180557,0.04704466,0.00435725,0.01
 286477,-0.05455231,0.00522631,-0.07924058,-0.00100573,-0.01436148,-0.0
 1676450,-0.34052050,0.00840219,0.04671066,0.66796018,-0.00225432,0.001
 43993,0.00095082,0.00320516,0.00450293,-0.00190300,0.00071521,-0.00085
 085,-0.00037988,0.00031837,-0.00092731,-0.00081576,-0.03470015,0.02264
 415,-0.06054694,-0.01182910,-0.00102097,0.00475711,-0.00041444,0.00556
 558,-0.00587976,0.00350888,-0.00617725,0.00657349,-0.01288416,-0.00364
 593,-0.06289625,0.10087802,-0.01363748,0.14876041,0.00058845,0.0005976
 5,0.00066831,-0.00496554,-0.01030932,-0.00146989,-0.09885011,-0.126822
 04,0.00391286,0.00479493,0.00016037,0.00065914,-0.00039689,0.00086615,
 -0.00127708,0.00017752,-0.00051622,0.00004748,-0.00008827,0.00019790,0
 .00023100,0.00037841,-0.00008555,0.00003908,-0.00046790,-0.00046512,0.
 00014512,0.00009395,0.00048803,-0.00002468,0.09529704,0.00078082,0.000
 54262,0.00018954,-0.00303738,-0.00316082,-0.00158268,-0.12659782,-0.28
 629709,0.02573508,-0.00606020,-0.00703532,-0.00071025,-0.00129356,0.00
 002789,0.00061168,0.00020928,-0.00003225,-0.00027343,-0.00002676,-0.00
 016988,-0.00001426,-0.00019404,0.00008250,-0.00004403,0.00014455,0.000
 16295,-0.00011191,-0.00007472,0.00012924,0.00008461,0.13672221,0.29375
 630,0.00074305,0.00098268,0.00164817,-0.01337906,-0.02220820,-0.005577
 02,0.00522873,0.02092430,-0.04589710,0.01312176,0.02614800,0.00122876,
 -0.00358815,-0.00083102,-0.00427401,0.00100848,-0.00113200,-0.00029329
 ,-0.00024275,-0.00040831,0.00053334,-0.00012308,-0.00000975,-0.0001100
 0,-0.00026172,-0.00015432,0.00023741,-0.00057223,0.00056887,-0.0000463
 9,-0.00154991,-0.02546563,0.05516191,-0.00146778,0.00058244,-0.0034657
 6,0.01132080,-0.00432770,0.00550883,0.00501938,-0.00043766,0.00107564,
 -0.10019554,-0.05226196,-0.11029571,-0.00095659,-0.00056082,-0.0011071
 4,0.00014594,-0.00006904,0.00013263,-0.00006050,-0.00008998,-0.0000669
 7,-0.00015326,0.00004754,-0.00002529,0.00006251,0.00021805,0.00000167,
 0.00000337,0.00003909,-0.00035627,-0.00468613,0.00294977,0.00179597,0.
 09106950,0.00082603,-0.00055750,0.00323033,-0.00559299,0.00066071,0.00
 116301,0.00681470,0.00810857,0.01648429,-0.05273850,-0.08887106,-0.086
 85874,0.00045416,0.00012909,-0.00012639,0.00000939,0.00033627,-0.00006
 400,0.00008450,-0.00001083,0.00002422,-0.00002966,0.00003400,0.0000135
 5,0.00004424,0.00015072,-0.00004528,-0.00000434,-0.00007343,-0.0000550
 3,0.00320719,-0.00080568,-0.00085335,0.05796026,0.08372137,0.00026882,
 0.00021951,0.00036144,-0.00252537,0.00252519,-0.00224827,-0.01114845,-
 0.00773207,-0.01810874,-0.10905207,-0.08314138,-0.25767041,0.00045429,
 0.00037652,0.00047217,-0.00009564,-0.00003424,0.00002261,0.00000987,0.
 00003558,0.00001689,0.00003443,-0.00002342,0.00000303,0.00003189,-0.00
 007570,0.00001960,-0.00004043,-0.00010083,0.00006234,0.00170389,-0.000
 98723,0.00063718,0.11869682,0.08712546,0.27030989,0.00079389,-0.000517
 50,0.00184261,-0.00558136,0.00312027,-0.00223881,0.00506059,-0.0022954
 4,-0.00130083,-0.11483840,-0.13193364,0.00424822,0.00068634,0.00078414
 ,0.00032048,-0.00040189,0.00002170,-0.00002552,-0.00012362,0.00008619,
 0.00001485,0.00015884,-0.00000591,0.00000823,0.00002402,0.00014771,-0.
 00017328,0.00037998,-0.00034587,-0.00007615,0.00803972,-0.00378151,-0.
 00235869,-0.00076242,-0.01034481,0.00166947,0.10731150,-0.00026986,0.0
 0022116,-0.00082393,0.00244752,-0.00194848,-0.00027259,-0.00809230,-0.
 00891513,0.00164024,-0.13128672,-0.27631327,0.01594960,-0.00045587,0.0
 0001140,-0.00170125,0.00044835,0.00021695,0.00036238,0.00001500,-0.000
 29421,-0.00006907,-0.00029053,-0.00003867,-0.00001794,0.00014434,-0.00
 001807,-0.00009422,0.00003187,-0.00049129,-0.00090973,-0.00391993,0.00
 260350,0.00271301,-0.00390212,-0.00315133,0.00202241,0.14499098,0.2882
 2183,-0.00036195,-0.00032194,-0.00015726,0.00301390,0.00111148,0.00098
 473,0.01240562,0.02485837,0.00103350,0.00170287,0.01187420,-0.05693581
 ,-0.00037103,0.00051090,-0.00058268,-0.00043173,-0.00043646,0.00009943
 ,-0.00010716,0.00013140,-0.00012074,0.00003941,-0.00003262,-0.00004100
 ,0.00010964,-0.00017563,0.00001072,0.00039794,-0.00089512,-0.00052455,
 -0.00259273,0.00245211,-0.00315378,-0.01143921,-0.02045011,0.00605725,
 -0.00250216,-0.01875030,0.05334760,0.00039525,-0.00023812,0.00014555,-
 0.00126175,0.00178196,-0.00000026,0.00023587,-0.00027654,-0.00018797,0
 .00010602,0.00010530,0.00012355,-0.01658201,0.01937337,-0.00444111,-0.
 20443885,0.13721972,-0.04071592,0.01048342,-0.00625881,0.00155539,0.00
 044911,-0.00228208,-0.00124905,0.00004828,-0.00057336,0.00018405,-0.00
 344858,-0.00379469,-0.00163350,0.00003409,0.00001382,0.00008894,-0.000
 07753,-0.00000949,0.00004147,0.00000536,0.00000602,-0.00000019,0.21378
 930,0.00031839,-0.00013014,-0.00029212,-0.00137867,0.00115631,-0.00048
 771,-0.00001614,-0.00013996,0.00013593,0.00004717,0.00006342,-0.000014
 35,-0.00888684,0.00999557,-0.00220149,0.13762024,-0.19033516,0.0355837
 4,0.02354437,-0.01498466,0.00540544,-0.00284060,-0.00490199,0.00011937
 ,-0.00092450,-0.00045532,-0.00016765,-0.00241213,-0.00041764,-0.000066
 35,-0.00002152,-0.00000418,-0.00000306,-0.00001445,-0.00000874,0.00000
 632,0.00000331,0.00000933,0.00001210,-0.14591249,0.19902060,0.00076401
 ,0.00055633,-0.00014703,-0.00048734,-0.00044009,-0.00310133,-0.0003728
 3,-0.00061577,0.00041909,0.00000998,-0.00002711,0.00002979,-0.00299144
 ,0.00316277,0.00000384,-0.04006434,0.03617022,-0.04573635,-0.00031829,
 -0.00055827,0.00468171,-0.00136352,0.00034778,0.00701495,0.00041255,0.
 00006659,-0.00067005,-0.00153111,-0.00076989,0.00531676,-0.00011997,0.
 00000973,-0.00023920,0.00003754,0.00001300,-0.00002072,-0.00003978,0.0
 0007907,0.00003251,0.04513368,-0.03802390,0.03632868,0.00002330,0.0001
 0547,-0.00004254,0.00018602,0.00028877,-0.00015170,-0.00005250,-0.0000
 4768,0.00001375,-0.00000795,-0.00003346,0.00002238,0.00162579,-0.00072
 343,-0.00088054,-0.00102559,0.00001426,-0.00079983,-0.31461241,-0.0820
 9986,-0.04789978,-0.01573506,-0.00809108,-0.00333661,-0.00094065,0.003
 46181,-0.00163416,0.00036157,0.00068633,0.00014933,0.00000096,0.000001
 79,-0.00002456,0.00000687,0.00000091,-0.00000087,-0.00000901,0.0000115
 5,0.00001013,0.00054867,-0.00000714,0.00088316,0.32967190,-0.00029010,
 -0.00033101,0.00034324,-0.00110751,-0.00016341,-0.00041125,0.00004534,
 -0.00035721,0.00010170,-0.00004720,-0.00003094,-0.00002374,-0.00000207
 ,-0.00446075,0.00072205,-0.03033998,-0.00638963,-0.00535828,-0.0817687
 1,-0.08575076,-0.01312040,0.02203774,0.01119617,0.00382793,0.00303225,
 -0.00304934,0.00096757,0.00050709,-0.00097752,0.00015794,-0.00003622,-
 0.00000885,-0.00012753,-0.00001676,0.00002999,-0.00000017,0.00002372,-
 0.00002515,-0.00000442,0.00017212,0.00114626,-0.00026804,0.08703529,0.
 08771445,-0.00022032,-0.00041113,0.00018277,-0.00004391,0.00035048,0.0
 0059341,0.00014440,0.00028011,0.00012422,0.00003039,0.00008007,-0.0000
 8224,-0.00067048,0.00021886,0.00652605,0.00068797,0.00027689,0.0032382
 9,-0.04813680,-0.01298349,-0.04702203,-0.00456407,-0.00196159,0.003149
 00,-0.00172801,0.00104716,0.00664670,0.00004332,0.00037604,-0.00061795
 ,-0.00002180,0.00003485,0.00006888,-0.00002142,0.00000972,0.00000281,0
 .00000164,-0.00004880,-0.00000804,0.00091270,-0.00026501,-0.00388011,0
 .05274963,0.01342737,0.03590628,0.00001473,-0.00004436,0.00001908,-0.0
 0012478,-0.00011555,0.00023347,0.00008773,0.00006289,-0.00002470,0.000
 00558,0.00000868,0.00000526,-0.00124364,0.00059397,-0.00027532,-0.0029
 5979,0.00334541,-0.00211020,0.00964597,0.02382564,-0.00019567,-0.07469
 338,-0.06195763,-0.00314380,-0.00182038,-0.03007523,-0.00008025,-0.005
 22313,-0.00137758,-0.00207925,0.00002130,0.00000077,0.00002907,-0.0000
 0718,-0.00000381,0.00000450,-0.00001866,-0.00000256,0.00000895,0.00038
 947,0.00123945,0.00003199,0.00073287,-0.00025903,0.00088981,0.07443253
 ,-0.00000153,0.00004156,0.00000088,-0.00001979,-0.00022210,-0.00001864
 ,0.00001489,0.00001951,-0.00000852,-0.00000347,-0.00001482,-0.00000658
 ,0.00050804,0.00102977,0.00007120,0.00309508,-0.00112992,0.00091267,-0
 .00612724,-0.01478383,-0.00027799,-0.06198144,-0.33402243,0.00103665,-
 0.00003553,-0.00332988,0.00034395,-0.00116166,0.00107412,0.00004713,-0
 .00000186,0.00000150,-0.00000299,0.00000323,-0.00000094,-0.00000077,-0
 .00001001,-0.00000410,0.00001223,-0.00040742,-0.00070111,-0.00004158,-
 0.00001738,0.00085635,-0.00020271,0.06598925,0.35064105,0.00035493,0.0
 0033901,-0.00014165,-0.00004859,-0.00025162,-0.00115529,-0.00014854,-0
 .00027799,-0.00000477,0.00002531,-0.00005452,0.00003155,-0.00010792,0.
 00014764,0.00001744,-0.00203439,0.00115155,0.00700065,0.00093605,0.005
 22860,0.00552762,-0.00314308,0.00092373,-0.04349455,-0.00120114,-0.005
 06922,0.00534597,-0.00219545,-0.00010583,0.00655095,-0.00007121,0.0000
 2164,-0.00007550,0.00001083,-0.00000512,0.00000080,0.00000262,0.000013
 12,0.00003328,0.00010958,0.00026665,-0.00032459,0.00087220,-0.00024285
 ,-0.00377485,0.00581583,-0.00167297,0.02834349,-0.00008897,0.00019950,
 0.00004787,0.00047397,-0.00119584,-0.00005698,0.00003296,0.00002114,0.
 00008053,0.00001239,0.00003306,-0.00001713,0.00083238,-0.00177484,-0.0
 0099527,-0.00035725,-0.00109498,0.00004036,-0.00398893,-0.00305616,-0.
 00175128,-0.01616898,0.02138396,-0.00433239,-0.20748551,0.14069347,-0.
 03499108,0.00975653,-0.00773759,0.00139387,-0.00001313,0.00001476,0.00
 000467,0.00000633,0.00000170,-0.00000487,0.00000237,0.00001004,-0.0000
 0861,0.00002358,0.00014148,0.00018604,-0.00073218,0.00111865,-0.000200
 29,0.00088444,-0.00000052,0.00078575,0.21612700,-0.00024041,0.00026565
 ,0.00015490,0.00104403,-0.00150716,0.00011556,0.00003583,0.00013047,0.
 00011811,-0.00007218,-0.00004726,-0.00003947,-0.00230918,-0.00359780,0
 .00000092,-0.00084157,-0.00029630,-0.00020389,-0.00264143,-0.00011342,
 -0.00022206,-0.00893401,0.01152726,-0.00187117,0.14059281,-0.19324079,
 0.03069596,0.02237151,-0.01732969,0.00473077,-0.00000349,0.00001504,-0
 .00003668,0.00002487,-0.00000100,-0.00001633,0.00003679,-0.00002844,0.
 00002599,0.00010341,0.00007911,-0.00001880,-0.00052505,0.00048100,-0.0
 0013863,0.00025211,0.00071923,-0.00012117,-0.14901223,0.20186304,0.000
 18201,-0.00008771,-0.00013216,-0.00026494,-0.00030617,0.00073154,-0.00
 003610,0.00030016,-0.00015669,-0.00008718,-0.00014013,-0.00001867,-0.0
 0105172,0.00042386,0.00699261,0.00007021,-0.00016896,-0.00048472,-0.00
 182031,-0.00023212,0.00637452,-0.00333205,0.00346962,0.00313108,-0.034
 71008,0.03074886,-0.04623090,0.00027538,-0.00087581,0.00363344,0.00005
 342,-0.00002385,0.00001542,0.00003632,-0.00002081,-0.00001276,-0.00000
 086,-0.00000516,0.00003370,0.00021405,-0.00004503,-0.00101608,-0.00009
 297,0.00016726,-0.00005881,0.00080192,-0.00019004,-0.00356206,0.039010
 28,-0.03286420,0.03484603,0.00047575,-0.00034475,-0.00009719,-0.001446
 95,-0.00111957,0.00046087,0.00049591,0.00010479,-0.00023865,0.00022379
 ,-0.00010605,0.00011880,-0.01639319,-0.00627711,-0.00266051,-0.0002791
 5,0.00390041,-0.00120578,0.00056453,-0.00011889,0.00026931,0.00122640,
 -0.00064114,-0.00101073,-0.00082114,-0.00022801,-0.00079868,-0.3150282
 9,-0.08156307,-0.04393261,0.00004829,0.00002317,0.00015487,0.00002023,
 -0.00006759,-0.00000565,-0.00030500,-0.00006829,0.00010282,-0.00056377
 ,-0.00052661,-0.00029295,-0.00005177,-0.00003712,0.00017423,-0.0001247
 2,0.00014554,0.00001628,0.00066454,0.00010326,0.00078853,0.33120721,-0
 .00037480,-0.00040248,-0.00020928,0.00188671,0.00120314,-0.00006428,-0
 .00021856,-0.00042185,0.00030154,0.00016296,-0.00005182,-0.00046820,0.
 02129299,0.00960204,0.00337170,0.00270891,-0.00361579,0.00082588,0.000
 32101,-0.00088367,0.00007813,-0.00013269,-0.00578080,0.00047899,-0.030
 21178,-0.00358311,-0.00475111,-0.08183784,-0.08553847,-0.01183400,-0.0
 0006638,-0.00001137,-0.00005284,0.00001821,-0.00004172,-0.00003059,-0.
 00003468,0.00006050,0.00000258,0.00107799,0.00053468,0.00030089,-0.000
 06813,0.00015281,-0.00005775,-0.00147612,-0.00017197,-0.00028823,0.000
 26005,0.00111521,-0.00017649,0.08679181,0.08771285,0.00108004,0.000019
 09,-0.00057666,-0.00072196,-0.00040036,-0.00141658,-0.00003353,-0.0006
 4587,0.00015332,-0.00000351,-0.00031925,-0.00024407,-0.00424019,-0.000
 85637,-0.00005872,-0.00135833,0.00129025,0.00523693,0.00035865,-0.0002
 0106,-0.00075126,-0.00128442,0.00031423,0.00744758,0.00004097,0.000342
 36,0.00481338,-0.04298511,-0.01173929,-0.04254108,-0.00032032,0.000157
 98,-0.00014838,0.00008961,-0.00000252,-0.00005534,0.00028930,0.0000191
 3,-0.00003312,-0.00037922,-0.00008383,0.00112276,0.00019050,-0.0000618
 2,-0.00101880,0.00008032,0.00001571,-0.00036199,0.00085874,-0.00019739
 ,-0.00415314,0.04823493,0.01238699,0.03256699,-0.08777325,0.06615471,-
 0.15182078,0.00393185,-0.01386947,0.03424127,-0.00412402,-0.00030562,0
 .00336028,0.00041255,0.00093924,0.00091213,-0.00270140,-0.00009542,0.0
 0115899,0.00031685,-0.00057281,0.00029848,-0.00017581,-0.00012294,-0.0
 0022561,-0.00015280,0.00000736,0.00004391,0.00005283,0.00005991,-0.000
 15278,-0.00011382,0.00015609,0.00001581,-0.00000666,0.00020505,-0.0000
 7538,0.00071202,-0.00061189,-0.00004210,-0.00042225,0.00018251,0.00002
 350,-0.00013591,0.00002668,0.00012263,0.00000919,-0.00006749,-0.000027
 00,0.00000103,0.00001182,0.00002092,0.00001847,0.00001493,-0.00003590,
 0.00008735,-0.00009968,0.00010353,0.09006381,0.05258487,-0.06316125,0.
 15375755,-0.00160795,-0.00335105,-0.00116632,0.00303796,0.00219111,-0.
 00215144,-0.00084483,-0.00062990,-0.00124865,-0.00085880,-0.00020201,0
 .00179234,-0.00003187,-0.00023009,0.00017406,-0.00015663,-0.00014537,-
 0.00013202,-0.00021490,-0.00003296,0.00000566,0.00025020,0.00011470,-0
 .00002465,0.00003166,-0.00054182,-0.00004814,0.00000813,0.00020391,-0.
 00005117,-0.00016297,0.00035151,-0.00016826,0.00005457,-0.00011654,0.0
 0007523,-0.00010073,0.00007363,0.00005707,0.00000702,-0.00003245,-0.00
 003244,-0.00000629,-0.00000198,-0.00000241,-0.00000567,-0.00003417,0.0
 0002672,0.00002919,0.00012182,-0.00003798,-0.05201298,0.06542292,-0.10
 783722,0.14617977,-0.36368577,-0.00788538,0.00626533,-0.01599789,0.003
 50575,0.00032574,-0.00380088,0.00025037,-0.00092635,0.00027435,0.00027
 995,-0.00020594,0.00119903,0.00048298,-0.00051712,0.00025878,-0.000044
 80,-0.00006647,-0.00020752,0.00013242,-0.00006144,0.00000214,0.0000304
 1,-0.00023880,0.00000391,-0.00062209,-0.00023785,-0.00045376,-0.000012
 71,-0.00008396,0.00028358,-0.00060808,0.00041777,0.00015022,0.00031867
 ,-0.00010597,-0.00007574,0.00009827,0.00012094,0.00018536,-0.00002752,
 -0.00009655,0.00002442,-0.00001101,-0.00001764,0.00004350,-0.00005023,
 -0.00011241,0.00006766,-0.00007790,0.00018610,0.00001819,0.11207812,-0
 .15082513,0.38171042\\-0.00001966,-0.00000616,0.00001564,0.00003467,0.
 00002681,-0.00000007,-0.00000888,-0.00000596,-0.00001502,0.00000096,-0
 .00000290,-0.00000019,-0.00002584,-0.00002696,0.00000049,0.00000943,0.
 00000756,-0.00000327,0.00000262,-0.00000589,0.00000379,-0.00000209,0.0
 0000171,-0.00000108,-0.00000066,0.00000143,-0.00000160,0.00000930,0.00
 000662,-0.00000155,0.00000179,0.00000074,0.00000240,-0.00000055,0.0000
 0097,0.00000082,0.00000182,-0.00000091,0.00000295,-0.00000059,-0.00000
 056,0.00000137,-0.00000037,0.00000088,0.00000071,-0.00000023,0.0000004
 1,-0.00000124,-0.00000037,-0.00000012,-0.00000038,-0.00000124,-0.00000
 029,0.00000043,-0.00000012,0.00000263,-0.00000422\\\@


 THE MORE PROGRESS PHYSICAL SCIENCES MAKE, THE MORE THEY TEND TO ENTER
 THE DOMAIN OF MATHEMATICS, WHICH IS A KIND OF CENTRE TO WHICH THEY ALL
 CONVERGE.  WE MAY EVEN JUDGE THE DEGREE OF PERFECTION TO WHICH A 
 SCIENCE HAS ARRIVED BY THE FACILITY WITH WHICH IT MAY BE SUBMITTED
 TO CALCULATION.

                               -- ADOLPHE QUETELET, 1796-1874
 Job cpu time:       0 days  0 hours 10 minutes 26.4 seconds.
 Elapsed time:       0 days  0 hours  0 minutes 26.8 seconds.
 File lengths (MBytes):  RWF=     75 Int=      0 D2E=      0 Chk=      4 Scr=      1
 Normal termination of Gaussian 16 at Mon Oct 14 01:54:51 2019.
real 88.80
user 1971.92
sys 16.48
Machine:
brown-a298
brown-a298
brown-a298
brown-a298
brown-a298
brown-a298
brown-a298
brown-a298
brown-a298
brown-a298
brown-a298
brown-a298
brown-a298
brown-a298
brown-a298
brown-a298
brown-a298
brown-a298
brown-a298
brown-a298
brown-a298
brown-a298
brown-a298
brown-a298
