Title Card Required                                                     
Freq      RB3LYP                                                      6-31G(d)            
Number of atoms                            I               19
Info1-9                                    I   N=           9
          48          48        1002           0           0         100
           6          18        -502
Full Title                                 C   N=           2
Title Card Required     
Route                                      C   N=           6
#P opt freq b3lyp/6-31g(d) geom=connectivity temperature=0.0
01          
Charge                                     I                1
Multiplicity                               I                1
Number of electrons                        I               80
Number of alpha electrons                  I               40
Number of beta electrons                   I               40
Number of basis functions                  I              172
Number of independent functions            I              172
Number of point charges in /Mol/           I                0
Number of translation vectors              I                0
Atomic numbers                             I   N=          19
           8          16           6           6           6           6
           6           6           6           6           1           1
           1           1           1           1           1           1
           1
Nuclear charges                            R   N=          19
  8.00000000E+00  1.60000000E+01  6.00000000E+00  6.00000000E+00  6.00000000E+00
  6.00000000E+00  6.00000000E+00  6.00000000E+00  6.00000000E+00  6.00000000E+00
  1.00000000E+00  1.00000000E+00  1.00000000E+00  1.00000000E+00  1.00000000E+00
  1.00000000E+00  1.00000000E+00  1.00000000E+00  1.00000000E+00
Current cartesian coordinates              R   N=          57
 -3.58516836E+00 -2.24194766E+00  2.30935524E+00 -2.61267481E+00 -1.35052714E+00
 -5.31712337E-01 -4.36336715E+00  1.52222098E+00 -6.85122841E-01 -3.36480988E+00
  3.73194983E+00 -1.35300712E+00  5.94503957E-01 -4.98014516E-01 -1.57553788E-01
  2.28528383E+00 -1.57764027E+00 -1.89209229E+00  4.84859842E+00 -1.01686102E+00
 -1.65879830E+00  5.68216277E+00  5.47379617E-01  2.97485993E-01  3.97224621E+00
  1.57677857E+00  2.03792486E+00  1.40213569E+00  1.06960216E+00  1.82649285E+00
 -6.36121714E+00  1.18719523E+00 -3.49805878E-01 -4.58904120E+00  5.36984976E+00
 -1.53612114E+00 -1.36890430E+00  4.00009524E+00 -1.74055969E+00  1.61735098E+00
 -2.81415946E+00 -3.38813259E+00  6.18836482E+00 -1.81558484E+00 -2.98979476E+00
  7.68331131E+00  9.61181429E-01  4.81327627E-01  4.64812717E+00  2.77052279E+00
  3.56259018E+00  6.24337613E-02  1.83826549E+00  3.17521577E+00 -3.73680464E+00
 -4.08584220E+00  2.32585974E+00
Number of symbols in /Mol/                 I                0
Force Field                                I                0
Atom Types                                 C   N=          19
                                                            
                                                            
                                                            
                                                
Int Atom Types                             I   N=          19
           0           0           0           0           0           0
           0           0           0           0           0           0
           0           0           0           0           0           0
           0
MM charges                                 R   N=          19
  0.00000000E+00  0.00000000E+00  0.00000000E+00  0.00000000E+00  0.00000000E+00
  0.00000000E+00  0.00000000E+00  0.00000000E+00  0.00000000E+00  0.00000000E+00
  0.00000000E+00  0.00000000E+00  0.00000000E+00  0.00000000E+00  0.00000000E+00
  0.00000000E+00  0.00000000E+00  0.00000000E+00  0.00000000E+00
Integer atomic weights                     I   N=          19
          16          32          12          12          12          12
          12          12          12          12           1           1
           1           1           1           1           1           1
           1
Real atomic weights                        R   N=          19
  1.59949146E+01  3.19720718E+01  1.20000000E+01  1.20000000E+01  1.20000000E+01
  1.20000000E+01  1.20000000E+01  1.20000000E+01  1.20000000E+01  1.20000000E+01
  1.00782504E+00  1.00782504E+00  1.00782504E+00  1.00782504E+00  1.00782504E+00
  1.00782504E+00  1.00782504E+00  1.00782504E+00  1.00782504E+00
Atom fragment info                         I   N=          19
           0           0           0           0           0           0
           0           0           0           0           0           0
           0           0           0           0           0           0
           0
Atom residue num                           I   N=          19
           0           0           0           0           0           0
           0           0           0           0           0           0
           0           0           0           0           0           0
           0
Nuclear spins                              I   N=          19
           0           0           0           0           0           0
           0           0           0           0           1           1
           1           1           1           1           1           1
           1
Nuclear ZEff                               R   N=          19
 -5.60000000E+00 -1.36000000E+01 -3.60000000E+00 -3.60000000E+00 -3.60000000E+00
 -3.60000000E+00 -3.60000000E+00 -3.60000000E+00 -3.60000000E+00 -3.60000000E+00
 -1.00000000E+00 -1.00000000E+00 -1.00000000E+00 -1.00000000E+00 -1.00000000E+00
 -1.00000000E+00 -1.00000000E+00 -1.00000000E+00 -1.00000000E+00
Nuclear ZNuc                               R   N=          19
  8.00000000E+00  1.60000000E+01  6.00000000E+00  6.00000000E+00  6.00000000E+00
  6.00000000E+00  6.00000000E+00  6.00000000E+00  6.00000000E+00  6.00000000E+00
  1.00000000E+00  1.00000000E+00  1.00000000E+00  1.00000000E+00  1.00000000E+00
  1.00000000E+00  1.00000000E+00  1.00000000E+00  1.00000000E+00
Nuclear QMom                               R   N=          19
  0.00000000E+00  0.00000000E+00  0.00000000E+00  0.00000000E+00  0.00000000E+00
  0.00000000E+00  0.00000000E+00  0.00000000E+00  0.00000000E+00  0.00000000E+00
  0.00000000E+00  0.00000000E+00  0.00000000E+00  0.00000000E+00  0.00000000E+00
  0.00000000E+00  0.00000000E+00  0.00000000E+00  0.00000000E+00
Nuclear GFac                               R   N=          19
  0.00000000E+00  0.00000000E+00  0.00000000E+00  0.00000000E+00  0.00000000E+00
  0.00000000E+00  0.00000000E+00  0.00000000E+00  0.00000000E+00  0.00000000E+00
  2.79284600E+00  2.79284600E+00  2.79284600E+00  2.79284600E+00  2.79284600E+00
  2.79284600E+00  2.79284600E+00  2.79284600E+00  2.79284600E+00
MicOpt                                     I   N=          19
          -1          -1          -1          -1          -1          -1
          -1          -1          -1          -1          -1          -1
          -1          -1          -1          -1          -1          -1
          -1
Number of residues                         I                0
Number of secondary structures             I                0
Redundant internal dimensions              I   N=           4
          85          19          28          38
Redundant internal coordinate indices      I   N=         340
           1           2           0           0           1          19
           0           0           2           3           0           0
           2           5           0           0           3           4
           0           0           3          11           0           0
           4          12           0           0           4          13
           0           0           5           6           0           0
           5          10           0           0           6           7
           0           0           6          14           0           0
           7           8           0           0           7          15
           0           0           8           9           0           0
           8          16           0           0           9          10
           0           0           9          17           0           0
          10          18           0           0           2           1
          19           0           1           2           3           0
           1           2           5           0           3           2
           5           0           2           3           4           0
           2           3          11           0           4           3
          11           0           3           4          12           0
           3           4          13           0          12           4
          13           0           2           5           6           0
           2           5          10           0           6           5
          10           0           5           6           7           0
           5           6          14           0           7           6
          14           0           6           7           8           0
           6           7          15           0           8           7
          15           0           7           8           9           0
           7           8          16           0           9           8
          16           0           8           9          10           0
           8           9          17           0          10           9
          17           0           5          10           9           0
           5          10          18           0           9          10
          18           0          19           1           2           3
          19           1           2           5           1           2
           3           4           1           2           3          11
           5           2           3           4           5           2
           3          11           1           2           5           6
           1           2           5          10           3           2
           5           6           3           2           5          10
           2           3           4          12           2           3
           4          13          11           3           4          12
          11           3           4          13           2           5
           6           7           2           5           6          14
          10           5           6           7          10           5
           6          14           2           5          10           9
           2           5          10          18           6           5
          10           9           6           5          10          18
           5           6           7           8           5           6
           7          15          14           6           7           8
          14           6           7          15           6           7
           8           9           6           7           8          16
          15           7           8           9          15           7
           8          16           7           8           9          10
           7           8           9          17          16           8
           9          10          16           8           9          17
           8           9          10           5           8           9
          10          18          17           9          10           5
          17           9          10          18
Redundant internal coordinates             R   N=          85
  3.13241748E+00  1.85019269E+00  3.36766094E+00  3.33957603E+00  2.51517149E+00
  2.05331057E+00  2.05304389E+00  2.05078962E+00  2.65197137E+00  2.65445515E+00
  2.63428949E+00  2.05262042E+00  2.63983456E+00  2.05048417E+00  2.64813223E+00
  2.05173710E+00  2.62819320E+00  2.05096189E+00  2.05053604E+00  1.89351447E+00
  1.69378594E+00  1.84333988E+00  1.86145988E+00  2.15934416E+00  1.93819439E+00
  2.18096259E+00  2.08042352E+00  2.15489020E+00  2.04786152E+00  2.02092065E+00
  2.12549867E+00  2.13566793E+00  2.06666059E+00  2.11120238E+00  2.10531117E+00
  2.09327076E+00  2.08906692E+00  2.10079655E+00  2.11005605E+00  2.08735163E+00
  2.08575178E+00  2.09849822E+00  2.09676017E+00  2.08792251E+00  2.06192861E+00
  2.11089097E+00  2.11023107E+00  2.52709229E+00 -1.84434279E+00  2.29356445E+00
 -9.47441375E-01  3.96950869E-01 -2.84405496E+00  2.27011925E+00 -8.22247468E-01
 -2.22397357E+00  9.66845027E-01  3.06218776E+00 -7.44480477E-02  3.38574120E-02
 -3.10277839E+00 -3.11860662E+00  2.80340364E-02 -2.65548645E-02  3.12008579E+00
  3.10246726E+00 -2.16457871E-02  1.33516645E-02 -3.11076138E+00  2.11788170E-02
 -3.13123453E+00 -3.12544415E+00  5.32781545E-03 -3.55599894E-03  3.13027214E+00
 -3.13425434E+00 -4.26200871E-04 -9.98182872E-03  3.12840803E+00  3.13936830E+00
 -5.42715051E-03  5.11564118E-03  3.12923559E+00 -3.13329044E+00 -9.17048267E-03
ZRed-IntVec                                I   N=          85
           0           0           0           0           0           0
           0           0           0           0           0           0
           0           0           0           0           0           0
           0           0           0           0           0           0
           0           0           0           0           0           0
           0           0           0           0           0           0
           0           0           0           0           0           0
           0           0           0           0           0           0
           0           0           0           0           0           0
           0           0           0           0           0           0
           0           0           0           0           0           0
           0           0           0           0           0           0
           0           0           0           0           0           0
           0           0           0           0           0           0
           0
ZRed-FPVec                                 R   N=          85
  0.00000000E+00  0.00000000E+00  0.00000000E+00  0.00000000E+00  0.00000000E+00
  0.00000000E+00  0.00000000E+00  0.00000000E+00  0.00000000E+00  0.00000000E+00
  0.00000000E+00  0.00000000E+00  0.00000000E+00  0.00000000E+00  0.00000000E+00
  0.00000000E+00  0.00000000E+00  0.00000000E+00  0.00000000E+00  0.00000000E+00
  0.00000000E+00  0.00000000E+00  0.00000000E+00  0.00000000E+00  0.00000000E+00
  0.00000000E+00  0.00000000E+00  0.00000000E+00  0.00000000E+00  0.00000000E+00
  0.00000000E+00  0.00000000E+00  0.00000000E+00  0.00000000E+00  0.00000000E+00
  0.00000000E+00  0.00000000E+00  0.00000000E+00  0.00000000E+00  0.00000000E+00
  0.00000000E+00  0.00000000E+00  0.00000000E+00  0.00000000E+00  0.00000000E+00
  0.00000000E+00  0.00000000E+00  0.00000000E+00  0.00000000E+00  0.00000000E+00
  0.00000000E+00  0.00000000E+00  0.00000000E+00  0.00000000E+00  0.00000000E+00
  0.00000000E+00  0.00000000E+00  0.00000000E+00  0.00000000E+00  0.00000000E+00
  0.00000000E+00  0.00000000E+00  0.00000000E+00  0.00000000E+00  0.00000000E+00
  0.00000000E+00  0.00000000E+00  0.00000000E+00  0.00000000E+00  0.00000000E+00
  0.00000000E+00  0.00000000E+00  0.00000000E+00  0.00000000E+00  0.00000000E+00
  0.00000000E+00  0.00000000E+00  0.00000000E+00  0.00000000E+00  0.00000000E+00
  0.00000000E+00  0.00000000E+00  0.00000000E+00  0.00000000E+00  0.00000000E+00
ZRed-Constraint1                           R   N=          85
  3.13241748E+00  1.85019269E+00  3.36766094E+00  3.33957603E+00  2.51517149E+00
  2.05331057E+00  2.05304389E+00  2.05078962E+00  2.65197137E+00  2.65445515E+00
  2.63428949E+00  2.05262042E+00  2.63983456E+00  2.05048417E+00  2.64813223E+00
  2.05173710E+00  2.62819320E+00  2.05096189E+00  2.05053604E+00  1.89351447E+00
  1.69378594E+00  1.84333988E+00  1.86145988E+00  2.15934416E+00  1.93819439E+00
  2.18096259E+00  2.08042352E+00  2.15489020E+00  2.04786152E+00  2.02092065E+00
  2.12549867E+00  2.13566793E+00  2.06666059E+00  2.11120238E+00  2.10531117E+00
  2.09327076E+00  2.08906692E+00  2.10079655E+00  2.11005605E+00  2.08735163E+00
  2.08575178E+00  2.09849822E+00  2.09676017E+00  2.08792251E+00  2.06192861E+00
  2.11089097E+00  2.11023107E+00  2.52709229E+00 -1.84434279E+00  2.29356445E+00
 -9.47441375E-01  3.96950869E-01 -2.84405496E+00  2.27011925E+00 -8.22247468E-01
 -2.22397357E+00  9.66845027E-01  3.06218776E+00 -7.44480477E-02  3.38574120E-02
 -3.10277839E+00 -3.11860662E+00  2.80340364E-02 -2.65548645E-02  3.12008579E+00
  3.10246726E+00 -2.16457871E-02  1.33516645E-02 -3.11076138E+00  2.11788170E-02
 -3.13123453E+00 -3.12544415E+00  5.32781545E-03 -3.55599894E-03  3.13027214E+00
 -3.13425434E+00 -4.26200871E-04 -9.98182872E-03  3.12840803E+00  3.13936830E+00
 -5.42715051E-03  5.11564118E-03  3.12923559E+00 -3.13329044E+00 -9.17048267E-03
ZRed-Constraint2                           R   N=          85
  3.03685660E+00  1.81413708E+00  3.29917339E+00  3.35338365E+00  2.52571648E+00
  2.05978228E+00  2.05980864E+00  2.05972232E+00  2.66557832E+00  2.66892438E+00
  2.65932435E+00  2.05969105E+00  2.65964696E+00  2.05985343E+00  2.65828321E+00
  2.05977433E+00  2.66069704E+00  2.05983776E+00  2.05969802E+00  2.09439510E+00
  1.83156444E+00  1.82801691E+00  1.92261782E+00  2.17954443E+00  2.30091077E+00
  1.80273010E+00  2.09432861E+00  2.09436975E+00  2.09448694E+00  2.07457251E+00
  2.12286290E+00  2.08538881E+00  2.09628574E+00  2.09557598E+00  2.09132358E+00
  2.09775008E+00  2.09247192E+00  2.09296330E+00  2.09388119E+00  2.09510928E+00
  2.09419484E+00  2.09264051E+00  2.09453804E+00  2.09600676E+00  2.10036224E+00
  2.09423597E+00  2.08858709E+00  2.69434569E+00 -1.56356642E+00  2.24812317E+00
 -8.93368077E-01  2.89225169E-01 -2.85226608E+00  2.24019994E+00 -8.72357823E-01
 -2.08179591E+00  1.08883164E+00 -2.12799734E+00  1.01359260E+00  1.01351768E+00
 -2.12807769E+00 -3.10813141E+00  3.36219901E-02  5.06195851E-03 -3.13636995E+00
  3.10318645E+00 -3.84128762E-02 -9.19539677E-03  3.13239058E+00  4.62533295E-03
 -3.13698886E+00 -3.13712767E+00  4.44344952E-03 -1.02430196E-02  3.13129809E+00
  3.13137117E+00 -1.02730270E-02  6.10719058E-03 -3.13551230E+00 -3.13543394E+00
  6.13187350E-03  3.62895714E-03 -3.13795705E+00 -3.13793684E+00  3.66246882E-03
SymInf integers                            I   N=          26
           1           1           1           1           1           0
           0           0           0           0           0           0
           0           0           0           0           0           0
           0           0           0           0           0           0
           0           0
RotTr to input orientation                 R   N=          12
  3.78018225E-01  9.14546999E-01  1.43895824E-01 -3.51855553E-01  2.85688335E-01
 -8.91392082E-01 -8.56329312E-01  2.86331908E-01  4.29783838E-01 -7.98188195E-01
 -2.14862155E-01 -5.25508882E-01
Number of contracted shells                I               59
Number of primitive shells                 I              152
Pure/Cartesian d shells                    I                1
Pure/Cartesian f shells                    I                0
Highest angular momentum                   I                2
Largest degree of contraction              I                6
Shell types                                I   N=          59
           0          -1          -1           2           0          -1
          -1          -1           2           0          -1          -1
           2           0          -1          -1           2           0
          -1          -1           2           0          -1          -1
           2           0          -1          -1           2           0
          -1          -1           2           0          -1          -1
           2           0          -1          -1           2           0
           0           0           0           0           0           0
           0           0           0           0           0           0
           0           0           0           0           0
Number of primitives per shell             I   N=          59
           6           3           1           1           6           6
           3           1           1           6           3           1
           1           6           3           1           1           6
           3           1           1           6           3           1
           1           6           3           1           1           6
           3           1           1           6           3           1
           1           6           3           1           1           3
           1           3           1           3           1           3
           1           3           1           3           1           3
           1           3           1           3           1
Shell to atom map                          I   N=          59
           1           1           1           1           2           2
           2           2           2           3           3           3
           3           4           4           4           4           5
           5           5           5           6           6           6
           6           7           7           7           7           8
           8           8           8           9           9           9
           9          10          10          10          10          11
          11          12          12          13          13          14
          14          15          15          16          16          17
          17          18          18          19          19
Primitive exponents                        R   N=         152
  5.48467166E+03  8.25234946E+02  1.88046958E+02  5.29645000E+01  1.68975704E+01
  5.79963534E+00  1.55396162E+01  3.59993359E+00  1.01376175E+00  2.70005823E-01
  8.00000000E-01  2.19171000E+04  3.30149000E+03  7.54146000E+02  2.12711000E+02
  6.79896000E+01  2.30515000E+01  4.23735000E+02  1.00710000E+02  3.21599000E+01
  1.18079000E+01  4.63110000E+00  1.87025000E+00  2.61584000E+00  9.22167000E-01
  3.41287000E-01  1.17167000E-01  6.50000000E-01  3.04752488E+03  4.57369518E+02
  1.03948685E+02  2.92101553E+01  9.28666296E+00  3.16392696E+00  7.86827235E+00
  1.88128854E+00  5.44249258E-01  1.68714478E-01  8.00000000E-01  3.04752488E+03
  4.57369518E+02  1.03948685E+02  2.92101553E+01  9.28666296E+00  3.16392696E+00
  7.86827235E+00  1.88128854E+00  5.44249258E-01  1.68714478E-01  8.00000000E-01
  3.04752488E+03  4.57369518E+02  1.03948685E+02  2.92101553E+01  9.28666296E+00
  3.16392696E+00  7.86827235E+00  1.88128854E+00  5.44249258E-01  1.68714478E-01
  8.00000000E-01  3.04752488E+03  4.57369518E+02  1.03948685E+02  2.92101553E+01
  9.28666296E+00  3.16392696E+00  7.86827235E+00  1.88128854E+00  5.44249258E-01
  1.68714478E-01  8.00000000E-01  3.04752488E+03  4.57369518E+02  1.03948685E+02
  2.92101553E+01  9.28666296E+00  3.16392696E+00  7.86827235E+00  1.88128854E+00
  5.44249258E-01  1.68714478E-01  8.00000000E-01  3.04752488E+03  4.57369518E+02
  1.03948685E+02  2.92101553E+01  9.28666296E+00  3.16392696E+00  7.86827235E+00
  1.88128854E+00  5.44249258E-01  1.68714478E-01  8.00000000E-01  3.04752488E+03
  4.57369518E+02  1.03948685E+02  2.92101553E+01  9.28666296E+00  3.16392696E+00
  7.86827235E+00  1.88128854E+00  5.44249258E-01  1.68714478E-01  8.00000000E-01
  3.04752488E+03  4.57369518E+02  1.03948685E+02  2.92101553E+01  9.28666296E+00
  3.16392696E+00  7.86827235E+00  1.88128854E+00  5.44249258E-01  1.68714478E-01
  8.00000000E-01  1.87311370E+01  2.82539436E+00  6.40121692E-01  1.61277759E-01
  1.87311370E+01  2.82539436E+00  6.40121692E-01  1.61277759E-01  1.87311370E+01
  2.82539436E+00  6.40121692E-01  1.61277759E-01  1.87311370E+01  2.82539436E+00
  6.40121692E-01  1.61277759E-01  1.87311370E+01  2.82539436E+00  6.40121692E-01
  1.61277759E-01  1.87311370E+01  2.82539436E+00  6.40121692E-01  1.61277759E-01
  1.87311370E+01  2.82539436E+00  6.40121692E-01  1.61277759E-01  1.87311370E+01
  2.82539436E+00  6.40121692E-01  1.61277759E-01  1.87311370E+01  2.82539436E+00
  6.40121692E-01  1.61277759E-01
Contraction coefficients                   R   N=         152
  1.83107443E-03  1.39501722E-02  6.84450781E-02  2.32714336E-01  4.70192898E-01
  3.58520853E-01 -1.10777550E-01 -1.48026263E-01  1.13076702E+00  1.00000000E+00
  1.00000000E+00  1.86924085E-03  1.42303065E-02  6.96962317E-02  2.38487108E-01
  4.83307220E-01  3.38074154E-01 -2.37677050E-03 -3.16930067E-02 -1.13317024E-01
  5.60900118E-02  5.92255124E-01  4.55006095E-01 -2.50373114E-01  6.69567631E-02
  1.05450627E+00  1.00000000E+00  1.00000000E+00  1.83473713E-03  1.40373228E-02
  6.88426223E-02  2.32184443E-01  4.67941348E-01  3.62311985E-01 -1.19332420E-01
 -1.60854152E-01  1.14345644E+00  1.00000000E+00  1.00000000E+00  1.83473713E-03
  1.40373228E-02  6.88426223E-02  2.32184443E-01  4.67941348E-01  3.62311985E-01
 -1.19332420E-01 -1.60854152E-01  1.14345644E+00  1.00000000E+00  1.00000000E+00
  1.83473713E-03  1.40373228E-02  6.88426223E-02  2.32184443E-01  4.67941348E-01
  3.62311985E-01 -1.19332420E-01 -1.60854152E-01  1.14345644E+00  1.00000000E+00
  1.00000000E+00  1.83473713E-03  1.40373228E-02  6.88426223E-02  2.32184443E-01
  4.67941348E-01  3.62311985E-01 -1.19332420E-01 -1.60854152E-01  1.14345644E+00
  1.00000000E+00  1.00000000E+00  1.83473713E-03  1.40373228E-02  6.88426223E-02
  2.32184443E-01  4.67941348E-01  3.62311985E-01 -1.19332420E-01 -1.60854152E-01
  1.14345644E+00  1.00000000E+00  1.00000000E+00  1.83473713E-03  1.40373228E-02
  6.88426223E-02  2.32184443E-01  4.67941348E-01  3.62311985E-01 -1.19332420E-01
 -1.60854152E-01  1.14345644E+00  1.00000000E+00  1.00000000E+00  1.83473713E-03
  1.40373228E-02  6.88426223E-02  2.32184443E-01  4.67941348E-01  3.62311985E-01
 -1.19332420E-01 -1.60854152E-01  1.14345644E+00  1.00000000E+00  1.00000000E+00
  1.83473713E-03  1.40373228E-02  6.88426223E-02  2.32184443E-01  4.67941348E-01
  3.62311985E-01 -1.19332420E-01 -1.60854152E-01  1.14345644E+00  1.00000000E+00
  1.00000000E+00  3.34946043E-02  2.34726953E-01  8.13757326E-01  1.00000000E+00
  3.34946043E-02  2.34726953E-01  8.13757326E-01  1.00000000E+00  3.34946043E-02
  2.34726953E-01  8.13757326E-01  1.00000000E+00  3.34946043E-02  2.34726953E-01
  8.13757326E-01  1.00000000E+00  3.34946043E-02  2.34726953E-01  8.13757326E-01
  1.00000000E+00  3.34946043E-02  2.34726953E-01  8.13757326E-01  1.00000000E+00
  3.34946043E-02  2.34726953E-01  8.13757326E-01  1.00000000E+00  3.34946043E-02
  2.34726953E-01  8.13757326E-01  1.00000000E+00  3.34946043E-02  2.34726953E-01
  8.13757326E-01  1.00000000E+00
P(S=P) Contraction coefficients            R   N=         152
  0.00000000E+00  0.00000000E+00  0.00000000E+00  0.00000000E+00  0.00000000E+00
  0.00000000E+00  7.08742682E-02  3.39752839E-01  7.27158577E-01  1.00000000E+00
  0.00000000E+00  0.00000000E+00  0.00000000E+00  0.00000000E+00  0.00000000E+00
  0.00000000E+00  0.00000000E+00  4.06100998E-03  3.06812999E-02  1.30451999E-01
  3.27204999E-01  4.52850998E-01  2.56041999E-01 -1.45104895E-02  3.10262776E-01
  7.54482456E-01  1.00000000E+00  0.00000000E+00  0.00000000E+00  0.00000000E+00
  0.00000000E+00  0.00000000E+00  0.00000000E+00  0.00000000E+00  6.89990666E-02
  3.16423961E-01  7.44308291E-01  1.00000000E+00  0.00000000E+00  0.00000000E+00
  0.00000000E+00  0.00000000E+00  0.00000000E+00  0.00000000E+00  0.00000000E+00
  6.89990666E-02  3.16423961E-01  7.44308291E-01  1.00000000E+00  0.00000000E+00
  0.00000000E+00  0.00000000E+00  0.00000000E+00  0.00000000E+00  0.00000000E+00
  0.00000000E+00  6.89990666E-02  3.16423961E-01  7.44308291E-01  1.00000000E+00
  0.00000000E+00  0.00000000E+00  0.00000000E+00  0.00000000E+00  0.00000000E+00
  0.00000000E+00  0.00000000E+00  6.89990666E-02  3.16423961E-01  7.44308291E-01
  1.00000000E+00  0.00000000E+00  0.00000000E+00  0.00000000E+00  0.00000000E+00
  0.00000000E+00  0.00000000E+00  0.00000000E+00  6.89990666E-02  3.16423961E-01
  7.44308291E-01  1.00000000E+00  0.00000000E+00  0.00000000E+00  0.00000000E+00
  0.00000000E+00  0.00000000E+00  0.00000000E+00  0.00000000E+00  6.89990666E-02
  3.16423961E-01  7.44308291E-01  1.00000000E+00  0.00000000E+00  0.00000000E+00
  0.00000000E+00  0.00000000E+00  0.00000000E+00  0.00000000E+00  0.00000000E+00
  6.89990666E-02  3.16423961E-01  7.44308291E-01  1.00000000E+00  0.00000000E+00
  0.00000000E+00  0.00000000E+00  0.00000000E+00  0.00000000E+00  0.00000000E+00
  0.00000000E+00  6.89990666E-02  3.16423961E-01  7.44308291E-01  1.00000000E+00
  0.00000000E+00  0.00000000E+00  0.00000000E+00  0.00000000E+00  0.00000000E+00
  0.00000000E+00  0.00000000E+00  0.00000000E+00  0.00000000E+00  0.00000000E+00
  0.00000000E+00  0.00000000E+00  0.00000000E+00  0.00000000E+00  0.00000000E+00
  0.00000000E+00  0.00000000E+00  0.00000000E+00  0.00000000E+00  0.00000000E+00
  0.00000000E+00  0.00000000E+00  0.00000000E+00  0.00000000E+00  0.00000000E+00
  0.00000000E+00  0.00000000E+00  0.00000000E+00  0.00000000E+00  0.00000000E+00
  0.00000000E+00  0.00000000E+00  0.00000000E+00  0.00000000E+00  0.00000000E+00
  0.00000000E+00  0.00000000E+00
Coordinates of each shell                  R   N=         177
 -3.58516836E+00 -2.24194766E+00  2.30935524E+00 -3.58516836E+00 -2.24194766E+00
  2.30935524E+00 -3.58516836E+00 -2.24194766E+00  2.30935524E+00 -3.58516836E+00
 -2.24194766E+00  2.30935524E+00 -2.61267481E+00 -1.35052714E+00 -5.31712337E-01
 -2.61267481E+00 -1.35052714E+00 -5.31712337E-01 -2.61267481E+00 -1.35052714E+00
 -5.31712337E-01 -2.61267481E+00 -1.35052714E+00 -5.31712337E-01 -2.61267481E+00
 -1.35052714E+00 -5.31712337E-01 -4.36336715E+00  1.52222098E+00 -6.85122841E-01