 Entering Gaussian System, Link 0=/apps/cent7/gaussian/g16-A.03/g16-haswell/g16/g16
 Initial command:
 /apps/cent7/gaussian/g16-A.03/g16-haswell/g16/l1.exe "/scratch/brown/finej/gaussian/Gau-175282.inp" -scrdir="/scratch/brown/finej/gaussian/"
 Entering Link 1 = /apps/cent7/gaussian/g16-A.03/g16-haswell/g16/l1.exe PID=    175284.
  
 Copyright (c) 1988,1990,1992,1993,1995,1998,2003,2009,2016,
            Gaussian, Inc.  All Rights Reserved.
  
 This is part of the Gaussian(R) 16 program.  It is based on
 the Gaussian(R) 09 system (copyright 2009, Gaussian, Inc.),
 the Gaussian(R) 03 system (copyright 2003, Gaussian, Inc.),
 the Gaussian(R) 98 system (copyright 1998, Gaussian, Inc.),
 the Gaussian(R) 94 system (copyright 1995, Gaussian, Inc.),
 the Gaussian 92(TM) system (copyright 1992, Gaussian, Inc.),
 the Gaussian 90(TM) system (copyright 1990, Gaussian, Inc.),
 the Gaussian 88(TM) system (copyright 1988, Gaussian, Inc.),
 the Gaussian 86(TM) system (copyright 1986, Carnegie Mellon
 University), and the Gaussian 82(TM) system (copyright 1983,
 Carnegie Mellon University). Gaussian is a federally registered
 trademark of Gaussian, Inc.
  
 This software contains proprietary and confidential information,
 including trade secrets, belonging to Gaussian, Inc.
  
 This software is provided under written license and may be
 used, copied, transmitted, or stored only in accord with that
 written license.
  
 The following legend is applicable only to US Government
 contracts under FAR:
  
                    RESTRICTED RIGHTS LEGEND
  
 Use, reproduction and disclosure by the US Government is
 subject to restrictions as set forth in subparagraphs (a)
 and (c) of the Commercial Computer Software - Restricted
 Rights clause in FAR 52.227-19.
  
 Gaussian, Inc.
 340 Quinnipiac St., Bldg. 40, Wallingford CT 06492
  
  
 ---------------------------------------------------------------
 Warning -- This program may not be used in any manner that
 competes with the business of Gaussian, Inc. or will provide
 assistance to any competitor of Gaussian, Inc.  The licensee
 of this program is prohibited from giving any competitor of
 Gaussian, Inc. access to this program.  By using this program,
 the user acknowledges that Gaussian, Inc. is engaged in the
 business of creating and licensing software in the field of
 computational chemistry and represents and warrants to the
 licensee that it is not a competitor of Gaussian, Inc. and that
 it will not use this program in any manner prohibited above.
 ---------------------------------------------------------------
  

 Cite this work as:
 Gaussian 16, Revision A.03,
 M. J. Frisch, G. W. Trucks, H. B. Schlegel, G. E. Scuseria, 
 M. A. Robb, J. R. Cheeseman, G. Scalmani, V. Barone, 
 G. A. Petersson, H. Nakatsuji, X. Li, M. Caricato, A. V. Marenich, 
 J. Bloino, B. G. Janesko, R. Gomperts, B. Mennucci, H. P. Hratchian, 
 J. V. Ortiz, A. F. Izmaylov, J. L. Sonnenberg, D. Williams-Young, 
 F. Ding, F. Lipparini, F. Egidi, J. Goings, B. Peng, A. Petrone, 
 T. Henderson, D. Ranasinghe, V. G. Zakrzewski, J. Gao, N. Rega, 
 G. Zheng, W. Liang, M. Hada, M. Ehara, K. Toyota, R. Fukuda, 
 J. Hasegawa, M. Ishida, T. Nakajima, Y. Honda, O. Kitao, H. Nakai, 
 T. Vreven, K. Throssell, J. A. Montgomery, Jr., J. E. Peralta, 
 F. Ogliaro, M. J. Bearpark, J. J. Heyd, E. N. Brothers, K. N. Kudin, 
 V. N. Staroverov, T. A. Keith, R. Kobayashi, J. Normand, 
 K. Raghavachari, A. P. Rendell, J. C. Burant, S. S. Iyengar, 
 J. Tomasi, M. Cossi, J. M. Millam, M. Klene, C. Adamo, R. Cammi, 
 J. W. Ochterski, R. L. Martin, K. Morokuma, O. Farkas, 
 J. B. Foresman, and D. J. Fox, Gaussian, Inc., Wallingford CT, 2016.
 
 ******************************************
 Gaussian 16:  ES64L-G16RevA.03 25-Dec-2016
                14-Oct-2019 
 ******************************************
 %chk=35.chk
 %nprocshared=24
 Will use up to   24 processors via shared memory.
 %mem=80GB
 --------------------------------------------------------------
 #P opt freq b3lyp/6-31g(d) geom=connectivity temperature=0.001
 --------------------------------------------------------------
 1/18=20,19=15,26=3,38=1,57=2,112=-1000/1,3;
 2/9=110,12=2,17=6,18=5,40=1/2;
 3/5=1,6=6,7=1,11=2,25=1,30=1,71=1,74=-5/1,2,3;
 4//1;
 5/5=2,38=5/2;
 6/7=2,8=2,9=2,10=2,28=1/1;
 7//1,2,3,16;
 1/18=20,19=15,26=3/3(2);
 2/9=110/2;
 99//99;
 2/9=110/2;
 3/5=1,6=6,7=1,11=2,25=1,30=1,71=1,74=-5/1,2,3;
 4/5=5,16=3,69=1/1;
 5/5=2,38=5/2;
 7//1,2,3,16;
 1/18=20,19=15,26=3/3(-5);
 2/9=110/2;
 6/7=2,8=2,9=2,10=2,19=2,28=1/1;
 99/9=1/99;
 Leave Link    1 at Mon Oct 14 01:54:50 2019, MaxMem= 10737418240 cpu:               0.9 elap:               0.0
 (Enter /apps/cent7/gaussian/g16-A.03/g16-haswell/g16/l101.exe)
 -------------------
 Title Card Required
 -------------------
 Symbolic Z-matrix:
 Charge =  0 Multiplicity = 1
 O                    -2.8846    10.4796   5.3846 
 C                    -2.6308    9.4117    4.7825 
 O                    -3.6706    8.6661    4.3326 
 C                    -1.2227    9.0165    4.5703 
 C                    -1.0619    7.6891    3.9727 
 C                    -0.9032    7.4404    2.6338 
 C                    -0.874     8.3204    1.5301 
 C                    -0.7303    7.7895    0.2334 
 F                    -0.6725    8.5886   -0.7959 
 C                    -0.6619    6.3945    0.0478 
 C                    -0.7376    5.5247    1.1529 
 C                    -0.803     6.0602    2.4594 
 C                    -1.0674    6.4993    4.607 
 C                    -1.2725    6.3054    6.0444 
 C                    -0.8257    5.4794    3.7155 
 C                    -0.6215    4.185     4.0615 
 C                    -0.2248    3.1189    3.2672 
 C                    -0.9512    1.9054    3.3056 
 C                    -0.518     0.786     2.5734 
 C                     0.6478    0.8552    1.7787 
 S                     1.2237   -0.5685    0.8914 
 C                    -0.2035   -1.2592   -0.0224 
 O                     2.2033   -0.0382   -0.2631 
 C                     1.3835    2.0588    1.7485 
 C                     0.9596    3.1725    2.495 
 H                    -4.16      8.3152    5.0803 
 H                    -0.8206    9.7185    3.8397 
 H                    -0.7772    8.9481    5.5628 
 H                    -0.9615    9.3969    1.6773 
 H                    -0.5497    5.9858   -0.9565 
 H                    -0.7456    4.4457    0.9982 
 H                    -1.3042    5.2387    6.2663 
 H                    -0.452     6.7666    6.594 
 H                    -2.2141    6.7666    6.3425 
 H                    -0.7995    3.9738    5.1159 
 H                    -1.8569    1.8319    3.9075 
 H                    -1.0894   -0.1409    2.622 
 H                    -0.9488   -1.6198    0.6866 
 H                    -0.6436   -0.4834   -0.649 
 H                     0.1318   -2.0856   -0.649 
 H                     2.2872    2.129     1.1431 
 H                     1.5545    4.0856    2.475 
 
 ITRead=  0  0  0  0  0  0  0  0  0  0  0  0  0  0  0  0  0  0  0  0
 ITRead=  0  0  0  0  0  0  0  0  0  0  0  0  0  0  0  0  0  0  0  0
 ITRead=  0  0
 MicOpt= -1 -1 -1 -1 -1 -1 -1 -1 -1 -1 -1 -1 -1 -1 -1 -1 -1 -1 -1 -1
 MicOpt= -1 -1 -1 -1 -1 -1 -1 -1 -1 -1 -1 -1 -1 -1 -1 -1 -1 -1 -1 -1
 MicOpt= -1 -1
 NAtoms=     42 NQM=       42 NQMF=       0 NMMI=      0 NMMIF=      0
                NMic=       0 NMicF=      0.
                    Isotopes and Nuclear Properties:
 (Nuclear quadrupole moments (NQMom) in fm**2, nuclear magnetic moments (NMagM)
  in nuclear magnetons)

  Atom         1           2           3           4           5           6           7           8           9          10
 IAtWgt=          16          12          16          12          12          12          12          12          19          12
 AtmWgt=  15.9949146  12.0000000  15.9949146  12.0000000  12.0000000  12.0000000  12.0000000  12.0000000  18.9984033  12.0000000
 NucSpn=           0           0           0           0           0           0           0           0           1           0
 AtZEff=  -0.0000000  -0.0000000  -0.0000000  -0.0000000  -0.0000000  -0.0000000  -0.0000000  -0.0000000  -0.0000000  -0.0000000
 NQMom=    0.0000000   0.0000000   0.0000000   0.0000000   0.0000000   0.0000000   0.0000000   0.0000000   0.0000000   0.0000000
 NMagM=    0.0000000   0.0000000   0.0000000   0.0000000   0.0000000   0.0000000   0.0000000   0.0000000   2.6288670   0.0000000
 AtZNuc=   8.0000000   6.0000000   8.0000000   6.0000000   6.0000000   6.0000000   6.0000000   6.0000000   9.0000000   6.0000000

  Atom        11          12          13          14          15          16          17          18          19          20
 IAtWgt=          12          12          12          12          12          12          12          12          12          12
 AtmWgt=  12.0000000  12.0000000  12.0000000  12.0000000  12.0000000  12.0000000  12.0000000  12.0000000  12.0000000  12.0000000
 NucSpn=           0           0           0           0           0           0           0           0           0           0
 AtZEff=  -0.0000000  -0.0000000  -0.0000000  -0.0000000  -0.0000000  -0.0000000  -0.0000000  -0.0000000  -0.0000000  -0.0000000
 NQMom=    0.0000000   0.0000000   0.0000000   0.0000000   0.0000000   0.0000000   0.0000000   0.0000000   0.0000000   0.0000000
 NMagM=    0.0000000   0.0000000   0.0000000   0.0000000   0.0000000   0.0000000   0.0000000   0.0000000   0.0000000   0.0000000
 AtZNuc=   6.0000000   6.0000000   6.0000000   6.0000000   6.0000000   6.0000000   6.0000000   6.0000000   6.0000000   6.0000000

  Atom        21          22          23          24          25          26          27          28          29          30
 IAtWgt=          32          12          16          12          12           1           1           1           1           1
 AtmWgt=  31.9720718  12.0000000  15.9949146  12.0000000  12.0000000   1.0078250   1.0078250   1.0078250   1.0078250   1.0078250
 NucSpn=           0           0           0           0           0           1           1           1           1           1
 AtZEff=  -0.0000000  -0.0000000  -0.0000000  -0.0000000  -0.0000000  -0.0000000  -0.0000000  -0.0000000  -0.0000000  -0.0000000
 NQMom=    0.0000000   0.0000000   0.0000000   0.0000000   0.0000000   0.0000000   0.0000000   0.0000000   0.0000000   0.0000000
 NMagM=    0.0000000   0.0000000   0.0000000   0.0000000   0.0000000   2.7928460   2.7928460   2.7928460   2.7928460   2.7928460
 AtZNuc=  16.0000000   6.0000000   8.0000000   6.0000000   6.0000000   1.0000000   1.0000000   1.0000000   1.0000000   1.0000000

  Atom        31          32          33          34          35          36          37          38          39          40
 IAtWgt=           1           1           1           1           1           1           1           1           1           1
 AtmWgt=   1.0078250   1.0078250   1.0078250   1.0078250   1.0078250   1.0078250   1.0078250   1.0078250   1.0078250   1.0078250
 NucSpn=           1           1           1           1           1           1           1           1           1           1
 AtZEff=  -0.0000000  -0.0000000  -0.0000000  -0.0000000  -0.0000000  -0.0000000  -0.0000000  -0.0000000  -0.0000000  -0.0000000
 NQMom=    0.0000000   0.0000000   0.0000000   0.0000000   0.0000000   0.0000000   0.0000000   0.0000000   0.0000000   0.0000000
 NMagM=    2.7928460   2.7928460   2.7928460   2.7928460   2.7928460   2.7928460   2.7928460   2.7928460   2.7928460   2.7928460
 AtZNuc=   1.0000000   1.0000000   1.0000000   1.0000000   1.0000000   1.0000000   1.0000000   1.0000000   1.0000000   1.0000000

  Atom        41          42
 IAtWgt=           1           1
 AtmWgt=   1.0078250   1.0078250
 NucSpn=           1           1
 AtZEff=  -0.0000000  -0.0000000
 NQMom=    0.0000000   0.0000000
 NMagM=    2.7928460   2.7928460
 AtZNuc=   1.0000000   1.0000000
 Leave Link  101 at Mon Oct 14 01:54:51 2019, MaxMem= 10737418240 cpu:              11.3 elap:               0.5
 (Enter /apps/cent7/gaussian/g16-A.03/g16-haswell/g16/l103.exe)

 GradGradGradGradGradGradGradGradGradGradGradGradGradGradGradGradGradGrad
 Berny optimization.
 Initialization pass.
                           ----------------------------
                           !    Initial Parameters    !
                           ! (Angstroms and Degrees)  !
 --------------------------                            --------------------------
 ! Name  Definition              Value          Derivative Info.                !
 --------------------------------------------------------------------------------
 ! R1    R(1,2)                  1.2519         estimate D2E/DX2                !
 ! R2    R(2,3)                  1.3563         estimate D2E/DX2                !
 ! R3    R(2,4)                  1.4778         estimate D2E/DX2                !
 ! R4    R(3,26)                 0.9601         estimate D2E/DX2                !
 ! R5    R(4,5)                  1.4646         estimate D2E/DX2                !
 ! R6    R(4,27)                 1.0901         estimate D2E/DX2                !
 ! R7    R(4,28)                 1.09           estimate D2E/DX2                !
 ! R8    R(5,6)                  1.371          estimate D2E/DX2                !
 ! R9    R(5,13)                 1.3483         estimate D2E/DX2                !
 ! R10   R(6,7)                  1.4119         estimate D2E/DX2                !
 ! R11   R(6,12)                 1.3948         estimate D2E/DX2                !
 ! R12   R(7,8)                  1.4085         estimate D2E/DX2                !
 ! R13   R(7,29)                 1.09           estimate D2E/DX2                !
 ! R14   R(8,9)                  1.3044         estimate D2E/DX2                !
 ! R15   R(8,10)                 1.409          estimate D2E/DX2                !
 ! R16   R(10,11)                1.4084         estimate D2E/DX2                !
 ! R17   R(10,30)                1.0901         estimate D2E/DX2                !
 ! R18   R(11,12)                1.4135         estimate D2E/DX2                !
 ! R19   R(11,31)                1.0901         estimate D2E/DX2                !
 ! R20   R(12,15)                1.3841         estimate D2E/DX2                !
 ! R21   R(13,14)                1.4648         estimate D2E/DX2                !
 ! R22   R(13,15)                1.376          estimate D2E/DX2                !
 ! R23   R(14,32)                1.09           estimate D2E/DX2                !
 ! R24   R(14,33)                1.0899         estimate D2E/DX2                !
 ! R25   R(14,34)                1.09           estimate D2E/DX2                !
 ! R26   R(15,16)                1.3553         estimate D2E/DX2                !
 ! R27   R(16,17)                1.3874         estimate D2E/DX2                !
 ! R28   R(16,35)                1.09           estimate D2E/DX2                !
 ! R29   R(17,18)                1.4148         estimate D2E/DX2                !
 ! R30   R(17,25)                1.4149         estimate D2E/DX2                !
 ! R31   R(18,19)                1.406          estimate D2E/DX2                !
 ! R32   R(18,36)                1.0899         estimate D2E/DX2                !
 ! R33   R(19,20)                1.4126         estimate D2E/DX2                !
 ! R34   R(19,37)                1.09           estimate D2E/DX2                !
 ! R35   R(20,21)                1.7737         estimate D2E/DX2                !
 ! R36   R(20,24)                1.411          estimate D2E/DX2                !
 ! R37   R(21,22)                1.83           estimate D2E/DX2                !
 ! R38   R(21,23)                1.6043         estimate D2E/DX2                !
 ! R39   R(22,38)                1.09           estimate D2E/DX2                !
 ! R40   R(22,39)                1.09           estimate D2E/DX2                !
 ! R41   R(22,40)                1.0899         estimate D2E/DX2                !
 ! R42   R(24,25)                1.4062         estimate D2E/DX2                !
 ! R43   R(24,41)                1.09           estimate D2E/DX2                !
 ! R44   R(25,42)                1.09           estimate D2E/DX2                !
 ! A1    A(1,2,3)              118.2316         estimate D2E/DX2                !
 ! A2    A(1,2,4)              119.3621         estimate D2E/DX2                !
 ! A3    A(3,2,4)              122.4009         estimate D2E/DX2                !
 ! A4    A(2,3,26)             109.4751         estimate D2E/DX2                !
 ! A5    A(2,4,5)              113.9273         estimate D2E/DX2                !
 ! A6    A(2,4,27)             105.9913         estimate D2E/DX2                !
 ! A7    A(2,4,28)             105.9892         estimate D2E/DX2                !
 ! A8    A(5,4,27)             105.6463         estimate D2E/DX2                !
 ! A9    A(5,4,28)             105.651          estimate D2E/DX2                !
 ! A10   A(27,4,28)            119.9936         estimate D2E/DX2                !
 ! A11   A(4,5,6)              125.1413         estimate D2E/DX2                !
 ! A12   A(4,5,13)             127.3999         estimate D2E/DX2                !
 ! A13   A(6,5,13)             107.4465         estimate D2E/DX2                !
 ! A14   A(5,6,7)              130.7487         estimate D2E/DX2                !
 ! A15   A(5,6,12)             108.0548         estimate D2E/DX2                !
 ! A16   A(7,6,12)             121.1672         estimate D2E/DX2                !
 ! A17   A(6,7,8)              119.1334         estimate D2E/DX2                !
 ! A18   A(6,7,29)             120.5518         estimate D2E/DX2                !
 ! A19   A(8,7,29)             120.3147         estimate D2E/DX2                !
 ! A20   A(7,8,9)              120.0052         estimate D2E/DX2                !
 ! A21   A(7,8,10)             119.961          estimate D2E/DX2                !
 ! A22   A(9,8,10)             120.031          estimate D2E/DX2                !
 ! A23   A(8,10,11)            120.3646         estimate D2E/DX2                !
 ! A24   A(8,10,30)            119.84           estimate D2E/DX2                !
 ! A25   A(11,10,30)           119.7953         estimate D2E/DX2                !
 ! A26   A(10,11,12)           119.5893         estimate D2E/DX2                !
 ! A27   A(10,11,31)           120.0237         estimate D2E/DX2                !
 ! A28   A(12,11,31)           120.387          estimate D2E/DX2                !
 ! A29   A(6,12,11)            119.5896         estimate D2E/DX2                !
 ! A30   A(6,12,15)            107.4932         estimate D2E/DX2                !
 ! A31   A(11,12,15)           132.8927         estimate D2E/DX2                !
 ! A32   A(5,13,14)            125.3799         estimate D2E/DX2                !
 ! A33   A(5,13,15)            110.3987         estimate D2E/DX2                !
 ! A34   A(14,13,15)           124.2103         estimate D2E/DX2                !
 ! A35   A(13,14,32)           109.4738         estimate D2E/DX2                !
 ! A36   A(13,14,33)           109.4743         estimate D2E/DX2                !
 ! A37   A(13,14,34)           109.4689         estimate D2E/DX2                !
 ! A38   A(32,14,33)           109.4713         estimate D2E/DX2                !
 ! A39   A(32,14,34)           109.4671         estimate D2E/DX2                !
 ! A40   A(33,14,34)           109.4719         estimate D2E/DX2                !
 ! A41   A(12,15,13)           106.2504         estimate D2E/DX2                !
 ! A42   A(12,15,16)           129.0494         estimate D2E/DX2                !
 ! A43   A(13,15,16)           124.6773         estimate D2E/DX2                !
 ! A44   A(15,16,17)           129.1096         estimate D2E/DX2                !
 ! A45   A(15,16,35)           114.0422         estimate D2E/DX2                !
 ! A46   A(17,16,35)           116.8482         estimate D2E/DX2                !
 ! A47   A(16,17,18)           119.7843         estimate D2E/DX2                !
 ! A48   A(16,17,25)           121.5132         estimate D2E/DX2                !
 ! A49   A(18,17,25)           118.4951         estimate D2E/DX2                !
 ! A50   A(17,18,19)           120.7003         estimate D2E/DX2                !
 ! A51   A(17,18,36)           119.9643         estimate D2E/DX2                !
 ! A52   A(19,18,36)           119.3354         estimate D2E/DX2                !
 ! A53   A(18,19,20)           120.5474         estimate D2E/DX2                !
 ! A54   A(18,19,37)           119.4926         estimate D2E/DX2                !
 ! A55   A(20,19,37)           119.96           estimate D2E/DX2                !
 ! A56   A(19,20,21)           120.6695         estimate D2E/DX2                !
 ! A57   A(19,20,24)           118.9567         estimate D2E/DX2                !
 ! A58   A(21,20,24)           120.3122         estimate D2E/DX2                !
 ! A59   A(20,21,22)           107.4296         estimate D2E/DX2                !
 ! A60   A(20,21,23)           107.0342         estimate D2E/DX2                !
 ! A61   A(22,21,23)           103.9825         estimate D2E/DX2                !
 ! A62   A(21,22,38)           109.4694         estimate D2E/DX2                !
 ! A63   A(21,22,39)           109.4688         estimate D2E/DX2                !
 ! A64   A(21,22,40)           109.4701         estimate D2E/DX2                !
 ! A65   A(38,22,39)           109.4684         estimate D2E/DX2                !
 ! A66   A(38,22,40)           109.4778         estimate D2E/DX2                !
 ! A67   A(39,22,40)           109.4728         estimate D2E/DX2                !
 ! A68   A(20,24,25)           120.4687         estimate D2E/DX2                !
 ! A69   A(20,24,41)           119.9419         estimate D2E/DX2                !
 ! A70   A(25,24,41)           119.5894         estimate D2E/DX2                !
 ! A71   A(17,25,24)           120.8022         estimate D2E/DX2                !
 ! A72   A(17,25,42)           119.9088         estimate D2E/DX2                !
 ! A73   A(24,25,42)           119.2889         estimate D2E/DX2                !
 ! D1    D(1,2,3,26)           -67.0537         estimate D2E/DX2                !
 ! D2    D(4,2,3,26)           113.7942         estimate D2E/DX2                !
 ! D3    D(1,2,4,5)            174.3264         estimate D2E/DX2                !
 ! D4    D(1,2,4,27)           -69.9462         estimate D2E/DX2                !
 ! D5    D(1,2,4,28)            58.5946         estimate D2E/DX2                !
 ! D6    D(3,2,4,5)             -6.5307         estimate D2E/DX2                !
 ! D7    D(3,2,4,27)           109.1967         estimate D2E/DX2                !
 ! D8    D(3,2,4,28)          -122.2626         estimate D2E/DX2                !
 ! D9    D(2,4,5,6)             95.0334         estimate D2E/DX2                !
 ! D10   D(2,4,5,13)           -83.5323         estimate D2E/DX2                !
 ! D11   D(27,4,5,6)           -20.896          estimate D2E/DX2                !
 ! D12   D(27,4,5,13)          160.5383         estimate D2E/DX2                !
 ! D13   D(28,4,5,6)          -149.0368         estimate D2E/DX2                !
 ! D14   D(28,4,5,13)           32.3975         estimate D2E/DX2                !
 ! D15   D(4,5,6,7)             -1.1356         estimate D2E/DX2                !
 ! D16   D(4,5,6,12)          -179.1361         estimate D2E/DX2                !
 ! D17   D(13,5,6,7)           177.6701         estimate D2E/DX2                !
 ! D18   D(13,5,6,12)           -0.3304         estimate D2E/DX2                !
 ! D19   D(4,5,13,14)            1.5953         estimate D2E/DX2                !
 ! D20   D(4,5,13,15)         -177.2346         estimate D2E/DX2                !
 ! D21   D(6,5,13,14)         -177.1753         estimate D2E/DX2                !
 ! D22   D(6,5,13,15)            3.9948         estimate D2E/DX2                !
 ! D23   D(5,6,7,8)           -178.2853         estimate D2E/DX2                !
 ! D24   D(5,6,7,29)             1.7061         estimate D2E/DX2                !
 ! D25   D(12,6,7,8)            -0.5071         estimate D2E/DX2                !
 ! D26   D(12,6,7,29)          179.4842         estimate D2E/DX2                !
 ! D27   D(5,6,12,11)          175.0554         estimate D2E/DX2                !
 ! D28   D(5,6,12,15)           -3.3686         estimate D2E/DX2                !
 ! D29   D(7,6,12,11)           -3.1743         estimate D2E/DX2                !
 ! D30   D(7,6,12,15)          178.4016         estimate D2E/DX2                !
 ! D31   D(6,7,8,9)           -178.5343         estimate D2E/DX2                !
 ! D32   D(6,7,8,10)             2.0715         estimate D2E/DX2                !
 ! D33   D(29,7,8,9)             1.4743         estimate D2E/DX2                !
 ! D34   D(29,7,8,10)         -177.9198         estimate D2E/DX2                !
 ! D35   D(7,8,10,11)            0.0555         estimate D2E/DX2                !
 ! D36   D(7,8,10,30)         -179.9401         estimate D2E/DX2                !
 ! D37   D(9,8,10,11)         -179.3385         estimate D2E/DX2                !
 ! D38   D(9,8,10,30)            0.6659         estimate D2E/DX2                !
 ! D39   D(8,10,11,12)          -3.74           estimate D2E/DX2                !
 ! D40   D(8,10,11,31)         176.2543         estimate D2E/DX2                !
 ! D41   D(30,10,11,12)        176.2556         estimate D2E/DX2                !
 ! D42   D(30,10,11,31)         -3.7502         estimate D2E/DX2                !
 ! D43   D(10,11,12,6)           5.2721         estimate D2E/DX2                !
 ! D44   D(10,11,12,15)       -176.7797         estimate D2E/DX2                !
 ! D45   D(31,11,12,6)        -174.7222         estimate D2E/DX2                !
 ! D46   D(31,11,12,15)          3.2261         estimate D2E/DX2                !
 ! D47   D(6,12,15,13)           5.6479         estimate D2E/DX2                !
 ! D48   D(6,12,15,16)        -172.651          estimate D2E/DX2                !
 ! D49   D(11,12,15,13)       -172.4815         estimate D2E/DX2                !
 ! D50   D(11,12,15,16)          9.2196         estimate D2E/DX2                !
 ! D51   D(5,13,14,32)         175.6076         estimate D2E/DX2                !
 ! D52   D(5,13,14,33)         -64.3888         estimate D2E/DX2                !
 ! D53   D(5,13,14,34)          55.6125         estimate D2E/DX2                !
 ! D54   D(15,13,14,32)         -5.7186         estimate D2E/DX2                !
 ! D55   D(15,13,14,33)        114.285          estimate D2E/DX2                !
 ! D56   D(15,13,14,34)       -125.7137         estimate D2E/DX2                !
 ! D57   D(5,13,15,12)          -6.0444         estimate D2E/DX2                !
 ! D58   D(5,13,15,16)         172.3492         estimate D2E/DX2                !
 ! D59   D(14,13,15,12)        175.1092         estimate D2E/DX2                !
 ! D60   D(14,13,15,16)         -6.4972         estimate D2E/DX2                !
 ! D61   D(12,15,16,17)          6.0727         estimate D2E/DX2                !
 ! D62   D(12,15,16,35)       -173.9261         estimate D2E/DX2                !
 ! D63   D(13,15,16,17)       -171.9413         estimate D2E/DX2                !
 ! D64   D(13,15,16,35)          8.0599         estimate D2E/DX2                !
 ! D65   D(15,16,17,18)       -130.2789         estimate D2E/DX2                !
 ! D66   D(15,16,17,25)         55.0336         estimate D2E/DX2                !
 ! D67   D(35,16,17,18)         49.7199         estimate D2E/DX2                !
 ! D68   D(35,16,17,25)       -124.9676         estimate D2E/DX2                !
 ! D69   D(16,17,18,19)       -175.9739         estimate D2E/DX2                !
 ! D70   D(16,17,18,36)          4.0247         estimate D2E/DX2                !
 ! D71   D(25,17,18,19)         -1.1268         estimate D2E/DX2                !
 ! D72   D(25,17,18,36)        178.8719         estimate D2E/DX2                !
 ! D73   D(16,17,25,24)        176.735          estimate D2E/DX2                !
 ! D74   D(16,17,25,42)         -3.2597         estimate D2E/DX2                !
 ! D75   D(18,17,25,24)          1.981          estimate D2E/DX2                !
 ! D76   D(18,17,25,42)       -178.0137         estimate D2E/DX2                !
 ! D77   D(17,18,19,20)         -0.3762         estimate D2E/DX2                !
 ! D78   D(17,18,19,37)        179.6337         estimate D2E/DX2                !
 ! D79   D(36,18,19,20)        179.6252         estimate D2E/DX2                !
 ! D80   D(36,18,19,37)         -0.365          estimate D2E/DX2                !
 ! D81   D(18,19,20,21)        178.1968         estimate D2E/DX2                !
 ! D82   D(18,19,20,24)          1.0418         estimate D2E/DX2                !
 ! D83   D(37,19,20,21)         -1.8131         estimate D2E/DX2                !
 ! D84   D(37,19,20,24)       -178.9681         estimate D2E/DX2                !
 ! D85   D(19,20,21,22)         49.4057         estimate D2E/DX2                !
 ! D86   D(19,20,21,23)        160.5711         estimate D2E/DX2                !
 ! D87   D(24,20,21,22)       -133.4779         estimate D2E/DX2                !
 ! D88   D(24,20,21,23)        -22.3125         estimate D2E/DX2                !
 ! D89   D(19,20,24,25)         -0.1911         estimate D2E/DX2                !
 ! D90   D(19,20,24,41)        179.8164         estimate D2E/DX2                !
 ! D91   D(21,20,24,25)       -177.3565         estimate D2E/DX2                !
 ! D92   D(21,20,24,41)          2.6509         estimate D2E/DX2                !
 ! D93   D(20,21,22,38)        -64.8923         estimate D2E/DX2                !
 ! D94   D(20,21,22,39)         55.1017         estimate D2E/DX2                !
 ! D95   D(20,21,22,40)        175.1014         estimate D2E/DX2                !
 ! D96   D(23,21,22,38)       -178.1326         estimate D2E/DX2                !
 ! D97   D(23,21,22,39)        -58.1386         estimate D2E/DX2                !
 ! D98   D(23,21,22,40)         61.8611         estimate D2E/DX2                !
 ! D99   D(20,24,25,17)         -1.3392         estimate D2E/DX2                !
 ! D100  D(20,24,25,42)        178.6555         estimate D2E/DX2                !
 ! D101  D(41,24,25,17)        178.6534         estimate D2E/DX2                !
 ! D102  D(41,24,25,42)         -1.3519         estimate D2E/DX2                !
 --------------------------------------------------------------------------------
 Trust Radius=3.00D-01 FncErr=1.00D-07 GrdErr=1.00D-06 EigMax=2.50D+02 EigMin=1.00D-04
 Number of steps in this run=    229 maximum allowed number of steps=    252.
 GradGradGradGradGradGradGradGradGradGradGradGradGradGradGradGradGradGrad

 Leave Link  103 at Mon Oct 14 01:54:51 2019, MaxMem= 10737418240 cpu:               0.3 elap:               0.0
 (Enter /apps/cent7/gaussian/g16-A.03/g16-haswell/g16/l202.exe)
                          Input orientation:                          
 ---------------------------------------------------------------------
 Center     Atomic      Atomic             Coordinates (Angstroms)
 Number     Number       Type             X           Y           Z
 ---------------------------------------------------------------------
      1          8           0       -2.884600   10.479600    5.384600
      2          6           0       -2.630800    9.411700    4.782500
      3          8           0       -3.670600    8.666100    4.332600
      4          6           0       -1.222700    9.016500    4.570300
      5          6           0       -1.061900    7.689100    3.972700
      6          6           0       -0.903200    7.440400    2.633800
      7          6           0       -0.874000    8.320400    1.530100
      8          6           0       -0.730300    7.789500    0.233400
      9          9           0       -0.672500    8.588600   -0.795900
     10          6           0       -0.661900    6.394500    0.047800
     11          6           0       -0.737600    5.524700    1.152900
     12          6           0       -0.803000    6.060200    2.459400
     13          6           0       -1.067400    6.499300    4.607000
     14          6           0       -1.272500    6.305400    6.044400
     15          6           0       -0.825700    5.479400    3.715500
     16          6           0       -0.621500    4.185000    4.061500
     17          6           0       -0.224800    3.118900    3.267200
     18          6           0       -0.951200    1.905400    3.305600
     19          6           0       -0.518000    0.786000    2.573400
     20          6           0        0.647800    0.855200    1.778700
     21         16           0        1.223700   -0.568500    0.891400
     22          6           0       -0.203500   -1.259200   -0.022400
     23          8           0        2.203300   -0.038200   -0.263100
     24          6           0        1.383500    2.058800    1.748500
     25          6           0        0.959600    3.172500    2.495000
     26          1           0       -4.160000    8.315200    5.080300
     27          1           0       -0.820600    9.718500    3.839700
     28          1           0       -0.777200    8.948100    5.562800
     29          1           0       -0.961500    9.396900    1.677300
     30          1           0       -0.549700    5.985800   -0.956500
     31          1           0       -0.745600    4.445700    0.998200
     32          1           0       -1.304200    5.238700    6.266300
     33          1           0       -0.452000    6.766600    6.594000
     34          1           0       -2.214100    6.766600    6.342500
     35          1           0       -0.799500    3.973800    5.115900
     36          1           0       -1.856900    1.831900    3.907500
     37          1           0       -1.089400   -0.140900    2.622000
     38          1           0       -0.948800   -1.619800    0.686600
     39          1           0       -0.643600   -0.483400   -0.649000
     40          1           0        0.131800   -2.085600   -0.649000
     41          1           0        2.287200    2.129000    1.143100
     42          1           0        1.554500    4.085600    2.475000
 ---------------------------------------------------------------------
                    Distance matrix (angstroms):
                    1          2          3          4          5
     1  O    0.000000
     2  C    1.251938   0.000000
     3  O    2.239036   1.356287   0.000000
     4  C    2.359165   1.477822   2.484250   0.000000
     5  C    3.619750   2.466693   2.808803   1.464573   0.000000
     6  C    4.552975   3.389327   3.470845   2.517182   1.371018
     7  C    4.854053   3.854269   3.974228   3.138306   2.529850
     8  C    6.197783   5.190158   5.120277   4.533948   3.755317
     9  F    6.831387   5.969169   5.941054   5.411277   4.868293
    10  C    7.078833   5.949575   5.707184   5.257603   4.152208
    11  C    6.860607   5.645084   5.346155   4.909848   3.569464
    12  C    5.693940   4.468803   4.303803   3.656741   2.238397
    13  C    4.444060   3.310150   3.398083   2.522253   1.348329
    14  C    4.523068   3.617523   3.775453   3.086343   2.500184
    15  C    5.659237   4.456440   4.316170   3.660515   2.237122
    16  C    6.818666   5.645841   5.426856   4.895274   3.532783
    17  C    8.107886   6.905382   6.616649   6.121728   4.699489
    18  C    9.032009   7.832422   7.359139   7.227788   5.823097
    19  C   10.366751   9.151325   8.667736   8.498549   7.064464
    20  C   10.867817   9.642911   9.283380   8.826019   7.378272
    21  S   12.614574  11.384297  11.003357  10.554213   9.105292
    22  C   13.199370  11.951860  11.379736  11.301401   9.837162
    23  O   12.977186  11.752753  11.462460  10.820667   9.397590
    24  C   10.116708   8.909820   8.710793   7.947605   6.528960
    25  C    8.747650   7.553227   7.415873   6.574317   5.164275
    26  H    2.530587   1.905111   0.960051   3.062622   3.349179
    27  H    2.688138   2.063934   3.077823   1.090076   2.048018
    28  H    2.611203   2.063886   3.156688   1.090048   2.048061
    29  H    4.314467   3.525486   3.863148   2.929570   2.862782
    30  H    8.115143   7.000278   6.700642   6.339053   5.240286
    31  H    7.760398   6.521968   6.122550   5.820630   4.412181
    32  H    5.544555   4.623360   4.591962   4.141839   3.365081
    33  H    4.600713   3.876242   4.368228   3.122722   2.845030
    34  H    3.892751   3.098999   3.125570   3.030778   2.791867
    35  H    6.837052   5.747658   5.556479   5.089755   3.896051
    36  H    8.832933   7.669284   7.083538   7.242927   5.911266
    37  H   11.119790   9.914426   9.335523   9.363312   7.945694
    38  H   13.123033  11.886947  11.247277  11.326474   9.872531
    39  H   12.712741  11.461377  10.848614  10.854702   9.398130
    40  H   14.261390  13.012343  12.444824  12.342301  10.877950
    41  H   10.699082   9.511555   9.402232   8.455930   7.080806
    42  H    8.309911   7.156021   7.192588   6.034641   4.698283
                    6          7          8          9         10
     6  C    0.000000
     7  C    1.411880   0.000000
     8  C    2.431807   1.408522   0.000000
     9  F    3.624145   2.350066   1.304362   0.000000
    10  C    2.799916   2.439527   1.408954   2.350748   0.000000
    11  C    2.427014   2.824327   2.444351   3.631741   1.408378
    12  C    1.394779   2.444820   2.819723   4.123932   2.438746
    13  C    2.192293   3.580659   4.572377   5.806242   4.578397
    14  C    3.613419   4.959630   6.021981   7.236208   6.028265
    15  C    2.240893   3.584632   4.179795   5.481179   3.783684
    16  C    3.565854   4.855232   5.259145   6.556571   4.581846
    17  C    4.420043   5.522190   5.592314   6.828385   4.613583
    18  C    5.575827   6.656620   6.641524   7.846346   5.554185
    19  C    6.665813   7.614617   7.387130   8.500389   6.152612
    20  C    6.819212   7.622787   7.236824   8.256951   5.949384
    21  S    8.467712   9.155371   8.608556   9.502370   7.262955
    22  C    9.122939   9.727721   9.067631   9.889258   7.667736
    23  O    8.600688   9.085788   8.374092   9.109104   7.048806
    24  C    5.913913   6.659703   6.293219   7.303382   5.086682
    25  C    4.658783   5.549234   5.411773   6.544304   4.358823
    26  H    4.166219   4.837535   5.960842   6.838650   6.422760
    27  H    2.578906   2.700331   4.090794   4.773614   5.045064
    28  H    3.296677   4.082407   5.454086   6.369715   6.078601
    29  H    2.178574   1.090035   2.173024   2.617936   3.429203
    30  H    3.889869   3.426180   2.168366   2.610640   1.090066
    31  H    3.415882   3.913145   3.430182   4.515281   2.169813
    32  H    4.266537   5.666881   6.575091   7.841909   6.357528
    33  H    4.042372   5.313705   6.448334   7.614389   6.560126
    34  H    3.990855   5.231573   6.369387   7.526817   6.493923
    35  H    4.264843   5.635286   6.197028   7.500792   5.618217
    36  H    5.829848   6.979882   7.089516   8.317317   6.094475
    37  H    7.583595   8.534181   8.290091   9.384030   7.037096
    38  H    9.267194   9.976205   9.422742  10.319185   8.044836
    39  H    8.580838   9.072401   8.320278   9.073235   6.913131
    40  H   10.128804  10.679183   9.951856  10.705467   8.545618
    41  H    6.372739   6.962499   6.478744   7.365187   5.300129
    42  H    4.161753   4.972321   4.895299   5.994608   4.016808
                   11         12         13         14         15
    11  C    0.000000
    12  C    1.413499   0.000000
    13  C    3.604084   2.207918   0.000000
    14  C    4.982207   3.623918   1.464849   0.000000
    15  C    2.564514   1.384063   1.376004   2.511112   0.000000
    16  C    3.204408   2.473063   2.419170   2.975196   1.355317
    17  C    3.243625   3.104529   3.732579   4.354802   2.476694
    18  C    4.216524   4.242686   4.776093   5.192712   3.599617
    19  C    4.951901   5.283125   6.089266   6.563603   4.840152
    20  C    4.910722   5.446118   6.541946   7.182509   5.225478
    21  S    6.406416   7.106743   8.307143   8.946224   6.982312
    22  C    6.905642   7.751925   9.075902   9.755614   7.730961
    23  O    6.449791   7.323956   8.783750   9.597239   7.446342
    24  C    4.106856   4.614907   5.822025   6.598690   4.522185
    25  C    3.196023   3.383318   4.431351   5.234078   3.162073
    26  H    5.909669   4.819086   3.617414   3.647799   4.584975
    27  H    4.981339   3.910076   3.318570   4.088296   4.240922
    28  H    5.582871   4.239307   2.644691   2.731506   3.930235
    29  H    3.913957   3.430797   4.121946   5.359632   4.418089
    30  H    2.167369   3.426087   5.611081   7.045366   4.707462
    31  H    1.090063   2.178304   4.164645   5.403725   2.908379
    32  H    5.152639   3.926646   2.097251   1.089997   2.606430
    33  H    5.588332   4.209171   2.097221   1.089948   3.175263
    34  H    5.536634   4.191500   2.097220   1.090037   3.238158
    35  H    4.256112   3.377879   2.590154   2.553860   2.056365
    36  H    4.741036   4.591973   4.785105   4.992000   3.795325
    37  H    5.863535   6.209839   6.930582   7.300762   5.731758
    38  H    7.162815   7.883304   9.016839   9.571813   7.719328
    39  H    6.273193   7.246120   8.750042   9.554314   7.391685
    40  H    7.868886   8.768698  10.137264  10.825089   8.786062
    41  H    4.547559   5.170717   6.507800   7.357753   5.247149
    42  H    3.012089   3.075239   4.152798   5.065576   3.024379
                   16         17         18         19         20
    16  C    0.000000
    17  C    1.387391   0.000000
    18  C    2.424183   1.414819   0.000000
    19  C    3.711921   2.451479   1.406000   0.000000
    20  C    4.232005   2.846296   2.447681   1.412596   0.000000
    21  S    6.004170   4.619469   4.083960   2.774403   1.773664
    22  C    6.818525   5.476284   4.652884   3.319628   2.905058
    23  O    6.672112   5.322215   5.144324   4.016281   2.717847
    24  C    3.727026   2.452935   2.810501   2.432320   1.410964
    25  C    2.445190   1.414910   2.431825   2.807994   2.445442
    26  H    5.533307   6.765698   7.384544   8.731413   9.469272
    27  H    5.541521   6.651124   7.832423   9.026884   9.217484
    28  H    4.996525   6.289237   7.397625   8.696182   9.046826
    29  H    5.741421   6.517959   7.666423   8.668753   8.692570
    30  H    5.331825   5.115107   5.914082   6.284832   5.936193
    31  H    3.076877   2.679551   3.437949   3.990797   3.929686
    32  H    2.537224   3.827957   4.472275   5.837993   6.569926
    33  H    3.620352   4.942159   5.890165   7.206744   7.703332
    34  H    3.795259   5.169188   5.869322   7.269831   7.997712
    35  H    1.089977   2.116324   2.752903   4.087251   4.791372
    36  H    2.662144   2.174880   1.089944   2.160181   3.429177
    37  H    4.583067   3.433673   2.161886   1.089956   2.172840
    38  H    6.722557   5.444167   4.391606   3.087633   3.141248
    39  H    6.631987   5.337470   4.630318   3.465691   3.058315
    40  H    7.878877   6.523083   5.721873   4.364881   3.848154
    41  H    4.604859   3.435382   3.900466   3.423237   2.171218
    42  H    2.694780   2.174396   3.423697   3.897730   3.426722
                   21         22         23         24         25
    21  S    0.000000
    22  C    1.830026   0.000000
    23  O    1.604277   2.709514   0.000000
    24  C    2.768187   4.082129   3.019274   0.000000
    25  C    4.078770   5.227817   4.411632   1.406158   0.000000
    26  H   11.200502  11.548185  11.782309   8.998546   7.703340
    27  H   10.894678  11.653606  11.007731   8.240278   6.915739
    28  H   10.788478  11.649574  11.116568   8.165780   6.766493
    29  H   10.232396  10.817394  10.139143   7.704012   6.565243
    30  H    7.036940   7.313168   6.659459   5.145446   4.701648
    31  H    5.388112   5.820771   5.512916   3.285317   2.601760
    32  H    8.306829   9.109445   9.098423   6.143778   4.859699
    33  H    9.440938  10.404421  10.018769   7.000808   5.631338
    34  H    9.764049  10.438771  10.461963   7.497396   6.147616
    35  H    6.524740   7.358100   7.351639   4.446583   3.256629
    36  H    4.934458   5.266189   6.113624   3.900379   3.424184
    37  H    2.920317   3.004707   4.379066   3.422998   3.897839
    38  H    2.422175   1.090039   3.652276   4.483230   5.466117
    39  H    2.422165   1.090037   2.907226   4.039792   5.081397
    40  H    2.422121   1.089950   2.938006   4.948819   6.182039
    41  H    2.910480   4.363700   2.584800   1.090005   2.163111
    42  H    4.927257   6.155847   4.992380   2.159852   1.089981
                   26         27         28         29         30
    26  H    0.000000
    27  H    3.828829   0.000000
    28  H    3.475155   1.887981   0.000000
    29  H    4.793838   2.190720   3.915673   0.000000
    30  H    7.409678   6.083582   7.164374   4.329213   0.000000
    31  H    6.579871   5.990173   6.411566   5.002217   2.496225
    32  H    4.362000   5.117701   3.812124   6.202176   7.300429
    33  H    4.294032   4.054103   2.434763   5.599286   7.591393
    34  H    2.788877   4.113340   2.726088   5.500143   7.526970
    35  H    5.490171   5.884786   4.994385   6.423412   6.401920
    36  H    6.979463   7.954683   7.385531   7.937554   6.528564
    37  H    9.326170   9.937948   9.558017   9.585324   7.115714
    38  H   11.327870  11.769262  11.639900  11.061163   7.791291
    39  H   11.072728  11.147131  11.294136  10.155445   6.477185
    40  H   12.626206  12.664607  12.694695  11.766681   8.105954
    41  H    9.764067   8.633110   8.684723   7.978834   5.227928
    42  H    7.571830   6.263631   6.214116   5.930977   4.451248
                   31         32         33         34         35
    31  H    0.000000
    32  H    5.356656   0.000000
    33  H    6.065126   1.779919   0.000000
    34  H    6.008711   1.779945   1.779957   0.000000
    35  H    4.145003   1.782727   3.178878   3.362346   0.000000
    36  H    4.065829   4.180395   5.791571   5.514352   2.676950
    37  H    4.877686   6.501320   7.993536   7.925946   4.820201
    38  H    6.076897   8.848637  10.270146  10.194209   7.136480
    39  H    5.198048   9.000011  10.249891  10.193628   7.288690
    40  H    6.792715  10.174912  11.452655  11.521535   8.415326
    41  H    3.819158   6.986814   7.663084   8.294745   5.358558
    42  H    2.757004   4.886283   5.308480   6.028902   3.539515
                   36         37         38         39         40
    36  H    0.000000
    37  H    2.476592   0.000000
    38  H    4.807606   2.439813   0.000000
    39  H    5.253038   3.318958   1.779994   0.000000
    40  H    6.329568   3.996577   1.780026   1.779969   0.000000
    41  H    4.990365   4.329090   4.973288   4.315767   5.061642
    42  H    4.332305   4.987496   6.482012   5.955399   7.061668
                   41         42
    41  H    0.000000
    42  H    2.477719   0.000000
 Stoichiometry    C20H17FO3S
 Framework group  C1[X(C20H17FO3S)]
 Deg. of freedom   120
 Full point group                 C1      NOp   1
 Largest Abelian subgroup         C1      NOp   1
 Largest concise Abelian subgroup C1      NOp   1
                         Standard orientation:                         
 ---------------------------------------------------------------------
 Center     Atomic      Atomic             Coordinates (Angstroms)
 Number     Number       Type             X           Y           Z
 ---------------------------------------------------------------------
      1          8           0        6.666774   -1.039742    0.232946
      2          6           0        5.441550   -0.824502    0.373827
      3          8           0        4.924673   -0.855544    1.627377
      4          6           0        4.616144   -0.529532   -0.815986
      5          6           0        3.182659   -0.426969   -0.533893
      6          6           0        2.508732    0.740969   -0.286035
      7          6           0        2.969636    2.073582   -0.214509
      8          6           0        2.055850    3.099480    0.096077
      9          9           0        2.457319    4.339795    0.138504
     10          6           0        0.711013    2.783748    0.373350
     11          6           0        0.273088    1.445526    0.343161
     12          6           0        1.171652    0.425681   -0.044754
     13          6           0        2.292014   -1.435040   -0.441503
     14          6           0        2.605988   -2.859344   -0.577739
     15          6           0        1.026974   -0.938983   -0.224733
     16          6           0       -0.105353   -1.683724   -0.233732
     17          6           0       -1.427483   -1.266870   -0.178440
     18          6           0       -2.312936   -1.859644    0.752316
     19          6           0       -3.675335   -1.512589    0.768415
     20          6           0       -4.183951   -0.558454   -0.140631
     21         16           0       -5.910623   -0.153137   -0.154998
     22          6           0       -6.406325    0.195071    1.571857
     23          8           0       -6.054557    1.264084   -0.892881
     24          6           0       -3.307699    0.024848   -1.080183
     25          6           0       -1.948847   -0.335780   -1.107536
     26          1           0        4.969700   -1.751216    1.970075
     27          1           0        4.920701    0.460796   -1.154750
     28          1           0        4.724920   -1.389066   -1.477480
     29          1           0        4.018531    2.307631   -0.396764
     30          1           0        0.005285    3.579352    0.612524
     31          1           0       -0.753072    1.201117    0.617928
     32          1           0        1.710941   -3.449256   -0.380284
     33          1           0        2.956604   -3.058919   -1.590272
     34          1           0        3.384090   -3.129747    0.136137
     35          1           0        0.070063   -2.757850   -0.293158
     36          1           0       -1.940416   -2.593718    1.466698
     37          1           0       -4.341148   -1.985894    1.489995
     38          1           0       -6.308698   -0.712351    2.167877
     39          1           0       -5.762923    0.971997    1.984895
     40          1           0       -7.442397    0.532959    1.591316
     41          1           0       -3.683703    0.760616   -1.791082
     42          1           0       -1.293708    0.110361   -1.855740
 ---------------------------------------------------------------------
 Rotational constants (GHZ):           0.4054777           0.0892739           0.0773897
 Leave Link  202 at Mon Oct 14 01:54:51 2019, MaxMem= 10737418240 cpu:               0.4 elap:               0.0
 (Enter /apps/cent7/gaussian/g16-A.03/g16-haswell/g16/l301.exe)
 Standard basis: 6-31G(d) (6D, 7F)
 Ernie: Thresh=  0.10000D-02 Tol=  0.10000D-05 Strict=F.
 There are   413 symmetry adapted cartesian basis functions of A   symmetry.
 There are   413 symmetry adapted basis functions of A   symmetry.
   413 basis functions,   792 primitive gaussians,   413 cartesian basis functions
    93 alpha electrons       93 beta electrons
       nuclear repulsion energy      2185.1401129961 Hartrees.
 IExCor=  402 DFT=T Ex+Corr=B3LYP ExCW=0 ScaHFX=  0.200000
 ScaDFX=  0.800000  0.720000  1.000000  0.810000 ScalE2=  1.000000  1.000000
 IRadAn=      5 IRanWt=     -1 IRanGd=            0 ICorTp=0 IEmpDi=  4
 NAtoms=   42 NActive=   42 NUniq=   42 SFac= 1.00D+00 NAtFMM=   60 NAOKFM=F Big=F
 Integral buffers will be    131072 words long.
 Raffenetti 2 integral format.
 Two-electron integral symmetry is turned on.
 Leave Link  301 at Mon Oct 14 01:54:51 2019, MaxMem= 10737418240 cpu:               1.6 elap:               0.1
 (Enter /apps/cent7/gaussian/g16-A.03/g16-haswell/g16/l302.exe)
 NPDir=0 NMtPBC=     1 NCelOv=     1 NCel=       1 NClECP=     1 NCelD=      1
         NCelK=      1 NCelE2=     1 NClLst=     1 CellRange=     0.0.
 One-electron integrals computed using PRISM.
 One-electron integral symmetry used in STVInt
 NBasis=   413 RedAO= T EigKep=  2.90D-04  NBF=   413
 NBsUse=   413 1.00D-06 EigRej= -1.00D+00 NBFU=   413
 Precomputing XC quadrature grid using
 IXCGrd= 4 IRadAn=           5 IRanWt=          -1 IRanGd=           0 AccXCQ= 0.00D+00.
 Generated NRdTot=       0 NPtTot=           0 NUsed=           0 NTot=          32
 NSgBfM=   406   406   406   406   406 MxSgAt=    42 MxSgA2=    42.
 Leave Link  302 at Mon Oct 14 01:54:51 2019, MaxMem= 10737418240 cpu:               9.2 elap:               0.4
 (Enter /apps/cent7/gaussian/g16-A.03/g16-haswell/g16/l303.exe)
 DipDrv:  MaxL=1.
 Leave Link  303 at Mon Oct 14 01:54:51 2019, MaxMem= 10737418240 cpu:               1.4 elap:               0.1
 (Enter /apps/cent7/gaussian/g16-A.03/g16-haswell/g16/l401.exe)
 ExpMin= 1.17D-01 ExpMax= 2.19D+04 ExpMxC= 3.30D+03 IAcc=3 IRadAn=         5 AccDes= 0.00D+00
 Harris functional with IExCor=  402 and IRadAn=       5 diagonalized for initial guess.
 HarFok:  IExCor=  402 AccDes= 0.00D+00 IRadAn=         5 IDoV= 1 UseB2=F ITyADJ=14
 ICtDFT=  3500011 ScaDFX=  1.000000  1.000000  1.000000  1.000000
 FoFCou: FMM=F IPFlag=           0 FMFlag=      100000 FMFlg1=           0
         NFxFlg=           0 DoJE=T BraDBF=F KetDBF=T FulRan=T
         wScrn=  0.000000 ICntrl=       500 IOpCl=  0 I1Cent=   200000004 NGrid=           0
         NMat0=    1 NMatS0=      1 NMatT0=    0 NMatD0=    1 NMtDS0=    0 NMtDT0=    0
 Petite list used in FoFCou.
 Harris En= -1496.00558505306    
 JPrj=0 DoOrth=F DoCkMO=F.
 Leave Link  401 at Mon Oct 14 01:54:52 2019, MaxMem= 10737418240 cpu:              21.4 elap:               0.9
 (Enter /apps/cent7/gaussian/g16-A.03/g16-haswell/g16/l502.exe)
 Integral symmetry usage will be decided dynamically.
 Closed shell SCF:
 Using DIIS extrapolation, IDIIS=  1040.
 NGot= 10737418240 LenX= 10737062690 LenY= 10736891680
 Requested convergence on RMS density matrix=1.00D-08 within 128 cycles.
 Requested convergence on MAX density matrix=1.00D-06.
 Requested convergence on             energy=1.00D-06.
 No special actions if energy rises.
 Fock matrices will be formed incrementally for  20 cycles.
 Integral accuracy reduced to 1.0D-05 until final iterations.

 Cycle   1  Pass 0  IDiag  1:
 FoFJK:  IHMeth= 1 ICntrl=       0 DoSepK=F KAlg= 0 I1Cent=           0 FoldK=F
 IRaf= 700000000 NMat=       1 IRICut=       1 DoRegI=T DoRafI=F ISym2E= 0 IDoP0=0 IntGTp=1.
 FoFCou: FMM=F IPFlag=           0 FMFlag=      100000 FMFlg1=           0
         NFxFlg=           0 DoJE=F BraDBF=F KetDBF=F FulRan=T
         wScrn=  0.000000 ICntrl=         0 IOpCl=  0 I1Cent=           0 NGrid=           0
         NMat0=    1 NMatS0=      1 NMatT0=    0 NMatD0=    1 NMtDS0=    0 NMtDT0=    0
 Symmetry not used in FoFCou.
 E= -1495.18311029784    
 DIIS: error= 2.45D-02 at cycle   1 NSaved=   1.
 NSaved= 1 IEnMin= 1 EnMin= -1495.18311029784     IErMin= 1 ErrMin= 2.45D-02
 ErrMax= 2.45D-02  0.00D+00 EMaxC= 1.00D-01 BMatC= 7.85D-01 BMatP= 7.85D-01
 IDIUse=3 WtCom= 7.55D-01 WtEn= 2.45D-01
 Coeff-Com:  0.100D+01
 Coeff-En:   0.100D+01
 Coeff:      0.100D+01
 Gap=     0.249 Goal=   None    Shift=    0.000
 GapD=    0.249 DampG=1.000 DampE=0.500 DampFc=0.5000 IDamp=-1.
 Damping current iteration by 5.00D-01
 RMSDP=8.90D-03 MaxDP=6.15D-01              OVMax= 4.76D-01

 Cycle   2  Pass 0  IDiag  1:
 RMSU=  4.44D-03    CP:  9.86D-01
 E= -1495.19579782254     Delta-E=       -0.012687524700 Rises=F Damp=T
 DIIS: error= 3.00D-02 at cycle   2 NSaved=   2.
 NSaved= 2 IEnMin= 2 EnMin= -1495.19579782254     IErMin= 1 ErrMin= 2.45D-02
 ErrMax= 3.00D-02  0.00D+00 EMaxC= 1.00D-01 BMatC= 2.50D-01 BMatP= 7.85D-01
 IDIUse=3 WtCom= 7.00D-01 WtEn= 3.00D-01
 Coeff-Com:  0.309D+00 0.691D+00
 Coeff-En:   0.493D+00 0.507D+00
 Coeff:      0.364D+00 0.636D+00
 Gap=     0.138 Goal=   None    Shift=    0.000
 RMSDP=4.17D-03 MaxDP=3.09D-01 DE=-1.27D-02 OVMax= 2.65D-01

 Cycle   3  Pass 0  IDiag  1:
 RMSU=  2.84D-03    CP:  9.46D-01  3.33D-01
 E= -1495.71828375914     Delta-E=       -0.522485936602 Rises=F Damp=F
 DIIS: error= 2.33D-02 at cycle   3 NSaved=   3.
 NSaved= 3 IEnMin= 3 EnMin= -1495.71828375914     IErMin= 3 ErrMin= 2.33D-02
 ErrMax= 2.33D-02  0.00D+00 EMaxC= 1.00D-01 BMatC= 2.23D-01 BMatP= 2.50D-01
 IDIUse=3 WtCom= 7.67D-01 WtEn= 2.33D-01
 Coeff-Com:  0.135D+00 0.448D+00 0.417D+00
 Coeff-En:   0.000D+00 0.450D-01 0.955D+00
 Coeff:      0.103D+00 0.354D+00 0.542D+00
 Gap=     0.119 Goal=   None    Shift=    0.000
 RMSDP=2.36D-03 MaxDP=1.31D-01 DE=-5.22D-01 OVMax= 1.79D-01

 Cycle   4  Pass 0  IDiag  1:
 RMSU=  1.47D-03    CP:  9.58D-01  6.10D-01  5.22D-01
 E= -1495.87535983691     Delta-E=       -0.157076077769 Rises=F Damp=F
 DIIS: error= 1.33D-02 at cycle   4 NSaved=   4.
 NSaved= 4 IEnMin= 4 EnMin= -1495.87535983691     IErMin= 4 ErrMin= 1.33D-02
 ErrMax= 1.33D-02  0.00D+00 EMaxC= 1.00D-01 BMatC= 6.25D-02 BMatP= 2.23D-01
 IDIUse=3 WtCom= 8.67D-01 WtEn= 1.33D-01
 Coeff-Com:  0.374D-01 0.831D-01 0.338D+00 0.542D+00
 Coeff-En:   0.000D+00 0.000D+00 0.246D+00 0.754D+00
 Coeff:      0.324D-01 0.720D-01 0.325D+00 0.570D+00
 Gap=     0.135 Goal=   None    Shift=    0.000
 RMSDP=1.08D-03 MaxDP=7.21D-02 DE=-1.57D-01 OVMax= 7.64D-02

 Cycle   5  Pass 0  IDiag  1:
 RMSU=  3.81D-04    CP:  9.56D-01  4.67D-01  6.90D-01  5.74D-01
 E= -1495.92372984535     Delta-E=       -0.048370008446 Rises=F Damp=F
 DIIS: error= 3.20D-03 at cycle   5 NSaved=   5.
 NSaved= 5 IEnMin= 5 EnMin= -1495.92372984535     IErMin= 5 ErrMin= 3.20D-03
 ErrMax= 3.20D-03  0.00D+00 EMaxC= 1.00D-01 BMatC= 6.78D-03 BMatP= 6.25D-02
 IDIUse=3 WtCom= 9.68D-01 WtEn= 3.20D-02
 Coeff-Com:  0.494D-02-0.107D-01 0.143D+00 0.374D+00 0.489D+00
 Coeff-En:   0.000D+00 0.000D+00 0.000D+00 0.898D-01 0.910D+00
 Coeff:      0.478D-02-0.104D-01 0.138D+00 0.365D+00 0.502D+00
 Gap=     0.118 Goal=   None    Shift=    0.000
 RMSDP=3.07D-04 MaxDP=1.33D-02 DE=-4.84D-02 OVMax= 1.77D-02

 Cycle   6  Pass 0  IDiag  1:
 RMSU=  1.54D-04    CP:  9.56D-01  4.95D-01  6.74D-01  6.75D-01  5.35D-01
 E= -1495.92900941484     Delta-E=       -0.005279569483 Rises=F Damp=F
 DIIS: error= 1.13D-03 at cycle   6 NSaved=   6.
 NSaved= 6 IEnMin= 6 EnMin= -1495.92900941484     IErMin= 6 ErrMin= 1.13D-03
 ErrMax= 1.13D-03  0.00D+00 EMaxC= 1.00D-01 BMatC= 1.02D-03 BMatP= 6.78D-03
 IDIUse=3 WtCom= 9.89D-01 WtEn= 1.13D-02
 Coeff-Com:  0.539D-03-0.162D-01 0.433D-01 0.146D+00 0.331D+00 0.496D+00
 Coeff-En:   0.000D+00 0.000D+00 0.000D+00 0.000D+00 0.151D+00 0.849D+00
 Coeff:      0.533D-03-0.160D-01 0.428D-01 0.144D+00 0.329D+00 0.500D+00
 Gap=     0.117 Goal=   None    Shift=    0.000
 RMSDP=9.67D-05 MaxDP=5.43D-03 DE=-5.28D-03 OVMax= 7.73D-03

 Cycle   7  Pass 0  IDiag  1:
 RMSU=  5.56D-05    CP:  9.56D-01  4.92D-01  6.76D-01  6.64D-01  6.22D-01
                    CP:  5.60D-01
 E= -1495.92988289758     Delta-E=       -0.000873482742 Rises=F Damp=F
 DIIS: error= 3.54D-04 at cycle   7 NSaved=   7.
 NSaved= 7 IEnMin= 7 EnMin= -1495.92988289758     IErMin= 7 ErrMin= 3.54D-04
 ErrMax= 3.54D-04  0.00D+00 EMaxC= 1.00D-01 BMatC= 9.08D-05 BMatP= 1.02D-03
 IDIUse=3 WtCom= 9.96D-01 WtEn= 3.54D-03
 Coeff-Com:  0.101D-02-0.802D-02 0.909D-02 0.325D-01 0.127D+00 0.285D+00
 Coeff-Com:  0.554D+00
 Coeff-En:   0.000D+00 0.000D+00 0.000D+00 0.000D+00 0.000D+00 0.000D+00
 Coeff-En:   0.100D+01
 Coeff:      0.101D-02-0.799D-02 0.906D-02 0.324D-01 0.127D+00 0.284D+00
 Coeff:      0.555D+00
 Gap=     0.117 Goal=   None    Shift=    0.000
 RMSDP=3.57D-05 MaxDP=1.68D-03 DE=-8.73D-04 OVMax= 4.33D-03

 Cycle   8  Pass 0  IDiag  1:
 RMSU=  2.13D-05    CP:  9.55D-01  4.88D-01  6.78D-01  6.64D-01  6.23D-01
                    CP:  6.13D-01  5.92D-01
 E= -1495.92995393707     Delta-E=       -0.000071039493 Rises=F Damp=F
 DIIS: error= 1.17D-04 at cycle   8 NSaved=   8.
 NSaved= 8 IEnMin= 8 EnMin= -1495.92995393707     IErMin= 8 ErrMin= 1.17D-04
 ErrMax= 1.17D-04  0.00D+00 EMaxC= 1.00D-01 BMatC= 1.52D-05 BMatP= 9.08D-05
 IDIUse=3 WtCom= 9.99D-01 WtEn= 1.17D-03
 Coeff-Com:  0.900D-03-0.399D-02 0.241D-02 0.683D-02 0.519D-01 0.137D+00
 Coeff-Com:  0.361D+00 0.445D+00
 Coeff-En:   0.000D+00 0.000D+00 0.000D+00 0.000D+00 0.000D+00 0.000D+00
 Coeff-En:   0.110D+00 0.890D+00
 Coeff:      0.899D-03-0.398D-02 0.241D-02 0.682D-02 0.518D-01 0.136D+00
 Coeff:      0.360D+00 0.445D+00
 Gap=     0.117 Goal=   None    Shift=    0.000
 RMSDP=1.54D-05 MaxDP=8.62D-04 DE=-7.10D-05 OVMax= 1.92D-03

 Cycle   9  Pass 0  IDiag  1:
 RMSU=  8.77D-06    CP:  9.55D-01  4.88D-01  6.79D-01  6.63D-01  6.25D-01
                    CP:  6.12D-01  6.51D-01  4.62D-01
 E= -1495.92996955230     Delta-E=       -0.000015615227 Rises=F Damp=F
 DIIS: error= 4.67D-05 at cycle   9 NSaved=   9.
 NSaved= 9 IEnMin= 9 EnMin= -1495.92996955230     IErMin= 9 ErrMin= 4.67D-05
 ErrMax= 4.67D-05  0.00D+00 EMaxC= 1.00D-01 BMatC= 2.24D-06 BMatP= 1.52D-05
 IDIUse=1 WtCom= 1.00D+00 WtEn= 0.00D+00
 Coeff-Com:  0.561D-03-0.152D-02 0.456D-03-0.769D-03 0.149D-01 0.459D-01
 Coeff-Com:  0.156D+00 0.306D+00 0.478D+00
 Coeff:      0.561D-03-0.152D-02 0.456D-03-0.769D-03 0.149D-01 0.459D-01
 Coeff:      0.156D+00 0.306D+00 0.478D+00
 Gap=     0.117 Goal=   None    Shift=    0.000
 RMSDP=5.63D-06 MaxDP=2.28D-04 DE=-1.56D-05 OVMax= 5.89D-04

 Initial convergence to 1.0D-05 achieved.  Increase integral accuracy.
 Cycle  10  Pass 1  IDiag  1:
 E= -1495.92997711517     Delta-E=       -0.000007562874 Rises=F Damp=F
 DIIS: error= 6.13D-05 at cycle   1 NSaved=   1.
 NSaved= 1 IEnMin= 1 EnMin= -1495.92997711517     IErMin= 1 ErrMin= 6.13D-05
 ErrMax= 6.13D-05  0.00D+00 EMaxC= 1.00D-01 BMatC= 1.58D-06 BMatP= 1.58D-06
 IDIUse=1 WtCom= 1.00D+00 WtEn= 0.00D+00
 Coeff-Com:  0.100D+01
 Coeff:      0.100D+01
 Gap=     0.117 Goal=   None    Shift=    0.000
 RMSDP=5.63D-06 MaxDP=2.28D-04 DE=-7.56D-06 OVMax= 4.45D-04

 Cycle  11  Pass 1  IDiag  1:
 RMSU=  6.61D-05    CP:  1.00D+00
 E= -1495.92997763801     Delta-E=       -0.000000522840 Rises=F Damp=F
 DIIS: error= 4.14D-05 at cycle   2 NSaved=   2.
 NSaved= 2 IEnMin= 2 EnMin= -1495.92997763801     IErMin= 2 ErrMin= 4.14D-05
 ErrMax= 4.14D-05  0.00D+00 EMaxC= 1.00D-01 BMatC= 1.11D-06 BMatP= 1.58D-06
 IDIUse=1 WtCom= 1.00D+00 WtEn= 0.00D+00
 Coeff-Com:  0.435D+00 0.565D+00
 Coeff:      0.435D+00 0.565D+00
 Gap=     0.117 Goal=   None    Shift=    0.000
 RMSDP=5.79D-06 MaxDP=2.49D-04 DE=-5.23D-07 OVMax= 6.01D-04

 Cycle  12  Pass 1  IDiag  1:
 RMSU=  5.78D-06    CP:  1.00D+00  1.00D+00
 E= -1495.92997768963     Delta-E=       -0.000000051620 Rises=F Damp=F
 DIIS: error= 4.23D-05 at cycle   3 NSaved=   3.
 NSaved= 3 IEnMin= 3 EnMin= -1495.92997768963     IErMin= 2 ErrMin= 4.14D-05
 ErrMax= 4.23D-05  0.00D+00 EMaxC= 1.00D-01 BMatC= 1.06D-06 BMatP= 1.11D-06
 IDIUse=1 WtCom= 1.00D+00 WtEn= 0.00D+00
 Coeff-Com:  0.224D-01 0.487D+00 0.490D+00
 Coeff:      0.224D-01 0.487D+00 0.490D+00
 Gap=     0.117 Goal=   None    Shift=    0.000
 RMSDP=3.17D-06 MaxDP=1.72D-04 DE=-5.16D-08 OVMax= 3.18D-04

 Cycle  13  Pass 1  IDiag  1:
 RMSU=  1.08D-06    CP:  1.00D+00  1.01D+00  4.91D-01
 E= -1495.92997868570     Delta-E=       -0.000000996066 Rises=F Damp=F
 DIIS: error= 5.72D-06 at cycle   4 NSaved=   4.
 NSaved= 4 IEnMin= 4 EnMin= -1495.92997868570     IErMin= 4 ErrMin= 5.72D-06
 ErrMax= 5.72D-06  0.00D+00 EMaxC= 1.00D-01 BMatC= 4.70D-08 BMatP= 1.06D-06
 IDIUse=1 WtCom= 1.00D+00 WtEn= 0.00D+00
 Coeff-Com: -0.296D-02 0.297D+00 0.321D+00 0.385D+00
 Coeff:     -0.296D-02 0.297D+00 0.321D+00 0.385D+00
 Gap=     0.117 Goal=   None    Shift=    0.000
 RMSDP=6.87D-07 MaxDP=3.90D-05 DE=-9.96D-07 OVMax= 7.96D-05

 Cycle  14  Pass 1  IDiag  1:
 RMSU=  2.19D-07    CP:  1.00D+00  1.01D+00  5.18D-01  4.13D-01
 E= -1495.92997873478     Delta-E=       -0.000000049082 Rises=F Damp=F
 DIIS: error= 1.14D-06 at cycle   5 NSaved=   5.
 NSaved= 5 IEnMin= 5 EnMin= -1495.92997873478     IErMin= 5 ErrMin= 1.14D-06
 ErrMax= 1.14D-06  0.00D+00 EMaxC= 1.00D-01 BMatC= 1.17D-09 BMatP= 4.70D-08
 IDIUse=1 WtCom= 1.00D+00 WtEn= 0.00D+00
 Coeff-Com: -0.254D-02 0.172D+00 0.187D+00 0.241D+00 0.403D+00
 Coeff:     -0.254D-02 0.172D+00 0.187D+00 0.241D+00 0.403D+00
 Gap=     0.117 Goal=   None    Shift=    0.000
 RMSDP=1.23D-07 MaxDP=5.99D-06 DE=-4.91D-08 OVMax= 1.31D-05

 Cycle  15  Pass 1  IDiag  1:
 RMSU=  6.84D-08    CP:  1.00D+00  1.01D+00  5.14D-01  4.23D-01  5.52D-01
 E= -1495.92997873603     Delta-E=       -0.000000001251 Rises=F Damp=F
 DIIS: error= 3.33D-07 at cycle   6 NSaved=   6.
 NSaved= 6 IEnMin= 6 EnMin= -1495.92997873603     IErMin= 6 ErrMin= 3.33D-07
 ErrMax= 3.33D-07  0.00D+00 EMaxC= 1.00D-01 BMatC= 6.40D-11 BMatP= 1.17D-09
 IDIUse=1 WtCom= 1.00D+00 WtEn= 0.00D+00
 Coeff-Com: -0.139D-02 0.891D-01 0.965D-01 0.126D+00 0.251D+00 0.438D+00
 Coeff:     -0.139D-02 0.891D-01 0.965D-01 0.126D+00 0.251D+00 0.438D+00
 Gap=     0.117 Goal=   None    Shift=    0.000
 RMSDP=2.93D-08 MaxDP=1.25D-06 DE=-1.25D-09 OVMax= 2.82D-06

 Cycle  16  Pass 1  IDiag  1:
 RMSU=  2.32D-08    CP:  1.00D+00  1.01D+00  5.15D-01  4.25D-01  5.87D-01
                    CP:  7.74D-01
 E= -1495.92997873609     Delta-E=       -0.000000000052 Rises=F Damp=F
 DIIS: error= 7.16D-08 at cycle   7 NSaved=   7.
 NSaved= 7 IEnMin= 7 EnMin= -1495.92997873609     IErMin= 7 ErrMin= 7.16D-08
 ErrMax= 7.16D-08  0.00D+00 EMaxC= 1.00D-01 BMatC= 5.74D-12 BMatP= 6.40D-11
 IDIUse=1 WtCom= 1.00D+00 WtEn= 0.00D+00
 Coeff-Com: -0.396D-03 0.237D-01 0.256D-01 0.335D-01 0.779D-01 0.252D+00
 Coeff-Com:  0.588D+00
 Coeff:     -0.396D-03 0.237D-01 0.256D-01 0.335D-01 0.779D-01 0.252D+00
 Coeff:      0.588D+00
 Gap=     0.117 Goal=   None    Shift=    0.000
 RMSDP=9.21D-09 MaxDP=4.84D-07 DE=-5.23D-11 OVMax= 9.50D-07

 SCF Done:  E(RB3LYP) =  -1495.92997874     A.U. after   16 cycles
            NFock= 16  Conv=0.92D-08     -V/T= 2.0070
 KE= 1.485467705693D+03 PE=-7.873875091647D+03 EE= 2.707337294222D+03
 Leave Link  502 at Mon Oct 14 01:55:10 2019, MaxMem= 10737418240 cpu:             422.5 elap:              17.7
 (Enter /apps/cent7/gaussian/g16-A.03/g16-haswell/g16/l601.exe)
 Copying SCF densities to generalized density rwf, IOpCl= 0 IROHF=0.

 **********************************************************************

            Population analysis using the SCF density.

 **********************************************************************

 Orbital symmetries:
       Occupied  (A) (A) (A) (A) (A) (A) (A) (A) (A) (A) (A) (A)
                 (A) (A) (A) (A) (A) (A) (A) (A) (A) (A) (A) (A)
                 (A) (A) (A) (A) (A) (A) (A) (A) (A) (A) (A) (A)
                 (A) (A) (A) (A) (A) (A) (A) (A) (A) (A) (A) (A)
                 (A) (A) (A) (A) (A) (A) (A) (A) (A) (A) (A) (A)
                 (A) (A) (A) (A) (A) (A) (A) (A) (A) (A) (A) (A)
                 (A) (A) (A) (A) (A) (A) (A) (A) (A) (A) (A) (A)
                 (A) (A) (A) (A) (A) (A) (A) (A) (A)
       Virtual   (A) (A) (A) (A) (A) (A) (A) (A) (A) (A) (A) (A)
                 (A) (A) (A) (A) (A) (A) (A) (A) (A) (A) (A) (A)
                 (A) (A) (A) (A) (A) (A) (A) (A) (A) (A) (A) (A)
                 (A) (A) (A) (A) (A) (A) (A) (A) (A) (A) (A) (A)
                 (A) (A) (A) (A) (A) (A) (A) (A) (A) (A) (A) (A)
                 (A) (A) (A) (A) (A) (A) (A) (A) (A) (A) (A) (A)
                 (A) (A) (A) (A) (A) (A) (A) (A) (A) (A) (A) (A)
                 (A) (A) (A) (A) (A) (A) (A) (A) (A) (A) (A) (A)
                 (A) (A) (A) (A) (A) (A) (A) (A) (A) (A) (A) (A)
                 (A) (A) (A) (A) (A) (A) (A) (A) (A) (A) (A) (A)
                 (A) (A) (A) (A) (A) (A) (A) (A) (A) (A) (A) (A)
                 (A) (A) (A) (A) (A) (A) (A) (A) (A) (A) (A) (A)
                 (A) (A) (A) (A) (A) (A) (A) (A) (A) (A) (A) (A)
                 (A) (A) (A) (A) (A) (A) (A) (A) (A) (A) (A) (A)
                 (A) (A) (A) (A) (A) (A) (A) (A) (A) (A) (A) (A)
                 (A) (A) (A) (A) (A) (A) (A) (A) (A) (A) (A) (A)
                 (A) (A) (A) (A) (A) (A) (A) (A) (A) (A) (A) (A)
                 (A) (A) (A) (A) (A) (A) (A) (A) (A) (A) (A) (A)
                 (A) (A) (A) (A) (A) (A) (A) (A) (A) (A) (A) (A)
                 (A) (A) (A) (A) (A) (A) (A) (A) (A) (A) (A) (A)
                 (A) (A) (A) (A) (A) (A) (A) (A) (A) (A) (A) (A)
                 (A) (A) (A) (A) (A) (A) (A) (A) (A) (A) (A) (A)
                 (A) (A) (A) (A) (A) (A) (A) (A) (A) (A) (A) (A)
                 (A) (A) (A) (A) (A) (A) (A) (A) (A) (A) (A) (A)
                 (A) (A) (A) (A) (A) (A) (A) (A) (A) (A) (A) (A)
                 (A) (A) (A) (A) (A) (A) (A) (A) (A) (A) (A) (A)
                 (A) (A) (A) (A) (A) (A) (A) (A)
 The electronic state is 1-A.
 Alpha  occ. eigenvalues --  -88.99203 -24.71466 -19.18917 -19.13915 -19.10044
 Alpha  occ. eigenvalues --  -10.32940 -10.27555 -10.23840 -10.22768 -10.22643
 Alpha  occ. eigenvalues --  -10.22152 -10.22005 -10.21765 -10.21635 -10.21306
 Alpha  occ. eigenvalues --  -10.21288 -10.20077 -10.19630 -10.19625 -10.19551
 Alpha  occ. eigenvalues --  -10.19201 -10.18908 -10.18733 -10.18555 -10.18153
 Alpha  occ. eigenvalues --   -8.03963  -6.00342  -6.00329  -5.99664  -1.24102
 Alpha  occ. eigenvalues --   -1.09918  -0.99980  -0.96308  -0.92409  -0.88278
 Alpha  occ. eigenvalues --   -0.83657  -0.82976  -0.80307  -0.77619  -0.76868
 Alpha  occ. eigenvalues --   -0.76684  -0.75015  -0.73114  -0.69033  -0.68046
 Alpha  occ. eigenvalues --   -0.64329  -0.63337  -0.62371  -0.60827  -0.60013
 Alpha  occ. eigenvalues --   -0.57871  -0.55859  -0.53604  -0.53128  -0.50758
 Alpha  occ. eigenvalues --   -0.50371  -0.48967  -0.48501  -0.48199  -0.47216
 Alpha  occ. eigenvalues --   -0.46907  -0.46555  -0.45838  -0.45656  -0.45102
 Alpha  occ. eigenvalues --   -0.44920  -0.44277  -0.43907  -0.43549  -0.42442
 Alpha  occ. eigenvalues --   -0.41894  -0.40590  -0.40108  -0.39655  -0.39041
 Alpha  occ. eigenvalues --   -0.38596  -0.37780  -0.37365  -0.36680  -0.35741
 Alpha  occ. eigenvalues --   -0.34972  -0.34603  -0.33440  -0.31990  -0.31822
 Alpha  occ. eigenvalues --   -0.29088  -0.27550  -0.27051  -0.26369  -0.25289
 Alpha  occ. eigenvalues --   -0.22426  -0.21505  -0.20621
 Alpha virt. eigenvalues --   -0.08918  -0.03354  -0.02695  -0.02518  -0.01172
 Alpha virt. eigenvalues --    0.01562   0.03955   0.04793   0.05432   0.06794
 Alpha virt. eigenvalues --    0.08191   0.08569   0.09754   0.10274   0.11404
 Alpha virt. eigenvalues --    0.12057   0.12429   0.12729   0.13195   0.14566
 Alpha virt. eigenvalues --    0.14703   0.15436   0.17484   0.17568   0.17804
 Alpha virt. eigenvalues --    0.18700   0.19318   0.19945   0.20704   0.21320
 Alpha virt. eigenvalues --    0.23264   0.23896   0.24689   0.26065   0.26216
 Alpha virt. eigenvalues --    0.27360   0.27783   0.28796   0.30516   0.31672
 Alpha virt. eigenvalues --    0.31757   0.32704   0.34434   0.34849   0.35426
 Alpha virt. eigenvalues --    0.38099   0.38222   0.38823   0.40726   0.41752
 Alpha virt. eigenvalues --    0.43906   0.44704   0.45907   0.46971   0.47449
 Alpha virt. eigenvalues --    0.49269   0.50160   0.50770   0.51338   0.51665
 Alpha virt. eigenvalues --    0.52554   0.52583   0.53319   0.53877   0.54070
 Alpha virt. eigenvalues --    0.55026   0.55659   0.55843   0.56325   0.56488
 Alpha virt. eigenvalues --    0.56637   0.57611   0.58031   0.58490   0.59068
 Alpha virt. eigenvalues --    0.59817   0.60078   0.60667   0.61490   0.62400
 Alpha virt. eigenvalues --    0.62589   0.63620   0.63669   0.64467   0.65147
 Alpha virt. eigenvalues --    0.65951   0.67078   0.67898   0.69627   0.71811
 Alpha virt. eigenvalues --    0.72201   0.73463   0.74173   0.74740   0.75534
 Alpha virt. eigenvalues --    0.77202   0.78196   0.78886   0.79015   0.79498
 Alpha virt. eigenvalues --    0.80583   0.80839   0.81101   0.82258   0.82895
 Alpha virt. eigenvalues --    0.83360   0.83691   0.84030   0.84473   0.85631
 Alpha virt. eigenvalues --    0.86013   0.86432   0.86668   0.87175   0.88410
 Alpha virt. eigenvalues --    0.88924   0.89528   0.89573   0.89746   0.91068
 Alpha virt. eigenvalues --    0.91602   0.92439   0.93244   0.95079   0.95414
 Alpha virt. eigenvalues --    0.96426   0.96684   0.97061   0.98510   0.99572
 Alpha virt. eigenvalues --    0.99827   1.00645   1.01839   1.02454   1.03628
 Alpha virt. eigenvalues --    1.04486   1.05960   1.06455   1.06986   1.08600
 Alpha virt. eigenvalues --    1.08845   1.09219   1.11103   1.12296   1.14072
 Alpha virt. eigenvalues --    1.14206   1.15948   1.17181   1.18241   1.19024
 Alpha virt. eigenvalues --    1.20096   1.21092   1.22730   1.23759   1.24519
 Alpha virt. eigenvalues --    1.24878   1.26611   1.28705   1.30460   1.32012
 Alpha virt. eigenvalues --    1.33187   1.33748   1.36163   1.36717   1.38063
 Alpha virt. eigenvalues --    1.39684   1.41783   1.42051   1.42706   1.43287
 Alpha virt. eigenvalues --    1.44227   1.45106   1.45785   1.47024   1.48447
 Alpha virt. eigenvalues --    1.48704   1.49685   1.50207   1.51994   1.55139
 Alpha virt. eigenvalues --    1.56722   1.57722   1.59878   1.63920   1.64537
 Alpha virt. eigenvalues --    1.67298   1.67789   1.69104   1.70315   1.72300
 Alpha virt. eigenvalues --    1.73550   1.76408   1.76722   1.77469   1.78058
 Alpha virt. eigenvalues --    1.78957   1.79448   1.80688   1.81064   1.81931
 Alpha virt. eigenvalues --    1.82228   1.83551   1.84137   1.85297   1.85462
 Alpha virt. eigenvalues --    1.86627   1.88144   1.88589   1.90614   1.91696
 Alpha virt. eigenvalues --    1.93107   1.93857   1.95118   1.95485   1.95532
 Alpha virt. eigenvalues --    1.96131   1.97311   1.98621   1.99317   1.99861
 Alpha virt. eigenvalues --    2.00032   2.01978   2.03177   2.03978   2.04886
 Alpha virt. eigenvalues --    2.05214   2.06628   2.08253   2.10983   2.11377
 Alpha virt. eigenvalues --    2.11666   2.12476   2.12853   2.13040   2.15397
 Alpha virt. eigenvalues --    2.15847   2.19934   2.20441   2.21061   2.22161
 Alpha virt. eigenvalues --    2.22418   2.23884   2.24392   2.24972   2.26963
 Alpha virt. eigenvalues --    2.27951   2.28312   2.28885   2.30861   2.32693
 Alpha virt. eigenvalues --    2.36122   2.37286   2.39462   2.40142   2.41980
 Alpha virt. eigenvalues --    2.43616   2.45234   2.46825   2.48923   2.50061
 Alpha virt. eigenvalues --    2.53831   2.54923   2.56945   2.57671   2.58755
 Alpha virt. eigenvalues --    2.60089   2.61895   2.62188   2.62879   2.64889
 Alpha virt. eigenvalues --    2.66108   2.67773   2.69346   2.71981   2.72067
 Alpha virt. eigenvalues --    2.72750   2.73037   2.76443   2.82076   2.87051
 Alpha virt. eigenvalues --    2.87346   2.88084   2.91233   2.93423   2.97261
 Alpha virt. eigenvalues --    3.03253   3.05585   3.08146   3.09043   3.13633
 Alpha virt. eigenvalues --    3.18159   3.32492   3.34014   3.41322   3.47757
 Alpha virt. eigenvalues --    3.78291   3.81326   3.93659   4.05040   4.07204
 Alpha virt. eigenvalues --    4.07955   4.10949   4.11734   4.12937   4.15171
 Alpha virt. eigenvalues --    4.17301   4.18108   4.18688   4.23315   4.28184
 Alpha virt. eigenvalues --    4.30076   4.32148   4.36049   4.39588   4.46902
 Alpha virt. eigenvalues --    4.54106   4.66785   4.78171   4.83400   5.54543
          Condensed to atoms (all electrons):
               1          2          3          4          5          6
     1  O    8.091303   0.521199  -0.090656  -0.080727   0.004701   0.000034
     2  C    0.521199   4.414056   0.307027   0.307427  -0.043094   0.000401
     3  O   -0.090656   0.307027   8.213899  -0.111343   0.011051   0.000304
     4  C   -0.080727   0.307427  -0.111343   5.626645   0.206668  -0.085075
     5  C    0.004701  -0.043094   0.011051   0.206668   5.337732   0.302791
     6  C    0.000034   0.000401   0.000304  -0.085075   0.302791   5.003122
     7  C   -0.000030   0.000326   0.000188  -0.020068  -0.141208   0.340821
     8  C   -0.000000  -0.000024   0.000007   0.000144   0.007336   0.027979
     9  F    0.000000  -0.000000   0.000000   0.000001  -0.000031   0.002845
    10  C    0.000000   0.000001  -0.000000   0.000021  -0.000582  -0.034031
    11  C   -0.000000  -0.000006   0.000001  -0.000308   0.023824  -0.074973
    12  C    0.000001  -0.000249  -0.000136   0.015224  -0.028277   0.383808
    13  C    0.000217  -0.002951   0.003441  -0.126615   0.412781   0.011814
    14  C   -0.000071  -0.000074  -0.001245  -0.013330  -0.117340   0.011175
    15  C   -0.000000   0.000183  -0.000031   0.012534   0.015550   0.020319
    16  C   -0.000000  -0.000002  -0.000002  -0.000175   0.024478   0.018613
    17  C    0.000000   0.000000   0.000000   0.000003  -0.000031  -0.000307
    18  C   -0.000000  -0.000000  -0.000000  -0.000000   0.000007  -0.000001
    19  C   -0.000000   0.000000  -0.000000   0.000000  -0.000000  -0.000000
    20  C   -0.000000   0.000000   0.000000   0.000000   0.000000   0.000000
    21  S    0.000000  -0.000000  -0.000000  -0.000000  -0.000000   0.000000
    22  C    0.000000  -0.000000  -0.000000  -0.000000  -0.000000  -0.000000
    23  O    0.000000   0.000000   0.000000  -0.000000  -0.000000   0.000000
    24  C    0.000000  -0.000000  -0.000000  -0.000000  -0.000001  -0.000000
    25  C    0.000000  -0.000000  -0.000000  -0.000000  -0.000037  -0.000161
    26  H    0.001423  -0.009161   0.234851   0.008735  -0.001306   0.000093
    27  H   -0.001638  -0.030855   0.002086   0.345851  -0.029531  -0.008682
    28  H   -0.003416  -0.028336   0.002190   0.358131  -0.032222   0.003292
    29  H    0.000008   0.000059  -0.000009   0.003195  -0.008825  -0.039271
    30  H    0.000000   0.000000  -0.000000  -0.000000   0.000002   0.000386
    31  H    0.000000  -0.000000   0.000000   0.000002  -0.000244   0.004439
    32  H   -0.000000  -0.000010   0.000007   0.000137   0.004796   0.000169
    33  H    0.000004  -0.000342   0.000030   0.000298  -0.002968  -0.000242
    34  H   -0.000056   0.002795   0.002411   0.000353  -0.005462  -0.000268
    35  H    0.000000  -0.000000  -0.000000  -0.000021  -0.000461  -0.000089
    36  H   -0.000000   0.000000   0.000000   0.000000   0.000001  -0.000000
    37  H    0.000000  -0.000000  -0.000000  -0.000000   0.000000   0.000000
    38  H    0.000000  -0.000000  -0.000000  -0.000000   0.000000  -0.000000
    39  H    0.000000   0.000000   0.000000   0.000000   0.000000   0.000000
    40  H    0.000000   0.000000   0.000000   0.000000   0.000000   0.000000
    41  H   -0.000000   0.000000   0.000000   0.000000   0.000000   0.000000
    42  H    0.000000  -0.000000  -0.000000  -0.000000  -0.000001  -0.000046
               7          8          9         10         11         12
     1  O   -0.000030  -0.000000   0.000000   0.000000  -0.000000   0.000001
     2  C    0.000326  -0.000024  -0.000000   0.000001  -0.000006  -0.000249
     3  O    0.000188   0.000007   0.000000  -0.000000   0.000001  -0.000136
     4  C   -0.020068   0.000144   0.000001   0.000021  -0.000308   0.015224
     5  C   -0.141208   0.007336  -0.000031  -0.000582   0.023824  -0.028277
     6  C    0.340821   0.027979   0.002845  -0.034031  -0.074973   0.383808
     7  C    5.575333   0.421124  -0.040304  -0.074823  -0.072536  -0.076731
     8  C    0.421124   4.465147   0.313860   0.467611   0.010617  -0.038541
     9  F   -0.040304   0.313860   9.029283  -0.043390   0.002929   0.000115
    10  C   -0.074823   0.467611  -0.043390   5.179928   0.406421   0.006881
    11  C   -0.072536   0.010617   0.002929   0.406421   5.268496   0.455458
    12  C   -0.076731  -0.038541   0.000115   0.006881   0.455458   5.221326
    13  C    0.018753  -0.000054   0.000000  -0.000596   0.020086   0.006788
    14  C   -0.000302   0.000004  -0.000000   0.000000  -0.000177   0.020687
[...]
 00016809,-0.00086238,-0.00024089,0.00075879,0.00040592,0.00011101,-0.0
 1247998,-0.00294782,0.01225746,0.11897209,0.02083671,-0.11786797,-0.00
 648872,-0.00056989,-0.00292540,0.00002459,-0.00006342,-0.00008785,-0.0
 0014077,0.00009843,0.00003835,0.00000288,-0.00000004,-0.00000163,-0.00
 000033,0.00000266,0.00000032,-0.00000027,0.00000023,0.00000197,0.00000
 054,0.00000064,-0.00000036,0.00000302,-0.00000184,-0.00000156,0.000008
 54,-0.00000090,0.00000414,0.00000143,-0.00000175,0.00000014,-0.0000013
 4,-0.00000117,0.,-0.00000058,0.00000283,0.00000224,-0.00000526,0.00000
 139,0.00000783,0.00002188,-0.00004562,0.00000196,-0.00011694,-0.000066
 99,-0.00044067,-0.13112607,-0.02171031,0.12440036,0.00000212,-0.000004
 21,0.00000124,-0.00000480,0.00000370,-0.00000232,0.00000148,-0.0000024
 6,-0.00000154,0.00000268,-0.00000002,0.00000088,-0.00000034,-0.0000049
 6,0.00000782,0.00000205,-0.00000272,-0.00001049,-0.00000171,-0.0000007
 5,0.00000601,0.00000311,0.00000762,-0.00001200,-0.00000190,-0.00000985
 ,0.00001142,-0.00000818,-0.00000379,-0.00000603,-0.00001212,0.00000678
 ,0.00000365,-0.00000153,0.00000450,-0.00000929,-0.00000644,0.00001049,
 0.00000589,-0.00000037,-0.00000045,-0.00000047,0.00000827,-0.00001770,
 0.00000271,-0.00000217,0.00002038,0.00001842,-0.00014992,-0.00014931,0
 .00010737,-0.00010921,0.00038135,-0.00003573,0.00015160,-0.00033184,0.
 00013997,0.00013198,0.00079228,0.00233450,-0.00725061,0.01728753,-0.02
 298690,-0.04539562,0.01341993,-0.00240531,0.00387720,-0.00234344,0.005
 59562,0.00017245,-0.00007671,0.00010855,0.00001391,-0.00015778,-0.0001
 9204,-0.00000036,0.00000193,0.00000173,0.00000006,-0.00000115,0.000000
 10,0.00000010,0.00000008,-0.00000075,0.00000093,0.00000003,0.00000007,
 0.00000972,0.00000092,0.00000058,0.00001601,0.00000285,-0.00000114,-0.
 00000028,0.00000012,0.00000061,0.00000030,0.00000042,-0.00000005,0.000
 00047,-0.00000098,-0.00000060,0.00000140,-0.00000053,0.00000016,0.0000
 0317,-0.00000836,0.00000609,0.00006294,0.00007392,-0.00001564,0.004221
 26,-0.02392398,0.01462146,0.04470676,-0.00001700,0.00001167,-0.0000058
 5,0.00003748,-0.00001015,0.00000671,-0.00001727,0.00000186,0.00000624,
 -0.00000975,0.00000537,-0.00000334,-0.00000017,0.00001300,-0.00002855,
 -0.00000518,0.00000404,0.00004566,0.00000203,0.00000601,-0.00003336,0.
 00000023,-0.00001800,0.00005150,-0.00000241,0.00003440,-0.00004140,-0.
 00000356,0.00000512,0.00001123,0.00000756,-0.00001964,-0.00001384,-0.0
 0000178,-0.00000863,0.00002726,0.00001425,-0.00002674,-0.00002505,-0.0
 0000051,0.00000515,0.00000088,-0.00000745,0.00002764,0.00001499,-0.000
 00733,-0.00003663,-0.00004133,-0.00006484,-0.00001482,0.00005200,0.000
 06923,0.00005415,0.00003152,0.00002842,0.00006154,-0.00003661,0.000035
 09,0.00167028,-0.00045674,-0.00265604,0.00367123,-0.00452387,0.0091407
 3,-0.24787307,0.12583835,0.00195108,-0.00030566,0.00002481,-0.00016342
 ,0.00026116,0.00047782,0.00017620,-0.00008347,-0.00002357,0.00000331,-
 0.00000161,-0.00000270,-0.00000036,0.00000367,0.00000026,-0.00000052,0
 .00000039,0.00000284,0.00000006,0.00000091,-0.00000024,0.00000123,-0.0
 0000492,-0.00000024,-0.00000050,-0.00000421,0.00000051,0.00000163,-0.0
 0000185,-0.00000020,-0.00000116,-0.00000161,0.00000009,-0.00000081,0.0
 0000375,0.00000312,-0.00000808,0.00000567,0.00000684,0.00001410,-0.000
 00725,0.00002796,-0.00005397,-0.00001795,-0.00003053,0.00084587,-0.001
 81498,0.00002010,-0.00973445,0.26217630,-0.00001523,0.00001302,-0.0000
 0220,0.00003426,-0.00001050,0.00000316,-0.00001560,0.00000418,0.000008
 83,-0.00000933,0.00000423,-0.00000203,0.00000147,0.00000503,-0.0000236
 1,-0.00000371,-0.00000441,0.00003889,0.00000327,0.00000956,-0.00002995
 ,-0.00000110,-0.00002870,0.00005176,-0.00000205,0.00004164,-0.00004506
 ,0.00000160,0.00001624,0.00002292,0.00001668,-0.00004366,-0.00001620,-
 0.00000183,0.00001338,0.00001171,0.00000814,-0.00001780,-0.00001897,-0
 .00000266,0.00000523,-0.00000003,-0.00000142,-0.00000376,0.00000924,0.
 00000799,-0.00001960,-0.00000985,-0.00012824,-0.00020878,0.00005868,-0
 .00009837,0.00033010,-0.00005528,0.00063125,-0.00029446,-0.00036251,0.
 00081984,0.00113219,0.00189683,-0.00729819,0.01461388,-0.01868211,-0.0
 0127007,0.12896634,-0.12628931,0.00227689,-0.00268798,0.00436805,-0.00
 006735,-0.00027917,0.00023422,0.00008166,-0.00020693,-0.00019386,0.000
 00314,-0.00000401,-0.00000493,-0.00000062,0.00000356,-0.00000072,-0.00
 000121,0.00000065,0.00000388,-0.00000060,0.00000096,-0.00000062,-0.000
 00318,-0.00000639,0.00000138,-0.00001557,-0.00001155,0.00000021,0.0000
 0129,-0.00000157,-0.00000076,0.00000056,-0.00000243,0.00000145,-0.0000
 0076,0.00000445,0.00000370,-0.00000901,0.00000642,0.00000860,0.0000023
 9,-0.00000816,-0.00000011,-0.00004929,-0.00002433,0.00008826,-0.002009
 70,0.01127472,-0.00700260,0.00615076,-0.13567459,0.13308740,0.00002846
 ,-0.00001838,0.00001173,-0.00006675,0.00001526,-0.00001376,0.00003136,
 -0.00000154,-0.00001091,0.00001981,-0.00001159,0.00001032,-0.00000193,
 -0.00003134,0.00007107,0.00001107,-0.00000664,-0.00011011,-0.00000668,
 -0.00000471,0.00009519,0.00000709,-0.00001284,-0.00010196,0.00000111,-
 0.00004646,0.00006722,0.00000480,0.00002783,-0.00001828,0.00001017,-0.
 00002250,0.00003873,-0.00000784,0.00004995,-0.00005947,-0.00003571,0.0
 0006848,0.00006314,-0.00000043,-0.00001138,-0.00000239,0.00001483,-0.0
 0003760,-0.00005207,-0.00004091,0.00010152,0.00002326,0.00007518,-0.00
 001532,-0.00019666,0.00032450,-0.00030216,0.00019422,0.00003341,-0.000
 29817,0.00022687,-0.00395100,0.00025574,-0.00324005,0.00276600,-0.0172
 3109,-0.01511657,-0.05593314,0.03992629,0.03367382,0.00124848,0.001284
 97,0.00211386,0.00037460,-0.00048854,-0.00058309,0.00024159,-0.0000737
 7,0.00047857,-0.00000516,0.00000179,0.00000443,0.00000046,-0.00000768,
 -0.00000177,0.00000016,-0.00000052,-0.00000469,0.00000015,-0.00000078,
 0.00000148,-0.00000014,-0.00000324,0.00000816,-0.00001618,0.00000358,-
 0.00001761,-0.00000248,0.00000357,0.00000018,0.00000294,0.00000218,0.0
 0000051,0.00000228,-0.00000642,-0.00000518,0.00002455,-0.00001803,-0.0
 0002592,0.00003269,-0.00003227,-0.00003256,-0.00009474,0.00018879,-0.0
 0038573,-0.00266906,0.02286728,0.01589718,-0.00039994,0.00051937,0.001
 07665,0.05812089,0.00001679,-0.00001269,0.00000545,-0.00003759,0.00001
 091,-0.00000674,0.00001706,-0.00000284,-0.00000699,0.00001077,-0.00000
 570,0.00000360,-0.00000140,-0.00000838,0.00002904,0.00000471,-0.000001
 30,-0.00004933,-0.00000305,-0.00000617,0.00003917,0.00000172,0.0000169
 6,-0.00005591,0.00000170,-0.00003562,0.00004281,-0.00000004,-0.0000038
 3,-0.00001299,-0.00000864,0.00001969,0.00001490,-0.00000334,0.00000472
 ,-0.00002162,-0.00001302,0.00002149,0.00002380,0.00000082,-0.00000532,
 -0.00000047,0.00001489,0.00000827,-0.00001957,0.00000319,-0.00001767,0
 .00001197,0.00005226,0.00010377,-0.00002127,0.00002767,-0.00026549,0.0
 0000853,-0.00034453,0.00014772,0.00028046,0.00039230,0.00024261,-0.001
 26182,0.00031328,-0.00027745,-0.00033604,0.04307693,-0.22088831,-0.126
 61815,-0.00087933,0.00000261,0.00126986,-0.00012438,0.00057017,0.00009
 998,0.00007303,0.00012182,-0.00008966,-0.00000327,0.00000251,0.0000034
 9,0.00000035,-0.00000388,-0.00000017,0.00000058,-0.00000037,-0.0000031
 2,0.00000042,-0.00000071,0.00000029,0.00000143,0.00000469,0.00000035,0
 .00000500,0.00000641,0.00000008,-0.00000146,0.00000177,0.00000038,0.00
 000083,0.00000189,-0.00000028,0.00000098,-0.00000391,-0.00000315,-0.00
 000111,-0.00000845,-0.00000771,0.00001347,-0.00000049,0.00001206,-0.00
 002375,0.00000601,-0.00010110,-0.00090351,0.00528244,0.00473031,0.0048
 4822,-0.01783754,-0.01695715,-0.04655879,0.23283070,0.00003846,-0.0000
 2419,0.00001215,-0.00008908,0.00001959,-0.00001321,0.00004284,-0.00000
 227,-0.00001688,0.00002452,-0.00001447,0.00001172,-0.00000116,-0.00003
 234,0.00007977,0.00001208,-0.00000332,-0.00012261,-0.00000742,-0.00000
 813,0.00010916,0.00000624,-0.00000599,-0.00012136,0.00000225,-0.000061
 28,0.00008256,0.00000935,0.00002575,-0.00002661,0.00001242,-0.00002119
 ,0.00005444,-0.00000377,0.00005186,-0.00006661,-0.00004276,0.00007467,
 0.00007294,0.00000024,-0.00001372,-0.00000319,0.00002380,-0.00003595,-
 0.00006704,-0.00002757,0.00007592,0.00007090,-0.00020864,-0.00018421,0
 .00003928,0.00006561,0.00013457,0.00022021,-0.00016920,-0.00040049,0.0
 0003392,-0.00333454,-0.00021574,-0.00235067,0.00397211,-0.01368995,-0.
 01171104,0.03474556,-0.12901545,-0.14425299,0.00008686,0.00126652,0.00
 183474,0.00020603,0.00033974,-0.00056266,0.00041814,-0.00035849,0.0000
 5841,-0.00000769,0.00000296,0.00000705,0.00000064,-0.00000907,-0.00000
 147,0.00000050,-0.00000055,-0.00000635,-0.00000054,-0.00000124,0.00000
 210,-0.00000111,-0.00000279,0.00000896,-0.00001997,-0.00000185,-0.0000
 2847,-0.00000331,0.00000479,0.00000093,0.00000308,0.00000321,0.0000008
 2,0.00000243,-0.00000913,-0.00000690,0.00002055,-0.00001561,-0.0000291
 7,0.00001715,-0.00001219,-0.00003945,0.00003994,0.00003162,0.00001586,
 0.00146190,-0.01112246,-0.00801754,-0.00338326,0.01433838,0.01284244,-
 0.03381046,0.13893830,0.15205083,0.00000330,-0.00000205,-0.00000787,-0
 .00000787,-0.00000171,0.00000957,0.00000616,0.00000021,-0.00000684,0.0
 0000091,0.00000407,-0.00000558,0.00000087,-0.00000651,0.00000474,-0.00
 001068,-0.00002525,0.00000696,0.00000524,-0.00000841,-0.00005235,-0.00
 001067,0.00007035,0.00002552,0.00000837,-0.00002340,0.00000418,-0.0000
 1055,-0.00005909,-0.00000325,-0.00003025,0.00016198,0.00000076,-0.0000
 0918,-0.00003226,-0.00004480,0.00000837,0.00001378,-0.00001252,-0.0000
 0082,0.00000166,0.00000111,-0.00002078,-0.00012607,0.00010548,-0.00005
 792,0.00010978,0.00019454,0.00414431,0.00000809,0.00271913,0.00027057,
 -0.00021209,-0.00063392,0.00201880,-0.00276523,0.00228748,-0.00780665,
 -0.00314990,0.00901577,-0.00212533,0.00194581,0.00038849,-0.00001889,-
 0.00077497,-0.00011676,-0.00073989,0.00139797,-0.00022525,-0.21312870,
 -0.01118030,0.14916244,-0.00198214,-0.00085666,0.00428899,-0.00000162,
 0.00000164,0.00000315,0.00000107,0.00000124,0.00000264,0.00000191,-0.0
 0000128,-0.00000315,0.00000208,-0.00000137,-0.00000138,-0.00001092,0.0
 0001973,-0.00001580,-0.00003238,0.00001285,0.00005480,0.00000237,0.000
 00029,-0.00000459,-0.00000209,0.00000249,-0.00000435,0.00000074,-0.000
 00034,-0.00000183,-0.00010158,0.00010102,-0.00000163,-0.00048031,0.000
 16498,-0.00041471,-0.00008242,0.00011576,0.00061569,-0.00002449,0.0000
 3821,-0.00006240,-0.00005079,-0.00006305,-0.00010437,-0.00015689,0.000
 04727,-0.00015071,0.22161204,-0.00000174,-0.00000400,0.00001599,0.0000
 0102,0.00000457,-0.00002228,-0.00000614,-0.00000350,0.00000739,0.00001
 352,-0.00000726,0.00001148,0.00000372,-0.00003938,0.00003380,0.0000145
 6,-0.00002109,-0.00007608,-0.00001322,0.00000722,0.00006932,0.00002249
 ,-0.00006774,-0.00003772,-0.00000750,0.00001042,0.00001179,-0.00003982
 ,0.00004173,0.00002677,-0.00003102,-0.00010903,0.00001656,0.00003023,0
 .00009223,-0.00004972,-0.00006621,0.00003171,0.00005740,0.00001166,-0.
 00001179,-0.00000456,-0.00003363,-0.00002928,-0.00013518,0.00074092,0.
 00049435,-0.00053339,-0.00013107,-0.00366633,-0.00308627,0.00011728,-0
 .00098908,-0.00020846,-0.00245287,-0.00554688,-0.00101723,-0.01999930,
 0.00463609,0.01890264,-0.00446285,-0.00240991,0.00318313,0.00049033,0.
 00004404,-0.00032733,0.00219361,0.00303982,-0.00116126,-0.01051846,-0.
 05831185,0.00297657,0.02009316,0.00538973,-0.01683700,0.00000233,0.000
 00059,-0.00000167,-0.00000005,-0.00000763,-0.00000387,-0.00000161,0.00
 000094,0.00000199,0.00000266,0.00000007,0.00000107,0.00002439,-0.00001
 161,0.00002034,0.00008736,0.00003367,-0.00002686,-0.00001308,-0.000003
 21,0.00000776,0.00000511,0.00000284,0.00000515,-0.00000221,-0.00000426
 ,0.00000016,0.00009034,-0.00023038,-0.00017204,0.00018052,0.00006189,0
 .00013000,-0.00125464,0.00001341,0.00115012,0.00021996,0.00006232,0.00
 014895,-0.00007118,0.00003545,0.00004592,-0.00001554,-0.00004277,0.000
 01245,0.01440374,0.05669554,0.00000054,-0.00000075,0.00000071,-0.00000
 522,-0.00000308,-0.00000208,0.00000267,0.00000013,-0.00000294,0.000008
 59,-0.00000091,0.00000462,0.00000189,-0.00003643,0.00003336,0.00000184
 ,-0.00004285,-0.00004727,-0.00000244,0.00000262,0.00000271,0.00000460,
 0.00000094,0.00000621,0.00000475,0.00000402,-0.00000670,-0.00003286,0.
 00000551,0.00002890,-0.00003149,0.00000944,0.00000521,0.00000060,0.000
 06667,-0.00009000,-0.00004006,0.00004479,0.00003873,0.00000796,-0.0000
 0647,0.00000070,-0.00003356,-0.00017158,-0.00002239,0.00036702,0.00056
 750,0.00001654,0.00335445,-0.00344374,0.00346310,-0.00043013,-0.000325
 71,-0.00004293,0.00264173,-0.00043218,0.00318561,0.00439888,0.00474713
 ,0.00086970,-0.00051596,-0.00010103,-0.00157888,0.00031906,-0.00073812
 ,-0.00049712,-0.00049849,-0.00093532,-0.00142655,0.14856844,0.00240066
 ,-0.16680771,0.00953994,0.00183115,-0.00501906,0.00000012,0.00000107,0
 .00000160,0.00000082,-0.00000328,-0.00000034,0.00000066,-0.00000098,-0
 .00000184,0.00000303,-0.00000046,-0.00000050,-0.00000610,0.00000654,-0
 .00000471,0.00004102,0.00001559,0.00004499,-0.00000462,-0.00000111,-0.
 00000072,-0.00000019,0.00000320,-0.00000453,-0.00000131,-0.00000097,-0
 .00000179,-0.00000736,-0.00001278,-0.00007914,-0.00050310,0.00014095,-
 0.00056703,0.00013729,-0.00030522,0.00031587,0.00005920,0.00006454,0.0
 0004066,-0.00004496,-0.00003475,0.00000759,-0.00022389,0.00004896,-0.0
 0017021,-0.16469144,-0.00420552,0.17010274,0.00002774,-0.00000797,-0.0
 0006020,-0.00005964,-0.00000553,0.00008632,0.00004468,0.00001024,-0.00
 004055,-0.00005568,0.00001967,-0.00005467,-0.00001153,0.00009626,-0.00
 011215,0.00000689,0.00047707,0.00030216,-0.00000316,-0.00016565,0.0000
 9154,-0.00001621,0.00003002,-0.00024495,0.00000247,-0.00022266,0.00020
 082,0.00008520,0.00001062,-0.00033024,0.00010861,0.00036369,-0.0001598
 1,-0.00012705,-0.00019238,0.00034204,0.00028794,0.00005831,-0.00019611
 ,-0.00000020,-0.00003761,-0.00000652,-0.00051143,0.00038888,0.00077287
 ,-0.00106153,0.00035531,-0.00253192,-0.00668020,-0.02209158,0.00244435
 ,-0.00022808,0.00044001,0.00583839,-0.00067923,0.00065775,0.00035969,0
 .00307471,0.00132422,0.00395018,0.00043522,0.00061647,-0.00014118,-0.0
 0004892,0.00007948,0.00003975,-0.00004328,-0.00021087,0.00008647,0.008
 10691,0.00975947,-0.00143715,-0.11395030,-0.11934103,0.03150965,-0.000
 01395,0.00000121,0.00001421,0.00001013,0.00000162,0.00001628,0.0000135
 8,-0.00001057,-0.00001824,-0.00001181,-0.00001359,0.00001948,0.0000213
 1,0.00000092,0.00003520,-0.00098636,0.00013393,-0.00081539,0.00000787,
 0.00000893,-0.00001972,-0.00000424,0.00001285,-0.00002168,0.00000339,-
 0.00000602,-0.00002198,0.00027089,-0.00010452,-0.00009801,-0.00022048,
 -0.00123659,0.00040945,-0.00048643,0.00006731,-0.00063529,-0.00000765,
 0.00001466,0.00000654,0.00000634,-0.00002829,-0.00000836,0.00001241,-0
 .00001851,0.00004849,-0.00118331,0.00037321,-0.00239191,0.11386442,0.0
 0000027,0.00000202,0.00000721,-0.00000051,-0.00000864,-0.00001203,0.00
 000043,0.00000227,0.00000329,0.00004292,0.00000137,0.00000193,0.000006
 01,0.00000395,-0.00002389,-0.00003205,-0.00007850,-0.00004879,0.000006
 89,-0.00003138,-0.00008435,-0.00004161,0.00000230,0.00013717,-0.000011
 49,0.00001599,-0.00006406,0.00014402,-0.00022506,-0.00003929,0.0010023
 9,0.00003408,0.00111571,0.00030508,-0.00032708,-0.00022062,-0.00012727
 ,-0.00008603,-0.00005246,-0.00001637,0.00000563,0.00000109,0.00018942,
 0.00029066,0.00011569,0.00102549,-0.00014764,0.00017198,0.00019518,0.0
 0258409,-0.00035075,-0.00033077,0.00142959,-0.00082971,0.00059181,0.00
 030950,-0.00045964,0.00127032,-0.00240741,-0.00393720,-0.00097112,-0.0
 0067594,0.00065689,0.00009088,-0.00015810,-0.00002067,0.00030815,0.000
 40098,-0.00021655,-0.01236321,-0.01803342,0.00482820,-0.12084778,-0.27
 222979,0.03361040,0.00000090,-0.00000138,-0.00000179,-0.00000235,0.000
 00582,-0.00000131,-0.00000333,0.00000087,0.00000321,-0.00000056,0.0000
 0169,-0.00000453,0.00000688,0.00002192,-0.00001555,0.00050498,-0.00079
 454,0.00014509,0.00000854,0.00000191,0.00000241,-0.00000007,-0.0000052
 0,0.00000800,0.00000246,0.00000405,0.00000601,-0.00008003,0.00012010,0
 .00008482,0.00004822,0.00016170,-0.00019175,0.00010694,-0.00007683,0.0
 0023227,-0.00001219,-0.00000042,-0.00000790,-0.00001646,0.00002998,0.0
 0000421,-0.00005931,0.00002174,-0.00005827,0.00066705,0.00081834,0.000
 84183,0.12839124,0.28901683,-0.00004165,0.00003087,-0.00006376,0.00009
 718,-0.00003431,0.00007842,-0.00003660,0.00000717,-0.00000570,-0.00005
 392,0.00002271,-0.00004331,-0.00000448,0.00008746,0.00010415,-0.000077
 46,0.00013280,0.00008099,-0.00000232,-0.00010423,0.00009986,0.00002614
 ,-0.00008984,-0.00013815,-0.00001606,-0.00003123,-0.00000067,0.0001122
 8,0.00025748,-0.00027934,-0.00009005,-0.00002649,-0.00000597,-0.000002
 99,-0.00054012,0.00080146,0.00010806,-0.00000960,-0.00016634,0.0000158
 1,0.00003754,0.00000390,-0.00021326,-0.00009845,0.00011460,-0.00248135
 ,0.00256205,-0.00119129,0.01022616,0.01780688,-0.00077701,0.00601142,-
 0.00136593,0.00036003,0.00000987,-0.00026355,-0.00053030,0.00435174,-0
 .00362112,0.00256337,-0.00044601,-0.00062334,0.00019795,0.00003942,-0.
 00005965,0.00001994,0.00023092,0.00025764,0.00000525,-0.00765419,-0.01
 484921,0.00609128,0.03066676,0.03304547,-0.05395143,0.00000145,0.00000
 058,0.00000132,0.00000684,0.00001814,0.00001676,0.00000924,-0.00000381
 ,-0.00000532,-0.00000353,0.00000463,-0.00000096,-0.00002239,0.00002456
 ,-0.00002806,-0.00114257,0.00053085,-0.00035019,-0.00001352,0.00000107
 ,-0.00000756,0.00000384,0.00000376,-0.00003987,-0.00000573,-0.00000109
 ,0.00000715,0.00015978,-0.00011429,-0.00001159,0.00058001,0.00104269,0
 .00014862,-0.00071152,0.00022050,-0.00055491,-0.00002307,0.00001095,-0
 .00000190,-0.00001708,-0.00001233,-0.00000848,-0.00004346,0.00000943,0
 .00000525,-0.00232591,0.00106967,-0.00179512,-0.03722783,-0.03533629,0
 .04925692\\-0.00000336,-0.00000341,0.00000393,0.00001013,0.00000607,-0
 .00001804,-0.00000829,-0.00000699,0.00000870,0.00000358,0.00001033,0.0
 0000982,0.00001335,-0.00000853,0.00002135,-0.00000469,-0.00000485,-0.0
 0002413,0.00000714,-0.00000546,0.00000509,-0.00000593,0.00001626,-0.00
 001196,0.00000248,-0.00000780,0.00000996,0.00000380,-0.00001126,0.0000
 0526,-0.00000113,0.00000295,-0.00001146,-0.00000507,0.00000228,0.00003
 934,-0.00001132,0.00002503,0.00001093,-0.00000205,-0.00000599,-0.00000
 383,-0.00000266,-0.00001090,-0.00004912,0.00000951,-0.00000947,0.00000
 451,0.00000072,0.00000888,0.00000376,0.00000007,-0.00000293,0.00000044
 ,-0.00000340,-0.00000122,0.00000189,0.00000519,-0.00000166,-0.00000697
 ,-0.00000556,0.00000140,0.00000391,0.00000858,-0.00000246,0.00000076,-
 0.00000108,0.00000101,-0.00000055,0.00000131,-0.00000028,0.00000036,-0
 .00000375,0.00000229,-0.00000100,0.00000130,-0.00000053,-0.00000117,-0
 .00000372,-0.00000163,-0.00000127,-0.00000124,-0.00000354,-0.00000126,
 -0.00000230,0.00000157,-0.00000063,-0.00000031,0.00000215,-0.00000110,
 -0.00000156,-0.00000113,0.00000240,0.00000142,0.00000357,0.00000222,-0
 .00000015,0.00000397,-0.00000061,0.00000026,0.00000068,0.00000353,0.00
 000012,0.00000025,-0.00000498,0.00000051,0.00000015,0.00000003,0.00000
 115,-0.00000036,-0.00000015,0.00000056,0.00000091,0.00000055,-0.000001
 41,0.00000114,-0.00000072,-0.00000291,0.00000111,-0.00000038,-0.000000
 20,-0.00000058,-0.00000028,0.00000090,-0.00000105,0.00000088\\\@


 A MAN THINKING OR WORKING IS ALWAYS ALONE, 
 LET HIM BE WHERE HE WILL.

                                    -- THOREAU
 Job cpu time:       0 days  1 hours 45 minutes 25.5 seconds.
 Elapsed time:       0 days  0 hours  4 minutes 24.9 seconds.
 File lengths (MBytes):  RWF=    843 Int=      0 D2E=      0 Chk=     16 Scr=      1
 Normal termination of Gaussian 16 at Mon Oct 14 02:11:37 2019.
real 1006.64
user 23649.26
sys 69.03
Machine:
brown-a364
brown-a364
brown-a364
brown-a364
brown-a364
brown-a364
brown-a364
brown-a364
brown-a364
brown-a364
brown-a364
brown-a364
brown-a364
brown-a364
brown-a364
brown-a364
brown-a364
brown-a364
brown-a364
brown-a364
brown-a364
brown-a364
brown-a364
brown-a364
