 Entering Gaussian System, Link 0=/apps/cent7/gaussian/g16-A.03/g16-haswell/g16/g16
 Initial command:
 /apps/cent7/gaussian/g16-A.03/g16-haswell/g16/l1.exe "/scratch/brown/finej/gaussian/Gau-223848.inp" -scrdir="/scratch/brown/finej/gaussian/"
 Entering Link 1 = /apps/cent7/gaussian/g16-A.03/g16-haswell/g16/l1.exe PID=    223850.
  
 Copyright (c) 1988,1990,1992,1993,1995,1998,2003,2009,2016,
            Gaussian, Inc.  All Rights Reserved.
  
 This is part of the Gaussian(R) 16 program.  It is based on
 the Gaussian(R) 09 system (copyright 2009, Gaussian, Inc.),
 the Gaussian(R) 03 system (copyright 2003, Gaussian, Inc.),
 the Gaussian(R) 98 system (copyright 1998, Gaussian, Inc.),
 the Gaussian(R) 94 system (copyright 1995, Gaussian, Inc.),
 the Gaussian 92(TM) system (copyright 1992, Gaussian, Inc.),
 the Gaussian 90(TM) system (copyright 1990, Gaussian, Inc.),
 the Gaussian 88(TM) system (copyright 1988, Gaussian, Inc.),
 the Gaussian 86(TM) system (copyright 1986, Carnegie Mellon
 University), and the Gaussian 82(TM) system (copyright 1983,
 Carnegie Mellon University). Gaussian is a federally registered
 trademark of Gaussian, Inc.
  
 This software contains proprietary and confidential information,
 including trade secrets, belonging to Gaussian, Inc.
  
 This software is provided under written license and may be
 used, copied, transmitted, or stored only in accord with that
 written license.
  
 The following legend is applicable only to US Government
 contracts under FAR:
  
                    RESTRICTED RIGHTS LEGEND
  
 Use, reproduction and disclosure by the US Government is
 subject to restrictions as set forth in subparagraphs (a)
 and (c) of the Commercial Computer Software - Restricted
 Rights clause in FAR 52.227-19.
  
 Gaussian, Inc.
 340 Quinnipiac St., Bldg. 40, Wallingford CT 06492
  
  
 ---------------------------------------------------------------
 Warning -- This program may not be used in any manner that
 competes with the business of Gaussian, Inc. or will provide
 assistance to any competitor of Gaussian, Inc.  The licensee
 of this program is prohibited from giving any competitor of
 Gaussian, Inc. access to this program.  By using this program,
 the user acknowledges that Gaussian, Inc. is engaged in the
 business of creating and licensing software in the field of
 computational chemistry and represents and warrants to the
 licensee that it is not a competitor of Gaussian, Inc. and that
 it will not use this program in any manner prohibited above.
 ---------------------------------------------------------------
  

 Cite this work as:
 Gaussian 16, Revision A.03,
 M. J. Frisch, G. W. Trucks, H. B. Schlegel, G. E. Scuseria, 
 M. A. Robb, J. R. Cheeseman, G. Scalmani, V. Barone, 
 G. A. Petersson, H. Nakatsuji, X. Li, M. Caricato, A. V. Marenich, 
 J. Bloino, B. G. Janesko, R. Gomperts, B. Mennucci, H. P. Hratchian, 
 J. V. Ortiz, A. F. Izmaylov, J. L. Sonnenberg, D. Williams-Young, 
 F. Ding, F. Lipparini, F. Egidi, J. Goings, B. Peng, A. Petrone, 
 T. Henderson, D. Ranasinghe, V. G. Zakrzewski, J. Gao, N. Rega, 
 G. Zheng, W. Liang, M. Hada, M. Ehara, K. Toyota, R. Fukuda, 
 J. Hasegawa, M. Ishida, T. Nakajima, Y. Honda, O. Kitao, H. Nakai, 
 T. Vreven, K. Throssell, J. A. Montgomery, Jr., J. E. Peralta, 
 F. Ogliaro, M. J. Bearpark, J. J. Heyd, E. N. Brothers, K. N. Kudin, 
 V. N. Staroverov, T. A. Keith, R. Kobayashi, J. Normand, 
 K. Raghavachari, A. P. Rendell, J. C. Burant, S. S. Iyengar, 
 J. Tomasi, M. Cossi, J. M. Millam, M. Klene, C. Adamo, R. Cammi, 
 J. W. Ochterski, R. L. Martin, K. Morokuma, O. Farkas, 
 J. B. Foresman, and D. J. Fox, Gaussian, Inc., Wallingford CT, 2016.
 
 ******************************************
 Gaussian 16:  ES64L-G16RevA.03 25-Dec-2016
                14-Oct-2019 
 ******************************************
 %chk=35_p.chk
 %nprocshared=24
 Will use up to   24 processors via shared memory.
 %mem=80GB
 --------------------------------------------------------------
 #P opt freq b3lyp/6-31g(d) geom=connectivity temperature=0.001
 --------------------------------------------------------------
 1/18=20,19=15,26=3,38=1,57=2,112=-1000/1,3;
 2/9=110,12=2,17=6,18=5,40=1/2;
 3/5=1,6=6,7=1,11=2,25=1,30=1,71=1,74=-5/1,2,3;
 4//1;
 5/5=2,38=5/2;
 6/7=2,8=2,9=2,10=2,28=1/1;
 7//1,2,3,16;
 1/18=20,19=15,26=3/3(2);
 2/9=110/2;
 99//99;
 2/9=110/2;
 3/5=1,6=6,7=1,11=2,25=1,30=1,71=1,74=-5/1,2,3;
 4/5=5,16=3,69=1/1;
 5/5=2,38=5/2;
 7//1,2,3,16;
 1/18=20,19=15,26=3/3(-5);
 2/9=110/2;
 6/7=2,8=2,9=2,10=2,19=2,28=1/1;
 99/9=1/99;
 Leave Link    1 at Mon Oct 14 01:54:57 2019, MaxMem= 10737418240 cpu:               1.0 elap:               0.0
 (Enter /apps/cent7/gaussian/g16-A.03/g16-haswell/g16/l101.exe)
 -------------------
 Title Card Required
 -------------------
 Symbolic Z-matrix:
 Charge =  1 Multiplicity = 1
 O                    -2.8846    10.4796   5.3846 
 C                    -2.6308    9.4117    4.7825 
 O                    -3.6706    8.6661    4.3326 
 C                    -1.2227    9.0165    4.5703 
 C                    -1.0619    7.6891    3.9727 
 C                    -0.9032    7.4404    2.6338 
 C                    -0.874     8.3204    1.5301 
 C                    -0.7303    7.7895    0.2334 
 F                    -0.6725    8.5886   -0.7959 
 C                    -0.6619    6.3945    0.0478 
 C                    -0.7376    5.5247    1.1529 
 C                    -0.803     6.0602    2.4594 
 C                    -1.0674    6.4993    4.607 
 C                    -1.2725    6.3054    6.0444 
 C                    -0.8257    5.4794    3.7155 
 C                    -0.6215    4.185     4.0615 
 C                    -0.2248    3.1189    3.2672 
 C                    -0.9512    1.9054    3.3056 
 C                    -0.518     0.786     2.5734 
 C                     0.6478    0.8552    1.7787 
 S                     1.2237   -0.5685    0.8914 
 C                    -0.2035   -1.2592   -0.0224 
 O                     2.2033   -0.0382   -0.2631 
 C                     1.3835    2.0588    1.7485 
 C                     0.9596    3.1725    2.495 
 H                    -4.16      8.3152    5.0803 
 H                    -0.8206    9.7185    3.8397 
 H                    -0.7772    8.9481    5.5628 
 H                    -0.9615    9.3969    1.6773 
 H                    -0.5497    5.9858   -0.9565 
 H                    -0.7456    4.4457    0.9982 
 H                    -1.3042    5.2387    6.2663 
 H                    -0.452     6.7666    6.594 
 H                    -2.2141    6.7666    6.3425 
 H                    -0.7995    3.9738    5.1159 
 H                    -1.8569    1.8319    3.9075 
 H                    -1.0894   -0.1409    2.622 
 H                    -0.9488   -1.6198    0.6866 
 H                    -0.6436   -0.4834   -0.649 
 H                     0.1318   -2.0856   -0.649 
 H                     2.2872    2.129     1.1431 
 H                     1.5545    4.0856    2.475 
 H                     3.15479  -0.09143  -0.14721 
 
 ITRead=  0  0  0  0  0  0  0  0  0  0  0  0  0  0  0  0  0  0  0  0
 ITRead=  0  0  0  0  0  0  0  0  0  0  0  0  0  0  0  0  0  0  0  0
 ITRead=  0  0  0
 MicOpt= -1 -1 -1 -1 -1 -1 -1 -1 -1 -1 -1 -1 -1 -1 -1 -1 -1 -1 -1 -1
 MicOpt= -1 -1 -1 -1 -1 -1 -1 -1 -1 -1 -1 -1 -1 -1 -1 -1 -1 -1 -1 -1
 MicOpt= -1 -1 -1
 NAtoms=     43 NQM=       43 NQMF=       0 NMMI=      0 NMMIF=      0
                NMic=       0 NMicF=      0.
                    Isotopes and Nuclear Properties:
 (Nuclear quadrupole moments (NQMom) in fm**2, nuclear magnetic moments (NMagM)
  in nuclear magnetons)

  Atom         1           2           3           4           5           6           7           8           9          10
 IAtWgt=          16          12          16          12          12          12          12          12          19          12
 AtmWgt=  15.9949146  12.0000000  15.9949146  12.0000000  12.0000000  12.0000000  12.0000000  12.0000000  18.9984033  12.0000000
 NucSpn=           0           0           0           0           0           0           0           0           1           0
 AtZEff=  -0.0000000  -0.0000000  -0.0000000  -0.0000000  -0.0000000  -0.0000000  -0.0000000  -0.0000000  -0.0000000  -0.0000000
 NQMom=    0.0000000   0.0000000   0.0000000   0.0000000   0.0000000   0.0000000   0.0000000   0.0000000   0.0000000   0.0000000
 NMagM=    0.0000000   0.0000000   0.0000000   0.0000000   0.0000000   0.0000000   0.0000000   0.0000000   2.6288670   0.0000000
 AtZNuc=   8.0000000   6.0000000   8.0000000   6.0000000   6.0000000   6.0000000   6.0000000   6.0000000   9.0000000   6.0000000

  Atom        11          12          13          14          15          16          17          18          19          20
 IAtWgt=          12          12          12          12          12          12          12          12          12          12
 AtmWgt=  12.0000000  12.0000000  12.0000000  12.0000000  12.0000000  12.0000000  12.0000000  12.0000000  12.0000000  12.0000000
 NucSpn=           0           0           0           0           0           0           0           0           0           0
 AtZEff=  -0.0000000  -0.0000000  -0.0000000  -0.0000000  -0.0000000  -0.0000000  -0.0000000  -0.0000000  -0.0000000  -0.0000000
 NQMom=    0.0000000   0.0000000   0.0000000   0.0000000   0.0000000   0.0000000   0.0000000   0.0000000   0.0000000   0.0000000
 NMagM=    0.0000000   0.0000000   0.0000000   0.0000000   0.0000000   0.0000000   0.0000000   0.0000000   0.0000000   0.0000000
 AtZNuc=   6.0000000   6.0000000   6.0000000   6.0000000   6.0000000   6.0000000   6.0000000   6.0000000   6.0000000   6.0000000

  Atom        21          22          23          24          25          26          27          28          29          30
 IAtWgt=          32          12          16          12          12           1           1           1           1           1
 AtmWgt=  31.9720718  12.0000000  15.9949146  12.0000000  12.0000000   1.0078250   1.0078250   1.0078250   1.0078250   1.0078250
 NucSpn=           0           0           0           0           0           1           1           1           1           1
 AtZEff=  -0.0000000  -0.0000000  -0.0000000  -0.0000000  -0.0000000  -0.0000000  -0.0000000  -0.0000000  -0.0000000  -0.0000000
 NQMom=    0.0000000   0.0000000   0.0000000   0.0000000   0.0000000   0.0000000   0.0000000   0.0000000   0.0000000   0.0000000
 NMagM=    0.0000000   0.0000000   0.0000000   0.0000000   0.0000000   2.7928460   2.7928460   2.7928460   2.7928460   2.7928460
 AtZNuc=  16.0000000   6.0000000   8.0000000   6.0000000   6.0000000   1.0000000   1.0000000   1.0000000   1.0000000   1.0000000

  Atom        31          32          33          34          35          36          37          38          39          40
 IAtWgt=           1           1           1           1           1           1           1           1           1           1
 AtmWgt=   1.0078250   1.0078250   1.0078250   1.0078250   1.0078250   1.0078250   1.0078250   1.0078250   1.0078250   1.0078250
 NucSpn=           1           1           1           1           1           1           1           1           1           1
 AtZEff=  -0.0000000  -0.0000000  -0.0000000  -0.0000000  -0.0000000  -0.0000000  -0.0000000  -0.0000000  -0.0000000  -0.0000000
 NQMom=    0.0000000   0.0000000   0.0000000   0.0000000   0.0000000   0.0000000   0.0000000   0.0000000   0.0000000   0.0000000
 NMagM=    2.7928460   2.7928460   2.7928460   2.7928460   2.7928460   2.7928460   2.7928460   2.7928460   2.7928460   2.7928460
 AtZNuc=   1.0000000   1.0000000   1.0000000   1.0000000   1.0000000   1.0000000   1.0000000   1.0000000   1.0000000   1.0000000

  Atom        41          42          43
 IAtWgt=           1           1           1
 AtmWgt=   1.0078250   1.0078250   1.0078250
 NucSpn=           1           1           1
 AtZEff=  -0.0000000  -0.0000000  -0.0000000
 NQMom=    0.0000000   0.0000000   0.0000000
 NMagM=    2.7928460   2.7928460   2.7928460
 AtZNuc=   1.0000000   1.0000000   1.0000000
 Leave Link  101 at Mon Oct 14 01:54:58 2019, MaxMem= 10737418240 cpu:               8.8 elap:               0.4
 (Enter /apps/cent7/gaussian/g16-A.03/g16-haswell/g16/l103.exe)

 GradGradGradGradGradGradGradGradGradGradGradGradGradGradGradGradGradGrad
 Berny optimization.
 Initialization pass.
                           ----------------------------
                           !    Initial Parameters    !
                           ! (Angstroms and Degrees)  !
 --------------------------                            --------------------------
 ! Name  Definition              Value          Derivative Info.                !
 --------------------------------------------------------------------------------
 ! R1    R(1,2)                  1.2519         estimate D2E/DX2                !
 ! R2    R(2,3)                  1.3563         estimate D2E/DX2                !
 ! R3    R(2,4)                  1.4778         estimate D2E/DX2                !
 ! R4    R(3,26)                 0.9601         estimate D2E/DX2                !
 ! R5    R(4,5)                  1.4646         estimate D2E/DX2                !
 ! R6    R(4,27)                 1.0901         estimate D2E/DX2                !
 ! R7    R(4,28)                 1.09           estimate D2E/DX2                !
 ! R8    R(5,6)                  1.371          estimate D2E/DX2                !
 ! R9    R(5,13)                 1.3483         estimate D2E/DX2                !
 ! R10   R(6,7)                  1.4119         estimate D2E/DX2                !
 ! R11   R(6,12)                 1.3948         estimate D2E/DX2                !
 ! R12   R(7,8)                  1.4085         estimate D2E/DX2                !
 ! R13   R(7,29)                 1.09           estimate D2E/DX2                !
 ! R14   R(8,9)                  1.3044         estimate D2E/DX2                !
 ! R15   R(8,10)                 1.409          estimate D2E/DX2                !
 ! R16   R(10,11)                1.4084         estimate D2E/DX2                !
 ! R17   R(10,30)                1.0901         estimate D2E/DX2                !
 ! R18   R(11,12)                1.4135         estimate D2E/DX2                !
 ! R19   R(11,31)                1.0901         estimate D2E/DX2                !
 ! R20   R(12,15)                1.3841         estimate D2E/DX2                !
 ! R21   R(13,14)                1.4648         estimate D2E/DX2                !
 ! R22   R(13,15)                1.376          estimate D2E/DX2                !
 ! R23   R(14,32)                1.09           estimate D2E/DX2                !
 ! R24   R(14,33)                1.0899         estimate D2E/DX2                !
 ! R25   R(14,34)                1.09           estimate D2E/DX2                !
 ! R26   R(15,16)                1.3553         estimate D2E/DX2                !
 ! R27   R(16,17)                1.3874         estimate D2E/DX2                !
 ! R28   R(16,35)                1.09           estimate D2E/DX2                !
 ! R29   R(17,18)                1.4148         estimate D2E/DX2                !
 ! R30   R(17,25)                1.4149         estimate D2E/DX2                !
 ! R31   R(18,19)                1.406          estimate D2E/DX2                !
 ! R32   R(18,36)                1.0899         estimate D2E/DX2                !
 ! R33   R(19,20)                1.4126         estimate D2E/DX2                !
 ! R34   R(19,37)                1.09           estimate D2E/DX2                !
 ! R35   R(20,21)                1.7737         estimate D2E/DX2                !
 ! R36   R(20,24)                1.411          estimate D2E/DX2                !
 ! R37   R(21,22)                1.83           estimate D2E/DX2                !
 ! R38   R(21,23)                1.6043         estimate D2E/DX2                !
 ! R39   R(22,38)                1.09           estimate D2E/DX2                !
 ! R40   R(22,39)                1.09           estimate D2E/DX2                !
 ! R41   R(22,40)                1.0899         estimate D2E/DX2                !
 ! R42   R(23,43)                0.96           estimate D2E/DX2                !
 ! R43   R(24,25)                1.4062         estimate D2E/DX2                !
 ! R44   R(24,41)                1.09           estimate D2E/DX2                !
 ! R45   R(25,42)                1.09           estimate D2E/DX2                !
 ! A1    A(1,2,3)              118.2316         estimate D2E/DX2                !
 ! A2    A(1,2,4)              119.3621         estimate D2E/DX2                !
 ! A3    A(3,2,4)              122.4009         estimate D2E/DX2                !
 ! A4    A(2,3,26)             109.4751         estimate D2E/DX2                !
 ! A5    A(2,4,5)              113.9273         estimate D2E/DX2                !
 ! A6    A(2,4,27)             105.9913         estimate D2E/DX2                !
 ! A7    A(2,4,28)             105.9892         estimate D2E/DX2                !
 ! A8    A(5,4,27)             105.6463         estimate D2E/DX2                !
 ! A9    A(5,4,28)             105.651          estimate D2E/DX2                !
 ! A10   A(27,4,28)            119.9936         estimate D2E/DX2                !
 ! A11   A(4,5,6)              125.1413         estimate D2E/DX2                !
 ! A12   A(4,5,13)             127.3999         estimate D2E/DX2                !
 ! A13   A(6,5,13)             107.4465         estimate D2E/DX2                !
 ! A14   A(5,6,7)              130.7487         estimate D2E/DX2                !
 ! A15   A(5,6,12)             108.0548         estimate D2E/DX2                !
 ! A16   A(7,6,12)             121.1672         estimate D2E/DX2                !
 ! A17   A(6,7,8)              119.1334         estimate D2E/DX2                !
 ! A18   A(6,7,29)             120.5518         estimate D2E/DX2                !
 ! A19   A(8,7,29)             120.3147         estimate D2E/DX2                !
 ! A20   A(7,8,9)              120.0052         estimate D2E/DX2                !
 ! A21   A(7,8,10)             119.961          estimate D2E/DX2                !
 ! A22   A(9,8,10)             120.031          estimate D2E/DX2                !
 ! A23   A(8,10,11)            120.3646         estimate D2E/DX2                !
 ! A24   A(8,10,30)            119.84           estimate D2E/DX2                !
 ! A25   A(11,10,30)           119.7953         estimate D2E/DX2                !
 ! A26   A(10,11,12)           119.5893         estimate D2E/DX2                !
 ! A27   A(10,11,31)           120.0237         estimate D2E/DX2                !
 ! A28   A(12,11,31)           120.387          estimate D2E/DX2                !
 ! A29   A(6,12,11)            119.5896         estimate D2E/DX2                !
 ! A30   A(6,12,15)            107.4932         estimate D2E/DX2                !
 ! A31   A(11,12,15)           132.8927         estimate D2E/DX2                !
 ! A32   A(5,13,14)            125.3799         estimate D2E/DX2                !
 ! A33   A(5,13,15)            110.3987         estimate D2E/DX2                !
 ! A34   A(14,13,15)           124.2103         estimate D2E/DX2                !
 ! A35   A(13,14,32)           109.4738         estimate D2E/DX2                !
 ! A36   A(13,14,33)           109.4743         estimate D2E/DX2                !
 ! A37   A(13,14,34)           109.4689         estimate D2E/DX2                !
 ! A38   A(32,14,33)           109.4713         estimate D2E/DX2                !
 ! A39   A(32,14,34)           109.4671         estimate D2E/DX2                !
 ! A40   A(33,14,34)           109.4719         estimate D2E/DX2                !
 ! A41   A(12,15,13)           106.2504         estimate D2E/DX2                !
 ! A42   A(12,15,16)           129.0494         estimate D2E/DX2                !
 ! A43   A(13,15,16)           124.6773         estimate D2E/DX2                !
 ! A44   A(15,16,17)           129.1096         estimate D2E/DX2                !
 ! A45   A(15,16,35)           114.0422         estimate D2E/DX2                !
 ! A46   A(17,16,35)           116.8482         estimate D2E/DX2                !
 ! A47   A(16,17,18)           119.7843         estimate D2E/DX2                !
 ! A48   A(16,17,25)           121.5132         estimate D2E/DX2                !
 ! A49   A(18,17,25)           118.4951         estimate D2E/DX2                !
 ! A50   A(17,18,19)           120.7003         estimate D2E/DX2                !
 ! A51   A(17,18,36)           119.9643         estimate D2E/DX2                !
 ! A52   A(19,18,36)           119.3354         estimate D2E/DX2                !
 ! A53   A(18,19,20)           120.5474         estimate D2E/DX2                !
 ! A54   A(18,19,37)           119.4926         estimate D2E/DX2                !
 ! A55   A(20,19,37)           119.96           estimate D2E/DX2                !
 ! A56   A(19,20,21)           120.6695         estimate D2E/DX2                !
 ! A57   A(19,20,24)           118.9567         estimate D2E/DX2                !
 ! A58   A(21,20,24)           120.3122         estimate D2E/DX2                !
 ! A59   A(20,21,22)           107.4296         estimate D2E/DX2                !
 ! A60   A(20,21,23)           107.0342         estimate D2E/DX2                !
 ! A61   A(22,21,23)           103.9825         estimate D2E/DX2                !
 ! A62   A(21,22,38)           109.4694         estimate D2E/DX2                !
 ! A63   A(21,22,39)           109.4688         estimate D2E/DX2                !
 ! A64   A(21,22,40)           109.4701         estimate D2E/DX2                !
 ! A65   A(38,22,39)           109.4684         estimate D2E/DX2                !
 ! A66   A(38,22,40)           109.4778         estimate D2E/DX2                !
 ! A67   A(39,22,40)           109.4728         estimate D2E/DX2                !
 ! A68   A(21,23,43)           120.0            estimate D2E/DX2                !
 ! A69   A(20,24,25)           120.4687         estimate D2E/DX2                !
 ! A70   A(20,24,41)           119.9419         estimate D2E/DX2                !
 ! A71   A(25,24,41)           119.5894         estimate D2E/DX2                !
 ! A72   A(17,25,24)           120.8022         estimate D2E/DX2                !
 ! A73   A(17,25,42)           119.9088         estimate D2E/DX2                !
 ! A74   A(24,25,42)           119.2889         estimate D2E/DX2                !
 ! D1    D(1,2,3,26)           -67.0537         estimate D2E/DX2                !
 ! D2    D(4,2,3,26)           113.7942         estimate D2E/DX2                !
 ! D3    D(1,2,4,5)            174.3264         estimate D2E/DX2                !
 ! D4    D(1,2,4,27)           -69.9462         estimate D2E/DX2                !
 ! D5    D(1,2,4,28)            58.5946         estimate D2E/DX2                !
 ! D6    D(3,2,4,5)             -6.5307         estimate D2E/DX2                !
 ! D7    D(3,2,4,27)           109.1967         estimate D2E/DX2                !
 ! D8    D(3,2,4,28)          -122.2626         estimate D2E/DX2                !
 ! D9    D(2,4,5,6)             95.0334         estimate D2E/DX2                !
 ! D10   D(2,4,5,13)           -83.5323         estimate D2E/DX2                !
 ! D11   D(27,4,5,6)           -20.896          estimate D2E/DX2                !
 ! D12   D(27,4,5,13)          160.5383         estimate D2E/DX2                !
 ! D13   D(28,4,5,6)          -149.0368         estimate D2E/DX2                !
 ! D14   D(28,4,5,13)           32.3975         estimate D2E/DX2                !
 ! D15   D(4,5,6,7)             -1.1356         estimate D2E/DX2                !
 ! D16   D(4,5,6,12)          -179.1361         estimate D2E/DX2                !
 ! D17   D(13,5,6,7)           177.6701         estimate D2E/DX2                !
 ! D18   D(13,5,6,12)           -0.3304         estimate D2E/DX2                !
 ! D19   D(4,5,13,14)            1.5953         estimate D2E/DX2                !
 ! D20   D(4,5,13,15)         -177.2346         estimate D2E/DX2                !
 ! D21   D(6,5,13,14)         -177.1753         estimate D2E/DX2                !
 ! D22   D(6,5,13,15)            3.9948         estimate D2E/DX2                !
 ! D23   D(5,6,7,8)           -178.2853         estimate D2E/DX2                !
 ! D24   D(5,6,7,29)             1.7061         estimate D2E/DX2                !
 ! D25   D(12,6,7,8)            -0.5071         estimate D2E/DX2                !
 ! D26   D(12,6,7,29)          179.4842         estimate D2E/DX2                !
 ! D27   D(5,6,12,11)          175.0554         estimate D2E/DX2                !
 ! D28   D(5,6,12,15)           -3.3686         estimate D2E/DX2                !
 ! D29   D(7,6,12,11)           -3.1743         estimate D2E/DX2                !
 ! D30   D(7,6,12,15)          178.4016         estimate D2E/DX2                !
 ! D31   D(6,7,8,9)           -178.5343         estimate D2E/DX2                !
 ! D32   D(6,7,8,10)             2.0715         estimate D2E/DX2                !
 ! D33   D(29,7,8,9)             1.4743         estimate D2E/DX2                !
 ! D34   D(29,7,8,10)         -177.9198         estimate D2E/DX2                !
 ! D35   D(7,8,10,11)            0.0555         estimate D2E/DX2                !
 ! D36   D(7,8,10,30)         -179.9401         estimate D2E/DX2                !
 ! D37   D(9,8,10,11)         -179.3385         estimate D2E/DX2                !
 ! D38   D(9,8,10,30)            0.6659         estimate D2E/DX2                !
 ! D39   D(8,10,11,12)          -3.74           estimate D2E/DX2                !
 ! D40   D(8,10,11,31)         176.2543         estimate D2E/DX2                !
 ! D41   D(30,10,11,12)        176.2556         estimate D2E/DX2                !
 ! D42   D(30,10,11,31)         -3.7502         estimate D2E/DX2                !
 ! D43   D(10,11,12,6)           5.2721         estimate D2E/DX2                !
 ! D44   D(10,11,12,15)       -176.7797         estimate D2E/DX2                !
 ! D45   D(31,11,12,6)        -174.7222         estimate D2E/DX2                !
 ! D46   D(31,11,12,15)          3.2261         estimate D2E/DX2                !
 ! D47   D(6,12,15,13)           5.6479         estimate D2E/DX2                !
 ! D48   D(6,12,15,16)        -172.651          estimate D2E/DX2                !
 ! D49   D(11,12,15,13)       -172.4815         estimate D2E/DX2                !
 ! D50   D(11,12,15,16)          9.2196         estimate D2E/DX2                !
 ! D51   D(5,13,14,32)         175.6076         estimate D2E/DX2                !
 ! D52   D(5,13,14,33)         -64.3888         estimate D2E/DX2                !
 ! D53   D(5,13,14,34)          55.6125         estimate D2E/DX2                !
 ! D54   D(15,13,14,32)         -5.7186         estimate D2E/DX2                !
 ! D55   D(15,13,14,33)        114.285          estimate D2E/DX2                !
 ! D56   D(15,13,14,34)       -125.7137         estimate D2E/DX2                !
 ! D57   D(5,13,15,12)          -6.0444         estimate D2E/DX2                !
 ! D58   D(5,13,15,16)         172.3492         estimate D2E/DX2                !
 ! D59   D(14,13,15,12)        175.1092         estimate D2E/DX2                !
 ! D60   D(14,13,15,16)         -6.4972         estimate D2E/DX2                !
 ! D61   D(12,15,16,17)          6.0727         estimate D2E/DX2                !
 ! D62   D(12,15,16,35)       -173.9261         estimate D2E/DX2                !
 ! D63   D(13,15,16,17)       -171.9413         estimate D2E/DX2                !
 ! D64   D(13,15,16,35)          8.0599         estimate D2E/DX2                !
 ! D65   D(15,16,17,18)       -130.2789         estimate D2E/DX2                !
 ! D66   D(15,16,17,25)         55.0336         estimate D2E/DX2                !
 ! D67   D(35,16,17,18)         49.7199         estimate D2E/DX2                !
 ! D68   D(35,16,17,25)       -124.9676         estimate D2E/DX2                !
 ! D69   D(16,17,18,19)       -175.9739         estimate D2E/DX2                !
 ! D70   D(16,17,18,36)          4.0247         estimate D2E/DX2                !
 ! D71   D(25,17,18,19)         -1.1268         estimate D2E/DX2                !
 ! D72   D(25,17,18,36)        178.8719         estimate D2E/DX2                !
 ! D73   D(16,17,25,24)        176.735          estimate D2E/DX2                !
 ! D74   D(16,17,25,42)         -3.2597         estimate D2E/DX2                !
 ! D75   D(18,17,25,24)          1.981          estimate D2E/DX2                !
 ! D76   D(18,17,25,42)       -178.0137         estimate D2E/DX2                !
 ! D77   D(17,18,19,20)         -0.3762         estimate D2E/DX2                !
 ! D78   D(17,18,19,37)        179.6337         estimate D2E/DX2                !
 ! D79   D(36,18,19,20)        179.6252         estimate D2E/DX2                !
 ! D80   D(36,18,19,37)         -0.365          estimate D2E/DX2                !
 ! D81   D(18,19,20,21)        178.1968         estimate D2E/DX2                !
 ! D82   D(18,19,20,24)          1.0418         estimate D2E/DX2                !
 ! D83   D(37,19,20,21)         -1.8131         estimate D2E/DX2                !
 ! D84   D(37,19,20,24)       -178.9681         estimate D2E/DX2                !
 ! D85   D(19,20,21,22)         49.4057         estimate D2E/DX2                !
 ! D86   D(19,20,21,23)        160.5711         estimate D2E/DX2                !
 ! D87   D(24,20,21,22)       -133.4779         estimate D2E/DX2                !
 ! D88   D(24,20,21,23)        -22.3125         estimate D2E/DX2                !
 ! D89   D(19,20,24,25)         -0.1911         estimate D2E/DX2                !
 ! D90   D(19,20,24,41)        179.8164         estimate D2E/DX2                !
 ! D91   D(21,20,24,25)       -177.3565         estimate D2E/DX2                !
 ! D92   D(21,20,24,41)          2.6509         estimate D2E/DX2                !
 ! D93   D(20,21,22,38)        -64.8923         estimate D2E/DX2                !
 ! D94   D(20,21,22,39)         55.1017         estimate D2E/DX2                !
 ! D95   D(20,21,22,40)        175.1014         estimate D2E/DX2                !
 ! D96   D(23,21,22,38)       -178.1326         estimate D2E/DX2                !
 ! D97   D(23,21,22,39)        -58.1386         estimate D2E/DX2                !
 ! D98   D(23,21,22,40)         61.8611         estimate D2E/DX2                !
 ! D99   D(20,21,23,43)        101.1035         estimate D2E/DX2                !
 ! D100  D(22,21,23,43)       -145.3726         estimate D2E/DX2                !
 ! D101  D(20,24,25,17)         -1.3392         estimate D2E/DX2                !
 ! D102  D(20,24,25,42)        178.6555         estimate D2E/DX2                !
 ! D103  D(41,24,25,17)        178.6534         estimate D2E/DX2                !
 ! D104  D(41,24,25,42)         -1.3519         estimate D2E/DX2                !
 --------------------------------------------------------------------------------
 Trust Radius=3.00D-01 FncErr=1.00D-07 GrdErr=1.00D-06 EigMax=2.50D+02 EigMin=1.00D-04
 Number of steps in this run=    233 maximum allowed number of steps=    258.
 GradGradGradGradGradGradGradGradGradGradGradGradGradGradGradGradGradGrad

 Leave Link  103 at Mon Oct 14 01:54:58 2019, MaxMem= 10737418240 cpu:               0.3 elap:               0.0
 (Enter /apps/cent7/gaussian/g16-A.03/g16-haswell/g16/l202.exe)
                          Input orientation:                          
 ---------------------------------------------------------------------
 Center     Atomic      Atomic             Coordinates (Angstroms)
 Number     Number       Type             X           Y           Z
 ---------------------------------------------------------------------
      1          8           0       -2.884600   10.479600    5.384600
      2          6           0       -2.630800    9.411700    4.782500
      3          8           0       -3.670600    8.666100    4.332600
      4          6           0       -1.222700    9.016500    4.570300
      5          6           0       -1.061900    7.689100    3.972700
      6          6           0       -0.903200    7.440400    2.633800
      7          6           0       -0.874000    8.320400    1.530100
      8          6           0       -0.730300    7.789500    0.233400
      9          9           0       -0.672500    8.588600   -0.795900
     10          6           0       -0.661900    6.394500    0.047800
     11          6           0       -0.737600    5.524700    1.152900
     12          6           0       -0.803000    6.060200    2.459400
     13          6           0       -1.067400    6.499300    4.607000
     14          6           0       -1.272500    6.305400    6.044400
     15          6           0       -0.825700    5.479400    3.715500
     16          6           0       -0.621500    4.185000    4.061500
     17          6           0       -0.224800    3.118900    3.267200
     18          6           0       -0.951200    1.905400    3.305600
     19          6           0       -0.518000    0.786000    2.573400
     20          6           0        0.647800    0.855200    1.778700
     21         16           0        1.223700   -0.568500    0.891400
     22          6           0       -0.203500   -1.259200   -0.022400
     23          8           0        2.203300   -0.038200   -0.263100
     24          6           0        1.383500    2.058800    1.748500
     25          6           0        0.959600    3.172500    2.495000
     26          1           0       -4.160000    8.315200    5.080300
     27          1           0       -0.820600    9.718500    3.839700
     28          1           0       -0.777200    8.948100    5.562800
     29          1           0       -0.961500    9.396900    1.677300
     30          1           0       -0.549700    5.985800   -0.956500
     31          1           0       -0.745600    4.445700    0.998200
     32          1           0       -1.304200    5.238700    6.266300
     33          1           0       -0.452000    6.766600    6.594000
     34          1           0       -2.214100    6.766600    6.342500
     35          1           0       -0.799500    3.973800    5.115900
     36          1           0       -1.856900    1.831900    3.907500
     37          1           0       -1.089400   -0.140900    2.622000
     38          1           0       -0.948800   -1.619800    0.686600
     39          1           0       -0.643600   -0.483400   -0.649000
     40          1           0        0.131800   -2.085600   -0.649000
     41          1           0        2.287200    2.129000    1.143100
     42          1           0        1.554500    4.085600    2.475000
     43          1           0        3.154791   -0.091433   -0.147207
 ---------------------------------------------------------------------
                    Distance matrix (angstroms):
                    1          2          3          4          5
     1  O    0.000000
     2  C    1.251938   0.000000
     3  O    2.239036   1.356287   0.000000
     4  C    2.359165   1.477822   2.484250   0.000000
     5  C    3.619750   2.466693   2.808803   1.464573   0.000000
     6  C    4.552975   3.389327   3.470845   2.517182   1.371018
     7  C    4.854053   3.854269   3.974228   3.138306   2.529850
     8  C    6.197783   5.190158   5.120277   4.533948   3.755317
     9  F    6.831387   5.969169   5.941054   5.411277   4.868293
    10  C    7.078833   5.949575   5.707184   5.257603   4.152208
    11  C    6.860607   5.645084   5.346155   4.909848   3.569464
    12  C    5.693940   4.468803   4.303803   3.656741   2.238397
    13  C    4.444060   3.310150   3.398083   2.522253   1.348329
    14  C    4.523068   3.617523   3.775453   3.086343   2.500184
    15  C    5.659237   4.456440   4.316170   3.660515   2.237122
    16  C    6.818666   5.645841   5.426856   4.895274   3.532783
    17  C    8.107886   6.905382   6.616649   6.121728   4.699489
    18  C    9.032009   7.832422   7.359139   7.227788   5.823097
    19  C   10.366751   9.151325   8.667736   8.498549   7.064464
    20  C   10.867817   9.642911   9.283380   8.826019   7.378272
    21  S   12.614574  11.384297  11.003357  10.554213   9.105292
    22  C   13.199370  11.951860  11.379736  11.301401   9.837162
    23  O   12.977186  11.752753  11.462460  10.820667   9.397590
    24  C   10.116708   8.909820   8.710793   7.947605   6.528960
    25  C    8.747650   7.553227   7.415873   6.574317   5.164275
    26  H    2.530587   1.905111   0.960051   3.062622   3.349179
    27  H    2.688138   2.063934   3.077823   1.090076   2.048018
    28  H    2.611203   2.063886   3.156688   1.090048   2.048061
    29  H    4.314467   3.525486   3.863148   2.929570   2.862782
    30  H    8.115143   7.000278   6.700642   6.339053   5.240286
    31  H    7.760398   6.521968   6.122550   5.820630   4.412181
    32  H    5.544555   4.623360   4.591962   4.141839   3.365081
    33  H    4.600713   3.876242   4.368228   3.122722   2.845030
    34  H    3.892751   3.098999   3.125570   3.030778   2.791867
    35  H    6.837052   5.747658   5.556479   5.089755   3.896051
    36  H    8.832933   7.669284   7.083538   7.242927   5.911266
    37  H   11.119790   9.914426   9.335523   9.363312   7.945694
    38  H   13.123033  11.886947  11.247277  11.326474   9.872531
    39  H   12.712741  11.461377  10.848614  10.854702   9.398130
    40  H   14.261390  13.012343  12.444824  12.342301  10.877950
    41  H   10.699082   9.511555   9.402232   8.455930   7.080806
    42  H    8.309911   7.156021   7.192588   6.034641   4.698283
    43  H   13.372430  12.169002  11.972845  11.152208   9.761702
                    6          7          8          9         10
     6  C    0.000000
     7  C    1.411880   0.000000
     8  C    2.431807   1.408522   0.000000
     9  F    3.624145   2.350066   1.304362   0.000000
    10  C    2.799916   2.439527   1.408954   2.350748   0.000000
    11  C    2.427014   2.824327   2.444351   3.631741   1.408378
    12  C    1.394779   2.444820   2.819723   4.123932   2.438746
    13  C    2.192293   3.580659   4.572377   5.806242   4.578397
    14  C    3.613419   4.959630   6.021981   7.236208   6.028265
    15  C    2.240893   3.584632   4.179795   5.481179   3.783684
    16  C    3.565854   4.855232   5.259145   6.556571   4.581846
    17  C    4.420043   5.522190   5.592314   6.828385   4.613583
    18  C    5.575827   6.656620   6.641524   7.846346   5.554185
    19  C    6.665813   7.614617   7.387130   8.500389   6.152612
    20  C    6.819212   7.622787   7.236824   8.256951   5.949384
    21  S    8.467712   9.155371   8.608556   9.502370   7.262955
    22  C    9.122939   9.727721   9.067631   9.889258   7.667736
    23  O    8.600688   9.085788   8.374092   9.109104   7.048806
    24  C    5.913913   6.659703   6.293219   7.303382   5.086682
    25  C    4.658783   5.549234   5.411773   6.544304   4.358823
    26  H    4.166219   4.837535   5.960842   6.838650   6.422760
    27  H    2.578906   2.700331   4.090794   4.773614   5.045064
    28  H    3.296677   4.082407   5.454086   6.369715   6.078601
    29  H    2.178574   1.090035   2.173024   2.617936   3.429203
    30  H    3.889869   3.426180   2.168366   2.610640   1.090066
    31  H    3.415882   3.913145   3.430182   4.515281   2.169813
    32  H    4.266537   5.666881   6.575091   7.841909   6.357528
    33  H    4.042372   5.313705   6.448334   7.614389   6.560126
    34  H    3.990855   5.231573   6.369387   7.526817   6.493923
    35  H    4.264843   5.635286   6.197028   7.500792   5.618217
    36  H    5.829848   6.979882   7.089516   8.317317   6.094475
    37  H    7.583595   8.534181   8.290091   9.384030   7.037096
    38  H    9.267194   9.976205   9.422742  10.319185   8.044836
    39  H    8.580838   9.072401   8.320278   9.073235   6.913131
    40  H   10.128804  10.679183   9.951856  10.705467   8.545618
    41  H    6.372739   6.962499   6.478744   7.365187   5.300129
    42  H    4.161753   4.972321   4.895299   5.994608   4.016808
    43  H    8.996099   9.476469   8.794766   9.508519   7.528113
                   11         12         13         14         15
    11  C    0.000000
    12  C    1.413499   0.000000
    13  C    3.604084   2.207918   0.000000
    14  C    4.982207   3.623918   1.464849   0.000000
    15  C    2.564514   1.384063   1.376004   2.511112   0.000000
    16  C    3.204408   2.473063   2.419170   2.975196   1.355317
    17  C    3.243625   3.104529   3.732579   4.354802   2.476694
    18  C    4.216524   4.242686   4.776093   5.192712   3.599617
    19  C    4.951901   5.283125   6.089266   6.563603   4.840152
    20  C    4.910722   5.446118   6.541946   7.182509   5.225478
    21  S    6.406416   7.106743   8.307143   8.946224   6.982312
    22  C    6.905642   7.751925   9.075902   9.755614   7.730961
    23  O    6.449791   7.323956   8.783750   9.597239   7.446342
    24  C    4.106856   4.614907   5.822025   6.598690   4.522185
    25  C    3.196023   3.383318   4.431351   5.234078   3.162073
    26  H    5.909669   4.819086   3.617414   3.647799   4.584975
    27  H    4.981339   3.910076   3.318570   4.088296   4.240922
    28  H    5.582871   4.239307   2.644691   2.731506   3.930235
    29  H    3.913957   3.430797   4.121946   5.359632   4.418089
    30  H    2.167369   3.426087   5.611081   7.045366   4.707462
    31  H    1.090063   2.178304   4.164645   5.403725   2.908379
    32  H    5.152639   3.926646   2.097251   1.089997   2.606430
    33  H    5.588332   4.209171   2.097221   1.089948   3.175263
    34  H    5.536634   4.191500   2.097220   1.090037   3.238158
    35  H    4.256112   3.377879   2.590154   2.553860   2.056365
    36  H    4.741036   4.591973   4.785105   4.992000   3.795325
    37  H    5.863535   6.209839   6.930582   7.300762   5.731758
    38  H    7.162815   7.883304   9.016839   9.571813   7.719328
    39  H    6.273193   7.246120   8.750042   9.554314   7.391685
    40  H    7.868886   8.768698  10.137264  10.825089   8.786062
    41  H    4.547559   5.170717   6.507800   7.357753   5.247149
    42  H    3.012089   3.075239   4.152798   5.065576   3.024379
    43  H    6.955713   7.765379   9.157901   9.942655   7.861234
                   16         17         18         19         20
    16  C    0.000000
    17  C    1.387391   0.000000
    18  C    2.424183   1.414819   0.000000
    19  C    3.711921   2.451479   1.406000   0.000000
    20  C    4.232005   2.846296   2.447681   1.412596   0.000000
    21  S    6.004170   4.619469   4.083960   2.774403   1.773664
    22  C    6.818525   5.476284   4.652884   3.319628   2.905058
    23  O    6.672112   5.322215   5.144324   4.016281   2.717847
    24  C    3.727026   2.452935   2.810501   2.432320   1.410964
    25  C    2.445190   1.414910   2.431825   2.807994   2.445442
    26  H    5.533307   6.765698   7.384544   8.731413   9.469272
    27  H    5.541521   6.651124   7.832423   9.026884   9.217484
    28  H    4.996525   6.289237   7.397625   8.696182   9.046826
    29  H    5.741421   6.517959   7.666423   8.668753   8.692570
    30  H    5.331825   5.115107   5.914082   6.284832   5.936193
    31  H    3.076877   2.679551   3.437949   3.990797   3.929686
    32  H    2.537224   3.827957   4.472275   5.837993   6.569926
    33  H    3.620352   4.942159   5.890165   7.206744   7.703332
    34  H    3.795259   5.169188   5.869322   7.269831   7.997712
    35  H    1.089977   2.116324   2.752903   4.087251   4.791372
    36  H    2.662144   2.174880   1.089944   2.160181   3.429177
    37  H    4.583067   3.433673   2.161886   1.089956   2.172840
    38  H    6.722557   5.444167   4.391606   3.087633   3.141248
    39  H    6.631987   5.337470   4.630318   3.465691   3.058315
    40  H    7.878877   6.523083   5.721873   4.364881   3.848154
    41  H    4.604859   3.435382   3.900466   3.423237   2.171218
    42  H    2.694780   2.174396   3.423697   3.897730   3.426722
    43  H    7.089533   5.778067   5.724368   4.654137   3.300036
                   21         22         23         24         25
    21  S    0.000000
    22  C    1.830026   0.000000
    23  O    1.604277   2.709514   0.000000
    24  C    2.768187   4.082129   3.019274   0.000000
    25  C    4.078770   5.227817   4.411632   1.406158   0.000000
    26  H   11.200502  11.548185  11.782309   8.998546   7.703340
    27  H   10.894678  11.653606  11.007731   8.240278   6.915739
    28  H   10.788478  11.649574  11.116568   8.165780   6.766493
    29  H   10.232396  10.817394  10.139143   7.704012   6.565243
    30  H    7.036940   7.313168   6.659459   5.145446   4.701648
    31  H    5.388112   5.820771   5.512916   3.285317   2.601760
    32  H    8.306829   9.109445   9.098423   6.143778   4.859699
    33  H    9.440938  10.404421  10.018769   7.000808   5.631338
    34  H    9.764049  10.438771  10.461963   7.497396   6.147616
    35  H    6.524740   7.358100   7.351639   4.446583   3.256629
    36  H    4.934458   5.266189   6.113624   3.900379   3.424184
    37  H    2.920317   3.004707   4.379066   3.422998   3.897839
    38  H    2.422175   1.090039   3.652276   4.483230   5.466117
    39  H    2.422165   1.090037   2.907226   4.039792   5.081397
    40  H    2.422121   1.089950   2.938006   4.948819   6.182039
    41  H    2.910480   4.363700   2.584800   1.090005   2.163111
    42  H    4.927257   6.155847   4.992380   2.159852   1.089981
    43  H    2.243972   3.557720   0.960000   3.369671   4.738500
                   26         27         28         29         30
    26  H    0.000000
    27  H    3.828829   0.000000
    28  H    3.475155   1.887981   0.000000
    29  H    4.793838   2.190720   3.915673   0.000000
    30  H    7.409678   6.083582   7.164374   4.329213   0.000000
    31  H    6.579871   5.990173   6.411566   5.002217   2.496225
    32  H    4.362000   5.117701   3.812124   6.202176   7.300429
    33  H    4.294032   4.054103   2.434763   5.599286   7.591393
    34  H    2.788877   4.113340   2.726088   5.500143   7.526970
    35  H    5.490171   5.884786   4.994385   6.423412   6.401920
    36  H    6.979463   7.954683   7.385531   7.937554   6.528564
    37  H    9.326170   9.937948   9.558017   9.585324   7.115714
    38  H   11.327870  11.769262  11.639900  11.061163   7.791291
    39  H   11.072728  11.147131  11.294136  10.155445   6.477185
    40  H   12.626206  12.664607  12.694695  11.766681   8.105954
    41  H    9.764067   8.633110   8.684723   7.978834   5.227928
    42  H    7.571830   6.263631   6.214116   5.930977   4.451248
    43  H   12.308716  11.310789  11.392010  10.502435   7.163168
                   31         32         33         34         35
    31  H    0.000000
    32  H    5.356656   0.000000
    33  H    6.065126   1.779919   0.000000
    34  H    6.008711   1.779945   1.779957   0.000000
    35  H    4.145003   1.782727   3.178878   3.362346   0.000000
    36  H    4.065829   4.180395   5.791571   5.514352   2.676950
    37  H    4.877686   6.501320   7.993536   7.925946   4.820201
    38  H    6.076897   8.848637  10.270146  10.194209   7.136480
    39  H    5.198048   9.000011  10.249891  10.193628   7.288690
    40  H    6.792715  10.174912  11.452655  11.521535   8.415326
    41  H    3.819158   6.986814   7.663084   8.294745   5.358558
    42  H    2.757004   4.886283   5.308480   6.028902   3.539515
    43  H    6.091846   9.456532  10.270610  10.861580   7.737108
                   36         37         38         39         40
    36  H    0.000000
    37  H    2.476592   0.000000
    38  H    4.807606   2.439813   0.000000
    39  H    5.253038   3.318958   1.779994   0.000000
    40  H    6.329568   3.996577   1.780026   1.779969   0.000000
    41  H    4.990365   4.329090   4.973288   4.315767   5.061642
    42  H    4.332305   4.987496   6.482012   5.955399   7.061668
    43  H    6.727326   5.067950   4.457645   3.851390   3.656087
                   41         42         43
    41  H    0.000000
    42  H    2.477719   0.000000
    43  H    2.710707   5.185027   0.000000
 Stoichiometry    C20H18FO3S(1+)
 Framework group  C1[X(C20H18FO3S)]
 Deg. of freedom   123
 Full point group                 C1      NOp   1
 Largest Abelian subgroup         C1      NOp   1
 Largest concise Abelian subgroup C1      NOp   1
                         Standard orientation:                         
 ---------------------------------------------------------------------
 Center     Atomic      Atomic             Coordinates (Angstroms)
 Number     Number       Type             X           Y           Z
 ---------------------------------------------------------------------
      1          8           0        6.705227   -1.024381    0.209968
      2          6           0        5.479844   -0.814181    0.356938
      3          8           0        4.968198   -0.853518    1.612399
      4          6           0        4.648564   -0.515969   -0.827967
      5          6           0        3.215893   -0.419905   -0.539525
      6          6           0        2.538906    0.744360   -0.282882
      7          6           0        2.995439    2.078198   -0.206323
      8          6           0        2.079348    3.099258    0.113285
      9          9           0        2.476651    4.340741    0.160508
     10          6           0        0.736766    2.777372    0.394378
     11          6           0        0.303399    1.437793    0.359034
     12          6           0        1.203931    0.423131   -0.037808
     13          6           0        2.329160   -1.431564   -0.448743
     14          6           0        2.647549   -2.854033   -0.593633
     15          6           0        1.063289   -0.941084   -0.224268
     16          6           0       -0.066456   -1.689745   -0.232526
     17          6           0       -1.389798   -1.277832   -0.169704
     18          6           0       -2.269369   -1.878517    0.761557
     19          6           0       -3.632895   -1.536341    0.784988
     20          6           0       -4.148548   -0.579315   -0.117026
     21         16           0       -5.876669   -0.180001   -0.122278
     22          6           0       -6.366534    0.157532    1.608358
     23          8           0       -6.028564    1.240500   -0.852215
     24          6           0       -3.278180    0.011912   -1.057095
     25          6           0       -1.918199   -0.343791   -1.091837
     26          1           0        5.017753   -1.750785    1.950266
     27          1           0        4.948274    0.477161   -1.162829
     28          1           0        4.757642   -1.371685   -1.494343
     29          1           0        4.042757    2.316871   -0.391623
     30          1           0        0.029243    3.569244    0.640538
     31          1           0       -0.720771    1.188361    0.636697
     32          1           0        1.755383   -3.448101   -0.395604
     33          1           0        2.994727   -3.047139   -1.608603
     34          1           0        3.429498   -3.125385    0.115665
     35          1           0        0.112468   -2.762926   -0.298230
     36          1           0       -1.891374   -2.614959    1.470606
     37          1           0       -4.294100   -2.015707    1.506805
     38          1           0       -6.263305   -0.752609    2.199266
     39          1           0       -5.724170    0.934570    2.022800
     40          1           0       -7.403692    0.491672    1.633777
     41          1           0       -3.659650    0.750018   -1.762638
     42          1           0       -1.267681    0.108511   -1.840374
     43          1           0       -6.317688    1.281760   -1.766712
 ---------------------------------------------------------------------
 Rotational constants (GHZ):           0.4039415           0.0885885           0.0768896
 Leave Link  202 at Mon Oct 14 01:54:58 2019, MaxMem= 10737418240 cpu:               0.3 elap:               0.0
 (Enter /apps/cent7/gaussian/g16-A.03/g16-haswell/g16/l301.exe)
 Standard basis: 6-31G(d) (6D, 7F)
 Ernie: Thresh=  0.10000D-02 Tol=  0.10000D-05 Strict=F.
 There are   415 symmetry adapted cartesian basis functions of A   symmetry.
 There are   415 symmetry adapted basis functions of A   symmetry.
   415 basis functions,   796 primitive gaussians,   415 cartesian basis functions
    93 alpha electrons       93 beta electrons
       nuclear repulsion energy      2205.9252657283 Hartrees.
 IExCor=  402 DFT=T Ex+Corr=B3LYP ExCW=0 ScaHFX=  0.200000
 ScaDFX=  0.800000  0.720000  1.000000  0.810000 ScalE2=  1.000000  1.000000
 IRadAn=      5 IRanWt=     -1 IRanGd=            0 ICorTp=0 IEmpDi=  4
 NAtoms=   43 NActive=   43 NUniq=   43 SFac= 1.00D+00 NAtFMM=   60 NAOKFM=F Big=F
 Integral buffers will be    131072 words long.
 Raffenetti 2 integral format.
 Two-electron integral symmetry is turned on.
 Leave Link  301 at Mon Oct 14 01:54:58 2019, MaxMem= 10737418240 cpu:               1.6 elap:               0.1
 (Enter /apps/cent7/gaussian/g16-A.03/g16-haswell/g16/l302.exe)
 NPDir=0 NMtPBC=     1 NCelOv=     1 NCel=       1 NClECP=     1 NCelD=      1
         NCelK=      1 NCelE2=     1 NClLst=     1 CellRange=     0.0.
 One-electron integrals computed using PRISM.
 One-electron integral symmetry used in STVInt
 NBasis=   415 RedAO= T EigKep=  2.90D-04  NBF=   415
 NBsUse=   415 1.00D-06 EigRej= -1.00D+00 NBFU=   415
 Precomputing XC quadrature grid using
 IXCGrd= 4 IRadAn=           5 IRanWt=          -1 IRanGd=           0 AccXCQ= 0.00D+00.
 Generated NRdTot=       0 NPtTot=           0 NUsed=           0 NTot=          32
 NSgBfM=   408   408   408   408   408 MxSgAt=    43 MxSgA2=    43.
 Leave Link  302 at Mon Oct 14 01:54:58 2019, MaxMem= 10737418240 cpu:               9.0 elap:               0.4
 (Enter /apps/cent7/gaussian/g16-A.03/g16-haswell/g16/l303.exe)
 DipDrv:  MaxL=1.
 Leave Link  303 at Mon Oct 14 01:54:58 2019, MaxMem= 10737418240 cpu:               1.1 elap:               0.1
 (Enter /apps/cent7/gaussian/g16-A.03/g16-haswell/g16/l401.exe)
 ExpMin= 1.17D-01 ExpMax= 2.19D+04 ExpMxC= 3.30D+03 IAcc=3 IRadAn=         5 AccDes= 0.00D+00
 Harris functional with IExCor=  402 and IRadAn=       5 diagonalized for initial guess.
 HarFok:  IExCor=  402 AccDes= 0.00D+00 IRadAn=         5 IDoV= 1 UseB2=F ITyADJ=14
 ICtDFT=  3500011 ScaDFX=  1.000000  1.000000  1.000000  1.000000
 FoFCou: FMM=F IPFlag=           0 FMFlag=      100000 FMFlg1=           0
         NFxFlg=           0 DoJE=T BraDBF=F KetDBF=T FulRan=T
         wScrn=  0.000000 ICntrl=       500 IOpCl=  0 I1Cent=   200000004 NGrid=           0
         NMat0=    1 NMatS0=      1 NMatT0=    0 NMatD0=    1 NMtDS0=    0 NMtDT0=    0
 Petite list used in FoFCou.
 Harris En= -1496.38740044887    
 JPrj=0 DoOrth=F DoCkMO=F.
 Leave Link  401 at Mon Oct 14 01:54:59 2019, MaxMem= 10737418240 cpu:              21.7 elap:               0.9
 (Enter /apps/cent7/gaussian/g16-A.03/g16-haswell/g16/l502.exe)
 Integral symmetry usage will be decided dynamically.
 Closed shell SCF:
 Using DIIS extrapolation, IDIIS=  1040.
 NGot= 10737418240 LenX= 10737059283 LenY= 10736886617
 Requested convergence on RMS density matrix=1.00D-08 within 128 cycles.
 Requested convergence on MAX density matrix=1.00D-06.
 Requested convergence on             energy=1.00D-06.
 No special actions if energy rises.
 Fock matrices will be formed incrementally for  20 cycles.
 Integral accuracy reduced to 1.0D-05 until final iterations.

 Cycle   1  Pass 0  IDiag  1:
 FoFJK:  IHMeth= 1 ICntrl=       0 DoSepK=F KAlg= 0 I1Cent=           0 FoldK=F
 IRaf= 700000000 NMat=       1 IRICut=       1 DoRegI=T DoRafI=F ISym2E= 0 IDoP0=0 IntGTp=1.
 FoFCou: FMM=F IPFlag=           0 FMFlag=      100000 FMFlg1=           0
         NFxFlg=           0 DoJE=F BraDBF=F KetDBF=F FulRan=T
         wScrn=  0.000000 ICntrl=         0 IOpCl=  0 I1Cent=           0 NGrid=           0
         NMat0=    1 NMatS0=      1 NMatT0=    0 NMatD0=    1 NMtDS0=    0 NMtDT0=    0
 Symmetry not used in FoFCou.
 E= -1495.57114284240    
 DIIS: error= 2.27D-02 at cycle   1 NSaved=   1.
 NSaved= 1 IEnMin= 1 EnMin= -1495.57114284240     IErMin= 1 ErrMin= 2.27D-02
 ErrMax= 2.27D-02  0.00D+00 EMaxC= 1.00D-01 BMatC= 7.23D-01 BMatP= 7.23D-01
 IDIUse=3 WtCom= 7.73D-01 WtEn= 2.27D-01
 Coeff-Com:  0.100D+01
 Coeff-En:   0.100D+01
 Coeff:      0.100D+01
 Gap=     0.417 Goal=   None    Shift=    0.000
 GapD=    0.417 DampG=2.000 DampE=0.500 DampFc=1.0000 IDamp=-1.
 RMSDP=1.37D-02 MaxDP=9.00D-01              OVMax= 8.90D-01

 Cycle   2  Pass 0  IDiag  1:
 RMSU=  1.37D-02    CP:  9.47D-01
 E= -1486.68536209342     Delta-E=        8.885780748979 Rises=F Damp=F
 DIIS: error= 7.95D-02 at cycle   2 NSaved=   2.
 NSaved= 2 IEnMin= 1 EnMin= -1495.57114284240     IErMin= 1 ErrMin= 2.27D-02
 ErrMax= 7.95D-02  0.00D+00 EMaxC= 1.00D-01 BMatC= 5.27D+00 BMatP= 7.23D-01
 IDIUse=2 WtCom= 0.00D+00 WtEn= 1.00D+00
 Coeff-En:   0.903D+00 0.967D-01
 Coeff:      0.903D+00 0.967D-01
 Gap=    -0.092 Goal=   None    Shift=    0.000
 RMSDP=1.28D-02 MaxDP=8.80D-01 DE= 8.89D+00 OVMax= 9.86D-01

 Cycle   3  Pass 0  IDiag  1:
 RMSU=  3.82D-03    CP:  9.48D-01  1.12D-01
 E= -1495.78934455971     Delta-E=       -9.103982466282 Rises=F Damp=F
 DIIS: error= 2.00D-02 at cycle   3 NSaved=   3.
 NSaved= 3 IEnMin= 3 EnMin= -1495.78934455971     IErMin= 3 ErrMin= 2.00D-02
 ErrMax= 2.00D-02  0.00D+00 EMaxC= 1.00D-01 BMatC= 5.55D-01 BMatP= 7.23D-01
 IDIUse=3 WtCom= 8.00D-01 WtEn= 2.00D-01
 Coeff-Com:  0.475D+00 0.350D-01 0.490D+00
 Coeff-En:   0.411D+00 0.000D+00 0.589D+00
 Coeff:      0.463D+00 0.280D-01 0.510D+00
 Gap=     0.037 Goal=   None    Shift=    0.000
 RMSDP=2.27D-03 MaxDP=1.15D-01 DE=-9.10D+00 OVMax= 1.98D-01

 Cycle   4  Pass 0  IDiag  1:
 RMSU=  1.63D-03    CP:  9.49D-01  6.77D-02  6.20D-01
 E= -1496.24888946829     Delta-E=       -0.459544908584 Rises=F Damp=F
 DIIS: error= 8.28D-03 at cycle   4 NSaved=   4.
 NSaved= 4 IEnMin= 4 EnMin= -1496.24888946829     IErMin= 4 ErrMin= 8.28D-03
 ErrMax= 8.28D-03  0.00D+00 EMaxC= 1.00D-01 BMatC= 4.69D-02 BMatP= 5.55D-01
 IDIUse=3 WtCom= 9.17D-01 WtEn= 8.28D-02
 Coeff-Com:  0.181D+00 0.479D-02 0.282D+00 0.532D+00
 Coeff-En:   0.000D+00 0.000D+00 0.000D+00 0.100D+01
 Coeff:      0.166D+00 0.440D-02 0.259D+00 0.571D+00
 Gap=     0.080 Goal=   None    Shift=    0.000
 RMSDP=8.24D-04 MaxDP=4.09D-02 DE=-4.60D-01 OVMax= 7.39D-02

 Cycle   5  Pass 0  IDiag  1:
 RMSU=  6.04D-04    CP:  9.52D-01  6.76D-02  6.60D-01  6.72D-01
 E= -1496.27815031768     Delta-E=       -0.029260849386 Rises=F Damp=F
 DIIS: error= 5.66D-03 at cycle   5 NSaved=   5.
 NSaved= 5 IEnMin= 5 EnMin= -1496.27815031768     IErMin= 5 ErrMin= 5.66D-03
 ErrMax= 5.66D-03  0.00D+00 EMaxC= 1.00D-01 BMatC= 1.42D-02 BMatP= 4.69D-02
 IDIUse=3 WtCom= 9.43D-01 WtEn= 5.66D-02
 Coeff-Com:  0.537D-01-0.433D-02 0.109D+00 0.380D+00 0.462D+00
 Coeff-En:   0.000D+00 0.000D+00 0.000D+00 0.259D+00 0.741D+00
 Coeff:      0.506D-01-0.408D-02 0.103D+00 0.373D+00 0.478D+00
 Gap=     0.071 Goal=   None    Shift=    0.000
 RMSDP=4.03D-04 MaxDP=2.32D-02 DE=-2.93D-02 OVMax= 5.07D-02

 Cycle   6  Pass 0  IDiag  1:
 RMSU=  2.07D-04    CP:  9.51D-01  6.84D-02  6.51D-01  7.57D-01  4.78D-01
 E= -1496.28939991857     Delta-E=       -0.011249600895 Rises=F Damp=F
 DIIS: error= 1.64D-03 at cycle   6 NSaved=   6.
 NSaved= 6 IEnMin= 6 EnMin= -1496.28939991857     IErMin= 6 ErrMin= 1.64D-03
 ErrMax= 1.64D-03  0.00D+00 EMaxC= 1.00D-01 BMatC= 1.88D-03 BMatP= 1.42D-02
 IDIUse=3 WtCom= 9.84D-01 WtEn= 1.64D-02
 Coeff-Com:  0.140D-01-0.294D-02 0.328D-01 0.176D+00 0.319D+00 0.462D+00
 Coeff-En:   0.000D+00 0.000D+00 0.000D+00 0.000D+00 0.121D+00 0.879D+00
 Coeff:      0.137D-01-0.289D-02 0.323D-01 0.173D+00 0.315D+00 0.469D+00
 Gap=     0.077 Goal=   None    Shift=    0.000
 RMSDP=1.60D-04 MaxDP=8.67D-03 DE=-1.12D-02 OVMax= 2.04D-02

 Cycle   7  Pass 0  IDiag  1:
 RMSU=  9.15D-05    CP:  9.51D-01  6.73D-02  6.54D-01  7.50D-01  5.94D-01
                    CP:  4.71D-01
 E= -1496.29102227563     Delta-E=       -0.001622357054 Rises=F Damp=F
 DIIS: error= 5.00D-04 at cycle   7 NSaved=   7.
 NSaved= 7 IEnMin= 7 EnMin= -1496.29102227563     IErMin= 7 ErrMin= 5.00D-04
 ErrMax= 5.00D-04  0.00D+00 EMaxC= 1.00D-01 BMatC= 2.46D-04 BMatP= 1.88D-03
 IDIUse=3 WtCom= 9.95D-01 WtEn= 5.00D-03
 Coeff-Com:  0.308D-02-0.110D-02 0.625D-02 0.564D-01 0.129D+00 0.303D+00
 Coeff-Com:  0.503D+00
 Coeff-En:   0.000D+00 0.000D+00 0.000D+00 0.000D+00 0.000D+00 0.124D+00
 Coeff-En:   0.876D+00
 Coeff:      0.307D-02-0.110D-02 0.622D-02 0.561D-01 0.129D+00 0.302D+00
 Coeff:      0.505D+00
 Gap=     0.078 Goal=   None    Shift=    0.000
 RMSDP=5.87D-05 MaxDP=3.51D-03 DE=-1.62D-03 OVMax= 6.58D-03

 Cycle   8  Pass 0  IDiag  1:
 RMSU=  3.95D-05    CP:  9.51D-01  6.70D-02  6.53D-01  7.45D-01  5.79D-01
                    CP:  5.77D-01  6.20D-01
 E= -1496.29124507537     Delta-E=       -0.000222799747 Rises=F Damp=F
 DIIS: error= 1.78D-04 at cycle   8 NSaved=   8.
 NSaved= 8 IEnMin= 8 EnMin= -1496.29124507537     IErMin= 8 ErrMin= 1.78D-04
 ErrMax= 1.78D-04  0.00D+00 EMaxC= 1.00D-01 BMatC= 3.55D-05 BMatP= 2.46D-04
 IDIUse=3 WtCom= 9.98D-01 WtEn= 1.78D-03
 Coeff-Com:  0.302D-03-0.259D-03-0.492D-03 0.131D-01 0.383D-01 0.130D+00
 Coeff-Com:  0.328D+00 0.491D+00
 Coeff-En:   0.000D+00 0.000D+00 0.000D+00 0.000D+00 0.000D+00 0.000D+00
 Coeff-En:   0.129D+00 0.871D+00
 Coeff:      0.302D-03-0.259D-03-0.491D-03 0.131D-01 0.382D-01 0.130D+00
 Coeff:      0.328D+00 0.492D+00
 Gap=     0.079 Goal=   None    Shift=    0.000
 RMSDP=2.40D-05 MaxDP=1.17D-03 DE=-2.23D-04 OVMax= 2.61D-03

 Cycle   9  Pass 0  IDiag  1:
 RMSU=  1.74D-05    CP:  9.51D-01  6.70D-02  6.53D-01  7.47D-01  5.85D-01
                    CP:  5.68D-01  7.40D-01  7.20D-01
 E= -1496.29128031968     Delta-E=       -0.000035244308 Rises=F Damp=F
 DIIS: error= 5.92D-05 at cycle   9 NSaved=   9.
 NSaved= 9 IEnMin= 9 EnMin= -1496.29128031968     IErMin= 9 ErrMin= 5.92D-05
 ErrMax= 5.92D-05  0.00D+00 EMaxC= 1.00D-01 BMatC= 4.23D-06 BMatP= 3.55D-05
 IDIUse=1 WtCom= 1.00D+00 WtEn= 0.00D+00
 Coeff-Com: -0.604D-04-0.432D-04-0.591D-03 0.493D-02 0.128D-01 0.501D-01
 Coeff-Com:  0.143D+00 0.301D+00 0.489D+00
 Coeff:     -0.604D-04-0.432D-04-0.591D-03 0.493D-02 0.128D-01 0.501D-01
 Coeff:      0.143D+00 0.301D+00 0.489D+00
 Gap=     0.079 Goal=   None    Shift=    0.000
 RMSDP=6.49D-06 MaxDP=3.97D-04 DE=-3.52D-05 OVMax= 7.08D-04

 Initial convergence to 1.0D-05 achieved.  Increase integral accuracy.
 Cycle  10  Pass 1  IDiag  1:
 E= -1496.29128751975     Delta-E=       -0.000007200072 Rises=F Damp=F
 DIIS: error= 5.07D-05 at cycle   1 NSaved=   1.
 NSaved= 1 IEnMin= 1 EnMin= -1496.29128751975     IErMin= 1 ErrMin= 5.07D-05
 ErrMax= 5.07D-05  0.00D+00 EMaxC= 1.00D-01 BMatC= 1.64D-06 BMatP= 1.64D-06
 IDIUse=1 WtCom= 1.00D+00 WtEn= 0.00D+00
 Coeff-Com:  0.100D+01
 Coeff:      0.100D+01
 Gap=     0.078 Goal=   None    Shift=    0.000
 RMSDP=6.49D-06 MaxDP=3.97D-04 DE=-7.20D-06 OVMax= 5.35D-04

 Cycle  11  Pass 1  IDiag  1:
 RMSU=  5.60D-05    CP:  1.00D+00
 E= -1496.29128752061     Delta-E=       -0.000000000855 Rises=F Damp=F
 DIIS: error= 6.43D-05 at cycle   2 NSaved=   2.
 NSaved= 2 IEnMin= 2 EnMin= -1496.29128752061     IErMin= 1 ErrMin= 5.07D-05
 ErrMax= 6.43D-05  0.00D+00 EMaxC= 1.00D-01 BMatC= 1.63D-06 BMatP= 1.64D-06
 IDIUse=1 WtCom= 1.00D+00 WtEn= 0.00D+00
 Coeff-Com:  0.498D+00 0.502D+00
 Coeff:      0.498D+00 0.502D+00
 Gap=     0.078 Goal=   None    Shift=    0.000
 RMSDP=5.66D-06 MaxDP=2.30D-04 DE=-8.55D-10 OVMax= 5.91D-04

 Cycle  12  Pass 1  IDiag  1:
 RMSU=  5.66D-06    CP:  1.00D+00  9.96D-01
 E= -1496.29128849753     Delta-E=       -0.000000976926 Rises=F Damp=F
 DIIS: error= 4.32D-05 at cycle   3 NSaved=   3.
 NSaved= 3 IEnMin= 3 EnMin= -1496.29128849753     IErMin= 3 ErrMin= 4.32D-05
 ErrMax= 4.32D-05  0.00D+00 EMaxC= 1.00D-01 BMatC= 6.89D-07 BMatP= 1.63D-06
 IDIUse=1 WtCom= 1.00D+00 WtEn= 0.00D+00
 Coeff-Com:  0.414D-01 0.387D+00 0.572D+00
 Coeff:      0.414D-01 0.387D+00 0.572D+00
 Gap=     0.078 Goal=   None    Shift=    0.000
 RMSDP=2.55D-06 MaxDP=1.16D-04 DE=-9.77D-07 OVMax= 3.14D-04

 Cycle  13  Pass 1  IDiag  1:
 RMSU=  1.28D-06    CP:  1.00D+00  1.00D+00  6.21D-01
 E= -1496.29128914639     Delta-E=       -0.000000648853 Rises=F Damp=F
 DIIS: error= 6.61D-06 at cycle   4 NSaved=   4.
 NSaved= 4 IEnMin= 4 EnMin= -1496.29128914639     IErMin= 4 ErrMin= 6.61D-06
 ErrMax= 6.61D-06  0.00D+00 EMaxC= 1.00D-01 BMatC= 6.08D-08 BMatP= 6.89D-07
 IDIUse=1 WtCom= 1.00D+00 WtEn= 0.00D+00
 Coeff-Com: -0.368D-03 0.226D+00 0.372D+00 0.402D+00
 Coeff:     -0.368D-03 0.226D+00 0.372D+00 0.402D+00
 Gap=     0.078 Goal=   None    Shift=    0.000
 RMSDP=8.42D-07 MaxDP=4.10D-05 DE=-6.49D-07 OVMax= 1.40D-04

 Cycle  14  Pass 1  IDiag  1:
 RMSU=  3.20D-07    CP:  1.00D+00  1.01D+00  6.41D-01  3.98D-01
 E= -1496.29128920871     Delta-E=       -0.000000062320 Rises=F Damp=F
 DIIS: error= 1.73D-06 at cycle   5 NSaved=   5.
 NSaved= 5 IEnMin= 5 EnMin= -1496.29128920871     IErMin= 5 ErrMin= 1.73D-06
 ErrMax= 1.73D-06  0.00D+00 EMaxC= 1.00D-01 BMatC= 3.65D-09 BMatP= 6.08D-08
 IDIUse=1 WtCom= 1.00D+00 WtEn= 0.00D+00
 Coeff-Com: -0.243D-02 0.137D+00 0.226D+00 0.271D+00 0.368D+00
 Coeff:     -0.243D-02 0.137D+00 0.226D+00 0.271D+00 0.368D+00
 Gap=     0.078 Goal=   None    Shift=    0.000
 RMSDP=2.03D-07 MaxDP=1.30D-05 DE=-6.23D-08 OVMax= 2.79D-05

 Cycle  15  Pass 1  IDiag  1:
 RMSU=  1.01D-07    CP:  1.00D+00  1.01D+00  6.35D-01  4.53D-01  5.10D-01
 E= -1496.29128921254     Delta-E=       -0.000000003831 Rises=F Damp=F
 DIIS: error= 5.13D-07 at cycle   6 NSaved=   6.
 NSaved= 6 IEnMin= 6 EnMin= -1496.29128921254     IErMin= 6 ErrMin= 5.13D-07
 ErrMax= 5.13D-07  0.00D+00 EMaxC= 1.00D-01 BMatC= 1.43D-10 BMatP= 3.65D-09
 IDIUse=1 WtCom= 1.00D+00 WtEn= 0.00D+00
 Coeff-Com: -0.150D-02 0.735D-01 0.121D+00 0.148D+00 0.231D+00 0.428D+00
 Coeff:     -0.150D-02 0.735D-01 0.121D+00 0.148D+00 0.231D+00 0.428D+00
 Gap=     0.078 Goal=   None    Shift=    0.000
 RMSDP=4.17D-08 MaxDP=1.96D-06 DE=-3.83D-09 OVMax= 4.25D-06

 Cycle  16  Pass 1  IDiag  1:
 RMSU=  3.36D-08    CP:  1.00D+00  1.01D+00  6.34D-01  4.44D-01  5.33D-01
                    CP:  7.99D-01
 E= -1496.29128921265     Delta-E=       -0.000000000116 Rises=F Damp=F
 DIIS: error= 1.89D-07 at cycle   7 NSaved=   7.
 NSaved= 7 IEnMin= 7 EnMin= -1496.29128921265     IErMin= 7 ErrMin= 1.89D-07
 ErrMax= 1.89D-07  0.00D+00 EMaxC= 1.00D-01 BMatC= 1.58D-11 BMatP= 1.43D-10
 IDIUse=1 WtCom= 1.00D+00 WtEn= 0.00D+00
 Coeff-Com: -0.570D-03 0.249D-01 0.407D-01 0.498D-01 0.819D-01 0.258D+00
 Coeff-Com:  0.545D+00
 Coeff:     -0.570D-03 0.249D-01 0.407D-01 0.498D-01 0.819D-01 0.258D+00
 Coeff:      0.545D+00
 Gap=     0.078 Goal=   None    Shift=    0.000
 RMSDP=1.46D-08 MaxDP=8.98D-07 DE=-1.16D-10 OVMax= 1.42D-06

 Cycle  17  Pass 1  IDiag  1:
 RMSU=  1.16D-08    CP:  1.00D+00  1.01D+00  6.34D-01  4.46D-01  5.43D-01
                    CP:  8.57D-01  8.46D-01
 E= -1496.29128921268     Delta-E=       -0.000000000028 Rises=F Damp=F
 DIIS: error= 6.84D-08 at cycle   8 NSaved=   8.
 NSaved= 8 IEnMin= 8 EnMin= -1496.29128921268     IErMin= 8 ErrMin= 6.84D-08
 ErrMax= 6.84D-08  0.00D+00 EMaxC= 1.00D-01 BMatC= 3.49D-12 BMatP= 1.58D-11
 IDIUse=1 WtCom= 1.00D+00 WtEn= 0.00D+00
 Coeff-Com: -0.292D-04-0.429D-03-0.971D-03-0.129D-02-0.155D-02 0.644D-01
 Coeff-Com:  0.352D+00 0.588D+00
 Coeff:     -0.292D-04-0.429D-03-0.971D-03-0.129D-02-0.155D-02 0.644D-01
 Coeff:      0.352D+00 0.588D+00
 Gap=     0.078 Goal=   None    Shift=    0.000
 RMSDP=7.17D-09 MaxDP=2.80D-07 DE=-2.82D-11 OVMax= 7.85D-07

 SCF Done:  E(RB3LYP) =  -1496.29128921     A.U. after   17 cycles
            NFock= 17  Conv=0.72D-08     -V/T= 2.0070
 KE= 1.485872034403D+03 PE=-7.894720786871D+03 EE= 2.706632197527D+03
 Leave Link  502 at Mon Oct 14 01:55:19 2019, MaxMem= 10737418240 cpu:             471.0 elap:              19.8
 (Enter /apps/cent7/gaussian/g16-A.03/g16-haswell/g16/l601.exe)
 Copying SCF densities to generalized density rwf, IOpCl= 0 IROHF=0.

 **********************************************************************

            Population analysis using the SCF density.

 **********************************************************************

 Orbital symmetries:
       Occupied  (A) (A) (A) (A) (A) (A) (A) (A) (A) (A) (A) (A)
                 (A) (A) (A) (A) (A) (A) (A) (A) (A) (A) (A) (A)
                 (A) (A) (A) (A) (A) (A) (A) (A) (A) (A) (A) (A)
                 (A) (A) (A) (A) (A) (A) (A) (A) (A) (A) (A) (A)
                 (A) (A) (A) (A) (A) (A) (A) (A) (A) (A) (A) (A)
                 (A) (A) (A) (A) (A) (A) (A) (A) (A) (A) (A) (A)
                 (A) (A) (A) (A) (A) (A) (A) (A) (A) (A) (A) (A)
                 (A) (A) (A) (A) (A) (A) (A) (A) (A)
       Virtual   (A) (A) (A) (A) (A) (A) (A) (A) (A) (A) (A) (A)
                 (A) (A) (A) (A) (A) (A) (A) (A) (A) (A) (A) (A)
                 (A) (A) (A) (A) (A) (A) (A) (A) (A) (A) (A) (A)
                 (A) (A) (A) (A) (A) (A) (A) (A) (A) (A) (A) (A)
                 (A) (A) (A) (A) (A) (A) (A) (A) (A) (A) (A) (A)
                 (A) (A) (A) (A) (A) (A) (A) (A) (A) (A) (A) (A)
                 (A) (A) (A) (A) (A) (A) (A) (A) (A) (A) (A) (A)
                 (A) (A) (A) (A) (A) (A) (A) (A) (A) (A) (A) (A)
                 (A) (A) (A) (A) (A) (A) (A) (A) (A) (A) (A) (A)
                 (A) (A) (A) (A) (A) (A) (A) (A) (A) (A) (A) (A)
                 (A) (A) (A) (A) (A) (A) (A) (A) (A) (A) (A) (A)
                 (A) (A) (A) (A) (A) (A) (A) (A) (A) (A) (A) (A)
                 (A) (A) (A) (A) (A) (A) (A) (A) (A) (A) (A) (A)
                 (A) (A) (A) (A) (A) (A) (A) (A) (A) (A) (A) (A)
                 (A) (A) (A) (A) (A) (A) (A) (A) (A) (A) (A) (A)
                 (A) (A) (A) (A) (A) (A) (A) (A) (A) (A) (A) (A)
                 (A) (A) (A) (A) (A) (A) (A) (A) (A) (A) (A) (A)
                 (A) (A) (A) (A) (A) (A) (A) (A) (A) (A) (A) (A)
                 (A) (A) (A) (A) (A) (A) (A) (A) (A) (A) (A) (A)
                 (A) (A) (A) (A) (A) (A) (A) (A) (A) (A) (A) (A)
                 (A) (A) (A) (A) (A) (A) (A) (A) (A) (A) (A) (A)
                 (A) (A) (A) (A) (A) (A) (A) (A) (A) (A) (A) (A)
                 (A) (A) (A) (A) (A) (A) (A) (A) (A) (A) (A) (A)
                 (A) (A) (A) (A) (A) (A) (A) (A) (A) (A) (A) (A)
                 (A) (A) (A) (A) (A) (A) (A) (A) (A) (A) (A) (A)
                 (A) (A) (A) (A) (A) (A) (A) (A) (A) (A) (A) (A)
                 (A) (A) (A) (A) (A) (A) (A) (A) (A) (A)
 The electronic state is 1-A.
 Alpha  occ. eigenvalues --  -89.20224 -24.79249 -19.39554 -19.25279 -19.20274
 Alpha  occ. eigenvalues --  -10.40285 -10.39411 -10.38919 -10.36009 -10.35925
 Alpha  occ. eigenvalues --  -10.35612 -10.34129 -10.33878 -10.33690 -10.30061
 Alpha  occ. eigenvalues --  -10.29079 -10.28969 -10.28365 -10.27831 -10.27642
 Alpha  occ. eigenvalues --  -10.27345 -10.27247 -10.26938 -10.26772 -10.26643
 Alpha  occ. eigenvalues --   -8.25168  -6.21808  -6.21326  -6.20712  -1.31826
 Alpha  occ. eigenvalues --   -1.27561  -1.16263  -1.06281  -1.03511  -1.01043
 Alpha  occ. eigenvalues --   -0.99069  -0.93319  -0.91776  -0.89666  -0.89033
 Alpha  occ. eigenvalues --   -0.86790  -0.84928  -0.83349  -0.82459  -0.77634
 Alpha  occ. eigenvalues --   -0.77011  -0.76305  -0.73416  -0.71466  -0.69489
 Alpha  occ. eigenvalues --   -0.68679  -0.67860  -0.66468  -0.64845  -0.64364
 Alpha  occ. eigenvalues --   -0.62302  -0.61736  -0.61175  -0.60279  -0.59998
 Alpha  occ. eigenvalues --   -0.58872  -0.57992  -0.57679  -0.56820  -0.56023
 Alpha  occ. eigenvalues --   -0.55224  -0.54907  -0.54523  -0.53994  -0.53219
 Alpha  occ. eigenvalues --   -0.52649  -0.51766  -0.51584  -0.50471  -0.50145
 Alpha  occ. eigenvalues --   -0.49717  -0.48961  -0.48109  -0.47759  -0.47163
 Alpha  occ. eigenvalues --   -0.46366  -0.45292  -0.44201  -0.42300  -0.41278
 Alpha  occ. eigenvalues --   -0.40849  -0.39923  -0.38762  -0.38323  -0.36690
 Alpha  occ. eigenvalues --   -0.33036  -0.31068  -0.28915
 Alpha virt. eigenvalues --   -0.21070  -0.19338  -0.15958  -0.14881  -0.12407
 Alpha virt. eigenvalues --   -0.11667  -0.09688  -0.09017  -0.07057  -0.05542
 Alpha virt. eigenvalues --   -0.03783  -0.02501  -0.02263  -0.01352  -0.00698
 Alpha virt. eigenvalues --   -0.00556   0.01203   0.01858   0.02339   0.02829
 Alpha virt. eigenvalues --    0.03992   0.04982   0.05615   0.07539   0.07914
 Alpha virt. eigenvalues --    0.08719   0.09889   0.10364   0.10527   0.11469
 Alpha virt. eigenvalues --    0.12097   0.13187   0.13716   0.13886   0.15710
 Alpha virt. eigenvalues --    0.16416   0.16824   0.17729   0.18210   0.19278
 Alpha virt. eigenvalues --    0.19575   0.19788   0.21457   0.23355   0.23461
 Alpha virt. eigenvalues --    0.24596   0.25388   0.26485   0.28446   0.30075
 Alpha virt. eigenvalues --    0.31489   0.32239   0.32645   0.35035   0.35987
 Alpha virt. eigenvalues --    0.37516   0.38012   0.38740   0.39769   0.40836
 Alpha virt. eigenvalues --    0.41304   0.41955   0.42474   0.43086   0.43658
 Alpha virt. eigenvalues --    0.44543   0.44864   0.45761   0.45910   0.45961
 Alpha virt. eigenvalues --    0.46659   0.47492   0.47609   0.47784   0.48507
 Alpha virt. eigenvalues --    0.49188   0.49849   0.50836   0.50971   0.52001
 Alpha virt. eigenvalues --    0.52281   0.52949   0.53628   0.54578   0.55098
 Alpha virt. eigenvalues --    0.55439   0.55732   0.56682   0.58231   0.59077
 Alpha virt. eigenvalues --    0.59882   0.60762   0.62515   0.62961   0.63780
 Alpha virt. eigenvalues --    0.65062   0.66282   0.66561   0.67384   0.67663
 Alpha virt. eigenvalues --    0.68517   0.69810   0.70138   0.70446   0.70944
 Alpha virt. eigenvalues --    0.71188   0.71865   0.72470   0.72607   0.73853
 Alpha virt. eigenvalues --    0.74320   0.74365   0.74995   0.75907   0.76245
 Alpha virt. eigenvalues --    0.76705   0.77373   0.78163   0.78645   0.79493
 Alpha virt. eigenvalues --    0.80209   0.80990   0.81089   0.82051   0.82496
 Alpha virt. eigenvalues --    0.83202   0.84506   0.85464   0.86095   0.87532
 Alpha virt. eigenvalues --    0.87685   0.88219   0.88874   0.89479   0.91253
 Alpha virt. eigenvalues --    0.92034   0.93025   0.94105   0.95474   0.96601
 Alpha virt. eigenvalues --    0.97765   0.98749   0.99645   1.01192   1.01893
 Alpha virt. eigenvalues --    1.02680   1.03177   1.03820   1.04494   1.06125
 Alpha virt. eigenvalues --    1.08061   1.09603   1.10208   1.12029   1.13133
 Alpha virt. eigenvalues --    1.13899   1.15298   1.16044   1.16441   1.17930
 Alpha virt. eigenvalues --    1.19263   1.22290   1.23278   1.24328   1.25243
 Alpha virt. eigenvalues --    1.27420   1.28166   1.28944   1.30840   1.31340
 Alpha virt. eigenvalues --    1.32546   1.33734   1.34207   1.34853   1.36022
 Alpha virt. eigenvalues --    1.36404   1.37466   1.39365   1.39722   1.39918
 Alpha virt. eigenvalues --    1.41903   1.43791   1.46409   1.49388   1.49742
 Alpha virt. eigenvalues --    1.51533   1.52227   1.54168   1.56760   1.57334
 Alpha virt. eigenvalues --    1.58838   1.61478   1.62082   1.63012   1.65252
 Alpha virt. eigenvalues --    1.66214   1.66941   1.68179   1.69564   1.70899
 Alpha virt. eigenvalues --    1.71254   1.71516   1.72135   1.73114   1.73926
 Alpha virt. eigenvalues --    1.74241   1.75026   1.75756   1.77002   1.77288
 Alpha virt. eigenvalues --    1.78867   1.79665   1.81387   1.82837   1.83910
 Alpha virt. eigenvalues --    1.84676   1.86724   1.87248   1.87686   1.89494
 Alpha virt. eigenvalues --    1.89673   1.89777   1.92025   1.92404   1.94213
 Alpha virt. eigenvalues --    1.94773   1.95059   1.95736   1.96421   1.98519
 Alpha virt. eigenvalues --    1.99026   2.00868   2.01528   2.03766   2.04516
 Alpha virt. eigenvalues --    2.05034   2.05468   2.06431   2.07901   2.09715
 Alpha virt. eigenvalues --    2.11602   2.12525   2.13135   2.14281   2.15168
 Alpha virt. eigenvalues --    2.15799   2.17676   2.19873   2.20378   2.21076
 Alpha virt. eigenvalues --    2.22393   2.24570   2.27724   2.30253   2.31088
 Alpha virt. eigenvalues --    2.32487   2.32940   2.34643   2.35279   2.37892
 Alpha virt. eigenvalues --    2.39159   2.39448   2.41653   2.44011   2.45749
 Alpha virt. eigenvalues --    2.46094   2.47143   2.48488   2.51613   2.53393
 Alpha virt. eigenvalues --    2.54338   2.55004   2.57253   2.57604   2.59574
 Alpha virt. eigenvalues --    2.59976   2.60521   2.63185   2.64914   2.67760
 Alpha virt. eigenvalues --    2.70616   2.76929   2.78222   2.80938   2.82240
 Alpha virt. eigenvalues --    2.85092   2.90349   2.94303   2.95791   3.00050
 Alpha virt. eigenvalues --    3.01324   3.05684   3.09095   3.21119   3.24834
 Alpha virt. eigenvalues --    3.32240   3.39119   3.58089   3.73861   3.74913
 Alpha virt. eigenvalues --    3.95032   3.97184   3.98492   3.99279   4.01284
 Alpha virt. eigenvalues --    4.02961   4.04482   4.05679   4.07056   4.09601
 Alpha virt. eigenvalues --    4.14887   4.19270   4.19711   4.21917   4.27243
 Alpha virt. eigenvalues --    4.27840   4.38119   4.47159   4.54844   4.69853
 Alpha virt. eigenvalues --    4.74509   5.46894
          Condensed to atoms (all electrons):
               1          2          3          4          5          6
     1  O    8.069013   0.524654  -0.090565  -0.079756   0.004627   0.000033
     2  C    0.524654   4.408877   0.305759   0.300176  -0.037424   0.000520
     3  O   -0.090565   0.305759   8.215807  -0.113313   0.012096   0.000150
     4  C   -0.079756   0.300176  -0.113313   5.622201   0.207523  -0.084984
     5  C    0.004627  -0.037424   0.012096   0.207523   5.310298   0.300729
     6  C    0.000033   0.000520   0.000150  -0.084984   0.300729   4.998487
     7  C   -0.000029   0.000270   0.000196  -0.018676  -0.136449   0.345913
     8  C   -0.000000  -0.000026   0.000007   0.000190   0.007267   0.027812
     9  F    0.000000  -0.000000   0.000000   0.000001  -0.000031   0.002819
    10  C    0.000000   0.000001  -0.000000   0.000018  -0.000525  -0.033022
    11  C   -0.000000  -0.000005   0.000001  -0.000283   0.022990  -0.074419
    12  C    0.000001  -0.000281  -0.000141   0.014743  -0.030184   0.387162
    13  C    0.000215  -0.002792   0.003485  -0.123885   0.410151   0.010195
    14  C   -0.000070  -0.000084  -0.001265  -0.012108  -0.112198   0.010875
    15  C   -0.000000   0.000167  -0.000040   0.012435   0.020281   0.017541
    16  C   -0.000000  -0.000000  -0.000002  -0.000145   0.025172   0.018649
    17  C    0.000000   0.000000   0.000000   0.000003  -0.000064  -0.000317
    18  C   -0.000000  -0.000000  -0.000000  -0.000000   0.000006  -0.000001
    19  C   -0.000000   0.000000  -0.000000   0.000000  -0.000000  -0.000000
    20  C   -0.000000   0.000000   0.000000   0.000000   0.000000   0.000000
    21  S    0.000000  -0.000000  -0.000000  -0.000000  -0.000000   0.000000
    22  C    0.000000  -0.000000  -0.000000  -0.000000  -0.000000  -0.000000
    23  O    0.000000   0.000000   0.000000  -0.000000  -0.000000   0.000000
    24  C    0.000000  -0.000000  -0.000000  -0.000000  -0.000001  -0.000001
    25  C    0.000000  -0.000000  -0.000000  -0.000000  -0.000038  -0.000175
    26  H    0.001359  -0.009299   0.236069   0.008562  -0.001170   0.000098
    27  H   -0.001979  -0.028746   0.002074   0.349308  -0.030978  -0.009680
    28  H   -0.003731  -0.025938   0.002120   0.360644  -0.033057   0.003765
    29  H    0.000008   0.000022  -0.000007   0.003138  -0.007961  -0.037827
    30  H    0.000000   0.000000  -0.000000  -0.000000   0.000002   0.000363
    31  H    0.000000  -0.000000   0.000000   0.000003  -0.000255   0.004482
[...]
 347,-0.00000259,-0.00000250,0.00000621,-0.00000082,0.00000046,-0.00000
 236,-0.00000082,-0.00007819,-0.00000547,-0.00000678,-0.00003567,0.0000
 3463,-0.00001602,-0.00022839,-0.00005980,0.00013226,-0.00366053,-0.006
 95661,0.00304263,-0.04615511,-0.05790680,0.06905998,-0.00000898,0.0000
 0476,-0.00000061,0.00002358,-0.00000591,-0.00000235,-0.00001119,0.0000
 0046,0.00000658,-0.00000776,0.00000822,-0.00000045,0.00000103,-0.00002
 136,-0.00000209,0.00000199,-0.00000635,0.00002199,-0.00000208,-0.00000
 066,-0.00003555,0.00000343,0.00000764,0.00003938,-0.00000215,0.0000118
 5,-0.00001834,-0.00000238,-0.00000784,0.00000516,0.00000544,0.00000405
 ,-0.00000103,0.00000866,0.00000659,-0.00001132,-0.00000483,0.00002932,
 -0.00000341,0.00000052,0.00000221,-0.00000233,-0.00001024,-0.00010342,
 0.00001676,-0.00001480,0.00014250,0.00004243,0.00003132,-0.00012891,-0
 .00007649,0.00008231,0.00022750,-0.00009880,0.00016145,-0.00044760,-0.
 00034278,0.00049202,0.00056313,-0.00046668,0.00022005,-0.00299275,-0.0
 0290424,-0.07093924,0.06669107,0.03739112,-0.00080235,0.00002129,-0.00
 004696,0.00004646,-0.00033641,0.00008807,-0.00012135,0.00011148,0.0000
 2766,0.00000212,-0.00000021,-0.00000149,0.00000053,0.00000072,0.000000
 78,0.00000072,0.00000042,0.00000073,-0.00000038,-0.00000098,-0.0000003
 5,-0.00000003,-0.00000064,-0.00000081,-0.00000328,-0.00000376,-0.00000
 295,-0.00000056,-0.00000125,0.00000064,0.00000033,-0.00000103,0.000000
 01,-0.00000009,0.00000092,0.00000048,0.00002409,0.00000702,0.00000488,
 0.00001244,-0.00002813,-0.00000734,-0.00000484,0.00001477,0.00000675,-
 0.00514641,0.02461085,0.01528639,0.00644455,-0.01603524,-0.01041799,0.
 06931903,-0.00003260,0.00002225,-0.00000563,0.00008628,-0.00002554,-0.
 00000157,-0.00003787,0.00000608,0.00002256,-0.00003066,0.00003017,-0.0
 0000448,0.00000238,-0.00005539,-0.00002632,0.00000259,-0.00002465,0.00
 009670,-0.00000492,0.00000028,-0.00014028,0.00001092,0.00002665,0.0001
 5172,-0.00000768,0.00005166,-0.00007793,-0.00000460,-0.00003279,0.0000
 2282,-0.00000165,0.00003846,-0.00001505,0.00001456,-0.00000336,-0.0000
 2009,-0.00000394,0.00006686,-0.00003384,-0.00000149,0.00001101,-0.0000
 0443,-0.00001868,-0.00028077,0.00008213,-0.00003957,0.00037267,0.00005
 548,0.00010315,-0.00032955,-0.00013895,-0.00026119,0.00032339,-0.00004
 294,0.00030385,0.00048677,-0.00019350,0.00053775,0.00006580,0.00286357
 ,-0.00204529,0.00667834,0.00332609,0.06698983,-0.25616396,-0.11027825,
 -0.00074170,0.00018553,0.00031242,-0.00020552,-0.00048715,0.00027067,-
 0.00020924,0.00025074,0.00004285,0.00000585,-0.00000424,-0.00000648,0.
 00000134,0.00000496,0.00000255,0.00000174,0.00000082,0.00000344,-0.000
 00175,-0.00000324,-0.00000184,-0.00000241,0.00000352,-0.00000708,0.000
 00960,-0.00000438,0.00001195,0.00000179,-0.00000430,-0.00000021,-0.000
 00056,-0.00000511,-0.00000095,-0.00000053,0.00000532,0.00000281,0.0000
 4786,0.00001189,0.00001691,-0.00002809,0.00005709,0.00002455,0.0000872
 3,-0.00002701,0.00004186,-0.00012497,-0.00362591,-0.00163538,0.0078958
 9,-0.01631190,-0.01082435,-0.07245135,0.26840371,0.00005143,-0.0000350
 4,0.00001046,-0.00013878,0.00004036,0.00000046,0.00006018,-0.00000926,
 -0.00003546,0.00005186,-0.00005102,0.00000787,-0.00000497,0.00009829,0
 .00003979,-0.00000360,0.00004206,-0.00016804,0.00000754,-0.00000014,0.
 00023834,-0.00001661,-0.00005069,-0.00025254,0.00001269,-0.00008202,0.
 00012712,0.00000263,0.00005727,-0.00003491,0.00000017,-0.00006411,0.00
 002104,-0.00002196,0.00000624,0.00003673,0.00000787,-0.00012776,0.0000
 5475,0.00000369,-0.00001902,0.00000962,0.00002065,0.00051378,-0.000153
 22,0.00006741,-0.00072780,-0.00008229,-0.00014933,0.00069690,0.0001309
 6,0.00064612,-0.00058094,-0.00005657,-0.00139154,-0.00133647,-0.000132
 90,0.00107177,0.00165820,-0.00640393,0.00781049,-0.02334154,-0.0170680
 1,0.03475882,-0.10984053,-0.10241842,0.00014591,0.00056264,0.00170044,
 0.00040408,0.00139125,0.00009891,0.00035251,-0.00029576,-0.00033310,-0
 .00000883,0.00000639,0.00000994,-0.00000231,-0.00000864,-0.00000482,-0
 .00000305,-0.00000178,-0.00000557,0.00000329,0.00000512,0.00000272,0.0
 0000412,-0.00000625,0.00001187,-0.00001149,0.00001029,-0.00001667,-0.0
 0000242,0.00000715,0.00000012,-0.00000021,0.00000863,0.00000053,0.0000
 0065,-0.00000800,-0.00000470,-0.00006373,-0.00001100,-0.00002478,0.000
 12426,-0.00015316,0.00001795,-0.00015928,0.00003488,-0.00012503,-0.001
 11346,0.00749550,0.00530422,-0.00358898,0.00790072,0.00612849,-0.03861
 743,0.11607248,0.11312583,-0.00002274,0.00001340,-0.00000749,0.0000570
 4,-0.00001374,0.00000150,-0.00002379,0.00000189,0.00001170,-0.00003186
 ,0.00002046,-0.00000220,0.00000396,-0.00003833,-0.00003284,-0.00000733
 ,-0.00009256,0.00007012,-0.00000571,0.00000047,-0.00021990,0.00000966,
 0.00012344,0.00021158,-0.00000129,0.00003221,-0.00008200,-0.00001802,-
 0.00010882,0.00004756,-0.00008284,0.00024407,-0.00000005,-0.00008876,0
 .00002177,-0.00017038,0.00005945,0.00002440,-0.00003226,0.00000242,0.0
 0000799,-0.00000507,0.00008971,-0.00034023,0.00028407,-0.00042790,0.00
 047298,0.00008408,0.00598915,0.00017307,0.00311050,-0.00019773,0.00017
 292,-0.00068024,0.00307088,-0.00206967,0.00170606,-0.00401285,0.000547
 81,0.00570346,-0.00109154,0.00034874,-0.00022646,-0.00008248,0.0002069
 9,0.00026284,-0.00033474,0.00017140,0.00007996,-0.15946755,-0.01719706
 ,0.15135941,-0.00134719,-0.00107275,0.00723676,0.00000383,-0.00000110,
 -0.00000239,0.00000254,0.00000142,0.00000102,0.00000277,-0.00000018,-0
 .00000051,0.00000512,-0.00000324,-0.00000381,-0.00001726,0.00002327,-0
 .00001945,-0.00000156,0.00002100,0.00005678,-0.00000039,-0.00000482,-0
 .00000446,0.00000036,0.00000170,-0.00000126,0.00000219,0.00000183,0.00
 000248,-0.00025753,0.00006549,-0.00002071,-0.00061651,0.00005053,-0.00
 038679,0.00056172,0.00006987,0.00080849,-0.00009705,-0.00020750,-0.000
 02509,0.00063694,-0.00030626,-0.00061288,0.00016386,0.00032501,-0.0002
 9210,0.15996950,0.00001237,-0.00001262,0.00001724,-0.00003382,0.000014
 47,-0.00002033,0.00000846,-0.00000550,0.00000022,0.00002181,-0.0000194
 9,0.00000895,0.00000150,-0.00000086,0.00001161,0.00000782,0.00001127,-
 0.00007166,-0.00000251,0.00000151,0.00011987,0.00000854,-0.00006647,-0
 .00010697,0.00000047,-0.00002128,0.00005130,-0.00003699,0.00003473,0.0
 0001195,-0.00002573,-0.00008014,0.00002080,0.00003716,0.00004457,-0.00
 000066,-0.00004014,-0.00001330,0.00005924,0.00001323,-0.00002000,-0.00
 000683,-0.00007847,0.00011118,-0.00015009,0.00065013,0.00063327,-0.000
 73799,0.00001261,-0.00441587,-0.00231731,0.00017642,-0.00051535,-0.000
 16285,-0.00139396,-0.00558524,-0.00009479,-0.01738868,0.00121728,0.022
 22947,-0.00165224,0.00103363,0.00182383,0.00000826,-0.00039245,0.00010
 120,0.00060574,-0.00006109,-0.00046005,-0.01705709,-0.06074540,0.01620
 169,0.01801561,0.00629886,-0.02161855,-0.00000015,0.00000256,0.0000009
 9,-0.00000081,-0.00000853,-0.00000332,-0.00000125,0.00000145,0.0000008
 4,0.00000302,-0.00000036,0.00000143,0.00002985,-0.00001263,0.00001888,
 0.00005798,0.00003422,-0.00004975,-0.00001622,0.00000054,0.00001182,0.
 00000803,0.00000548,0.00000704,-0.00000314,-0.00000828,-0.00000014,0.0
 0011752,-0.00027259,-0.00019925,0.00009169,0.00013839,0.00004348,-0.00
 081000,0.00016540,0.00119115,0.00005868,0.00012806,-0.00001756,-0.0001
 2449,-0.00060239,-0.00131242,0.00016951,0.00014732,-0.00013878,0.01801
 302,0.06184883,0.00000042,-0.00000340,0.00000771,-0.00000064,0.0000060
 0,-0.00001315,-0.00000264,-0.00000455,0.00000378,-0.00000681,-0.000003
 10,0.00000907,0.00000378,-0.00004577,-0.00000143,0.00000652,-0.0000632
 7,-0.00001158,-0.00000379,-0.00000013,-0.00008155,0.00000726,0.0000547
 0,0.00008551,0.00000507,0.00000879,-0.00002303,-0.00003823,-0.00003675
 ,0.00004906,-0.00004669,0.00006368,-0.00000834,-0.00004689,0.00009003,
 -0.00015875,0.00002196,0.00003701,0.00004029,0.00001467,-0.00001438,-0
 .00001207,0.00002018,-0.00023979,0.00010695,0.00000492,0.00103147,-0.0
 0049107,0.00437628,-0.00343471,0.00267241,-0.00060636,-0.00057913,-0.0
 0007320,0.00195866,0.00122785,0.00272547,0.00365417,0.00158282,-0.0036
 4834,0.00042185,-0.00043281,-0.00164591,-0.00011774,-0.00061595,-0.000
 14234,-0.00116253,-0.00010467,0.00016092,0.14974708,0.01453200,-0.2177
 4343,0.01014768,0.00264726,-0.00704828,0.00000118,0.00000205,0.0000003
 6,0.00000150,-0.00000673,-0.00000214,0.00000169,0.00000114,-0.00000072
 ,0.00000379,-0.00000272,-0.00000060,-0.00000576,0.00000282,-0.00000145
 ,0.00003719,0.00003373,-0.00000340,-0.00001559,-0.00000259,0.00000626,
 0.00000819,0.00000607,0.00000389,-0.00000132,-0.00000686,0.00000098,-0
 .00007352,-0.00018050,-0.00014767,-0.00047876,0.00005479,-0.00038826,0
 .00071406,-0.00023019,0.00029353,-0.00003691,0.00001208,0.00001601,-0.
 00025146,-0.00091434,-0.00021489,0.00006741,-0.00000360,0.00005614,-0.
 16549366,-0.01497056,0.22671044,-0.00000739,0.00000312,-0.00009322,0.0
 0002272,-0.00002664,0.00012408,0.00001437,0.00000866,-0.00004550,-0.00
 008606,0.00005481,-0.00005998,0.00001671,-0.00006888,0.00001260,0.0000
 7779,0.00047424,0.00029032,-0.00001375,-0.00021054,0.00000819,-0.00001
 694,0.00006303,-0.00019425,-0.00000362,-0.00023538,0.00018835,0.000069
 28,0.00007536,-0.00042120,-0.00017333,0.00060232,-0.00035526,-0.000076
 59,-0.00015917,0.00043143,0.00018682,0.00029244,-0.00018697,-0.0000034
 5,-0.00002947,-0.00002766,-0.00049097,-0.00049273,0.00097723,-0.001872
 85,0.00152917,-0.00183023,-0.00207339,-0.01886448,0.00393768,0.0014264
 0,0.00081008,0.00519185,-0.00061435,0.00035175,0.00015018,0.00442424,0
 .00142063,0.00434207,0.00081741,0.00091334,0.00018228,0.00009940,0.000
 17000,-0.00012425,-0.00036813,-0.00036464,-0.00007165,0.00662560,0.009
 60864,-0.00212360,-0.08615906,-0.09785803,0.04109635,-0.00000983,0.000
 00479,0.00001472,0.00001979,0.00000387,0.00001908,0.00001570,-0.000014
 40,-0.00002048,-0.00002192,-0.00000521,0.00002593,0.00003173,-0.000000
 56,0.00002668,-0.00159806,0.00049064,-0.00084092,-0.00000086,0.0000014
 6,-0.00001879,-0.00000097,0.00000965,-0.00003527,0.00000060,-0.0000007
 3,-0.00002307,0.00029603,-0.00008243,-0.00007578,-0.00018690,-0.000938
 80,0.00023558,-0.00055774,0.00000279,-0.00047068,-0.00001082,-0.000023
 07,0.00001039,-0.00002361,-0.00003956,-0.00002906,-0.00001208,-0.00003
 295,0.00004705,-0.00240136,0.00041714,-0.00282730,0.08254209,0.0000033
 0,-0.00000439,0.00003907,-0.00001733,0.00000727,-0.00005718,-0.0000041
 3,-0.00000453,0.00001703,0.00006573,-0.00003154,0.00001767,-0.00000365
 ,0.00002185,0.00002257,-0.00004764,-0.00022252,-0.00023805,-0.00000051
 ,-0.00002289,-0.00000771,-0.00001200,-0.00009139,0.00016725,-0.0000346
 0,0.00006008,-0.00010521,0.00014368,-0.00028612,-0.00000426,0.00158854
 ,-0.00017134,0.00156333,0.00019289,-0.00046407,-0.00051195,-0.00010414
 ,-0.00013560,0.00003341,-0.00000694,-0.00000144,0.00000627,0.00031310,
 0.00059992,-0.00021464,0.00068099,-0.00041781,-0.00012153,0.00020002,0
 .00413263,-0.00006840,0.00005637,0.00076371,-0.00083064,0.00021530,0.0
 0055838,-0.00021586,0.00126075,-0.00147399,-0.00327561,-0.00052822,-0.
 00100270,0.00011956,0.00000693,-0.00002275,0.00010688,0.00024299,0.000
 16451,0.00006757,-0.00917374,-0.01890111,0.00745431,-0.09828615,-0.287
 23046,0.07041160,0.00000461,0.00000011,-0.00000469,-0.00000608,-0.0000
 0471,-0.00000992,-0.00000695,0.00000348,0.00000654,0.00000676,0.000001
 03,-0.00001237,0.00001502,0.00003452,-0.00002212,0.00073864,-0.0010068
 4,0.00014292,0.00000234,0.00000341,0.00001054,0.00000379,-0.00000385,0
 .00001281,0.00000229,0.00000072,0.00000888,-0.00008948,0.00004056,0.00
 003836,0.00007450,0.00021545,-0.00018485,0.00005822,-0.00002894,0.0001
 0535,0.00000776,-0.00000632,-0.00001106,-0.00000126,-0.00000116,-0.000
 01909,-0.00000158,0.00002947,-0.00002618,0.00036116,0.00091775,0.00048
 987,0.10212956,0.30399896,-0.00004574,0.00002940,-0.00005244,0.0001074
 1,-0.00004226,0.00005514,-0.00003706,0.00001191,0.00000134,-0.00004704
 ,0.00002755,-0.00002503,0.00003376,0.00001660,0.00019007,-0.00012872,-
 0.00011227,-0.00001244,-0.00000203,-0.00007481,-0.00000427,0.00001412,
 -0.00006594,-0.00008139,-0.00002166,0.00002466,-0.00005097,0.00010326,
 0.00036370,-0.00028376,-0.00031942,0.00002513,-0.00004715,0.00003040,-
 0.00041087,0.00073671,0.00002712,0.00003759,-0.00010409,0.00000860,0.0
 0004848,0.00000047,0.00011437,-0.00017909,-0.00012102,-0.00224725,0.00
 167102,-0.00016850,0.00945265,0.02232490,-0.00416620,0.00559814,-0.001
 02853,-0.00176623,0.00007518,-0.00049343,-0.00080361,0.00440985,-0.002
 59651,0.00196783,0.00001179,-0.00131264,0.00017917,0.00010567,0.000203
 53,0.00003272,-0.00002781,-0.00001063,0.00000821,-0.00576791,-0.016546
 80,0.00805435,0.04052637,0.07042526,-0.07429134,0.00000270,-0.00000116
 ,-0.00000051,0.00000947,0.00001336,0.00001169,0.00000735,-0.00000320,-
 0.00000539,0.00000433,0.00001163,-0.00000550,-0.00004500,0.00003085,-0
 .00003497,-0.00125734,0.00075757,-0.00006968,-0.00001300,-0.00000327,-
 0.00000343,0.00000117,0.00000199,-0.00003475,-0.00000300,-0.00000095,0
 .00001079,-0.00005845,-0.00007044,0.00002523,0.00021492,0.00124946,-0.
 00023841,-0.00053327,0.00011793,-0.00024519,-0.00000069,-0.00001053,-0
 .00000658,-0.00003938,-0.00005044,-0.00007839,-0.00001116,0.00000283,0
 .00003283,-0.00275342,0.00043182,-0.00118787,-0.04750463,-0.07482871,0
 .07259667,0.00007201,-0.00005599,0.00000412,-0.00019501,0.00005837,0.0
 0001264,0.00008444,-0.00001852,-0.00005782,0.00007120,-0.00006621,0.00
 000567,-0.00000640,0.00013575,0.00004354,-0.00000424,0.00005520,-0.000
 18991,0.00000441,-0.00001190,0.00028095,-0.00002589,-0.00000289,-0.000
 33724,0.00001762,-0.00014395,0.00018786,0.00001079,0.00003520,-0.00006
 670,0.00001658,-0.00001580,0.00004879,-0.00001275,-0.00002683,0.000039
 61,0.00000407,-0.00017237,0.00006703,0.00001132,-0.00002795,0.00001031
 ,0.00003254,0.00058439,-0.00014107,0.00015831,-0.00072194,-0.00008731,
 -0.00041323,0.00046948,0.00048721,-0.00004039,-0.00033410,0.00009432,-
 0.00018395,0.00021384,0.00036407,-0.00123551,-0.00103064,0.00093433,-0
 .01556585,0.02335312,-0.02772140,-0.00775499,-0.00082544,-0.00107346,-
 0.06334559,0.05355734,-0.06549127,-0.00009448,0.00051011,-0.00043267,0
 .00030730,-0.00040660,-0.00038036,-0.00001201,0.00001548,0.00001888,-0
 .00000095,-0.00001170,-0.00000229,-0.00000137,-0.00000236,-0.00001106,
 0.00000535,0.00000750,0.00000435,0.00000480,0.00000672,0.00000786,-0.0
 0003556,-0.00001041,-0.00002323,-0.00000807,0.00001004,0.00000150,0.00
 000004,0.00001706,-0.00000090,0.00000107,-0.00001526,-0.00000842,-0.00
 007466,-0.00002460,-0.00003422,0.00004668,-0.00001188,-0.00000423,-0.0
 0012743,-0.00001618,0.00010878,0.00059240,0.00012224,-0.00198062,0.000
 09185,0.00016220,0.00088438,0.00004908,-0.00013842,-0.00006508,0.00000
 487,0.00011913,-0.00000891,0.00009734,-0.00005085,0.00000537,0.0874542
 5,-0.00007377,0.00005078,-0.00000403,0.00018944,-0.00005644,-0.0000156
 8,-0.00008606,0.00001523,0.00005512,-0.00006131,0.00005740,-0.00000437
 ,0.00000233,-0.00010145,-0.00004806,0.00000458,-0.00003837,0.00016139,
 -0.00000738,0.00000829,-0.00021355,0.00002648,-0.00001757,0.00026231,-
 0.00001853,0.00012027,-0.00015416,-0.00001062,-0.00001943,0.00004637,-
 0.00001156,0.00000894,-0.00003287,0.00001006,0.00001072,-0.00001379,-0
 .00000060,0.00011726,-0.00005243,0.00000268,0.00001993,-0.00000400,-0.
 00002544,-0.00043296,0.00010681,-0.00015273,0.00054233,0.00004891,0.00
 032719,-0.00042285,-0.00038310,-0.00000306,0.00023504,-0.00005415,0.00
 030240,0.00004568,-0.00035960,0.00042011,-0.00005981,0.00083768,-0.000
 76753,0.00008240,-0.00411906,-0.00347373,0.00122984,0.00006814,0.07914
 083,-0.16689254,0.21830110,-0.00007303,-0.00081394,-0.00009308,-0.0002
 9337,0.00018767,0.00041325,0.00001421,-0.00001124,-0.00001711,0.000002
 22,0.00000763,0.00000287,0.00000287,0.00000093,0.00000753,-0.00000006,
 -0.00000617,-0.00000344,0.00000145,-0.00000605,-0.00000559,0.00002640,
 0.00000324,0.00001521,0.00000353,-0.00000989,-0.00000206,-0.00000245,-
 0.00001049,-0.00000544,-0.00000119,0.00001378,0.00000591,0.00007009,0.
 00001567,0.00002375,-0.00002982,0.00002140,0.00000404,0.00004665,0.000
 05425,-0.00003341,-0.00009288,0.00051873,-0.00134869,-0.00000518,0.000
 09395,-0.00023000,-0.00006089,0.00010848,0.00030777,-0.00006207,0.0000
 6905,0.00001233,0.00001017,-0.00001731,0.00001531,-0.07529040,0.165277
 60,0.00003500,-0.00002330,-0.00000596,-0.00010426,0.00002146,0.0000186
 7,0.00004870,-0.00000599,-0.00003801,0.00004096,-0.00003645,0.00000496
 ,-0.00000450,0.00006767,0.00002728,-0.00000480,0.00002917,-0.00011621,
 0.00000412,-0.00000946,0.00014815,-0.00001217,-0.00001095,-0.00016489,
 0.00000855,-0.00006791,0.00008707,0.00000406,0.00002468,-0.00003410,0.
 00000170,-0.00000250,0.00003318,-0.00002017,-0.00001093,-0.00000449,-0
 .00000499,-0.00009479,0.00005124,0.00001118,-0.00002052,0.00000923,0.0
 0004931,0.00033202,-0.00007854,0.00010712,-0.00046323,-0.00007285,-0.0
 0008557,0.00038240,0.00024339,-0.00003643,-0.00035878,-0.00036546,-0.0
 0013645,-0.00059914,0.00072144,0.00191119,-0.00128409,0.00030484,0.006
 37700,-0.00243865,0.00161821,-0.00140279,0.00047615,0.00016933,-0.1016
 9645,0.21780953,-0.28785688,0.00010050,0.00025631,-0.00067853,-0.00000
 773,-0.00025993,-0.00027172,-0.00000626,0.00000691,0.00001143,-0.00000
 016,-0.00000611,-0.00000172,-0.00000071,-0.00000344,-0.00000758,0.0000
 0302,0.00000367,0.00000343,0.00000145,0.00000459,0.00000312,-0.0000121
 3,-0.00000248,-0.00000732,-0.00000068,0.00000561,-0.00000051,-0.000005
 37,0.00000825,-0.00000496,-0.00000022,-0.00000743,-0.00000626,-0.00004
 106,-0.00003217,-0.00002242,0.00000811,-0.00008842,-0.00006704,0.00020
 516,0.00010212,0.00015558,-0.00004694,0.00000556,-0.00011097,0.0000356
 2,-0.00025131,0.00024110,0.00006573,0.00003677,0.00015384,0.00003706,0
 .00007504,0.00010069,0.00006773,-0.00007177,-0.00001412,0.09450656,-0.
 21349816,0.28582433\\0.00000059,0.00000158,-0.00000099,-0.00000496,-0.
 00000536,0.00001048,0.00000593,0.00000239,-0.00000971,-0.00000039,0.00
 000587,0.00000463,-0.00000162,-0.00000320,-0.00001069,0.00000632,0.000
 00144,0.00000246,-0.00000157,-0.00000219,-0.00000222,0.00000226,-0.000
 00383,0.00000137,0.00000025,0.00000269,-0.00000149,0.00000035,0.000001
 95,-0.00000095,-0.00000139,-0.00000088,0.00000151,0.00000302,-0.000001
 68,0.00000348,-0.00000100,-0.00000197,0.00000480,-0.00000287,-0.000002
 78,-0.00000262,-0.00000062,0.00000753,-0.00000066,0.00000026,-0.000006
 32,-0.00000354,0.00000138,0.00000523,0.00000071,0.00000104,-0.00000325
 ,0.00000045,-0.00000198,0.00000299,0.00000199,0.00000087,-0.00000564,-
 0.00000217,-0.00001216,0.00000200,0.00000282,0.00000147,0.00000131,-0.
 00000118,0.00001182,0.00000051,-0.00000095,-0.00000017,0.00000107,0.00
 000099,-0.00000022,-0.00000079,-0.00000100,-0.00000193,0.00000198,0.00
 000105,-0.00000316,0.00000014,-0.00000323,0.00000166,-0.00000282,-0.00
 000053,0.00000050,0.00000069,0.00000148,0.00000100,0.00000005,0.000000
 14,0.00000049,-0.00000017,0.00000095,-0.00000097,0.00000229,0.00000010
 ,-0.00000033,0.00000077,-0.00000051,-0.00000047,0.00000049,0.00000167,
 -0.00000253,-0.00000059,-0.00000101,-0.00000051,0.00000023,-0.00000036
 ,-0.00000044,-0.00000023,-0.00000038,0.00000016,-0.00000007,0.00000116
 ,0.00000056,-0.00000056,0.00000006,0.00000071,-0.00000045,0.00000066,0
 .00000019,0.00000016,0.00000071,0.00000007,-0.00000028,-0.00000005,-0.
 00000160,-0.00000029,0.00000059\\\@


 IN-LAWS ARE LIKE SEEDS. YOU DON'T NEED THEM
 BUT THEY COME WITH THE TOMATO.
 Job cpu time:       0 days  1 hours 45 minutes 28.7 seconds.
 Elapsed time:       0 days  0 hours  4 minutes 25.0 seconds.
 File lengths (MBytes):  RWF=    868 Int=      0 D2E=      0 Chk=     16 Scr=      1
 Normal termination of Gaussian 16 at Mon Oct 14 02:15:27 2019.
real 1229.62
user 28857.47
sys 80.85
Machine:
brown-a493
brown-a493
brown-a493
brown-a493
brown-a493
brown-a493
brown-a493
brown-a493
brown-a493
brown-a493
brown-a493
brown-a493
brown-a493
brown-a493
brown-a493
brown-a493
brown-a493
brown-a493
brown-a493
brown-a493
brown-a493
brown-a493
brown-a493
brown-a493
