 Entering Gaussian System, Link 0=/apps/cent7/gaussian/g16-A.03/g16-haswell/g16/g16
 Initial command:
 /apps/cent7/gaussian/g16-A.03/g16-haswell/g16/l1.exe "/scratch/brown/finej/gaussian/Gau-447838.inp" -scrdir="/scratch/brown/finej/gaussian/"
 Entering Link 1 = /apps/cent7/gaussian/g16-A.03/g16-haswell/g16/l1.exe PID=    447839.
  
 Copyright (c) 1988,1990,1992,1993,1995,1998,2003,2009,2016,
            Gaussian, Inc.  All Rights Reserved.
  
 This is part of the Gaussian(R) 16 program.  It is based on
 the Gaussian(R) 09 system (copyright 2009, Gaussian, Inc.),
 the Gaussian(R) 03 system (copyright 2003, Gaussian, Inc.),
 the Gaussian(R) 98 system (copyright 1998, Gaussian, Inc.),
 the Gaussian(R) 94 system (copyright 1995, Gaussian, Inc.),
 the Gaussian 92(TM) system (copyright 1992, Gaussian, Inc.),
 the Gaussian 90(TM) system (copyright 1990, Gaussian, Inc.),
 the Gaussian 88(TM) system (copyright 1988, Gaussian, Inc.),
 the Gaussian 86(TM) system (copyright 1986, Carnegie Mellon
 University), and the Gaussian 82(TM) system (copyright 1983,
 Carnegie Mellon University). Gaussian is a federally registered
 trademark of Gaussian, Inc.
  
 This software contains proprietary and confidential information,
 including trade secrets, belonging to Gaussian, Inc.
  
 This software is provided under written license and may be
 used, copied, transmitted, or stored only in accord with that
 written license.
  
 The following legend is applicable only to US Government
 contracts under FAR:
  
                    RESTRICTED RIGHTS LEGEND
  
 Use, reproduction and disclosure by the US Government is
 subject to restrictions as set forth in subparagraphs (a)
 and (c) of the Commercial Computer Software - Restricted
 Rights clause in FAR 52.227-19.
  
 Gaussian, Inc.
 340 Quinnipiac St., Bldg. 40, Wallingford CT 06492
  
  
 ---------------------------------------------------------------
 Warning -- This program may not be used in any manner that
 competes with the business of Gaussian, Inc. or will provide
 assistance to any competitor of Gaussian, Inc.  The licensee
 of this program is prohibited from giving any competitor of
 Gaussian, Inc. access to this program.  By using this program,
 the user acknowledges that Gaussian, Inc. is engaged in the
 business of creating and licensing software in the field of
 computational chemistry and represents and warrants to the
 licensee that it is not a competitor of Gaussian, Inc. and that
 it will not use this program in any manner prohibited above.
 ---------------------------------------------------------------
  

 Cite this work as:
 Gaussian 16, Revision A.03,
 M. J. Frisch, G. W. Trucks, H. B. Schlegel, G. E. Scuseria, 
 M. A. Robb, J. R. Cheeseman, G. Scalmani, V. Barone, 
 G. A. Petersson, H. Nakatsuji, X. Li, M. Caricato, A. V. Marenich, 
 J. Bloino, B. G. Janesko, R. Gomperts, B. Mennucci, H. P. Hratchian, 
 J. V. Ortiz, A. F. Izmaylov, J. L. Sonnenberg, D. Williams-Young, 
 F. Ding, F. Lipparini, F. Egidi, J. Goings, B. Peng, A. Petrone, 
 T. Henderson, D. Ranasinghe, V. G. Zakrzewski, J. Gao, N. Rega, 
 G. Zheng, W. Liang, M. Hada, M. Ehara, K. Toyota, R. Fukuda, 
 J. Hasegawa, M. Ishida, T. Nakajima, Y. Honda, O. Kitao, H. Nakai, 
 T. Vreven, K. Throssell, J. A. Montgomery, Jr., J. E. Peralta, 
 F. Ogliaro, M. J. Bearpark, J. J. Heyd, E. N. Brothers, K. N. Kudin, 
 V. N. Staroverov, T. A. Keith, R. Kobayashi, J. Normand, 
 K. Raghavachari, A. P. Rendell, J. C. Burant, S. S. Iyengar, 
 J. Tomasi, M. Cossi, J. M. Millam, M. Klene, C. Adamo, R. Cammi, 
 J. W. Ochterski, R. L. Martin, K. Morokuma, O. Farkas, 
 J. B. Foresman, and D. J. Fox, Gaussian, Inc., Wallingford CT, 2016.
 
 ******************************************
 Gaussian 16:  ES64L-G16RevA.03 25-Dec-2016
                14-Oct-2019 
 ******************************************
 %chk=36.chk
 %nprocshared=24
 Will use up to   24 processors via shared memory.
 %mem=80GB
 --------------------------------------------------------------
 #P opt freq b3lyp/6-31g(d) geom=connectivity temperature=0.001
 --------------------------------------------------------------
 1/18=20,19=15,26=3,38=1,57=2,112=-1000/1,3;
 2/9=110,12=2,17=6,18=5,40=1/2;
 3/5=1,6=6,7=1,11=2,25=1,30=1,71=1,74=-5/1,2,3;
 4//1;
 5/5=2,38=5/2;
 6/7=2,8=2,9=2,10=2,28=1/1;
 7//1,2,3,16;
 1/18=20,19=15,26=3/3(2);
 2/9=110/2;
 99//99;
 2/9=110/2;
 3/5=1,6=6,7=1,11=2,25=1,30=1,71=1,74=-5/1,2,3;
 4/5=5,16=3,69=1/1;
 5/5=2,38=5/2;
 7//1,2,3,16;
 1/18=20,19=15,26=3/3(-5);
 2/9=110/2;
 6/7=2,8=2,9=2,10=2,19=2,28=1/1;
 99/9=1/99;
 Leave Link    1 at Mon Oct 14 01:57:39 2019, MaxMem= 10737418240 cpu:               1.5 elap:               0.1
 (Enter /apps/cent7/gaussian/g16-A.03/g16-haswell/g16/l101.exe)
 -------------------
 Title Card Required
 -------------------
 Symbolic Z-matrix:
 Charge =  0 Multiplicity = 1
 O                    -3.4512    3.7224   -10.3097 
 S                    -3.6228    5.1285   -9.5563 
 C                    -5.3523    5.1564   -8.9642 
 C                    -2.6134    5.0071   -8.0324 
 C                    -1.1071    4.9157   -8.3583 
 C                    -0.2241    4.8424   -7.0857 
 C                     1.2828    4.7484   -7.4373 
 C                     2.1913    4.6813   -6.1828 
 C                     3.6989    4.5903   -6.5437 
 C                     4.6062    4.5253   -5.2855 
 C                     6.1166    4.4342   -5.6359 
 C                     7.0299    4.3683   -4.3794 
 C                     8.5389    4.2771   -4.7426 
 C                     9.4638    4.2106   -3.4964 
 C                     10.9635   4.12     -3.8615 
 H                    -5.3633    5.1566   -7.8743 
 H                    -5.848     6.0546   -9.3327 
 H                    -5.8768    4.2748   -9.3327 
 H                    -2.6907    5.9398   -7.4736 
 H                    -2.8189    4.0574   -7.5386 
 H                    -0.9689    3.968    -8.8787 
 H                    -0.8492    5.852    -8.8533 
 H                    -0.358     5.7908   -6.5654 
 H                    -0.481     3.9071   -6.5885 
 H                     1.4127    3.7978   -7.9546 
 H                     1.5334    5.6818   -7.9413 
 H                     2.0606    5.631    -5.6641 
 H                     1.9431    3.7468   -5.6796 
 H                     3.8298    3.6399   -7.0611 
 H                     3.9467    5.5241   -7.0482 
 H                     4.4733    5.4758   -4.7687 
 H                     4.3566    3.5915   -4.7817 
 H                     6.248     3.484    -6.1537 
 H                     6.3649    5.3683   -6.1398 
 H                     6.9003    5.3184   -3.8611 
 H                     6.7832    3.4341   -3.8748 
 H                     8.6663    3.3272   -5.2617 
 H                     8.7834    5.2114   -5.2481 
 H                     9.3393    5.1604   -2.9763 
 H                     9.2222    3.2761   -2.99 
 H                     11.5581   4.0841   -2.9487 
 H                     11.1411   3.2177   -4.4466 
 H                     11.2484   4.9944   -4.4466 
 
 ITRead=  0  0  0  0  0  0  0  0  0  0  0  0  0  0  0  0  0  0  0  0
 ITRead=  0  0  0  0  0  0  0  0  0  0  0  0  0  0  0  0  0  0  0  0
 ITRead=  0  0  0
 MicOpt= -1 -1 -1 -1 -1 -1 -1 -1 -1 -1 -1 -1 -1 -1 -1 -1 -1 -1 -1 -1
 MicOpt= -1 -1 -1 -1 -1 -1 -1 -1 -1 -1 -1 -1 -1 -1 -1 -1 -1 -1 -1 -1
 MicOpt= -1 -1 -1
 NAtoms=     43 NQM=       43 NQMF=       0 NMMI=      0 NMMIF=      0
                NMic=       0 NMicF=      0.
                    Isotopes and Nuclear Properties:
 (Nuclear quadrupole moments (NQMom) in fm**2, nuclear magnetic moments (NMagM)
  in nuclear magnetons)

  Atom         1           2           3           4           5           6           7           8           9          10
 IAtWgt=          16          32          12          12          12          12          12          12          12          12
 AtmWgt=  15.9949146  31.9720718  12.0000000  12.0000000  12.0000000  12.0000000  12.0000000  12.0000000  12.0000000  12.0000000
 NucSpn=           0           0           0           0           0           0           0           0           0           0
 AtZEff=  -0.0000000  -0.0000000  -0.0000000  -0.0000000  -0.0000000  -0.0000000  -0.0000000  -0.0000000  -0.0000000  -0.0000000
 NQMom=    0.0000000   0.0000000   0.0000000   0.0000000   0.0000000   0.0000000   0.0000000   0.0000000   0.0000000   0.0000000
 NMagM=    0.0000000   0.0000000   0.0000000   0.0000000   0.0000000   0.0000000   0.0000000   0.0000000   0.0000000   0.0000000
 AtZNuc=   8.0000000  16.0000000   6.0000000   6.0000000   6.0000000   6.0000000   6.0000000   6.0000000   6.0000000   6.0000000

  Atom        11          12          13          14          15          16          17          18          19          20
 IAtWgt=          12          12          12          12          12           1           1           1           1           1
 AtmWgt=  12.0000000  12.0000000  12.0000000  12.0000000  12.0000000   1.0078250   1.0078250   1.0078250   1.0078250   1.0078250
 NucSpn=           0           0           0           0           0           1           1           1           1           1
 AtZEff=  -0.0000000  -0.0000000  -0.0000000  -0.0000000  -0.0000000  -0.0000000  -0.0000000  -0.0000000  -0.0000000  -0.0000000
 NQMom=    0.0000000   0.0000000   0.0000000   0.0000000   0.0000000   0.0000000   0.0000000   0.0000000   0.0000000   0.0000000
 NMagM=    0.0000000   0.0000000   0.0000000   0.0000000   0.0000000   2.7928460   2.7928460   2.7928460   2.7928460   2.7928460
 AtZNuc=   6.0000000   6.0000000   6.0000000   6.0000000   6.0000000   1.0000000   1.0000000   1.0000000   1.0000000   1.0000000

  Atom        21          22          23          24          25          26          27          28          29          30
 IAtWgt=           1           1           1           1           1           1           1           1           1           1
 AtmWgt=   1.0078250   1.0078250   1.0078250   1.0078250   1.0078250   1.0078250   1.0078250   1.0078250   1.0078250   1.0078250
 NucSpn=           1           1           1           1           1           1           1           1           1           1
 AtZEff=  -0.0000000  -0.0000000  -0.0000000  -0.0000000  -0.0000000  -0.0000000  -0.0000000  -0.0000000  -0.0000000  -0.0000000
 NQMom=    0.0000000   0.0000000   0.0000000   0.0000000   0.0000000   0.0000000   0.0000000   0.0000000   0.0000000   0.0000000
 NMagM=    2.7928460   2.7928460   2.7928460   2.7928460   2.7928460   2.7928460   2.7928460   2.7928460   2.7928460   2.7928460
 AtZNuc=   1.0000000   1.0000000   1.0000000   1.0000000   1.0000000   1.0000000   1.0000000   1.0000000   1.0000000   1.0000000

  Atom        31          32          33          34          35          36          37          38          39          40
 IAtWgt=           1           1           1           1           1           1           1           1           1           1
 AtmWgt=   1.0078250   1.0078250   1.0078250   1.0078250   1.0078250   1.0078250   1.0078250   1.0078250   1.0078250   1.0078250
 NucSpn=           1           1           1           1           1           1           1           1           1           1
 AtZEff=  -0.0000000  -0.0000000  -0.0000000  -0.0000000  -0.0000000  -0.0000000  -0.0000000  -0.0000000  -0.0000000  -0.0000000
 NQMom=    0.0000000   0.0000000   0.0000000   0.0000000   0.0000000   0.0000000   0.0000000   0.0000000   0.0000000   0.0000000
 NMagM=    2.7928460   2.7928460   2.7928460   2.7928460   2.7928460   2.7928460   2.7928460   2.7928460   2.7928460   2.7928460
 AtZNuc=   1.0000000   1.0000000   1.0000000   1.0000000   1.0000000   1.0000000   1.0000000   1.0000000   1.0000000   1.0000000

  Atom        41          42          43
 IAtWgt=           1           1           1
 AtmWgt=   1.0078250   1.0078250   1.0078250
 NucSpn=           1           1           1
 AtZEff=  -0.0000000  -0.0000000  -0.0000000
 NQMom=    0.0000000   0.0000000   0.0000000
 NMagM=    2.7928460   2.7928460   2.7928460
 AtZNuc=   1.0000000   1.0000000   1.0000000
 Leave Link  101 at Mon Oct 14 01:57:39 2019, MaxMem= 10737418240 cpu:               8.9 elap:               0.4
 (Enter /apps/cent7/gaussian/g16-A.03/g16-haswell/g16/l103.exe)

 GradGradGradGradGradGradGradGradGradGradGradGradGradGradGradGradGradGrad
 Berny optimization.
 Initialization pass.
                           ----------------------------
                           !    Initial Parameters    !
                           ! (Angstroms and Degrees)  !
 --------------------------                            --------------------------
 ! Name  Definition              Value          Derivative Info.                !
 --------------------------------------------------------------------------------
 ! R1    R(1,2)                  1.6044         estimate D2E/DX2                !
 ! R2    R(2,3)                  1.8283         estimate D2E/DX2                !
 ! R3    R(2,4)                  1.8319         estimate D2E/DX2                !
 ! R4    R(3,16)                 1.09           estimate D2E/DX2                !
 ! R5    R(3,17)                 1.0901         estimate D2E/DX2                !
 ! R6    R(3,18)                 1.09           estimate D2E/DX2                !
 ! R7    R(4,5)                  1.5439         estimate D2E/DX2                !
 ! R8    R(4,19)                 1.09           estimate D2E/DX2                !
 ! R9    R(4,20)                 1.09           estimate D2E/DX2                !
 ! R10   R(5,6)                  1.5507         estimate D2E/DX2                !
 ! R11   R(5,21)                 1.09           estimate D2E/DX2                !
 ! R12   R(5,22)                 1.09           estimate D2E/DX2                !
 ! R13   R(6,7)                  1.5502         estimate D2E/DX2                !
 ! R14   R(6,23)                 1.09           estimate D2E/DX2                !
 ! R15   R(6,24)                 1.09           estimate D2E/DX2                !
 ! R16   R(7,8)                  1.5504         estimate D2E/DX2                !
 ! R17   R(7,25)                 1.09           estimate D2E/DX2                !
 ! R18   R(7,26)                 1.09           estimate D2E/DX2                !
 ! R19   R(8,9)                  1.5529         estimate D2E/DX2                !
 ! R20   R(8,27)                 1.09           estimate D2E/DX2                !
 ! R21   R(8,28)                 1.09           estimate D2E/DX2                !
 ! R22   R(9,10)                 1.5526         estimate D2E/DX2                !
 ! R23   R(9,29)                 1.09           estimate D2E/DX2                !
 ! R24   R(9,30)                 1.0899         estimate D2E/DX2                !
 ! R25   R(10,11)                1.5532         estimate D2E/DX2                !
 ! R26   R(10,31)                1.09           estimate D2E/DX2                !
 ! R27   R(10,32)                1.09           estimate D2E/DX2                !
 ! R28   R(11,12)                1.5548         estimate D2E/DX2                !
 ! R29   R(11,33)                1.0901         estimate D2E/DX2                !
 ! R30   R(11,34)                1.09           estimate D2E/DX2                !
 ! R31   R(12,13)                1.5548         estimate D2E/DX2                !
 ! R32   R(12,35)                1.09           estimate D2E/DX2                !
 ! R33   R(12,36)                1.0901         estimate D2E/DX2                !
 ! R34   R(13,14)                1.5533         estimate D2E/DX2                !
 ! R35   R(13,37)                1.09           estimate D2E/DX2                !
 ! R36   R(13,38)                1.0901         estimate D2E/DX2                !
 ! R37   R(14,15)                1.5462         estimate D2E/DX2                !
 ! R38   R(14,39)                1.09           estimate D2E/DX2                !
 ! R39   R(14,40)                1.09           estimate D2E/DX2                !
 ! R40   R(15,41)                1.09           estimate D2E/DX2                !
 ! R41   R(15,42)                1.09           estimate D2E/DX2                !
 ! R42   R(15,43)                1.09           estimate D2E/DX2                !
 ! A1    A(1,2,3)              105.4637         estimate D2E/DX2                !
 ! A2    A(1,2,4)              105.8794         estimate D2E/DX2                !
 ! A3    A(3,2,4)              104.6462         estimate D2E/DX2                !
 ! A4    A(2,3,16)             109.4749         estimate D2E/DX2                !
 ! A5    A(2,3,17)             109.4672         estimate D2E/DX2                !
 ! A6    A(2,3,18)             109.4733         estimate D2E/DX2                !
 ! A7    A(16,3,17)            109.4686         estimate D2E/DX2                !
 ! A8    A(16,3,18)            109.472          estimate D2E/DX2                !
 ! A9    A(17,3,18)            109.4713         estimate D2E/DX2                !
 ! A10   A(2,4,5)              111.4646         estimate D2E/DX2                !
 ! A11   A(2,4,19)             109.3096         estimate D2E/DX2                !
 ! A12   A(2,4,20)             109.313          estimate D2E/DX2                !
 ! A13   A(5,4,19)             103.1831         estimate D2E/DX2                !
 ! A14   A(5,4,20)             103.1796         estimate D2E/DX2                !
 ! A15   A(19,4,20)            119.9958         estimate D2E/DX2                !
 ! A16   A(4,5,6)              112.6522         estimate D2E/DX2                !
 ! A17   A(4,5,21)             106.0196         estimate D2E/DX2                !
 ! A18   A(4,5,22)             106.0125         estimate D2E/DX2                !
 ! A19   A(6,5,21)             106.1723         estimate D2E/DX2                !
 ! A20   A(6,5,22)             106.174          estimate D2E/DX2                !
 ! A21   A(21,5,22)            120.0017         estimate D2E/DX2                !
 ! A22   A(5,6,7)              111.731          estimate D2E/DX2                !
 ! A23   A(5,6,23)             106.2997         estimate D2E/DX2                !
 ! A24   A(5,6,24)             106.3029         estimate D2E/DX2                !
 ! A25   A(7,6,23)             106.286          estimate D2E/DX2                !
 ! A26   A(7,6,24)             106.2924         estimate D2E/DX2                !
 ! A27   A(23,6,24)            119.9957         estimate D2E/DX2                !
 ! A28   A(6,7,8)              112.8745         estimate D2E/DX2                !
 ! A29   A(6,7,25)             106.0432         estimate D2E/DX2                !
 ! A30   A(6,7,26)             106.0475         estimate D2E/DX2                !
 ! A31   A(8,7,25)             106.0476         estimate D2E/DX2                !
 ! A32   A(8,7,26)             106.0507         estimate D2E/DX2                !
 ! A33   A(25,7,26)            119.9987         estimate D2E/DX2                !
 ! A34   A(7,8,9)              112.5437         estimate D2E/DX2                !
 ! A35   A(7,8,27)             106.0865         estimate D2E/DX2                !
 ! A36   A(7,8,28)             106.0945         estimate D2E/DX2                !
 ! A37   A(9,8,27)             106.1452         estimate D2E/DX2                !
 ! A38   A(9,8,28)             106.148          estimate D2E/DX2                !
 ! A39   A(27,8,28)            120.0002         estimate D2E/DX2                !
 ! A40   A(8,9,10)             112.4242         estimate D2E/DX2                !
 ! A41   A(8,9,29)             106.1413         estimate D2E/DX2                !
 ! A42   A(8,9,30)             106.1469         estimate D2E/DX2                !
 ! A43   A(10,9,29)            106.1405         estimate D2E/DX2                !
 ! A44   A(10,9,30)            106.1482         estimate D2E/DX2                !
 ! A45   A(29,9,30)            120.0009         estimate D2E/DX2                !
 ! A46   A(9,10,11)            112.8249         estimate D2E/DX2                !
 ! A47   A(9,10,31)            106.0491         estimate D2E/DX2                !
 ! A48   A(9,10,32)            106.0583         estimate D2E/DX2                !
 ! A49   A(11,10,31)           106.0614         estimate D2E/DX2                !
 ! A50   A(11,10,32)           106.0638         estimate D2E/DX2                !
 ! A51   A(31,10,32)           119.9982         estimate D2E/DX2                !
 ! A52   A(10,11,12)           113.042          estimate D2E/DX2                !
 ! A53   A(10,11,33)           105.9925         estimate D2E/DX2                !
 ! A54   A(10,11,34)           105.9948         estimate D2E/DX2                !
 ! A55   A(12,11,33)           106.0296         estimate D2E/DX2                !
 ! A56   A(12,11,34)           106.0287         estimate D2E/DX2                !
 ! A57   A(33,11,34)           119.9968         estimate D2E/DX2                !
 ! A58   A(11,12,13)           112.571          estimate D2E/DX2                !
 ! A59   A(11,12,35)           106.1107         estimate D2E/DX2                !
 ! A60   A(11,12,36)           106.1106         estimate D2E/DX2                !
 ! A61   A(13,12,35)           106.1173         estimate D2E/DX2                !
 ! A62   A(13,12,36)           106.1125         estimate D2E/DX2                !
 ! A63   A(35,12,36)           119.9997         estimate D2E/DX2                !
 ! A64   A(12,13,14)           113.141          estimate D2E/DX2                !
 ! A65   A(12,13,37)           106.0109         estimate D2E/DX2                !
 ! A66   A(12,13,38)           106.0068         estimate D2E/DX2                !
 ! A67   A(14,13,37)           105.9728         estimate D2E/DX2                !
 ! A68   A(14,13,38)           105.9728         estimate D2E/DX2                !
 ! A69   A(37,13,38)           119.9933         estimate D2E/DX2                !
 ! A70   A(13,14,15)           112.9918         estimate D2E/DX2                !
 ! A71   A(13,14,39)           106.1105         estimate D2E/DX2                !
 ! A72   A(13,14,40)           106.1081         estimate D2E/DX2                !
 ! A73   A(15,14,39)           105.9333         estimate D2E/DX2                !
 ! A74   A(15,14,40)           105.9297         estimate D2E/DX2                !
 ! A75   A(39,14,40)           120.0041         estimate D2E/DX2                !
 ! A76   A(14,15,41)           109.4696         estimate D2E/DX2                !
 ! A77   A(14,15,42)           109.4698         estimate D2E/DX2                !
 ! A78   A(14,15,43)           109.4675         estimate D2E/DX2                !
 ! A79   A(41,15,42)           109.475          estimate D2E/DX2                !
 ! A80   A(41,15,43)           109.4737         estimate D2E/DX2                !
 ! A81   A(42,15,43)           109.4718         estimate D2E/DX2                !
 ! D1    D(1,2,3,16)           114.853          estimate D2E/DX2                !
 ! D2    D(1,2,3,17)          -125.1504         estimate D2E/DX2                !
 ! D3    D(1,2,3,18)            -5.1515         estimate D2E/DX2                !
 ! D4    D(4,2,3,16)             3.4009         estimate D2E/DX2                !
 ! D5    D(4,2,3,17)           123.3975         estimate D2E/DX2                !
 ! D6    D(4,2,3,18)          -116.6036         estimate D2E/DX2                !
 ! D7    D(1,2,4,5)             66.6011         estimate D2E/DX2                !
 ! D8    D(1,2,4,19)          -179.9808         estimate D2E/DX2                !
 ! D9    D(1,2,4,20)           -46.8147         estimate D2E/DX2                !
 ! D10   D(3,2,4,5)            177.7541         estimate D2E/DX2                !
 ! D11   D(3,2,4,19)           -68.8278         estimate D2E/DX2                !
 ! D12   D(3,2,4,20)            64.3383         estimate D2E/DX2                !
 ! D13   D(2,4,5,6)            178.7699         estimate D2E/DX2                !
 ! D14   D(2,4,5,21)           -65.5196         estimate D2E/DX2                !
 ! D15   D(2,4,5,22)            63.0616         estimate D2E/DX2                !
 ! D16   D(19,4,5,6)            61.574          estimate D2E/DX2                !
 ! D17   D(19,4,5,21)          177.2845         estimate D2E/DX2                !
 ! D18   D(19,4,5,22)          -54.1343         estimate D2E/DX2                !
 ! D19   D(20,4,5,6)           -64.0322         estimate D2E/DX2                !
 ! D20   D(20,4,5,21)           51.6783         estimate D2E/DX2                !
 ! D21   D(20,4,5,22)         -179.7405         estimate D2E/DX2                !
 ! D22   D(4,5,6,7)            179.8845         estimate D2E/DX2                !
 ! D23   D(4,5,6,23)           -64.5795         estimate D2E/DX2                !
 ! D24   D(4,5,6,24)            64.3391         estimate D2E/DX2                !
 ! D25   D(21,5,6,7)            64.2658         estimate D2E/DX2                !
 ! D26   D(21,5,6,23)          179.8017         estimate D2E/DX2                !
 ! D27   D(21,5,6,24)          -51.2797         estimate D2E/DX2                !
 ! D28   D(22,5,6,7)           -64.5041         estimate D2E/DX2                !
 ! D29   D(22,5,6,23)           51.0318         estimate D2E/DX2                !
 ! D30   D(22,5,6,24)          179.9504         estimate D2E/DX2                !
 ! D31   D(5,6,7,8)            179.6942         estimate D2E/DX2                !
 ! D32   D(5,6,7,25)           -64.6153         estimate D2E/DX2                !
 ! D33   D(5,6,7,26)            63.9973         estimate D2E/DX2                !
 ! D34   D(23,6,7,8)            64.1499         estimate D2E/DX2                !
 ! D35   D(23,6,7,25)          179.8404         estimate D2E/DX2                !
 ! D36   D(23,6,7,26)          -51.547          estimate D2E/DX2                !
 ! D37   D(24,6,7,8)           -64.7539         estimate D2E/DX2                !
 ! D38   D(24,6,7,25)           50.9366         estimate D2E/DX2                !
 ! D39   D(24,6,7,26)          179.5492         estimate D2E/DX2                !
 ! D40   D(6,7,8,9)           -179.8812         estimate D2E/DX2                !
 ! D41   D(6,7,8,27)           -64.2195         estimate D2E/DX2                !
 ! D42   D(6,7,8,28)            64.4489         estimate D2E/DX2                !
 ! D43   D(25,7,8,9)            64.4309         estimate D2E/DX2                !
 ! D44   D(25,7,8,27)         -179.9074         estimate D2E/DX2                !
 ! D45   D(25,7,8,28)          -51.239          estimate D2E/DX2                !
 ! D46   D(26,7,8,9)           -64.1863         estimate D2E/DX2                !
 ! D47   D(26,7,8,27)           51.4754         estimate D2E/DX2                !
 ! D48   D(26,7,8,28)         -179.8561         estimate D2E/DX2                !
 ! D49   D(7,8,9,10)           179.9181         estimate D2E/DX2                !
 ! D50   D(7,8,9,29)           -64.4551         estimate D2E/DX2                !
 ! D51   D(7,8,9,30)            64.2788         estimate D2E/DX2                !
 ! D52   D(27,8,9,10)           64.2918         estimate D2E/DX2                !
 ! D53   D(27,8,9,29)          179.9186         estimate D2E/DX2                !
 ! D54   D(27,8,9,30)          -51.3475         estimate D2E/DX2                !
 ! D55   D(28,8,9,10)          -64.4443         estimate D2E/DX2                !
 ! D56   D(28,8,9,29)           51.1826         estimate D2E/DX2                !
 ! D57   D(28,8,9,30)          179.9164         estimate D2E/DX2                !
 ! D58   D(8,9,10,11)         -179.9941         estimate D2E/DX2                !
 ! D59   D(8,9,10,31)          -64.3094         estimate D2E/DX2                !
 ! D60   D(8,9,10,32)           64.3126         estimate D2E/DX2                !
 ! D61   D(29,9,10,11)          64.3786         estimate D2E/DX2                !
 ! D62   D(29,9,10,31)        -179.9366         estimate D2E/DX2                !
 ! D63   D(29,9,10,32)         -51.3147         estimate D2E/DX2                !
 ! D64   D(30,9,10,11)         -64.3556         estimate D2E/DX2                !
 ! D65   D(30,9,10,31)          51.3292         estimate D2E/DX2                !
 ! D66   D(30,9,10,32)         179.9512         estimate D2E/DX2                !
 ! D67   D(9,10,11,12)        -179.9784         estimate D2E/DX2                !
 ! D68   D(9,10,11,33)         -64.2529         estimate D2E/DX2                !
 ! D69   D(9,10,11,34)          64.2958         estimate D2E/DX2                !
 ! D70   D(31,10,11,12)         64.3442         estimate D2E/DX2                !
 ! D71   D(31,10,11,33)       -179.9303         estimate D2E/DX2                !
 ! D72   D(31,10,11,34)        -51.3817         estimate D2E/DX2                !
 ! D73   D(32,10,11,12)        -64.2885         estimate D2E/DX2                !
 ! D74   D(32,10,11,33)         51.437          estimate D2E/DX2                !
 ! D75   D(32,10,11,34)        179.9857         estimate D2E/DX2                !
 ! D76   D(10,11,12,13)        179.9888         estimate D2E/DX2                !
 ! D77   D(10,11,12,35)        -64.3543         estimate D2E/DX2                !
 ! D78   D(10,11,12,36)         64.3378         estimate D2E/DX2                !
 ! D79   D(33,11,12,13)         64.2854         estimate D2E/DX2                !
 ! D80   D(33,11,12,35)        179.9423         estimate D2E/DX2                !
 ! D81   D(33,11,12,36)        -51.3656         estimate D2E/DX2                !
 ! D82   D(34,11,12,13)        -64.3055         estimate D2E/DX2                !
 ! D83   D(34,11,12,35)         51.3514         estimate D2E/DX2                !
 ! D84   D(34,11,12,36)       -179.9566         estimate D2E/DX2                !
 ! D85   D(11,12,13,14)        179.9981         estimate D2E/DX2                !
 ! D86   D(11,12,13,37)        -64.2819         estimate D2E/DX2                !
 ! D87   D(11,12,13,38)         64.2806         estimate D2E/DX2                !
 ! D88   D(35,12,13,14)         64.3452         estimate D2E/DX2                !
 ! D89   D(35,12,13,37)       -179.9348         estimate D2E/DX2                !
 ! D90   D(35,12,13,38)        -51.3723         estimate D2E/DX2                !
 ! D91   D(36,12,13,14)        -64.352          estimate D2E/DX2                !
 ! D92   D(36,12,13,37)         51.368          estimate D2E/DX2                !
 ! D93   D(36,12,13,38)        179.9305         estimate D2E/DX2                !
 ! D94   D(12,13,14,15)       -179.9997         estimate D2E/DX2                !
 ! D95   D(12,13,14,39)        -64.3447         estimate D2E/DX2                !
 ! D96   D(12,13,14,40)         64.3511         estimate D2E/DX2                !
 ! D97   D(37,13,14,15)         64.2576         estimate D2E/DX2                !
 ! D98   D(37,13,14,39)        179.9126         estimate D2E/DX2                !
 ! D99   D(37,13,14,40)        -51.3916         estimate D2E/DX2                !
 ! D100  D(38,13,14,15)        -64.262          estimate D2E/DX2                !
 ! D101  D(38,13,14,39)         51.393          estimate D2E/DX2                !
 ! D102  D(38,13,14,40)       -179.9112         estimate D2E/DX2                !
 ! D103  D(13,14,15,41)        179.5739         estimate D2E/DX2                !
 ! D104  D(13,14,15,42)        -60.4234         estimate D2E/DX2                !
 ! D105  D(13,14,15,43)         59.5742         estimate D2E/DX2                !
 ! D106  D(39,14,15,41)         63.8132         estimate D2E/DX2                !
 ! D107  D(39,14,15,42)       -176.1841         estimate D2E/DX2                !
 ! D108  D(39,14,15,43)        -56.1865         estimate D2E/DX2                !
 ! D109  D(40,14,15,41)        -64.6705         estimate D2E/DX2                !
 ! D110  D(40,14,15,42)         55.3323         estimate D2E/DX2                !
 ! D111  D(40,14,15,43)        175.3299         estimate D2E/DX2                !
 --------------------------------------------------------------------------------
 Trust Radius=3.00D-01 FncErr=1.00D-07 GrdErr=1.00D-06 EigMax=2.50D+02 EigMin=1.00D-04
 Number of steps in this run=    244 maximum allowed number of steps=    258.
 GradGradGradGradGradGradGradGradGradGradGradGradGradGradGradGradGradGrad

 Leave Link  103 at Mon Oct 14 01:57:39 2019, MaxMem= 10737418240 cpu:               0.5 elap:               0.0
 (Enter /apps/cent7/gaussian/g16-A.03/g16-haswell/g16/l202.exe)
                          Input orientation:                          
 ---------------------------------------------------------------------
 Center     Atomic      Atomic             Coordinates (Angstroms)
 Number     Number       Type             X           Y           Z
 ---------------------------------------------------------------------
      1          8           0       -3.451200    3.722400  -10.309700
      2         16           0       -3.622800    5.128500   -9.556300
      3          6           0       -5.352300    5.156400   -8.964200
      4          6           0       -2.613400    5.007100   -8.032400
      5          6           0       -1.107100    4.915700   -8.358300
      6          6           0       -0.224100    4.842400   -7.085700
      7          6           0        1.282800    4.748400   -7.437300
      8          6           0        2.191300    4.681300   -6.182800
      9          6           0        3.698900    4.590300   -6.543700
     10          6           0        4.606200    4.525300   -5.285500
     11          6           0        6.116600    4.434200   -5.635900
     12          6           0        7.029900    4.368300   -4.379400
     13          6           0        8.538900    4.277100   -4.742600
     14          6           0        9.463800    4.210600   -3.496400
     15          6           0       10.963500    4.120000   -3.861500
     16          1           0       -5.363300    5.156600   -7.874300
     17          1           0       -5.848000    6.054600   -9.332700
     18          1           0       -5.876800    4.274800   -9.332700
     19          1           0       -2.690700    5.939800   -7.473600
     20          1           0       -2.818900    4.057400   -7.538600
     21          1           0       -0.968900    3.968000   -8.878700
     22          1           0       -0.849200    5.852000   -8.853300
     23          1           0       -0.358000    5.790800   -6.565400
     24          1           0       -0.481000    3.907100   -6.588500
     25          1           0        1.412700    3.797800   -7.954600
     26          1           0        1.533400    5.681800   -7.941300
     27          1           0        2.060600    5.631000   -5.664100
     28          1           0        1.943100    3.746800   -5.679600
     29          1           0        3.829800    3.639900   -7.061100
     30          1           0        3.946700    5.524100   -7.048200
     31          1           0        4.473300    5.475800   -4.768700
     32          1           0        4.356600    3.591500   -4.781700
     33          1           0        6.248000    3.484000   -6.153700
     34          1           0        6.364900    5.368300   -6.139800
     35          1           0        6.900300    5.318400   -3.861100
     36          1           0        6.783200    3.434100   -3.874800
     37          1           0        8.666300    3.327200   -5.261700
     38          1           0        8.783400    5.211400   -5.248100
     39          1           0        9.339300    5.160400   -2.976300
     40          1           0        9.222200    3.276100   -2.990000
     41          1           0       11.558100    4.084100   -2.948700
     42          1           0       11.141100    3.217700   -4.446600
     43          1           0       11.248400    4.994400   -4.446600
 ---------------------------------------------------------------------
                    Distance matrix (angstroms):
                    1          2          3          4          5
     1  O    0.000000
     2  S    1.604424   0.000000
     3  C    2.735125   1.828259   0.000000
     4  C    2.745625   1.831911   2.896915   0.000000
     5  C    3.275169   2.794501   4.294971   1.543860   0.000000
     6  C    4.697100   4.211517   5.470447   2.575291   1.550668
     7  C    5.631529   5.357196   6.820736   3.949866   2.566681
     8  C    7.056104   6.736783   8.054055   5.158712   3.958180
     9  C    8.127726   7.935535   9.386347   6.498852   5.147455
    10  C    9.529372   9.290857  10.634982   7.739523   6.498947
    11  C   10.672107  10.521763  11.963897   9.071071   7.734672
    12  C   12.059814  11.868370  13.227259  10.331782   9.074253
    13  C   13.231130  13.107385  14.545120  11.650300  10.321163
    14  C   14.610155  14.450745  15.821131  12.925497  11.656722
    15  C   15.796232  15.691015  17.126500  14.230796  12.905570
    16  H    3.412364   2.420590   1.089956   2.758495   4.290399
    17  H    3.484011   2.420573   1.090080   3.640147   4.972191
    18  H    2.672678   2.420603   1.090005   3.588429   4.910219
    19  H    3.679495   2.421705   3.149558   1.090028   2.083090
    20  H    2.861996   2.421699   3.107773   1.089954   2.082990
    21  H    2.875742   2.974742   4.542444   2.121399   1.089977
    22  H    3.664246   2.951359   4.557858   2.121352   1.090044
    23  H    5.278821   4.476946   5.576714   2.802339   2.131066
    24  H    4.764822   4.491165   5.561858   2.800353   2.131072
    25  H    5.404600   5.449079   6.973544   4.204514   2.786048
    26  H    5.856177   5.431461   6.981063   4.202317   2.780834
    27  H    7.456829   6.906719   8.128160   5.276777   4.219561
    28  H    7.108931   6.922221   8.123942   5.280693   4.224391
    29  H    7.973278   7.998950   9.499080   6.657889   5.261499
    30  H    8.283262   7.984009   9.501456   6.653634   5.256178
    31  H    9.827247   9.412150  10.688623   7.816184   6.658814
    32  H    9.567532   9.424967  10.686672   7.819966   6.663152
    33  H   10.554793  10.569520  12.052501   9.185519   7.810731
    34  H   10.791333  10.558604  12.054664   9.182716   7.807520
    35  H   12.299805  11.966913  13.273812  10.392648   9.192683
    36  H   12.092725  11.976446  13.271724  10.395002   9.195311
    37  H   13.132871  13.141927  14.614227  11.735863  10.374566
    38  H   13.323751  13.133212  14.616102  11.733760  10.372212
    39  H   14.813625  14.536625  15.864995  12.979009  11.753854
    40  H   14.642140  14.544473  15.863248  12.980893  11.755908
    41  H   16.721072  16.589481  17.980481  15.084010  13.797196
    42  H   15.734226  15.739534  17.210448  14.326416  12.969310
    43  H   15.876781  15.725127  17.205179  14.318087  12.960169
                    6          7          8          9         10
     6  C    0.000000
     7  C    1.550228   0.000000
     8  C    2.583668   1.550369   0.000000
     9  C    3.968280   2.580902   1.552864   0.000000
    10  C    5.164598   3.965477   2.580935   1.552574   0.000000
    11  C    6.517133   5.168112   3.970911   2.587227   1.553186
    12  C    7.756890   6.521073   5.173226   3.978573   2.592294
    13  C    9.088446   7.754645   6.521471   5.173747   3.977747
    14  C   10.350732   9.096630   7.767082   6.531790   5.186154
    15  C   11.665321  10.339109   9.091479   7.758208   6.527427
    16  H    5.208838   6.672948   7.756227   9.176855  10.319465
    17  H    6.176301   7.493131   8.742892  10.053158  11.314101
    18  H    6.109353   7.421368   8.670718   9.978582  11.239923
    19  H    2.727429   4.148428   5.204220   6.596427   7.748119
    20  H    2.748514   4.160731   5.227767   6.614796   7.773513
    21  H    2.129355   2.785105   4.214681   5.256219   6.656081
    22  H    2.129425   2.787187   4.212689   5.254651   6.652121
    23  H    1.090002   2.130500   2.806475   4.230852   5.280428
    24  H    1.089950   2.130549   2.811613   4.235603   5.287682
    25  H    2.127273   1.090006   2.127455   2.800965   4.225138
    26  H    2.127311   1.089978   2.127476   2.798937   4.222898
    27  H    2.804049   2.127955   1.089983   2.130910   2.801069
    28  H    2.806103   2.128076   1.090002   2.130961   2.802406
    29  H    4.228560   2.803125   2.130870   1.089999   2.130607
    30  H    4.226310   2.801691   2.130882   1.089912   2.130646
    31  H    5.275912   4.222538   2.799720   2.129420   1.090044
    32  H    5.277876   4.223609   2.799870   2.129510   1.089999
    33  H    6.678469   5.282002   4.229798   2.806049   2.129221
    34  H    6.677291   5.281621   4.229983   2.806417   2.129202
    35  H    7.834647   6.683593   5.288749   4.239745   2.814395
    36  H    7.835524   6.683801   5.288470   4.239426   2.814271
    37  H    9.201197   7.827459   6.678895   5.283371   4.233252
    38  H    9.200434   7.827258   6.679106   5.283605   4.233336
    39  H   10.413785   9.218322   7.848891   6.698169   5.304526
    40  H   10.414444   9.218472   7.848701   6.697966   5.304458
    41  H   12.510397  11.232569   9.927386   8.657210   7.347394
    42  H   11.780164  10.415057   9.233387   7.852910   6.717030
    43  H   11.773114  10.407593   9.227323   7.845768   6.711381
                   11         12         13         14         15
    11  C    0.000000
    12  C    1.554751   0.000000
    13  C    2.586543   1.554771   0.000000
    14  C    3.978845   2.593921   1.553344   0.000000
    15  C    5.171040   3.975309   2.584512   1.546159   0.000000
    16  H   11.718379  12.900665  14.277683  15.488829  16.844628
    17  H   12.627101  13.900327  15.205638  16.489814  17.784916
    18  H   12.551230  13.824863  15.128828  16.413425  17.707447
    19  H    9.122089  10.321519  11.675909  12.905043  14.240650
    20  H    9.143599  10.347757  11.698953  12.931650  14.264625
    21  H    7.806241   9.186117  10.373096  11.741773  12.945176
    22  H    7.802832   9.181360  10.368924  11.736632  12.940548
    23  H    6.680178   7.834741   9.206993  10.410742  11.759210
    24  H    6.686823   7.842605   9.214274  10.418841  11.766836
    25  H    5.282807   6.682848   7.831309   9.212283  10.395916
    26  H    5.279877   6.680114   7.828275   9.209387  10.392823
    27  H    4.228979   5.285717   6.682109   7.843713   9.208372
    28  H    4.229956   5.286995   6.683095   7.844897   9.209364
    29  H    2.809192   4.238245   5.287446   6.691393   7.833110
    30  H    2.809082   4.238454   5.287637   6.691708   7.833392
    31  H    2.130118   2.813239   4.238710   5.303260   6.692078
    32  H    2.130118   2.812792   4.238303   5.302714   6.691577
    33  H    1.090075   2.131078   2.805073   4.234449   5.281535
    34  H    1.090005   2.131017   2.805203   4.234503   5.281669
    35  H    2.132114   1.090010   2.132219   2.816338   4.236243
    36  H    2.132142   1.090051   2.132184   2.816337   4.236218
    37  H    2.804718   2.130762   1.089957   2.129011   2.804678
    38  H    2.804684   2.130779   1.090058   2.129084   2.804755
    39  H    4.241065   2.815926   2.130886   1.090011   2.122272
    40  H    4.241077   2.815939   2.130846   1.090001   2.122217
    41  H    6.078942   4.757338   3.517228   2.168426   1.089973
    42  H    5.304706   4.269703   2.825135   2.168425   1.089967
    43  H    5.297512   4.265238   2.818426   2.168414   1.089993
                   16         17         18         19         20
    16  H    0.000000
    17  H    1.779963   0.000000
    18  H    1.779939   1.780033   0.000000
    19  H    2.813673   3.665784   4.047186   0.000000
    20  H    2.791936   4.047598   3.552015   1.887880   0.000000
    21  H    4.661796   5.325940   4.938393   2.971009   2.286123
    22  H    4.671094   5.025821   5.290949   2.302695   2.971320
    23  H    5.212337   6.153669   6.357150   2.507692   3.163514
    24  H    5.201095   6.398990   6.064692   3.130183   2.528054
    25  H    6.911365   7.727229   7.433942   4.653753   4.259916
    26  H    6.916993   7.520641   7.669857   4.257737   4.662977
    27  H    7.760434   8.728346   8.848741   5.093574   5.458891
    28  H    7.758075   8.909114   8.647240   5.431371   5.121425
    29  H    9.352794  10.229895   9.989061   6.926515   6.678886
    30  H    9.353801  10.071570  10.162718   6.663997   6.940104
    31  H   10.320142  11.300192  11.375283   7.671680   7.928454
    32  H   10.319407  11.441692  11.220560   7.900967   7.700997
    33  H   11.856658  12.768212  12.559545   9.363410   9.189963
    34  H   11.857655  12.642015  12.698408   9.171125   9.381753
    35  H   12.904567  13.892428  13.938500  10.267598  10.467902
    36  H   12.903506  14.007245  13.811989  10.439573  10.296225
    37  H   14.387566  15.319160  15.131845  11.861687  11.731466
    38  H   14.388504  15.214230  15.247381  11.710610  11.882402
    39  H   15.496995  16.488102  16.514170  12.866782  13.032767
    40  H   15.496112  16.584958  16.407530  13.004428  12.895281
    41  H   17.656318  18.644319  18.567918  15.064748  15.091919
    42  H   16.967725  17.903952  17.736977  14.418434  14.322959
    43  H   16.962429  17.812493  17.823139  14.295280  14.433550
                   21         22         23         24         25
    21  H    0.000000
    22  H    1.887970   0.000000
    23  H    3.007849   2.340835   0.000000
    24  H    2.342386   3.007911   1.887853   0.000000
    25  H    2.560263   3.184900   3.006211   2.337579   0.000000
    26  H    3.174482   2.556853   2.341447   3.006233   1.887909
    27  H    4.719861   4.322820   2.586021   3.207191   3.004461
    28  H    4.331618   4.722412   3.202755   2.593850   2.336568
    29  H    5.141871   5.477080   4.733895   4.344852   2.581791
    30  H    5.471316   5.134838   4.339892   4.736089   3.197316
    31  H    6.984490   6.719709   5.164186   5.506140   4.725771
    32  H    6.729644   6.984851   5.499633   5.173635   4.333175
    33  H    7.729394   7.953962   7.009284   6.756294   5.169317
    34  H    7.952800   7.722712   6.749595   7.014470   5.503113
    35  H    9.429963   9.233718   7.760111   7.994627   7.013039
    36  H    9.242246   9.427897   7.986871   7.768944   6.754207
    37  H   10.311663  10.479454   9.444943   9.261198   7.751638
    38  H   10.480203  10.305087   9.253982   9.451295   7.978134
    39  H   11.938138  11.782316  10.359376  10.538360   9.458918
    40  H   11.790421  11.935101  10.530310  10.368194   9.268641
    41  H   13.860163  13.853912  12.569279  12.578529  11.316808
    42  H   12.917374  13.043229  11.972446  11.837914  10.357816
    43  H   13.036849  12.903736  11.825062  11.972835  10.510895
                   26         27         28         29         30
    26  H    0.000000
    27  H    2.337982   0.000000
    28  H    3.004558   1.887924   0.000000
    29  H    3.196492   3.007683   2.340856   0.000000
    30  H    2.578083   2.341908   3.007702   1.887867   0.000000
    31  H    4.330224   2.578168   3.197044   3.006613   2.340034
    32  H    4.724710   3.195279   2.579792   2.339984   3.006656
    33  H    5.500299   4.731135   4.338894   2.587541   3.202830
    34  H    5.165954   4.338468   4.732162   3.203575   2.587886
    35  H    6.751571   5.174092   5.509147   4.741870   4.350135
    36  H    7.010633   5.507351   5.175099   4.349418   4.741761
    37  H    7.975128   7.007474   6.749231   5.169850   5.503869
    38  H    7.748361   6.748715   7.008634   5.504065   5.170281
    39  H    9.265806   7.773365   8.000617   7.025105   6.767036
    40  H    9.456237   7.999055   7.774368   6.766401   7.025197
    41  H   11.312529   9.998440  10.000991   8.765601   8.764297
    42  H   10.516302   9.474271   9.295345   7.776180   7.990444
    43  H   10.347303   9.289953   9.469182   7.981598   7.769410
                   31         32         33         34         35
    31  H    0.000000
    32  H    1.887955   0.000000
    33  H    3.005836   2.339088   0.000000
    34  H    2.338722   3.005782   1.887974   0.000000
    35  H    2.595928   3.209377   3.007746   2.341285   0.000000
    36  H    3.209865   2.595309   2.341434   3.007712   1.887985
    37  H    4.737170   4.344395   2.582329   3.198998   3.007543
    38  H    4.344732   4.736894   3.198793   2.582419   2.341214
    39  H    5.195203   5.527044   4.739443   4.347184   2.599338
    40  H    5.527613   5.194587   4.347193   4.739484   3.212635
    41  H    7.446047   7.447425   6.231317   6.229094   4.904189
    42  H    7.047150   6.803048   5.189175   5.504915   4.768662
    43  H    6.799814   7.041117   5.495407   5.182210   4.399291
                   36         37         38         39         40
    36  H    0.000000
    37  H    2.341150   0.000000
    38  H    3.007582   1.887884   0.000000
    39  H    3.212641   3.006095   2.339380   0.000000
    40  H    2.599338   2.339286   3.006152   1.887985   0.000000
    41  H    4.907120   3.779600   3.775845   2.466223   2.472043
    42  H    4.400577   2.607875   3.189983   3.030239   2.409828
    43  H    4.764399   3.179809   2.601099   2.415368   3.029806
                   41         42         43
    41  H    0.000000
    42  H    1.779956   0.000000
    43  H    1.779962   1.779937   0.000000
 Stoichiometry    C13H28OS
 Framework group  C1[X(C13H28OS)]
 Deg. of freedom   123
 Full point group                 C1      NOp   1
 Largest Abelian subgroup         C1      NOp   1
 Largest concise Abelian subgroup C1      NOp   1
                         Standard orientation:                         
 ---------------------------------------------------------------------
 Center     Atomic      Atomic             Coordinates (Angstroms)
 Number     Number       Type             X           Y           Z
 ---------------------------------------------------------------------
      1          8           0        6.421723    1.565075    0.617721
      2         16           0        6.368045    0.310253   -0.380637
      3          6           0        7.759978   -0.766648    0.114679
      4          6           0        4.866377   -0.632619    0.079669
      5          6           0        3.581588    0.167845   -0.223772
      6          6           0        2.291575   -0.617664    0.127536
      7          6           0        1.015523    0.206177   -0.182598
      8          6           0       -0.291286   -0.557957    0.152058
      9          6           0       -1.564450    0.272957   -0.164209
     10          6           0       -2.871405   -0.495575    0.170026
     11          6           0       -4.151020    0.327221   -0.142990
     12          6           0       -5.462969   -0.437567    0.190388
     13          6           0       -6.736601    0.395859   -0.126751
     14          6           0       -8.055587   -0.356085    0.201475
     15          6           0       -9.319852    0.475759   -0.115190
     16          1           0        7.371093   -1.710344    0.497052
     17          1           0        8.395723   -0.959213   -0.749625
     18          1           0        8.343104   -0.272429    0.891739
     19          1           0        4.775197   -1.504180   -0.568582
     20          1           0        4.834193   -0.753120    1.162463
     21          1           0        3.601432    1.031702    0.440613
     22          1           0        3.564909    0.311445   -1.304187
     23          1           0        2.267801   -1.480328   -0.538308
     24          1           0        2.306563   -0.763231    1.207618
     25          1           0        1.041818    1.065830    0.487043
     26          1           0        1.008796    0.356331   -1.262163
     27          1           0       -0.317390   -1.418722   -0.516122
     28          1           0       -0.286546   -0.706219    1.231918
     29          1           0       -1.539039    1.132939    0.505032
     30          1           0       -1.568373    0.422487   -1.243807
     31          1           0       -2.894732   -1.355721   -0.499152
     32          1           0       -2.865552   -0.645078    1.249708
     33          1           0       -4.125918    1.187630    0.525836
     34          1           0       -4.155614    0.476276   -1.222746
     35          1           0       -5.489932   -1.297790   -0.478498
     36          1           0       -5.460123   -0.586672    1.270190
     37          1           0       -6.707292    1.255988    0.542072
     38          1           0       -6.737068    0.544996   -1.206559
     39          1           0       -8.087962   -1.216107   -0.467434
     40          1           0       -8.058153   -0.504989    1.281254
     41          1           0      -10.208379   -0.106627    0.128504
     42          1           0       -9.310910    1.390318    0.477710
     43          1           0       -9.331392    0.729950   -1.175067
 ---------------------------------------------------------------------
 Rotational constants (GHZ):           3.5487711           0.0703487           0.0697003
 Leave Link  202 at Mon Oct 14 01:57:39 2019, MaxMem= 10737418240 cpu:               0.4 elap:               0.0
 (Enter /apps/cent7/gaussian/g16-A.03/g16-haswell/g16/l301.exe)
 Standard basis: 6-31G(d) (6D, 7F)
 Ernie: Thresh=  0.10000D-02 Tol=  0.10000D-05 Strict=F.
 There are   285 symmetry adapted cartesian basis functions of A   symmetry.
 There are   285 symmetry adapted basis functions of A   symmetry.
   285 basis functions,   556 primitive gaussians,   285 cartesian basis functions
    65 alpha electrons       65 beta electrons
       nuclear repulsion energy      1019.6513322686 Hartrees.
 IExCor=  402 DFT=T Ex+Corr=B3LYP ExCW=0 ScaHFX=  0.200000
 ScaDFX=  0.800000  0.720000  1.000000  0.810000 ScalE2=  1.000000  1.000000
 IRadAn=      5 IRanWt=     -1 IRanGd=            0 ICorTp=0 IEmpDi=  4
 NAtoms=   43 NActive=   43 NUniq=   43 SFac= 1.00D+00 NAtFMM=   60 NAOKFM=F Big=F
 Integral buffers will be    131072 words long.
 Raffenetti 2 integral format.
 Two-electron integral symmetry is turned on.
 Leave Link  301 at Mon Oct 14 01:57:39 2019, MaxMem= 10737418240 cpu:               1.3 elap:               0.1
 (Enter /apps/cent7/gaussian/g16-A.03/g16-haswell/g16/l302.exe)
 NPDir=0 NMtPBC=     1 NCelOv=     1 NCel=       1 NClECP=     1 NCelD=      1
         NCelK=      1 NCelE2=     1 NClLst=     1 CellRange=     0.0.
 One-electron integrals computed using PRISM.
 One-electron integral symmetry used in STVInt
 NBasis=   285 RedAO= T EigKep=  2.55D-03  NBF=   285
 NBsUse=   285 1.00D-06 EigRej= -1.00D+00 NBFU=   285
 Precomputing XC quadrature grid using
 IXCGrd= 4 IRadAn=           5 IRanWt=          -1 IRanGd=           0 AccXCQ= 0.00D+00.
 Generated NRdTot=       0 NPtTot=           0 NUsed=           0 NTot=          32
 NSgBfM=   267   267   267   267   267 MxSgAt=    43 MxSgA2=    43.
 Leave Link  302 at Mon Oct 14 01:57:40 2019, MaxMem= 10737418240 cpu:               6.3 elap:               0.3
 (Enter /apps/cent7/gaussian/g16-A.03/g16-haswell/g16/l303.exe)
 DipDrv:  MaxL=1.
 Leave Link  303 at Mon Oct 14 01:57:40 2019, MaxMem= 10737418240 cpu:               0.9 elap:               0.1
 (Enter /apps/cent7/gaussian/g16-A.03/g16-haswell/g16/l401.exe)
 ExpMin= 1.17D-01 ExpMax= 2.19D+04 ExpMxC= 3.30D+03 IAcc=3 IRadAn=         5 AccDes= 0.00D+00
 Harris functional with IExCor=  402 and IRadAn=       5 diagonalized for initial guess.
 HarFok:  IExCor=  402 AccDes= 0.00D+00 IRadAn=         5 IDoV= 1 UseB2=F ITyADJ=14
 ICtDFT=  3500011 ScaDFX=  1.000000  1.000000  1.000000  1.000000
 FoFCou: FMM=F IPFlag=           0 FMFlag=      100000 FMFlg1=           0
         NFxFlg=           0 DoJE=T BraDBF=F KetDBF=T FulRan=T
         wScrn=  0.000000 ICntrl=       500 IOpCl=  0 I1Cent=   200000004 NGrid=           0
         NMat0=    1 NMatS0=      1 NMatT0=    0 NMatD0=    1 NMtDS0=    0 NMtDT0=    0
 Petite list used in FoFCou.
 Harris En= -985.725641563158    
 JPrj=0 DoOrth=F DoCkMO=F.
 Leave Link  401 at Mon Oct 14 01:57:40 2019, MaxMem= 10737418240 cpu:              15.0 elap:               0.7
 (Enter /apps/cent7/gaussian/g16-A.03/g16-haswell/g16/l502.exe)
 Integral symmetry usage will be decided dynamically.
 Closed shell SCF:
 Using DIIS extrapolation, IDIIS=  1040.
 NGot= 10737418240 LenX= 10737245333 LenY= 10737163667
 Requested convergence on RMS density matrix=1.00D-08 within 128 cycles.
 Requested convergence on MAX density matrix=1.00D-06.
 Requested convergence on             energy=1.00D-06.
 No special actions if energy rises.
 Fock matrices will be formed incrementally for  20 cycles.
 Integral accuracy reduced to 1.0D-05 until final iterations.

 Cycle   1  Pass 0  IDiag  1:
 FoFJK:  IHMeth= 1 ICntrl=       0 DoSepK=F KAlg= 0 I1Cent=           0 FoldK=F
 IRaf= 630000000 NMat=       1 IRICut=       1 DoRegI=T DoRafI=F ISym2E= 0 IDoP0=0 IntGTp=1.
 FoFCou: FMM=F IPFlag=           0 FMFlag=      100000 FMFlg1=           0
         NFxFlg=           0 DoJE=F BraDBF=F KetDBF=F FulRan=T
         wScrn=  0.000000 ICntrl=         0 IOpCl=  0 I1Cent=           0 NGrid=           0
         NMat0=    1 NMatS0=      1 NMatT0=    0 NMatD0=    1 NMtDS0=    0 NMtDT0=    0
 Symmetry not used in FoFCou.
 E= -984.867303148712    
 DIIS: error= 5.08D-02 at cycle   1 NSaved=   1.
 NSaved= 1 IEnMin= 1 EnMin= -984.867303148712     IErMin= 1 ErrMin= 5.08D-02
 ErrMax= 5.08D-02  0.00D+00 EMaxC= 1.00D-01 BMatC= 6.77D-01 BMatP= 6.77D-01
 IDIUse=3 WtCom= 4.92D-01 WtEn= 5.08D-01
 Coeff-Com:  0.100D+01
 Coeff-En:   0.100D+01
 Coeff:      0.100D+01
 Gap=     0.229 Goal=   None    Shift=    0.000
 GapD=    0.229 DampG=1.000 DampE=0.500 DampFc=0.5000 IDamp=-1.
 Damping current iteration by 5.00D-01
 RMSDP=1.13D-02 MaxDP=6.63D-01              OVMax= 4.70D-01

 Cycle   2  Pass 0  IDiag  1:
 RMSU=  5.62D-03    CP:  9.92D-01
 E= -984.956779842565     Delta-E=       -0.089476693852 Rises=F Damp=T
 DIIS: error= 4.68D-02 at cycle   2 NSaved=   2.
 NSaved= 2 IEnMin= 2 EnMin= -984.956779842565     IErMin= 2 ErrMin= 4.68D-02
 ErrMax= 4.68D-02  0.00D+00 EMaxC= 1.00D-01 BMatC= 1.71D-01 BMatP= 6.77D-01
 IDIUse=3 WtCom= 5.32D-01 WtEn= 4.68D-01
 Coeff-Com:  0.277D+00 0.723D+00
 Coeff-En:   0.439D+00 0.561D+00
 Coeff:      0.353D+00 0.647D+00
 Gap=     0.202 Goal=   None    Shift=    0.000
 RMSDP=4.93D-03 MaxDP=3.43D-01 DE=-8.95D-02 OVMax= 3.11D-01

 Cycle   3  Pass 0  IDiag  1:
 RMSU=  3.21D-03    CP:  9.71D-01  3.39D-01
 E= -985.378805592384     Delta-E=       -0.422025749820 Rises=F Damp=F
 DIIS: error= 3.33D-02 at cycle   3 NSaved=   3.
 NSaved= 3 IEnMin= 3 EnMin= -985.378805592384     IErMin= 3 ErrMin= 3.33D-02
 ErrMax= 3.33D-02  0.00D+00 EMaxC= 1.00D-01 BMatC= 1.99D-01 BMatP= 1.71D-01
 IDIUse=2 WtCom= 0.00D+00 WtEn= 1.00D+00
 EnCoef did     2 forward-backward iterations
 Coeff-En:   0.210D-01 0.202D-01 0.959D+00
 Coeff:      0.210D-01 0.202D-01 0.959D+00
 Gap=     0.397 Goal=   None    Shift=    0.000
 RMSDP=1.11D-02 MaxDP=6.56D-01 DE=-4.22D-01 OVMax= 6.61D-01

 Cycle   4  Pass 0  IDiag  1:
 RMSU=  4.35D-03    CP:  1.01D+00  1.67D+00 -1.16D+00
 E= -983.470764085369     Delta-E=        1.908041507016 Rises=F Damp=F
 DIIS: error= 1.57D-01 at cycle   4 NSaved=   4.
 NSaved= 4 IEnMin= 3 EnMin= -985.378805592384     IErMin= 3 ErrMin= 3.33D-02
 ErrMax= 1.57D-01  0.00D+00 EMaxC= 1.00D-01 BMatC= 2.19D+00 BMatP= 1.71D-01
 IDIUse=2 WtCom= 0.00D+00 WtEn= 1.00D+00
 Coeff-En:   0.000D+00 0.000D+00 0.870D+00 0.130D+00
 Coeff:      0.000D+00 0.000D+00 0.870D+00 0.130D+00
 Gap=     0.126 Goal=   None    Shift=    0.000
 RMSDP=8.19D-03 MaxDP=4.90D-01 DE= 1.91D+00 OVMax= 4.94D-01

 Cycle   5  Pass 0  IDiag  1:
 RMSU=  1.43D-03    CP:  9.95D-01  6.53D-01  6.69D-02  5.57D-02
 E= -985.427969974240     Delta-E=       -1.957205888872 Rises=F Damp=F
 DIIS: error= 3.40D-02 at cycle   5 NSaved=   5.
 NSaved= 5 IEnMin= 5 EnMin= -985.427969974240     IErMin= 3 ErrMin= 3.33D-02
 ErrMax= 3.40D-02  0.00D+00 EMaxC= 1.00D-01 BMatC= 1.57D-01 BMatP= 1.71D-01
 IDIUse=3 WtCom= 6.60D-01 WtEn= 3.40D-01
 Coeff-Com: -0.428D-02 0.631D-01 0.402D+00-0.629D-01 0.602D+00
 Coeff-En:   0.000D+00 0.000D+00 0.443D+00 0.000D+00 0.557D+00
 Coeff:     -0.283D-02 0.417D-01 0.416D+00-0.415D-01 0.587D+00
 Gap=     0.236 Goal=   None    Shift=    0.000
 RMSDP=1.89D-03 MaxDP=9.14D-02 DE=-1.96D+00 OVMax= 1.20D-01

 Cycle   6  Pass 0  IDiag  1:
 RMSU=  2.47D-04    CP:  9.85D-01  4.77D-01  5.21D-01 -1.84D-02  6.43D-01
 E= -985.570370120314     Delta-E=       -0.142400146073 Rises=F Damp=F
 DIIS: error= 9.03D-04 at cycle   6 NSaved=   6.
 NSaved= 6 IEnMin= 6 EnMin= -985.570370120314     IErMin= 6 ErrMin= 9.03D-04
 ErrMax= 9.03D-04  0.00D+00 EMaxC= 1.00D-01 BMatC= 1.41D-04 BMatP= 1.57D-01
 IDIUse=3 WtCom= 9.91D-01 WtEn= 9.03D-03
 Coeff-Com: -0.125D-02-0.416D-02 0.666D-01-0.118D-01 0.106D+00 0.844D+00
 Coeff-En:   0.000D+00 0.000D+00 0.000D+00 0.000D+00 0.000D+00 0.100D+01
 Coeff:     -0.124D-02-0.412D-02 0.660D-01-0.117D-01 0.105D+00 0.846D+00
 Gap=     0.231 Goal=   None    Shift=    0.000
 RMSDP=7.90D-05 MaxDP=6.23D-03 DE=-1.42D-01 OVMax= 3.80D-03

 Cycle   7  Pass 0  IDiag  1:
 RMSU=  6.84D-05    CP:  9.85D-01  4.74D-01  5.23D-01 -1.80D-02  6.50D-01
                    CP:  8.64D-01
 E= -985.570451764434     Delta-E=       -0.000081644121 Rises=F Damp=F
 DIIS: error= 7.71D-04 at cycle   7 NSaved=   7.
 NSaved= 7 IEnMin= 7 EnMin= -985.570451764434     IErMin= 7 ErrMin= 7.71D-04
 ErrMax= 7.71D-04  0.00D+00 EMaxC= 1.00D-01 BMatC= 9.89D-05 BMatP= 1.41D-04
 IDIUse=3 WtCom= 9.92D-01 WtEn= 7.71D-03
 Coeff-Com:  0.250D-02-0.742D-02 0.725D-02-0.768D-03 0.942D-03 0.381D+00
 Coeff-Com:  0.617D+00
 Coeff-En:   0.000D+00 0.000D+00 0.000D+00 0.000D+00 0.000D+00 0.186D+00
 Coeff-En:   0.814D+00
 Coeff:      0.248D-02-0.736D-02 0.720D-02-0.762D-03 0.934D-03 0.379D+00
 Coeff:      0.618D+00
 Gap=     0.232 Goal=   None    Shift=    0.000
 RMSDP=5.31D-05 MaxDP=2.55D-03 DE=-8.16D-05 OVMax= 3.38D-03

 Cycle   8  Pass 0  IDiag  1:
 RMSU=  1.91D-05    CP:  9.84D-01  4.68D-01  5.30D-01 -1.91D-02  6.37D-01
                    CP:  9.30D-01  7.48D-01
 E= -985.570539572108     Delta-E=       -0.000087807674 Rises=F Damp=F
 DIIS: error= 1.10D-04 at cycle   8 NSaved=   8.
 NSaved= 8 IEnMin= 8 EnMin= -985.570539572108     IErMin= 8 ErrMin= 1.10D-04
 ErrMax= 1.10D-04  0.00D+00 EMaxC= 1.00D-01 BMatC= 4.43D-06 BMatP= 9.89D-05
 IDIUse=3 WtCom= 9.99D-01 WtEn= 1.10D-03
 Coeff-Com:  0.169D-02-0.409D-02-0.687D-03 0.563D-03-0.759D-02 0.136D+00
 Coeff-Com:  0.319D+00 0.555D+00
 Coeff-En:   0.000D+00 0.000D+00 0.000D+00 0.000D+00 0.000D+00 0.000D+00
 Coeff-En:   0.000D+00 0.100D+01
 Coeff:      0.169D-02-0.408D-02-0.686D-03 0.562D-03-0.758D-02 0.136D+00
 Coeff:      0.319D+00 0.555D+00
 Gap=     0.232 Goal=   None    Shift=    0.000
 RMSDP=9.31D-06 MaxDP=4.40D-04 DE=-8.78D-05 OVMax= 4.76D-04

 Initial convergence to 1.0D-05 achieved.  Increase integral accuracy.
 Cycle   9  Pass 1  IDiag  1:
 E= -985.570492210435     Delta-E=        0.000047361673 Rises=F Damp=F
 DIIS: error= 2.09D-05 at cycle   1 NSaved=   1.
 NSaved= 1 IEnMin= 1 EnMin= -985.570492210435     IErMin= 1 ErrMin= 2.09D-05
 ErrMax= 2.09D-05  0.00D+00 EMaxC= 1.00D-01 BMatC= 1.77D-07 BMatP= 1.77D-07
 IDIUse=1 WtCom= 1.00D+00 WtEn= 0.00D+00
 Coeff-Com:  0.100D+01
 Coeff:      0.100D+01
 Gap=     0.232 Goal=   None    Shift=    0.000
 RMSDP=9.31D-06 MaxDP=4.40D-04 DE= 4.74D-05 OVMax= 1.86D-04

 Cycle  10  Pass 1  IDiag  1:
 RMSU=  5.20D-06    CP:  1.00D+00
 E= -985.570492186961     Delta-E=        0.000000023474 Rises=F Damp=F
 DIIS: error= 2.06D-05 at cycle   2 NSaved=   2.
 NSaved= 2 IEnMin= 1 EnMin= -985.570492210435     IErMin= 2 ErrMin= 2.06D-05
 ErrMax= 2.06D-05  0.00D+00 EMaxC= 1.00D-01 BMatC= 2.08D-07 BMatP= 1.77D-07
 IDIUse=1 WtCom= 1.00D+00 WtEn= 0.00D+00
 Coeff-Com:  0.522D+00 0.478D+00
 Coeff:      0.522D+00 0.478D+00
 Gap=     0.232 Goal=   None    Shift=    0.000
 RMSDP=2.26D-06 MaxDP=1.03D-04 DE= 2.35D-08 OVMax= 1.15D-04

 Cycle  11  Pass 1  IDiag  1:
 RMSU=  1.76D-06    CP:  1.00D+00  7.29D-01
 E= -985.570492401282     Delta-E=       -0.000000214321 Rises=F Damp=F
 DIIS: error= 5.06D-06 at cycle   3 NSaved=   3.
 NSaved= 3 IEnMin= 3 EnMin= -985.570492401282     IErMin= 3 ErrMin= 5.06D-06
 ErrMax= 5.06D-06  0.00D+00 EMaxC= 1.00D-01 BMatC= 6.79D-09 BMatP= 1.77D-07
 IDIUse=1 WtCom= 1.00D+00 WtEn= 0.00D+00
 Coeff-Com:  0.980D-01 0.180D+00 0.722D+00
 Coeff:      0.980D-01 0.180D+00 0.722D+00
 Gap=     0.232 Goal=   None    Shift=    0.000
 RMSDP=4.41D-07 MaxDP=1.69D-05 DE=-2.14D-07 OVMax= 2.32D-05

 Cycle  12  Pass 1  IDiag  1:
 RMSU=  3.71D-07    CP:  1.00D+00  7.58D-01  8.96D-01
 E= -985.570492407021     Delta-E=       -0.000000005739 Rises=F Damp=F
 DIIS: error= 2.95D-06 at cycle   4 NSaved=   4.
 NSaved= 4 IEnMin= 4 EnMin= -985.570492407021     IErMin= 4 ErrMin= 2.95D-06
 ErrMax= 2.95D-06  0.00D+00 EMaxC= 1.00D-01 BMatC= 1.39D-09 BMatP= 6.79D-09
 IDIUse=1 WtCom= 1.00D+00 WtEn= 0.00D+00
 Coeff-Com:  0.632D-02 0.529D-01 0.381D+00 0.559D+00
 Coeff:      0.632D-02 0.529D-01 0.381D+00 0.559D+00
 Gap=     0.232 Goal=   None    Shift=    0.000
 RMSDP=2.25D-07 MaxDP=1.55D-05 DE=-5.74D-09 OVMax= 1.36D-05

 Cycle  13  Pass 1  IDiag  1:
 RMSU=  1.53D-07    CP:  1.00D+00  7.64D-01  9.33D-01  6.10D-01
 E= -985.570492408223     Delta-E=       -0.000000001203 Rises=F Damp=F
 DIIS: error= 1.76D-06 at cycle   5 NSaved=   5.
 NSaved= 5 IEnMin= 5 EnMin= -985.570492408223     IErMin= 5 ErrMin= 1.76D-06
 ErrMax= 1.76D-06  0.00D+00 EMaxC= 1.00D-01 BMatC= 3.49D-10 BMatP= 1.39D-09
 IDIUse=1 WtCom= 1.00D+00 WtEn= 0.00D+00
 Coeff-Com: -0.427D-02 0.243D-01 0.220D+00 0.390D+00 0.370D+00
 Coeff:     -0.427D-02 0.243D-01 0.220D+00 0.390D+00 0.370D+00
 Gap=     0.232 Goal=   None    Shift=    0.000
 RMSDP=8.79D-08 MaxDP=4.07D-06 DE=-1.20D-09 OVMax= 5.89D-06

 Cycle  14  Pass 1  IDiag  1:
 RMSU=  4.96D-08    CP:  1.00D+00  7.64D-01  9.23D-01  6.40D-01  5.55D-01
 E= -985.570492408499     Delta-E=       -0.000000000276 Rises=F Damp=F
 DIIS: error= 2.17D-07 at cycle   6 NSaved=   6.
 NSaved= 6 IEnMin= 6 EnMin= -985.570492408499     IErMin= 6 ErrMin= 2.17D-07
 ErrMax= 2.17D-07  0.00D+00 EMaxC= 1.00D-01 BMatC= 9.37D-12 BMatP= 3.49D-10
 IDIUse=1 WtCom= 1.00D+00 WtEn= 0.00D+00
 Coeff-Com: -0.228D-02 0.435D-02 0.475D-01 0.105D+00 0.167D+00 0.679D+00
 Coeff:     -0.228D-02 0.435D-02 0.475D-01 0.105D+00 0.167D+00 0.679D+00
 Gap=     0.232 Goal=   None    Shift=    0.000
 RMSDP=2.68D-08 MaxDP=1.28D-06 DE=-2.76D-10 OVMax= 2.13D-06

 Cycle  15  Pass 1  IDiag  1:
 RMSU=  1.57D-08    CP:  1.00D+00  7.65D-01  9.28D-01  6.52D-01  6.72D-01
                    CP:  8.64D-01
 E= -985.570492408499     Delta-E=        0.000000000001 Rises=F Damp=F
 DIIS: error= 8.25D-08 at cycle   7 NSaved=   7.
 NSaved= 7 IEnMin= 6 EnMin= -985.570492408499     IErMin= 7 ErrMin= 8.25D-08
 ErrMax= 8.25D-08  0.00D+00 EMaxC= 1.00D-01 BMatC= 1.45D-12 BMatP= 9.37D-12
 IDIUse=1 WtCom= 1.00D+00 WtEn= 0.00D+00
 Coeff-Com: -0.459D-03-0.156D-02-0.107D-01-0.914D-02 0.886D-02 0.306D+00
 Coeff-Com:  0.707D+00
 Coeff:     -0.459D-03-0.156D-02-0.107D-01-0.914D-02 0.886D-02 0.306D+00
 Coeff:      0.707D+00
 Gap=     0.232 Goal=   None    Shift=    0.000
 RMSDP=6.63D-09 MaxDP=2.58D-07 DE= 9.09D-13 OVMax= 4.10D-07

 SCF Done:  E(RB3LYP) =  -985.570492408     A.U. after   15 cycles
            NFock= 15  Conv=0.66D-08     -V/T= 2.0073
 KE= 9.784725612918D+02 PE=-4.345163056283D+03 EE= 1.361468670314D+03
 Leave Link  502 at Mon Oct 14 01:57:48 2019, MaxMem= 10737418240 cpu:             186.6 elap:               7.8
 (Enter /apps/cent7/gaussian/g16-A.03/g16-haswell/g16/l601.exe)
 Copying SCF densities to generalized density rwf, IOpCl= 0 IROHF=0.

 **********************************************************************

            Population analysis using the SCF density.

 **********************************************************************

 Orbital symmetries:
       Occupied  (A) (A) (A) (A) (A) (A) (A) (A) (A) (A) (A) (A)
                 (A) (A) (A) (A) (A) (A) (A) (A) (A) (A) (A) (A)
                 (A) (A) (A) (A) (A) (A) (A) (A) (A) (A) (A) (A)
                 (A) (A) (A) (A) (A) (A) (A) (A) (A) (A) (A) (A)
                 (A) (A) (A) (A) (A) (A) (A) (A) (A) (A) (A) (A)
                 (A) (A) (A) (A) (A)
       Virtual   (A) (A) (A) (A) (A) (A) (A) (A) (A) (A) (A) (A)
                 (A) (A) (A) (A) (A) (A) (A) (A) (A) (A) (A) (A)
                 (A) (A) (A) (A) (A) (A) (A) (A) (A) (A) (A) (A)
                 (A) (A) (A) (A) (A) (A) (A) (A) (A) (A) (A) (A)
                 (A) (A) (A) (A) (A) (A) (A) (A) (A) (A) (A) (A)
                 (A) (A) (A) (A) (A) (A) (A) (A) (A) (A) (A) (A)
                 (A) (A) (A) (A) (A) (A) (A) (A) (A) (A) (A) (A)
                 (A) (A) (A) (A) (A) (A) (A) (A) (A) (A) (A) (A)
                 (A) (A) (A) (A) (A) (A) (A) (A) (A) (A) (A) (A)
                 (A) (A) (A) (A) (A) (A) (A) (A) (A) (A) (A) (A)
                 (A) (A) (A) (A) (A) (A) (A) (A) (A) (A) (A) (A)
                 (A) (A) (A) (A) (A) (A) (A) (A) (A) (A) (A) (A)
                 (A) (A) (A) (A) (A) (A) (A) (A) (A) (A) (A) (A)
                 (A) (A) (A) (A) (A) (A) (A) (A) (A) (A) (A) (A)
                 (A) (A) (A) (A) (A) (A) (A) (A) (A) (A) (A) (A)
                 (A) (A) (A) (A) (A) (A) (A) (A) (A) (A) (A) (A)
                 (A) (A) (A) (A) (A) (A) (A) (A) (A) (A) (A) (A)
                 (A) (A) (A) (A) (A) (A) (A) (A) (A) (A) (A) (A)
                 (A) (A) (A) (A)
 The electronic state is 1-A.
 Alpha  occ. eigenvalues --  -88.97452 -19.08658 -10.21590 -10.21447 -10.19045
 Alpha  occ. eigenvalues --  -10.18662 -10.17993 -10.17750 -10.17553 -10.17477
 Alpha  occ. eigenvalues --  -10.17435 -10.17359 -10.17329 -10.17267 -10.16778
 Alpha  occ. eigenvalues --   -8.02255  -5.98633  -5.98595  -5.97966  -0.94668
 Alpha  occ. eigenvalues --   -0.81887  -0.80486  -0.79024  -0.77260  -0.75497
 Alpha  occ. eigenvalues --   -0.72906  -0.69565  -0.65904  -0.62433  -0.59392
 Alpha  occ. eigenvalues --   -0.57467  -0.56614  -0.55820  -0.55636  -0.51489
 Alpha  occ. eigenvalues --   -0.50238  -0.48736  -0.46690  -0.45730  -0.44622
 Alpha  occ. eigenvalues --   -0.43908  -0.43477  -0.41838  -0.41323  -0.40387
 Alpha  occ. eigenvalues --   -0.39923  -0.38739  -0.38589  -0.37063  -0.36640
 Alpha  occ. eigenvalues --   -0.36556  -0.35273  -0.34768  -0.34382  -0.33832
 Alpha  occ. eigenvalues --   -0.33518  -0.32851  -0.32532  -0.32333  -0.30937
 Alpha  occ. eigenvalues --   -0.29823  -0.29059  -0.28606  -0.23719  -0.20613
 Alpha virt. eigenvalues --    0.02618   0.04967   0.06876   0.07643   0.07783
 Alpha virt. eigenvalues --    0.08883   0.09918   0.10866   0.11185   0.12201
 Alpha virt. eigenvalues --    0.12834   0.13252   0.14169   0.14508   0.14892
 Alpha virt. eigenvalues --    0.15467   0.16085   0.16612   0.17328   0.17804
 Alpha virt. eigenvalues --    0.18200   0.18629   0.19247   0.19318   0.19484
 Alpha virt. eigenvalues --    0.19680   0.19857   0.20382   0.20672   0.20829
 Alpha virt. eigenvalues --    0.21129   0.21522   0.22361   0.22598   0.22823
 Alpha virt. eigenvalues --    0.23069   0.23398   0.25868   0.26381   0.27357
 Alpha virt. eigenvalues --    0.31869   0.32353   0.35215   0.39505   0.41033
 Alpha virt. eigenvalues --    0.44109   0.45065   0.47574   0.49191   0.49961
 Alpha virt. eigenvalues --    0.51282   0.52548   0.53902   0.55611   0.56699
 Alpha virt. eigenvalues --    0.57090   0.59284   0.59900   0.60357   0.60641
 Alpha virt. eigenvalues --    0.61556   0.61742   0.62720   0.62994   0.63960
 Alpha virt. eigenvalues --    0.64544   0.65165   0.67185   0.68383   0.69367
 Alpha virt. eigenvalues --    0.69753   0.71214   0.73176   0.73536   0.75988
 Alpha virt. eigenvalues --    0.76562   0.77821   0.79988   0.81031   0.82471
 Alpha virt. eigenvalues --    0.83095   0.83301   0.83420   0.84150   0.85272
 Alpha virt. eigenvalues --    0.85586   0.85768   0.86775   0.87298   0.87382
 Alpha virt. eigenvalues --    0.88232   0.88583   0.89098   0.90013   0.90502
 Alpha virt. eigenvalues --    0.90687   0.91281   0.92420   0.92801   0.93233
 Alpha virt. eigenvalues --    0.93419   0.94180   0.94873   0.95592   0.95804
 Alpha virt. eigenvalues --    0.96596   0.97631   0.98207   0.98731   0.98900
 Alpha virt. eigenvalues --    0.98942   0.99416   1.01434   1.01712   1.05100
 Alpha virt. eigenvalues --    1.07444   1.08535   1.08970   1.10794   1.12487
 Alpha virt. eigenvalues --    1.20512   1.21223   1.24996   1.29289   1.34501
 Alpha virt. eigenvalues --    1.35063   1.36360   1.39134   1.39554   1.41372
 Alpha virt. eigenvalues --    1.43174   1.45094   1.47201   1.48790   1.52458
 Alpha virt. eigenvalues --    1.56087   1.60058   1.60939   1.66798   1.69536
 Alpha virt. eigenvalues --    1.72120   1.75641   1.78384   1.78748   1.84307
 Alpha virt. eigenvalues --    1.85003   1.86916   1.88774   1.89040   1.90371
 Alpha virt. eigenvalues --    1.90891   1.93294   1.93711   1.96240   1.96686
 Alpha virt. eigenvalues --    1.98003   1.98545   1.99278   2.00116   2.00639
 Alpha virt. eigenvalues --    2.01705   2.02731   2.03232   2.04473   2.05597
 Alpha virt. eigenvalues --    2.05868   2.08141   2.08751   2.09289   2.10222
 Alpha virt. eigenvalues --    2.10449   2.11811   2.13786   2.16106   2.17590
 Alpha virt. eigenvalues --    2.21182   2.22076   2.23595   2.24391   2.25304
 Alpha virt. eigenvalues --    2.26095   2.27222   2.27871   2.29917   2.30213
 Alpha virt. eigenvalues --    2.31257   2.32999   2.34517   2.35703   2.36864
 Alpha virt. eigenvalues --    2.37453   2.37992   2.48159   2.57365   2.58470
 Alpha virt. eigenvalues --    2.59958   2.62590   2.63848   2.65633   2.67254
 Alpha virt. eigenvalues --    2.69065   2.76074   2.81287   2.86031   2.86776
 Alpha virt. eigenvalues --    3.77790   3.93057   4.09916   4.13227   4.18016
 Alpha virt. eigenvalues --    4.21548   4.24013   4.29737   4.34802   4.38435
 Alpha virt. eigenvalues --    4.40771   4.43616   4.48324   4.53907   4.58257
          Condensed to atoms (all electrons):
               1          2          3          4          5          6
     1  O    8.441719   0.298696  -0.049291  -0.041735  -0.003919   0.000049
     2  S    0.298696  14.979634   0.010298   0.044063  -0.046969   0.003324
     3  C   -0.049291   0.010298   5.649765   0.009268   0.003171  -0.000036
     4  C   -0.041735   0.044063   0.009268   5.598642   0.346657  -0.032880
     5  C   -0.003919  -0.046969   0.003171   0.346657   5.095701   0.361011
     6  C    0.000049   0.003324  -0.000036  -0.032880   0.361011   5.040230
     7  C    0.000001  -0.000114   0.000000   0.003409  -0.038096   0.378689
     8  C    0.000000   0.000002  -0.000000  -0.000112   0.003657  -0.036574
     9  C    0.000000  -0.000000   0.000000   0.000001  -0.000106   0.003649
    10  C   -0.000000   0.000000  -0.000000  -0.000000   0.000001  -0.000108
    11  C    0.000000  -0.000000   0.000000   0.000000  -0.000000   0.000001
    12  C    0.000000   0.000000   0.000000  -0.000000   0.000000  -0.000000
    13  C    0.000000  -0.000000   0.000000   0.000000  -0.000000   0.000000
    14  C    0.000000   0.000000   0.000000  -0.000000   0.000000  -0.000000
    15  C    0.000000   0.000000   0.000000   0.000000  -0.000000   0.000000
    16  H    0.001571  -0.007117   0.331942  -0.007420   0.000006  -0.000013
    17  H    0.001422  -0.013710   0.348259   0.001370  -0.000048   0.000000
    18  H    0.003346  -0.009742   0.352103  -0.000221  -0.000056   0.000001
    19  H    0.001780  -0.000459  -0.000087   0.306573  -0.045313  -0.005966
    20  H    0.002182  -0.014832  -0.008651   0.342332  -0.048089  -0.005183
    21  H    0.009609   0.003625   0.000119  -0.051602   0.369450  -0.041914
    22  H   -0.000511   0.003454  -0.000156  -0.052161   0.375337  -0.046048
    23  H   -0.000001  -0.000010  -0.000002  -0.004479  -0.046035   0.367798
    24  H   -0.000000   0.000049   0.000002  -0.004693  -0.044846   0.370656
    25  H   -0.000001  -0.000004  -0.000000   0.000038  -0.003694  -0.045902
    26  H    0.000000   0.000003   0.000000   0.000025  -0.004460  -0.046369
    27  H   -0.000000   0.000000   0.000000   0.000003   0.000025  -0.004522
    28  H   -0.000000   0.000000   0.000000   0.000002   0.000028  -0.004391
    29  H    0.000000   0.000000   0.000000   0.000000   0.000002   0.000020
    30  H   -0.000000   0.000000  -0.000000   0.000000   0.000002   0.000020
    31  H    0.000000   0.000000   0.000000   0.000000   0.000000   0.000002
    32  H   -0.000000   0.000000  -0.000000   0.000000   0.000000   0.000002
    33  H    0.000000   0.000000  -0.000000  -0.000000   0.000000   0.000000
    34  H    0.000000   0.000000  -0.000000  -0.000000   0.000000   0.000000
    35  H    0.000000   0.000000   0.000000   0.000000  -0.000000   0.000000
    36  H    0.000000   0.000000   0.000000   0.000000  -0.000000   0.000000
    37  H    0.000000   0.000000   0.000000   0.000000   0.000000  -0.000000
    38  H    0.000000   0.000000   0.000000   0.000000   0.000000  -0.000000
    39  H    0.000000   0.000000   0.000000  -0.000000   0.000000   0.000000
    40  H    0.000000   0.000000   0.000000  -0.000000   0.000000   0.000000
    41  H    0.000000   0.000000   0.000000   0.000000   0.000000  -0.000000
    42  H    0.000000   0.000000   0.000000   0.000000  -0.000000   0.000000
    43  H    0.000000   0.000000   0.000000   0.000000  -0.000000   0.000000
               7          8          9         10         11         12
     1  O    0.000001   0.000000   0.000000  -0.000000   0.000000   0.000000
     2  S   -0.000114   0.000002  -0.000000   0.000000  -0.000000   0.000000
     3  C    0.000000  -0.000000   0.000000  -0.000000   0.000000   0.000000
     4  C    0.003409  -0.000112   0.000001  -0.000000   0.000000  -0.000000
     5  C   -0.038096   0.003657  -0.000106   0.000001  -0.000000   0.000000
     6  C    0.378689  -0.036574   0.003649  -0.000108   0.000001  -0.000000
     7  C    5.010887   0.374234  -0.036916   0.003580  -0.000103   0.000001
     8  C    0.374234   5.024652   0.374697  -0.036769   0.003551  -0.000102
     9  C   -0.036916   0.374697   5.022176   0.373543  -0.036286   0.003504
    10  C    0.003580  -0.036769   0.373543   5.025082   0.373425  -0.035781
    11  C   -0.000103   0.003551  -0.036286   0.373425   5.023778   0.373715
    12  C    0.000001  -0.000102   0.003504  -0.035781   0.373715   5.020818
    13  C   -0.000000   0.000001  -0.000101   0.003516  -0.036138   0.377144
    14  C    0.000000  -0.000000   0.000001  -0.000102   0.003559  -0.036016
    15  C   -0.000000   0.000000  -0.000000   0.000001  -0.000115   0.003781
    16  H    0.000000  -0.000000   0.000000  -0.000000   0.000000  -0.000000
    17  H   -0.000000   0.000000  -0.000000   0.000000  -0.000000   0.000000
    18  H   -0.000000   0.000000  -0.000000   0.000000  -0.000000   0.000000
    19  H    0.000017   0.000000   0.000000   0.000000   0.000000  -0.000000
    20  H   -0.000030   0.000001   0.000000   0.000000   0.000000  -0.000000
    21  H   -0.003357   0.000028   0.000001   0.000000   0.000000  -0.000000
    22  H   -0.004046   0.000032   0.000001   0.000000   0.000000  -0.000000
    23  H   -0.043978  -0.004029   0.000014   0.000002   0.000000   0.000000
    24  H   -0.042883  -0.003817   0.000008   0.000002   0.000000   0.000000
    25  H    0.373182  -0.044810  -0.004001   0.000020   0.000002   0.000000
    26  H    0.372403  -0.045277  -0.004082   0.000022   0.000002   0.000000
    27  H   -0.045570   0.369900  -0.044841  -0.004126   0.000019   0.000002
    28  H   -0.045286   0.370401  -0.044564  -0.004087   0.000018   0.000002
    29  H   -0.004150  -0.045290   0.371078  -0.044951  -0.004026   0.000015
    30  H   -0.004241  -0.045498   0.370713  -0.045097  -0.004036   0.000015
    31  H    0.000025  -0.004335  -0.045552   0.369966  -0.045258  -0.004086
    32  H    0.000026  -0.004300  -0.045439   0.370207  -0.045176  -0.004084
[...]
 43,-0.00006462,0.00002141,0.00001691,-0.00000678,-0.00000073,0.0000029
 7,0.00017895,0.00012799,0.00026373,0.00001897,-0.00001300,-0.00004482,
 -0.00091159,0.00055443,0.00062178,-0.00011344,0.00009157,0.00006570,-0
 .00362662,0.00073899,-0.00429173,0.00081678,0.00027172,0.00089828,-0.0
 2526652,0.12878052,0.14971243,-0.00000020,0.00000065,-0.00000038,0.000
 00024,-0.00000058,0.00000035,-0.00000006,0.00000002,0.,0.00000006,-0.0
 0000008,0.00000006,0.00000021,-0.00000025,-0.00000019,0.00000036,-0.00
 000033,0.00000093,0.00000174,-0.00000025,-0.00000170,0.00000125,-0.000
 00019,0.00000567,0.00001931,-0.00000649,-0.00000509,0.00000425,-0.0000
 4989,0.00007173,0.00002759,0.00002130,-0.00016759,0.00154039,0.0010485
 3,-0.00034790,0.00396769,0.01689055,-0.01048205,-0.06508236,-0.0526735
 2,0.03373669,-0.01073738,-0.02849401,0.01754803,0.,0.,0.00000009,-0.00
 000005,-0.00000007,0.,0.00000002,0.00000004,-0.00000004,-0.00000008,0.
 00000007,0.00000006,0.00000004,0.00000006,-0.00000012,0.00000005,0.000
 00003,0.00000015,0.00000007,0.00000012,-0.00000007,-0.00000016,0.00000
 019,0.00000008,-0.00000005,0.00000007,-0.00000018,0.00000006,0.0000002
 9,0.00000037,0.00000017,-0.00000007,0.00000012,-0.00000030,0.00000026,
 -0.00000003,-0.00000085,0.00000001,-0.00000059,0.00000024,0.00000117,0
 .00000092,0.00000532,-0.00000196,0.00000445,-0.00000500,0.00000154,-0.
 00000031,-0.00004135,-0.00001238,0.00001016,0.00001312,0.00000951,0.00
 001911,-0.00006987,-0.00014790,0.00014205,-0.00006077,0.00002378,0.000
 01730,-0.00022062,-0.00046195,0.00014760,0.00051236,-0.00041699,0.0008
 2649,-0.00212288,0.00034100,-0.00355615,0.00124127,0.00441925,-0.00333
 000,0.07496537,0.00000210,0.00000125,-0.00000194,-0.00000254,-0.000001
 15,0.00000153,0.00000089,0.00000029,-0.00000004,-0.00000042,-0.0000006
 9,0.00000146,0.00000141,-0.00000089,-0.00000030,-0.00000156,-0.0000023
 4,0.00000491,0.00000570,-0.00000146,-0.00000355,-0.00000197,-0.0000081
 0,0.00001881,0.00002657,0.00000227,-0.00002098,0.00002064,-0.00003548,
 0.00008815,0.00032349,0.00033137,-0.00020404,-0.00051259,-0.00009073,-
 0.00006822,-0.00030597,-0.00220258,0.00126205,-0.05291275,-0.21934653,
 0.10378839,0.00084426,0.00236447,-0.00173098,0.00000004,-0.00000017,0.
 00000011,0.00000027,-0.00000007,-0.00000012,0.00000024,0.00000037,-0.0
 0000028,0.00000006,-0.00000043,0.00000024,0.00000087,0.00000092,-0.000
 00031,-0.00000048,-0.00000039,0.00000004,-0.00000025,0.00000140,-0.000
 00122,0.00000020,-0.00000083,0.00000009,0.00000199,0.00000270,-0.00000
 120,-0.00000049,-0.00000035,0.00000030,-0.00000051,0.00000291,-0.00000
 295,0.00000005,-0.00000182,0.00000034,0.00000448,0.00000706,-0.0000024
 4,-0.00000157,-0.00000040,0.00000065,-0.00000283,0.00000493,-0.0000082
 3,0.00000212,-0.00000686,0.00000025,0.00003181,0.00002727,-0.00000105,
 -0.00001671,-0.00002030,-0.00001472,-0.00015252,0.00002435,-0.00017494
 ,-0.00002819,-0.00002188,0.00007827,0.00078097,0.00034938,-0.00007148,
 0.00038732,0.00096265,0.00024094,0.00039106,0.00172619,0.00028889,-0.0
 0681287,-0.02221930,0.01350035,0.05829718,0.23554230,-0.00000200,-0.00
 000331,-0.00000010,0.00000263,0.00000277,0.00000176,-0.00000107,-0.000
 00037,-0.00000069,0.00000043,0.00000062,-0.00000265,-0.00000149,0.0000
 0104,0.00000100,0.00000159,0.00000182,-0.00000484,-0.00000432,0.000003
 11,0.00000471,0.00000320,0.00000559,-0.00001362,0.00000066,0.00000609,
 0.00001606,-0.00001796,-0.00006831,0.00001916,-0.00011028,-0.00026260,
 0.00001319,0.00167819,0.00018563,0.00051990,0.00603262,0.02455415,-0.0
 1632175,0.03380940,0.10345570,-0.11606002,0.00236600,0.00585658,-0.003
 87355,0.00000011,-0.00000005,0.,-0.00000056,0.00000007,0.00000014,-0.0
 0000010,-0.00000013,0.00000044,-0.00000007,0.00000018,-0.00000026,-0.0
 0000089,-0.00000056,0.00000028,0.00000042,0.00000029,-0.00000028,0.000
 00025,-0.00000114,0.00000083,-0.00000006,0.00000003,-0.00000008,-0.000
 00186,-0.00000184,0.00000146,0.00000028,-0.00000026,-0.00000173,0.0000
 0049,-0.00000276,0.00000171,-0.00000006,-0.00000036,0.,-0.00000447,-0.
 00000396,0.00000338,0.00000067,-0.00000052,-0.00000643,0.00000525,-0.0
 0000780,0.00000361,-0.00000653,0.00000066,0.00000311,-0.00006429,-0.00
 001228,0.00001513,0.00001915,0.00001298,-0.00004495,0.00014611,-0.0001
 7278,0.00023480,-0.00012760,-0.00008591,0.00006532,-0.00090671,-0.0004
 6774,0.00056456,0.00081865,-0.00036216,0.00089577,-0.00365595,0.000279
 77,-0.00433566,-0.00564317,-0.01615110,0.01101169,-0.03548972,-0.11632
 753,0.12629538,-0.00000947,-0.00000704,-0.00000875,0.00001227,0.000005
 49,0.00001724,-0.00000599,-0.00000107,-0.00000445,0.00000127,0.0000014
 6,-0.00001499,-0.00000823,-0.00000054,0.00000854,0.00000329,0.00000118
 ,-0.00002503,-0.00002756,-0.00000012,0.00003618,0.00000353,0.00000389,
 -0.00008449,-0.00011240,0.00000064,0.00012145,-0.00002645,0.00001921,-
 0.00036870,-0.00069774,0.00001406,0.00057408,-0.00031351,0.00016601,-0
 .00234226,-0.00607235,0.00015971,0.00457754,-0.01711714,0.00233428,-0.
 02908086,-0.12700702,0.01034855,-0.11971838,0.00000056,-0.00000031,0.0
 0000114,-0.00000342,-0.00000050,0.00000063,0.00000061,0.00000022,0.000
 00133,-0.00000130,0.00000149,-0.00000010,-0.00000140,-0.00000074,-0.00
 000069,0.00000166,0.00000067,0.00000111,0.00000026,0.00000041,-0.00000
 042,-0.00000151,0.00000197,0.00000168,-0.00000134,-0.00000191,0.000001
 51,0.00000034,-0.00000168,-0.00000233,0.00000039,0.00000210,-0.0000023
 1,-0.00000245,0.00000494,0.00000431,-0.00000294,-0.00000491,0.00000382
 ,0.00000153,-0.00000678,-0.00000665,0.00000232,0.00000739,-0.00000603,
 -0.00000213,0.00001697,0.00001227,-0.00000434,-0.00001776,0.00001066,0
 .00001983,-0.00003612,-0.00001211,0.00002359,0.00003518,-0.00000859,0.
 00000285,0.00011257,0.00005056,-0.00000059,-0.00011893,0.00003730,0.00
 021862,-0.00024535,0.00017610,0.00022401,0.00023564,0.00014607,0.00130
 870,0.00049056,0.00016206,0.00123368,-0.00064706,0.00005987,0.13907724
 ,0.00000083,-0.00000018,0.00000064,-0.00000108,0.00000017,-0.00000113,
 0.00000050,0.00000013,0.00000029,-0.00000011,0.00000011,0.00000112,0.0
 0000061,0.00000006,-0.00000066,-0.00000028,0.00000062,0.00000184,0.000
 00181,-0.00000016,-0.00000254,-0.00000042,0.00000139,0.00000565,0.0000
 0620,-0.00000541,-0.00000805,0.00000034,0.00000004,0.00002203,0.000035
 47,-0.00000741,-0.00003425,0.00003141,0.00058511,0.00014843,0.00032272
 ,0.00022444,-0.00027005,0.00065504,-0.00146676,0.00126028,0.01038081,-
 0.05135066,0.01591459,-0.00000002,0.,-0.00000015,0.00000027,0.00000009
 ,-0.00000005,-0.00000004,-0.00000003,-0.00000006,0.00000017,-0.0000002
 1,-0.00000006,0.00000004,0.00000001,0.00000010,-0.00000013,-0.00000009
 ,-0.00000021,-0.00000005,-0.00000010,0.00000017,0.00000021,-0.00000039
 ,-0.00000027,0.00000001,-0.00000004,0.,0.00000004,0.00000003,-0.000000
 03,-0.00000010,-0.00000018,0.00000034,0.00000027,-0.00000078,-0.000000
 46,0.00000018,-0.00000002,-0.00000021,-0.00000004,0.00000074,-0.000000
 05,-0.00000015,-0.00000005,0.00000098,0.00000183,-0.00000331,-0.000001
 83,-0.00000148,-0.00000100,-0.00000001,0.00000346,0.00000536,-0.000000
 60,-0.00000549,0.00000212,0.00000307,-0.00008386,-0.00002213,0.0000125
 8,0.00009039,-0.00001689,-0.00002179,0.00018730,0.00023674,0.00043333,
 -0.00019926,0.00029237,-0.00044145,0.00001307,-0.00001172,0.00035778,-
 0.00009387,0.00012173,-0.00042078,-0.01173000,0.04968115,-0.00000553,-
 0.00000231,-0.00000334,0.00000723,0.00000174,0.00000655,-0.00000295,-0
 .00000060,-0.00000143,0.00000078,0.00000062,-0.00000565,-0.00000176,-0
 .00000013,0.00000185,0.00000223,0.00000023,-0.00000590,-0.00000360,-0.
 00000015,0.00000745,0.00000632,0.00000019,-0.00001071,0.00000409,-0.00
 000103,0.00001098,0.00002725,-0.00000170,0.00000193,0.00012282,-0.0000
 0723,-0.00000964,0.00048418,-0.00002102,0.00042389,0.00115169,-0.00006
 459,0.00014227,0.00608402,-0.00085008,0.00876961,-0.12036707,0.0159524
 2,-0.23249160,0.00000022,-0.00000011,0.00000064,-0.00000153,-0.0000002
 5,0.00000016,0.00000022,0.00000006,0.00000070,-0.00000065,0.00000079,-
 0.00000004,-0.00000072,-0.00000044,-0.00000031,0.00000090,0.00000051,0
 .00000061,0.00000015,-0.00000022,-0.00000002,-0.00000084,0.00000095,0.
 00000070,-0.00000079,-0.00000092,0.00000063,0.00000022,0.00000032,-0.0
 0000034,0.00000009,-0.00000026,-0.00000039,-0.00000172,0.00000171,0.00
 000157,-0.00000189,-0.00000163,0.00000142,0.00000013,0.00000122,-0.000
 00143,-0.00000005,-0.00000103,-0.00000149,-0.00000229,0.00000087,0.000
 00266,-0.00000254,-0.00000100,0.00000264,-0.00000064,0.00000786,-0.000
 00919,-0.00000193,-0.00000644,-0.00000970,-0.00009800,0.00000566,0.000
 02272,-0.00008991,0.00000177,0.00002086,0.00020457,0.00019454,0.000174
 65,0.00016168,-0.00020532,0.00011369,-0.00067915,0.00023097,0.00059869
 ,-0.00071049,-0.00019689,0.00054135,0.13116529,-0.01753949,0.25028505,
 0.00000086,-0.00000183,-0.00000080,-0.00000086,0.00000153,0.00000135,0
 .00000024,0.00000004,-0.00000030,-0.00000012,0.00000019,-0.00000010,0.
 00000015,0.00000023,0.00000020,-0.00000048,0.00000074,0.00000044,0.000
 00055,0.00000085,0.00000084,-0.00000092,0.00000197,0.00000172,0.000002
 03,0.00000362,0.00000115,0.00001339,-0.00000244,0.00001367,0.00005018,
 -0.00008460,-0.00006858,-0.00012145,-0.00017985,0.00004855,0.00192245,
 0.00092571,0.00144209,-0.00683562,0.02824896,0.01962338,-0.05805680,0.
 03855040,0.02726974,0.00000011,-0.00000012,-0.00000010,0.00000002,0.00
 000007,0.,0.00000005,0.00000009,0.00000005,0.00000024,-0.00000034,-0.0
 0000014,-0.00000004,0.00000014,0.00000007,-0.00000025,-0.00000028,-0.0
 0000039,-0.00000007,0.00000010,0.00000008,0.00000064,-0.00000098,-0.00
 000049,0.00000001,0.00000018,0.00000019,-0.00000041,-0.00000113,-0.000
 00142,-0.00000013,0.00000013,0.00000005,0.00000153,-0.00000240,-0.0000
 0111,-0.00000008,0.00000039,0.00000054,-0.00000150,-0.00000255,-0.0000
 0362,-0.00000030,-0.00000016,0.00000010,0.00001026,-0.00000774,-0.0000
 0058,-0.00000115,0.00000150,0.00000260,-0.00004472,-0.00001561,-0.0000
 6429,-0.00000517,0.00000182,-0.00000585,0.00023312,-0.00021398,-0.0001
 7201,0.00000989,0.00001873,0.00002750,-0.00021027,-0.00064319,-0.00092
 059,-0.00006495,-0.00004534,-0.00014754,-0.00681670,0.00013543,0.00136
 098,0.00153961,-0.00047070,-0.00028059,0.00361255,-0.01583151,-0.00943
 668,0.06355553,-0.00000035,0.00000471,0.00000353,-0.00000004,-0.000003
 96,-0.00000572,0.00000032,0.00000006,0.00000117,0.00000006,-0.00000053
 ,0.00000201,0.00000050,-0.00000041,-0.00000116,0.00000050,-0.00000111,
 0.00000145,0.00000223,-0.00000166,-0.00000495,0.00000146,-0.00000160,0
 .00000643,0.00001004,-0.00000601,-0.00001486,0.00000451,0.00000089,0.0
 0002978,0.00006337,-0.00003050,-0.00004888,0.00006961,0.00027257,0.000
 33463,-0.00039163,-0.00003996,-0.00016404,0.00040894,-0.00044929,-0.00
 014367,0.03887182,-0.21558482,-0.11804027,-0.00000032,0.00000031,0.000
 00004,0.00000046,-0.00000008,-0.00000006,-0.00000025,-0.00000023,-0.00
 000028,-0.00000027,0.00000043,0.00000038,0.00000019,-0.00000020,0.0000
 0009,0.00000021,0.00000059,0.00000036,0.00000012,-0.00000043,-0.000000
 13,-0.00000086,0.00000130,0.00000085,-0.00000006,-0.00000016,-0.000000
 21,0.00000056,0.00000235,0.00000199,0.00000022,-0.00000088,0.00000006,
 -0.00000206,0.00000242,0.00000178,-0.00000015,-0.00000022,-0.00000043,
 0.00000143,0.00000618,0.00000439,0.00000034,-0.00000192,-0.00000017,-0
 .00000662,0.00000392,0.00000419,-0.00000095,-0.00000016,-0.00000106,0.
 00001875,0.00002415,0.00001869,0.00000236,-0.00000731,0.00000071,-0.00
 019872,0.00000924,0.00002234,-0.00002252,-0.00001889,0.00000295,0.0005
 2194,0.00022892,0.00048568,0.00003524,-0.00004809,-0.00007227,0.000031
 64,0.00166030,0.00009953,0.00048767,0.00085389,0.00015186,-0.00155964,
 0.00295506,0.00227470,-0.04326964,0.23134451,0.00000241,0.00000487,0.0
 0000352,-0.00000340,-0.00000395,-0.00000671,0.00000162,0.00000032,0.00
 000156,-0.00000037,-0.00000082,0.00000433,0.00000161,-0.00000032,-0.00
 000197,-0.00000087,-0.00000152,0.00000508,0.00000480,-0.00000104,-0.00
 000823,-0.00000181,-0.00000313,0.00001409,0.00001328,-0.00000257,-0.00
 002065,-0.00000591,-0.00001201,0.00003372,0.00004090,0.00002113,-0.000
 03390,-0.00006418,0.00015637,0.00016230,-0.00057214,0.00076765,0.00048
 469,0.00182967,-0.00605441,-0.00519773,0.02749448,-0.11804907,-0.13511
 358,-0.00000031,0.00000027,-0.00000022,0.00000104,0.00000001,-0.000000
 15,-0.00000023,-0.00000015,-0.00000058,0.00000013,-0.00000004,0.000000
 29,0.00000062,0.00000016,0.00000008,-0.00000037,0.00000004,0.00000012,
 -0.00000003,0.00000008,-0.00000019,-0.00000012,0.00000053,0.00000016,0
 .00000068,0.00000065,-0.00000081,0.00000008,0.00000123,0.00000195,0.,0
 .00000004,0.00000011,-0.00000030,0.00000109,0.00000008,0.00000162,0.00
 000137,-0.00000183,-0.00000017,0.00000252,0.00000449,-0.00000029,0.000
 00026,0.00000049,0.00000205,0.00000276,-0.00000190,0.00000525,0.000003
 47,-0.00000542,0.00000943,-0.00000213,0.00001458,-0.00000129,0.0000003
 6,0.00000333,-0.00014886,0.00002010,-0.00005413,0.00003217,0.00000703,
 -0.00003820,0.00024991,-0.00005270,0.00057638,0.00000333,0.00005213,0.
 00005367,0.00171690,0.00042697,0.00066742,-0.00013763,0.00009145,-0.00
 015725,0.00582122,-0.02274861,-0.01534834,-0.03223963,0.13143086,0.143
 01086,0.00000060,0.00000038,-0.00000104,-0.00000077,-0.00000039,0.0000
 0124,0.00000014,0.00000012,-0.00000025,-0.00000015,-0.00000018,-0.0000
 0018,-0.00000011,-0.00000056,0.00000058,-0.00000055,-0.00000072,0.0000
 0004,0.00000008,-0.00000129,0.00000145,-0.00000131,-0.00000204,0.00000
 059,0.00000013,-0.00000472,0.00000270,0.00001293,0.00000005,0.00000977
 ,0.00005148,0.00008015,-0.00005413,-0.00010223,0.00022481,0.00002759,0
 .00182524,-0.00128141,0.00134426,-0.01027837,-0.02886251,0.01682193,-0
 .06988314,-0.06042536,0.03592322,0.00000002,-0.00000006,0.00000008,-0.
 00000002,-0.00000005,0.,0.00000013,0.00000014,-0.00000009,-0.00000004,
 -0.00000010,0.00000013,0.00000034,0.00000034,-0.00000016,-0.00000013,-
 0.00000012,0.00000007,-0.00000012,0.00000068,-0.00000058,-0.00000002,-
 0.00000020,0.00000020,0.00000086,0.00000102,-0.00000048,-0.00000018,-0
 .00000021,0.00000003,-0.00000026,0.00000169,-0.00000156,-0.00000013,-0
 .00000044,0.00000056,0.00000208,0.00000252,-0.00000105,-0.00000034,-0.
 00000004,0.00000011,-0.00000121,0.00000391,-0.00000384,-0.00000125,-0.
 00000159,0.00000260,0.00001186,0.00000679,-0.00000031,-0.00000564,-0.0
 0000143,-0.00000610,-0.00004374,0.00003021,-0.00006392,0.00000949,-0.0
 0002465,0.00002501,0.00028065,0.00019653,-0.00015320,-0.00006400,0.000
 06177,-0.00013338,-0.00018357,0.00077761,-0.00090658,0.00153038,0.0004
 1772,-0.00024820,-0.00673247,0.00074828,0.00137377,0.00567017,0.016214
 89,-0.00801335,0.00120856,0.00491959,-0.00405530,0.07669461,-0.0000003
 7,-0.00000042,-0.00000335,0.00000058,0.00000019,0.00000485,-0.00000059
 ,0.00000008,-0.00000096,-0.00000004,0.00000004,-0.00000211,-0.00000097
 ,-0.00000102,0.00000167,-0.00000036,-0.00000070,-0.00000222,-0.0000029
 9,-0.00000197,0.00000553,-0.00000127,-0.00000068,-0.00000810,-0.000012
 20,-0.00000598,0.00001606,-0.00000531,0.00000343,-0.00003429,-0.000077
 11,-0.00003498,0.00005645,-0.00001447,0.00029925,-0.00032559,0.0002293
 5,0.00012260,-0.00004424,0.00052573,0.00245226,-0.00147296,-0.06078363
 ,-0.22500702,0.10497053,0.00000015,-0.00000016,0.00000030,-0.00000052,
 -0.00000018,0.00000007,0.00000030,0.00000028,0.00000002,-0.00000019,0.
 00000002,0.00000012,0.00000029,0.00000041,-0.00000044,0.,-0.00000022,0
 .00000031,-0.00000010,0.00000118,-0.00000075,-0.00000008,-0.00000010,0
 .00000025,0.00000096,0.00000110,-0.00000067,-0.00000028,-0.00000078,-0
 .00000012,-0.00000020,0.00000267,-0.00000185,-0.00000002,-0.00000007,0
 .00000053,0.00000216,0.00000208,-0.00000141,-0.00000049,-0.00000183,-0
 .00000005,-0.00000044,0.00000663,-0.00000381,0.00000059,0.00000017,0.0
 0000129,0.00000552,0.00000290,-0.00000359,-0.00000242,-0.00000664,-0.0
 0000097,-0.00001131,0.00002456,-0.00001011,0.00001595,-0.00001751,-0.0
 0000414,0.00017978,-0.00003653,0.00000112,-0.00003221,-0.00004936,0.00
 007915,-0.00049485,0.00024525,-0.00040788,-0.00055277,0.00087578,-0.00
 002154,0.00081747,0.00163506,-0.00016469,0.00041588,-0.00121994,0.0002
 2572,-0.00711842,-0.02117338,0.01393873,0.06691890,0.24188352,0.000002
 70,0.00000043,0.00000288,-0.00000344,-0.00000015,-0.00000498,0.0000016
 4,0.00000025,0.00000117,-0.00000034,-0.00000006,0.00000386,0.00000181,
 0.00000068,-0.00000217,-0.00000086,0.00000091,0.00000517,0.00000470,0.
 00000112,-0.00000773,-0.00000166,0.00000190,0.00001370,0.00001255,0.00
 000236,-0.00001900,-0.00000507,0.00000975,0.00003180,0.00003151,-0.000
 02547,-0.00003119,-0.00008558,-0.00013331,0.00011728,-0.00063703,-0.00
 073562,0.00041694,0.00257406,0.00636517,-0.00467980,0.03613148,0.10495
 399,-0.11375778,-0.00000012,0.00000010,-0.00000049,0.00000096,0.000000
 25,-0.00000014,-0.00000023,-0.00000018,-0.00000027,0.00000053,-0.00000
 047,-0.00000019,0.00000011,-0.00000007,0.00000036,-0.00000047,-0.00000
 028,-0.00000052,-0.00000007,-0.00000053,0.00000064,0.00000072,-0.00000
 071,-0.00000085,-0.00000019,-0.00000036,0.00000003,-0.00000009,-0.0000
 0016,0.00000006,-0.00000008,-0.00000129,0.00000173,0.00000149,-0.00000
 145,-0.00000194,-0.00000024,-0.00000084,-0.00000017,-0.00000040,-0.000
 00046,0.00000044,-0.00000055,-0.00000234,0.00000391,0.00000492,-0.0000
 0362,-0.00000567,0.00000229,-0.00000250,-0.00000252,-0.00000163,-0.000
 00119,0.00000316,0.00000827,0.00000199,0.00001344,0.00003304,-0.000009
 07,-0.00003937,-0.00013189,0.00000072,-0.00005597,-0.00000745,-0.00006
 003,0.00005532,0.00020523,-0.00001140,0.00053667,-0.00019095,0.0000253
 6,-0.00016887,0.00169782,-0.00053383,0.00060913,0.00869518,0.02332957,
 -0.01323377,-0.00645047,-0.01638232,0.01094848,-0.04189220,-0.11678686
 ,0.11924723\\0.00000153,-0.00000940,-0.00000563,-0.00000454,0.00001024
 ,0.00000568,-0.00000002,0.00000287,0.00000221,0.00000705,-0.00000039,0
 .00000117,-0.00000402,0.00000083,0.00000223,-0.00000121,0.00000014,0.0
 0000237,0.00000055,0.00000049,-0.00000372,-0.00000119,0.00000003,0.000
 00322,0.00000121,0.00000003,-0.00000270,-0.00000078,-0.00000031,0.0000
 0263,0.00000116,-0.00000008,-0.00000270,-0.00000085,-0.00000059,0.0000
 0244,0.00000067,-0.00000024,-0.00000318,0.00000220,-0.00000098,0.00000
 118,-0.00000196,-0.00000051,-0.00000063,-0.00000008,-0.00000021,0.0000
 0098,0.00000090,0.00000042,-0.00000047,-0.00000016,0.00000018,-0.00000
 076,-0.00000258,0.00000068,0.00000028,-0.00000095,0.00000049,0.0000002
 3,0.00000055,0.00000049,-0.00000201,0.00000128,0.00000059,-0.00000033,
 -0.00000048,0.00000019,0.00000064,0.00000030,0.00000058,0.00000013,-0.
 00000006,0.00000078,0.,0.00000003,-0.00000015,0.00000046,0.00000018,-0
 .00000056,-0.00000007,0.00000008,0.00000007,-0.00000015,-0.00000007,0.
 00000052,0.,-0.00000020,-0.00000007,0.00000030,0.00000013,-0.00000065,
 0.,0.00000009,-0.00000016,-0.00000041,-0.00000002,0.00000025,-0.000000
 34,-0.00000011,-0.00000031,0.00000010,0.00000010,-0.00000088,-0.000000
 10,0.00000010,-0.00000039,-0.00000052,0.00000006,0.,-0.00000048,0.0000
 0007,-0.00000047,-0.00000008,-0.00000041,-0.00000110,-0.00000006,-0.00
 000038,-0.00000057,-0.00000042,0.00000115,-0.00000089,-0.00000041,0.00
 000031,-0.00000061,-0.00000075,0.00000038,-0.00000035,-0.00000032\\\@


 DON'T WORRY CHARLIE BROWN...WE LEARN MORE FROM LOSING 
 THAN WE DO FROM WINNING.
 THEN THAT MAKES ME THE SMARTEST PERSON IN THE WORLD...
 CHARLES SCHULZ 'PEANUTS'
 Job cpu time:       0 days  0 hours 32 minutes 41.5 seconds.
 Elapsed time:       0 days  0 hours  1 minutes 22.5 seconds.
 File lengths (MBytes):  RWF=    415 Int=      0 D2E=      0 Chk=      9 Scr=      1
 Normal termination of Gaussian 16 at Mon Oct 14 02:01:20 2019.
real 220.98
user 5099.62
sys 26.40
Machine:
brown-a445
brown-a445
brown-a445
brown-a445
brown-a445
brown-a445
brown-a445
brown-a445
brown-a445
brown-a445
brown-a445
brown-a445
brown-a445
brown-a445
brown-a445
brown-a445
brown-a445
brown-a445
brown-a445
brown-a445
brown-a445
brown-a445
brown-a445
brown-a445
