 Entering Gaussian System, Link 0=/apps/cent7/gaussian/g16-A.03/g16-haswell/g16/g16
 Initial command:
 /apps/cent7/gaussian/g16-A.03/g16-haswell/g16/l1.exe "/scratch/brown/finej/gaussian/Gau-239182.inp" -scrdir="/scratch/brown/finej/gaussian/"
 Entering Link 1 = /apps/cent7/gaussian/g16-A.03/g16-haswell/g16/l1.exe PID=    239183.
  
 Copyright (c) 1988,1990,1992,1993,1995,1998,2003,2009,2016,
            Gaussian, Inc.  All Rights Reserved.
  
 This is part of the Gaussian(R) 16 program.  It is based on
 the Gaussian(R) 09 system (copyright 2009, Gaussian, Inc.),
 the Gaussian(R) 03 system (copyright 2003, Gaussian, Inc.),
 the Gaussian(R) 98 system (copyright 1998, Gaussian, Inc.),
 the Gaussian(R) 94 system (copyright 1995, Gaussian, Inc.),
 the Gaussian 92(TM) system (copyright 1992, Gaussian, Inc.),
 the Gaussian 90(TM) system (copyright 1990, Gaussian, Inc.),
 the Gaussian 88(TM) system (copyright 1988, Gaussian, Inc.),
 the Gaussian 86(TM) system (copyright 1986, Carnegie Mellon
 University), and the Gaussian 82(TM) system (copyright 1983,
 Carnegie Mellon University). Gaussian is a federally registered
 trademark of Gaussian, Inc.
  
 This software contains proprietary and confidential information,
 including trade secrets, belonging to Gaussian, Inc.
  
 This software is provided under written license and may be
 used, copied, transmitted, or stored only in accord with that
 written license.
  
 The following legend is applicable only to US Government
 contracts under FAR:
  
                    RESTRICTED RIGHTS LEGEND
  
 Use, reproduction and disclosure by the US Government is
 subject to restrictions as set forth in subparagraphs (a)
 and (c) of the Commercial Computer Software - Restricted
 Rights clause in FAR 52.227-19.
  
 Gaussian, Inc.
 340 Quinnipiac St., Bldg. 40, Wallingford CT 06492
  
  
 ---------------------------------------------------------------
 Warning -- This program may not be used in any manner that
 competes with the business of Gaussian, Inc. or will provide
 assistance to any competitor of Gaussian, Inc.  The licensee
 of this program is prohibited from giving any competitor of
 Gaussian, Inc. access to this program.  By using this program,
 the user acknowledges that Gaussian, Inc. is engaged in the
 business of creating and licensing software in the field of
 computational chemistry and represents and warrants to the
 licensee that it is not a competitor of Gaussian, Inc. and that
 it will not use this program in any manner prohibited above.
 ---------------------------------------------------------------
  

 Cite this work as:
 Gaussian 16, Revision A.03,
 M. J. Frisch, G. W. Trucks, H. B. Schlegel, G. E. Scuseria, 
 M. A. Robb, J. R. Cheeseman, G. Scalmani, V. Barone, 
 G. A. Petersson, H. Nakatsuji, X. Li, M. Caricato, A. V. Marenich, 
 J. Bloino, B. G. Janesko, R. Gomperts, B. Mennucci, H. P. Hratchian, 
 J. V. Ortiz, A. F. Izmaylov, J. L. Sonnenberg, D. Williams-Young, 
 F. Ding, F. Lipparini, F. Egidi, J. Goings, B. Peng, A. Petrone, 
 T. Henderson, D. Ranasinghe, V. G. Zakrzewski, J. Gao, N. Rega, 
 G. Zheng, W. Liang, M. Hada, M. Ehara, K. Toyota, R. Fukuda, 
 J. Hasegawa, M. Ishida, T. Nakajima, Y. Honda, O. Kitao, H. Nakai, 
 T. Vreven, K. Throssell, J. A. Montgomery, Jr., J. E. Peralta, 
 F. Ogliaro, M. J. Bearpark, J. J. Heyd, E. N. Brothers, K. N. Kudin, 
 V. N. Staroverov, T. A. Keith, R. Kobayashi, J. Normand, 
 K. Raghavachari, A. P. Rendell, J. C. Burant, S. S. Iyengar, 
 J. Tomasi, M. Cossi, J. M. Millam, M. Klene, C. Adamo, R. Cammi, 
 J. W. Ochterski, R. L. Martin, K. Morokuma, O. Farkas, 
 J. B. Foresman, and D. J. Fox, Gaussian, Inc., Wallingford CT, 2016.
 
 ******************************************
 Gaussian 16:  ES64L-G16RevA.03 25-Dec-2016
                14-Oct-2019 
 ******************************************
 %chk=36_p.chk
 %nprocshared=24
 Will use up to   24 processors via shared memory.
 %mem=80GB
 --------------------------------------------------------------
 #P opt freq b3lyp/6-31g(d) geom=connectivity temperature=0.001
 --------------------------------------------------------------
 1/18=20,19=15,26=3,38=1,57=2,112=-1000/1,3;
 2/9=110,12=2,17=6,18=5,40=1/2;
 3/5=1,6=6,7=1,11=2,25=1,30=1,71=1,74=-5/1,2,3;
 4//1;
 5/5=2,38=5/2;
 6/7=2,8=2,9=2,10=2,28=1/1;
 7//1,2,3,16;
 1/18=20,19=15,26=3/3(2);
 2/9=110/2;
 99//99;
 2/9=110/2;
 3/5=1,6=6,7=1,11=2,25=1,30=1,71=1,74=-5/1,2,3;
 4/5=5,16=3,69=1/1;
 5/5=2,38=5/2;
 7//1,2,3,16;
 1/18=20,19=15,26=3/3(-5);
 2/9=110/2;
 6/7=2,8=2,9=2,10=2,19=2,28=1/1;
 99/9=1/99;
 Leave Link    1 at Mon Oct 14 02:00:41 2019, MaxMem= 10737418240 cpu:               1.7 elap:               0.1
 (Enter /apps/cent7/gaussian/g16-A.03/g16-haswell/g16/l101.exe)
 -------------------
 Title Card Required
 -------------------
 Symbolic Z-matrix:
 Charge =  1 Multiplicity = 1
 O                    -3.4512    3.7224   -10.3097 
 S                    -3.6228    5.1285   -9.5563 
 C                    -5.3523    5.1564   -8.9642 
 C                    -2.6134    5.0071   -8.0324 
 C                    -1.1071    4.9157   -8.3583 
 C                    -0.2241    4.8424   -7.0857 
 C                     1.2828    4.7484   -7.4373 
 C                     2.1913    4.6813   -6.1828 
 C                     3.6989    4.5903   -6.5437 
 C                     4.6062    4.5253   -5.2855 
 C                     6.1166    4.4342   -5.6359 
 C                     7.0299    4.3683   -4.3794 
 C                     8.5389    4.2771   -4.7426 
 C                     9.4638    4.2106   -3.4964 
 C                     10.9635   4.12     -3.8615 
 H                    -5.3633    5.1566   -7.8743 
 H                    -5.848     6.0546   -9.3327 
 H                    -5.8768    4.2748   -9.3327 
 H                    -2.6907    5.9398   -7.4736 
 H                    -2.8189    4.0574   -7.5386 
 H                    -0.9689    3.968    -8.8787 
 H                    -0.8492    5.852    -8.8533 
 H                    -0.358     5.7908   -6.5654 
 H                    -0.481     3.9071   -6.5885 
 H                     1.4127    3.7978   -7.9546 
 H                     1.5334    5.6818   -7.9413 
 H                     2.0606    5.631    -5.6641 
 H                     1.9431    3.7468   -5.6796 
 H                     3.8298    3.6399   -7.0611 
 H                     3.9467    5.5241   -7.0482 
 H                     4.4733    5.4758   -4.7687 
 H                     4.3566    3.5915   -4.7817 
 H                     6.248     3.484    -6.1537 
 H                     6.3649    5.3683   -6.1398 
 H                     6.9003    5.3184   -3.8611 
 H                     6.7832    3.4341   -3.8748 
 H                     8.6663    3.3272   -5.2617 
 H                     8.7834    5.2114   -5.2481 
 H                     9.3393    5.1604   -2.9763 
 H                     9.2222    3.2761   -2.99 
 H                     11.5581   4.0841   -2.9487 
 H                     11.1411   3.2177   -4.4466 
 H                     11.2484   4.9944   -4.4466 
 H                    -2.57325   3.38011  -10.4931 
 
 ITRead=  0  0  0  0  0  0  0  0  0  0  0  0  0  0  0  0  0  0  0  0
 ITRead=  0  0  0  0  0  0  0  0  0  0  0  0  0  0  0  0  0  0  0  0
 ITRead=  0  0  0  0
 MicOpt= -1 -1 -1 -1 -1 -1 -1 -1 -1 -1 -1 -1 -1 -1 -1 -1 -1 -1 -1 -1
 MicOpt= -1 -1 -1 -1 -1 -1 -1 -1 -1 -1 -1 -1 -1 -1 -1 -1 -1 -1 -1 -1
 MicOpt= -1 -1 -1 -1
 NAtoms=     44 NQM=       44 NQMF=       0 NMMI=      0 NMMIF=      0
                NMic=       0 NMicF=      0.
                    Isotopes and Nuclear Properties:
 (Nuclear quadrupole moments (NQMom) in fm**2, nuclear magnetic moments (NMagM)
  in nuclear magnetons)

  Atom         1           2           3           4           5           6           7           8           9          10
 IAtWgt=          16          32          12          12          12          12          12          12          12          12
 AtmWgt=  15.9949146  31.9720718  12.0000000  12.0000000  12.0000000  12.0000000  12.0000000  12.0000000  12.0000000  12.0000000
 NucSpn=           0           0           0           0           0           0           0           0           0           0
 AtZEff=  -0.0000000  -0.0000000  -0.0000000  -0.0000000  -0.0000000  -0.0000000  -0.0000000  -0.0000000  -0.0000000  -0.0000000
 NQMom=    0.0000000   0.0000000   0.0000000   0.0000000   0.0000000   0.0000000   0.0000000   0.0000000   0.0000000   0.0000000
 NMagM=    0.0000000   0.0000000   0.0000000   0.0000000   0.0000000   0.0000000   0.0000000   0.0000000   0.0000000   0.0000000
 AtZNuc=   8.0000000  16.0000000   6.0000000   6.0000000   6.0000000   6.0000000   6.0000000   6.0000000   6.0000000   6.0000000

  Atom        11          12          13          14          15          16          17          18          19          20
 IAtWgt=          12          12          12          12          12           1           1           1           1           1
 AtmWgt=  12.0000000  12.0000000  12.0000000  12.0000000  12.0000000   1.0078250   1.0078250   1.0078250   1.0078250   1.0078250
 NucSpn=           0           0           0           0           0           1           1           1           1           1
 AtZEff=  -0.0000000  -0.0000000  -0.0000000  -0.0000000  -0.0000000  -0.0000000  -0.0000000  -0.0000000  -0.0000000  -0.0000000
 NQMom=    0.0000000   0.0000000   0.0000000   0.0000000   0.0000000   0.0000000   0.0000000   0.0000000   0.0000000   0.0000000
 NMagM=    0.0000000   0.0000000   0.0000000   0.0000000   0.0000000   2.7928460   2.7928460   2.7928460   2.7928460   2.7928460
 AtZNuc=   6.0000000   6.0000000   6.0000000   6.0000000   6.0000000   1.0000000   1.0000000   1.0000000   1.0000000   1.0000000

  Atom        21          22          23          24          25          26          27          28          29          30
 IAtWgt=           1           1           1           1           1           1           1           1           1           1
 AtmWgt=   1.0078250   1.0078250   1.0078250   1.0078250   1.0078250   1.0078250   1.0078250   1.0078250   1.0078250   1.0078250
 NucSpn=           1           1           1           1           1           1           1           1           1           1
 AtZEff=  -0.0000000  -0.0000000  -0.0000000  -0.0000000  -0.0000000  -0.0000000  -0.0000000  -0.0000000  -0.0000000  -0.0000000
 NQMom=    0.0000000   0.0000000   0.0000000   0.0000000   0.0000000   0.0000000   0.0000000   0.0000000   0.0000000   0.0000000
 NMagM=    2.7928460   2.7928460   2.7928460   2.7928460   2.7928460   2.7928460   2.7928460   2.7928460   2.7928460   2.7928460
 AtZNuc=   1.0000000   1.0000000   1.0000000   1.0000000   1.0000000   1.0000000   1.0000000   1.0000000   1.0000000   1.0000000

  Atom        31          32          33          34          35          36          37          38          39          40
 IAtWgt=           1           1           1           1           1           1           1           1           1           1
 AtmWgt=   1.0078250   1.0078250   1.0078250   1.0078250   1.0078250   1.0078250   1.0078250   1.0078250   1.0078250   1.0078250
 NucSpn=           1           1           1           1           1           1           1           1           1           1
 AtZEff=  -0.0000000  -0.0000000  -0.0000000  -0.0000000  -0.0000000  -0.0000000  -0.0000000  -0.0000000  -0.0000000  -0.0000000
 NQMom=    0.0000000   0.0000000   0.0000000   0.0000000   0.0000000   0.0000000   0.0000000   0.0000000   0.0000000   0.0000000
 NMagM=    2.7928460   2.7928460   2.7928460   2.7928460   2.7928460   2.7928460   2.7928460   2.7928460   2.7928460   2.7928460
 AtZNuc=   1.0000000   1.0000000   1.0000000   1.0000000   1.0000000   1.0000000   1.0000000   1.0000000   1.0000000   1.0000000

  Atom        41          42          43          44
 IAtWgt=           1           1           1           1
 AtmWgt=   1.0078250   1.0078250   1.0078250   1.0078250
 NucSpn=           1           1           1           1
 AtZEff=  -0.0000000  -0.0000000  -0.0000000  -0.0000000
 NQMom=    0.0000000   0.0000000   0.0000000   0.0000000
 NMagM=    2.7928460   2.7928460   2.7928460   2.7928460
 AtZNuc=   1.0000000   1.0000000   1.0000000   1.0000000
 Leave Link  101 at Mon Oct 14 02:00:41 2019, MaxMem= 10737418240 cpu:               8.9 elap:               0.4
 (Enter /apps/cent7/gaussian/g16-A.03/g16-haswell/g16/l103.exe)

 GradGradGradGradGradGradGradGradGradGradGradGradGradGradGradGradGradGrad
 Berny optimization.
 Initialization pass.
                           ----------------------------
                           !    Initial Parameters    !
                           ! (Angstroms and Degrees)  !
 --------------------------                            --------------------------
 ! Name  Definition              Value          Derivative Info.                !
 --------------------------------------------------------------------------------
 ! R1    R(1,2)                  1.6044         estimate D2E/DX2                !
 ! R2    R(1,44)                 0.96           estimate D2E/DX2                !
 ! R3    R(2,3)                  1.8283         estimate D2E/DX2                !
 ! R4    R(2,4)                  1.8319         estimate D2E/DX2                !
 ! R5    R(3,16)                 1.09           estimate D2E/DX2                !
 ! R6    R(3,17)                 1.0901         estimate D2E/DX2                !
 ! R7    R(3,18)                 1.09           estimate D2E/DX2                !
 ! R8    R(4,5)                  1.5439         estimate D2E/DX2                !
 ! R9    R(4,19)                 1.09           estimate D2E/DX2                !
 ! R10   R(4,20)                 1.09           estimate D2E/DX2                !
 ! R11   R(5,6)                  1.5507         estimate D2E/DX2                !
 ! R12   R(5,21)                 1.09           estimate D2E/DX2                !
 ! R13   R(5,22)                 1.09           estimate D2E/DX2                !
 ! R14   R(6,7)                  1.5502         estimate D2E/DX2                !
 ! R15   R(6,23)                 1.09           estimate D2E/DX2                !
 ! R16   R(6,24)                 1.09           estimate D2E/DX2                !
 ! R17   R(7,8)                  1.5504         estimate D2E/DX2                !
 ! R18   R(7,25)                 1.09           estimate D2E/DX2                !
 ! R19   R(7,26)                 1.09           estimate D2E/DX2                !
 ! R20   R(8,9)                  1.5529         estimate D2E/DX2                !
 ! R21   R(8,27)                 1.09           estimate D2E/DX2                !
 ! R22   R(8,28)                 1.09           estimate D2E/DX2                !
 ! R23   R(9,10)                 1.5526         estimate D2E/DX2                !
 ! R24   R(9,29)                 1.09           estimate D2E/DX2                !
 ! R25   R(9,30)                 1.0899         estimate D2E/DX2                !
 ! R26   R(10,11)                1.5532         estimate D2E/DX2                !
 ! R27   R(10,31)                1.09           estimate D2E/DX2                !
 ! R28   R(10,32)                1.09           estimate D2E/DX2                !
 ! R29   R(11,12)                1.5548         estimate D2E/DX2                !
 ! R30   R(11,33)                1.0901         estimate D2E/DX2                !
 ! R31   R(11,34)                1.09           estimate D2E/DX2                !
 ! R32   R(12,13)                1.5548         estimate D2E/DX2                !
 ! R33   R(12,35)                1.09           estimate D2E/DX2                !
 ! R34   R(12,36)                1.0901         estimate D2E/DX2                !
 ! R35   R(13,14)                1.5533         estimate D2E/DX2                !
 ! R36   R(13,37)                1.09           estimate D2E/DX2                !
 ! R37   R(13,38)                1.0901         estimate D2E/DX2                !
 ! R38   R(14,15)                1.5462         estimate D2E/DX2                !
 ! R39   R(14,39)                1.09           estimate D2E/DX2                !
 ! R40   R(14,40)                1.09           estimate D2E/DX2                !
 ! R41   R(15,41)                1.09           estimate D2E/DX2                !
 ! R42   R(15,42)                1.09           estimate D2E/DX2                !
 ! R43   R(15,43)                1.09           estimate D2E/DX2                !
 ! A1    A(2,1,44)             120.0            estimate D2E/DX2                !
 ! A2    A(1,2,3)              105.4637         estimate D2E/DX2                !
 ! A3    A(1,2,4)              105.8794         estimate D2E/DX2                !
 ! A4    A(3,2,4)              104.6462         estimate D2E/DX2                !
 ! A5    A(2,3,16)             109.4749         estimate D2E/DX2                !
 ! A6    A(2,3,17)             109.4672         estimate D2E/DX2                !
 ! A7    A(2,3,18)             109.4733         estimate D2E/DX2                !
 ! A8    A(16,3,17)            109.4686         estimate D2E/DX2                !
 ! A9    A(16,3,18)            109.472          estimate D2E/DX2                !
 ! A10   A(17,3,18)            109.4713         estimate D2E/DX2                !
 ! A11   A(2,4,5)              111.4646         estimate D2E/DX2                !
 ! A12   A(2,4,19)             109.3096         estimate D2E/DX2                !
 ! A13   A(2,4,20)             109.313          estimate D2E/DX2                !
 ! A14   A(5,4,19)             103.1831         estimate D2E/DX2                !
 ! A15   A(5,4,20)             103.1796         estimate D2E/DX2                !
 ! A16   A(19,4,20)            119.9958         estimate D2E/DX2                !
 ! A17   A(4,5,6)              112.6522         estimate D2E/DX2                !
 ! A18   A(4,5,21)             106.0196         estimate D2E/DX2                !
 ! A19   A(4,5,22)             106.0125         estimate D2E/DX2                !
 ! A20   A(6,5,21)             106.1723         estimate D2E/DX2                !
 ! A21   A(6,5,22)             106.174          estimate D2E/DX2                !
 ! A22   A(21,5,22)            120.0017         estimate D2E/DX2                !
 ! A23   A(5,6,7)              111.731          estimate D2E/DX2                !
 ! A24   A(5,6,23)             106.2997         estimate D2E/DX2                !
 ! A25   A(5,6,24)             106.3029         estimate D2E/DX2                !
 ! A26   A(7,6,23)             106.286          estimate D2E/DX2                !
 ! A27   A(7,6,24)             106.2924         estimate D2E/DX2                !
 ! A28   A(23,6,24)            119.9957         estimate D2E/DX2                !
 ! A29   A(6,7,8)              112.8745         estimate D2E/DX2                !
 ! A30   A(6,7,25)             106.0432         estimate D2E/DX2                !
 ! A31   A(6,7,26)             106.0475         estimate D2E/DX2                !
 ! A32   A(8,7,25)             106.0476         estimate D2E/DX2                !
 ! A33   A(8,7,26)             106.0507         estimate D2E/DX2                !
 ! A34   A(25,7,26)            119.9987         estimate D2E/DX2                !
 ! A35   A(7,8,9)              112.5437         estimate D2E/DX2                !
 ! A36   A(7,8,27)             106.0865         estimate D2E/DX2                !
 ! A37   A(7,8,28)             106.0945         estimate D2E/DX2                !
 ! A38   A(9,8,27)             106.1452         estimate D2E/DX2                !
 ! A39   A(9,8,28)             106.148          estimate D2E/DX2                !
 ! A40   A(27,8,28)            120.0002         estimate D2E/DX2                !
 ! A41   A(8,9,10)             112.4242         estimate D2E/DX2                !
 ! A42   A(8,9,29)             106.1413         estimate D2E/DX2                !
 ! A43   A(8,9,30)             106.1469         estimate D2E/DX2                !
 ! A44   A(10,9,29)            106.1405         estimate D2E/DX2                !
 ! A45   A(10,9,30)            106.1482         estimate D2E/DX2                !
 ! A46   A(29,9,30)            120.0009         estimate D2E/DX2                !
 ! A47   A(9,10,11)            112.8249         estimate D2E/DX2                !
 ! A48   A(9,10,31)            106.0491         estimate D2E/DX2                !
 ! A49   A(9,10,32)            106.0583         estimate D2E/DX2                !
 ! A50   A(11,10,31)           106.0614         estimate D2E/DX2                !
 ! A51   A(11,10,32)           106.0638         estimate D2E/DX2                !
 ! A52   A(31,10,32)           119.9982         estimate D2E/DX2                !
 ! A53   A(10,11,12)           113.042          estimate D2E/DX2                !
 ! A54   A(10,11,33)           105.9925         estimate D2E/DX2                !
 ! A55   A(10,11,34)           105.9948         estimate D2E/DX2                !
 ! A56   A(12,11,33)           106.0296         estimate D2E/DX2                !
 ! A57   A(12,11,34)           106.0287         estimate D2E/DX2                !
 ! A58   A(33,11,34)           119.9968         estimate D2E/DX2                !
 ! A59   A(11,12,13)           112.571          estimate D2E/DX2                !
 ! A60   A(11,12,35)           106.1107         estimate D2E/DX2                !
 ! A61   A(11,12,36)           106.1106         estimate D2E/DX2                !
 ! A62   A(13,12,35)           106.1173         estimate D2E/DX2                !
 ! A63   A(13,12,36)           106.1125         estimate D2E/DX2                !
 ! A64   A(35,12,36)           119.9997         estimate D2E/DX2                !
 ! A65   A(12,13,14)           113.141          estimate D2E/DX2                !
 ! A66   A(12,13,37)           106.0109         estimate D2E/DX2                !
 ! A67   A(12,13,38)           106.0068         estimate D2E/DX2                !
 ! A68   A(14,13,37)           105.9728         estimate D2E/DX2                !
 ! A69   A(14,13,38)           105.9728         estimate D2E/DX2                !
 ! A70   A(37,13,38)           119.9933         estimate D2E/DX2                !
 ! A71   A(13,14,15)           112.9918         estimate D2E/DX2                !
 ! A72   A(13,14,39)           106.1105         estimate D2E/DX2                !
 ! A73   A(13,14,40)           106.1081         estimate D2E/DX2                !
 ! A74   A(15,14,39)           105.9333         estimate D2E/DX2                !
 ! A75   A(15,14,40)           105.9297         estimate D2E/DX2                !
 ! A76   A(39,14,40)           120.0041         estimate D2E/DX2                !
 ! A77   A(14,15,41)           109.4696         estimate D2E/DX2                !
 ! A78   A(14,15,42)           109.4698         estimate D2E/DX2                !
 ! A79   A(14,15,43)           109.4675         estimate D2E/DX2                !
 ! A80   A(41,15,42)           109.475          estimate D2E/DX2                !
 ! A81   A(41,15,43)           109.4737         estimate D2E/DX2                !
 ! A82   A(42,15,43)           109.4718         estimate D2E/DX2                !
 ! D1    D(44,1,2,3)          -163.2193         estimate D2E/DX2                !
 ! D2    D(44,1,2,4)           -52.6433         estimate D2E/DX2                !
 ! D3    D(1,2,3,16)           114.853          estimate D2E/DX2                !
 ! D4    D(1,2,3,17)          -125.1504         estimate D2E/DX2                !
 ! D5    D(1,2,3,18)            -5.1515         estimate D2E/DX2                !
 ! D6    D(4,2,3,16)             3.4009         estimate D2E/DX2                !
 ! D7    D(4,2,3,17)           123.3975         estimate D2E/DX2                !
 ! D8    D(4,2,3,18)          -116.6036         estimate D2E/DX2                !
 ! D9    D(1,2,4,5)             66.6011         estimate D2E/DX2                !
 ! D10   D(1,2,4,19)          -179.9808         estimate D2E/DX2                !
 ! D11   D(1,2,4,20)           -46.8147         estimate D2E/DX2                !
 ! D12   D(3,2,4,5)            177.7541         estimate D2E/DX2                !
 ! D13   D(3,2,4,19)           -68.8278         estimate D2E/DX2                !
 ! D14   D(3,2,4,20)            64.3383         estimate D2E/DX2                !
 ! D15   D(2,4,5,6)            178.7699         estimate D2E/DX2                !
 ! D16   D(2,4,5,21)           -65.5196         estimate D2E/DX2                !
 ! D17   D(2,4,5,22)            63.0616         estimate D2E/DX2                !
 ! D18   D(19,4,5,6)            61.574          estimate D2E/DX2                !
 ! D19   D(19,4,5,21)          177.2845         estimate D2E/DX2                !
 ! D20   D(19,4,5,22)          -54.1343         estimate D2E/DX2                !
 ! D21   D(20,4,5,6)           -64.0322         estimate D2E/DX2                !
 ! D22   D(20,4,5,21)           51.6783         estimate D2E/DX2                !
 ! D23   D(20,4,5,22)         -179.7405         estimate D2E/DX2                !
 ! D24   D(4,5,6,7)            179.8845         estimate D2E/DX2                !
 ! D25   D(4,5,6,23)           -64.5795         estimate D2E/DX2                !
 ! D26   D(4,5,6,24)            64.3391         estimate D2E/DX2                !
 ! D27   D(21,5,6,7)            64.2658         estimate D2E/DX2                !
 ! D28   D(21,5,6,23)          179.8017         estimate D2E/DX2                !
 ! D29   D(21,5,6,24)          -51.2797         estimate D2E/DX2                !
 ! D30   D(22,5,6,7)           -64.5041         estimate D2E/DX2                !
 ! D31   D(22,5,6,23)           51.0318         estimate D2E/DX2                !
 ! D32   D(22,5,6,24)          179.9504         estimate D2E/DX2                !
 ! D33   D(5,6,7,8)            179.6942         estimate D2E/DX2                !
 ! D34   D(5,6,7,25)           -64.6153         estimate D2E/DX2                !
 ! D35   D(5,6,7,26)            63.9973         estimate D2E/DX2                !
 ! D36   D(23,6,7,8)            64.1499         estimate D2E/DX2                !
 ! D37   D(23,6,7,25)          179.8404         estimate D2E/DX2                !
 ! D38   D(23,6,7,26)          -51.547          estimate D2E/DX2                !
 ! D39   D(24,6,7,8)           -64.7539         estimate D2E/DX2                !
 ! D40   D(24,6,7,25)           50.9366         estimate D2E/DX2                !
 ! D41   D(24,6,7,26)          179.5492         estimate D2E/DX2                !
 ! D42   D(6,7,8,9)           -179.8812         estimate D2E/DX2                !
 ! D43   D(6,7,8,27)           -64.2195         estimate D2E/DX2                !
 ! D44   D(6,7,8,28)            64.4489         estimate D2E/DX2                !
 ! D45   D(25,7,8,9)            64.4309         estimate D2E/DX2                !
 ! D46   D(25,7,8,27)         -179.9074         estimate D2E/DX2                !
 ! D47   D(25,7,8,28)          -51.239          estimate D2E/DX2                !
 ! D48   D(26,7,8,9)           -64.1863         estimate D2E/DX2                !
 ! D49   D(26,7,8,27)           51.4754         estimate D2E/DX2                !
 ! D50   D(26,7,8,28)         -179.8561         estimate D2E/DX2                !
 ! D51   D(7,8,9,10)           179.9181         estimate D2E/DX2                !
 ! D52   D(7,8,9,29)           -64.4551         estimate D2E/DX2                !
 ! D53   D(7,8,9,30)            64.2788         estimate D2E/DX2                !
 ! D54   D(27,8,9,10)           64.2918         estimate D2E/DX2                !
 ! D55   D(27,8,9,29)          179.9186         estimate D2E/DX2                !
 ! D56   D(27,8,9,30)          -51.3475         estimate D2E/DX2                !
 ! D57   D(28,8,9,10)          -64.4443         estimate D2E/DX2                !
 ! D58   D(28,8,9,29)           51.1826         estimate D2E/DX2                !
 ! D59   D(28,8,9,30)          179.9164         estimate D2E/DX2                !
 ! D60   D(8,9,10,11)         -179.9941         estimate D2E/DX2                !
 ! D61   D(8,9,10,31)          -64.3094         estimate D2E/DX2                !
 ! D62   D(8,9,10,32)           64.3126         estimate D2E/DX2                !
 ! D63   D(29,9,10,11)          64.3786         estimate D2E/DX2                !
 ! D64   D(29,9,10,31)        -179.9366         estimate D2E/DX2                !
 ! D65   D(29,9,10,32)         -51.3147         estimate D2E/DX2                !
 ! D66   D(30,9,10,11)         -64.3556         estimate D2E/DX2                !
 ! D67   D(30,9,10,31)          51.3292         estimate D2E/DX2                !
 ! D68   D(30,9,10,32)         179.9512         estimate D2E/DX2                !
 ! D69   D(9,10,11,12)        -179.9784         estimate D2E/DX2                !
 ! D70   D(9,10,11,33)         -64.2529         estimate D2E/DX2                !
 ! D71   D(9,10,11,34)          64.2958         estimate D2E/DX2                !
 ! D72   D(31,10,11,12)         64.3442         estimate D2E/DX2                !
 ! D73   D(31,10,11,33)       -179.9303         estimate D2E/DX2                !
 ! D74   D(31,10,11,34)        -51.3817         estimate D2E/DX2                !
 ! D75   D(32,10,11,12)        -64.2885         estimate D2E/DX2                !
 ! D76   D(32,10,11,33)         51.437          estimate D2E/DX2                !
 ! D77   D(32,10,11,34)        179.9857         estimate D2E/DX2                !
 ! D78   D(10,11,12,13)        179.9888         estimate D2E/DX2                !
 ! D79   D(10,11,12,35)        -64.3543         estimate D2E/DX2                !
 ! D80   D(10,11,12,36)         64.3378         estimate D2E/DX2                !
 ! D81   D(33,11,12,13)         64.2854         estimate D2E/DX2                !
 ! D82   D(33,11,12,35)        179.9423         estimate D2E/DX2                !
 ! D83   D(33,11,12,36)        -51.3656         estimate D2E/DX2                !
 ! D84   D(34,11,12,13)        -64.3055         estimate D2E/DX2                !
 ! D85   D(34,11,12,35)         51.3514         estimate D2E/DX2                !
 ! D86   D(34,11,12,36)       -179.9566         estimate D2E/DX2                !
 ! D87   D(11,12,13,14)        179.9981         estimate D2E/DX2                !
 ! D88   D(11,12,13,37)        -64.2819         estimate D2E/DX2                !
 ! D89   D(11,12,13,38)         64.2806         estimate D2E/DX2                !
 ! D90   D(35,12,13,14)         64.3452         estimate D2E/DX2                !
 ! D91   D(35,12,13,37)       -179.9348         estimate D2E/DX2                !
 ! D92   D(35,12,13,38)        -51.3723         estimate D2E/DX2                !
 ! D93   D(36,12,13,14)        -64.352          estimate D2E/DX2                !
 ! D94   D(36,12,13,37)         51.368          estimate D2E/DX2                !
 ! D95   D(36,12,13,38)        179.9305         estimate D2E/DX2                !
 ! D96   D(12,13,14,15)       -179.9997         estimate D2E/DX2                !
 ! D97   D(12,13,14,39)        -64.3447         estimate D2E/DX2                !
 ! D98   D(12,13,14,40)         64.3511         estimate D2E/DX2                !
 ! D99   D(37,13,14,15)         64.2576         estimate D2E/DX2                !
 ! D100  D(37,13,14,39)        179.9126         estimate D2E/DX2                !
 ! D101  D(37,13,14,40)        -51.3916         estimate D2E/DX2                !
 ! D102  D(38,13,14,15)        -64.262          estimate D2E/DX2                !
 ! D103  D(38,13,14,39)         51.393          estimate D2E/DX2                !
 ! D104  D(38,13,14,40)       -179.9112         estimate D2E/DX2                !
 ! D105  D(13,14,15,41)        179.5739         estimate D2E/DX2                !
 ! D106  D(13,14,15,42)        -60.4234         estimate D2E/DX2                !
 ! D107  D(13,14,15,43)         59.5742         estimate D2E/DX2                !
 ! D108  D(39,14,15,41)         63.8132         estimate D2E/DX2                !
 ! D109  D(39,14,15,42)       -176.1841         estimate D2E/DX2                !
 ! D110  D(39,14,15,43)        -56.1865         estimate D2E/DX2                !
 ! D111  D(40,14,15,41)        -64.6705         estimate D2E/DX2                !
 ! D112  D(40,14,15,42)         55.3323         estimate D2E/DX2                !
 ! D113  D(40,14,15,43)        175.3299         estimate D2E/DX2                !
 --------------------------------------------------------------------------------
 Trust Radius=3.00D-01 FncErr=1.00D-07 GrdErr=1.00D-06 EigMax=2.50D+02 EigMin=1.00D-04
 Number of steps in this run=    248 maximum allowed number of steps=    264.
 GradGradGradGradGradGradGradGradGradGradGradGradGradGradGradGradGradGrad

 Leave Link  103 at Mon Oct 14 02:00:41 2019, MaxMem= 10737418240 cpu:               0.4 elap:               0.0
 (Enter /apps/cent7/gaussian/g16-A.03/g16-haswell/g16/l202.exe)
                          Input orientation:                          
 ---------------------------------------------------------------------
 Center     Atomic      Atomic             Coordinates (Angstroms)
 Number     Number       Type             X           Y           Z
 ---------------------------------------------------------------------
      1          8           0       -3.451200    3.722400  -10.309700
      2         16           0       -3.622800    5.128500   -9.556300
      3          6           0       -5.352300    5.156400   -8.964200
      4          6           0       -2.613400    5.007100   -8.032400
      5          6           0       -1.107100    4.915700   -8.358300
      6          6           0       -0.224100    4.842400   -7.085700
      7          6           0        1.282800    4.748400   -7.437300
      8          6           0        2.191300    4.681300   -6.182800
      9          6           0        3.698900    4.590300   -6.543700
     10          6           0        4.606200    4.525300   -5.285500
     11          6           0        6.116600    4.434200   -5.635900
     12          6           0        7.029900    4.368300   -4.379400
     13          6           0        8.538900    4.277100   -4.742600
     14          6           0        9.463800    4.210600   -3.496400
     15          6           0       10.963500    4.120000   -3.861500
     16          1           0       -5.363300    5.156600   -7.874300
     17          1           0       -5.848000    6.054600   -9.332700
     18          1           0       -5.876800    4.274800   -9.332700
     19          1           0       -2.690700    5.939800   -7.473600
     20          1           0       -2.818900    4.057400   -7.538600
     21          1           0       -0.968900    3.968000   -8.878700
     22          1           0       -0.849200    5.852000   -8.853300
     23          1           0       -0.358000    5.790800   -6.565400
     24          1           0       -0.481000    3.907100   -6.588500
     25          1           0        1.412700    3.797800   -7.954600
     26          1           0        1.533400    5.681800   -7.941300
     27          1           0        2.060600    5.631000   -5.664100
     28          1           0        1.943100    3.746800   -5.679600
     29          1           0        3.829800    3.639900   -7.061100
     30          1           0        3.946700    5.524100   -7.048200
     31          1           0        4.473300    5.475800   -4.768700
     32          1           0        4.356600    3.591500   -4.781700
     33          1           0        6.248000    3.484000   -6.153700
     34          1           0        6.364900    5.368300   -6.139800
     35          1           0        6.900300    5.318400   -3.861100
     36          1           0        6.783200    3.434100   -3.874800
     37          1           0        8.666300    3.327200   -5.261700
     38          1           0        8.783400    5.211400   -5.248100
     39          1           0        9.339300    5.160400   -2.976300
     40          1           0        9.222200    3.276100   -2.990000
     41          1           0       11.558100    4.084100   -2.948700
     42          1           0       11.141100    3.217700   -4.446600
     43          1           0       11.248400    4.994400   -4.446600
     44          1           0       -2.573246    3.380111  -10.493101
 ---------------------------------------------------------------------
                    Distance matrix (angstroms):
                    1          2          3          4          5
     1  O    0.000000
     2  S    1.604424   0.000000
     3  C    2.735125   1.828259   0.000000
     4  C    2.745625   1.831911   2.896915   0.000000
     5  C    3.275169   2.794501   4.294971   1.543860   0.000000
     6  C    4.697100   4.211517   5.470447   2.575291   1.550668
     7  C    5.631529   5.357196   6.820736   3.949866   2.566681
     8  C    7.056104   6.736783   8.054055   5.158712   3.958180
     9  C    8.127726   7.935535   9.386347   6.498852   5.147455
    10  C    9.529372   9.290857  10.634982   7.739523   6.498947
    11  C   10.672107  10.521763  11.963897   9.071071   7.734672
    12  C   12.059814  11.868370  13.227259  10.331782   9.074253
    13  C   13.231130  13.107385  14.545120  11.650300  10.321163
    14  C   14.610155  14.450745  15.821131  12.925497  11.656722
    15  C   15.796232  15.691015  17.126500  14.230796  12.905570
    16  H    3.412364   2.420590   1.089956   2.758495   4.290399
    17  H    3.484011   2.420573   1.090080   3.640147   4.972191
    18  H    2.672678   2.420603   1.090005   3.588429   4.910219
    19  H    3.679495   2.421705   3.149558   1.090028   2.083090
    20  H    2.861996   2.421699   3.107773   1.089954   2.082990
    21  H    2.875742   2.974742   4.542444   2.121399   1.089977
    22  H    3.664246   2.951359   4.557858   2.121352   1.090044
    23  H    5.278821   4.476946   5.576714   2.802339   2.131066
    24  H    4.764822   4.491165   5.561858   2.800353   2.131072
    25  H    5.404600   5.449079   6.973544   4.204514   2.786048
    26  H    5.856177   5.431461   6.981063   4.202317   2.780834
    27  H    7.456829   6.906719   8.128160   5.276777   4.219561
    28  H    7.108931   6.922221   8.123942   5.280693   4.224391
    29  H    7.973278   7.998950   9.499080   6.657889   5.261499
    30  H    8.283262   7.984009   9.501456   6.653634   5.256178
    31  H    9.827247   9.412150  10.688623   7.816184   6.658814
    32  H    9.567532   9.424967  10.686672   7.819966   6.663152
    33  H   10.554793  10.569520  12.052501   9.185519   7.810731
    34  H   10.791333  10.558604  12.054664   9.182716   7.807520
    35  H   12.299805  11.966913  13.273812  10.392648   9.192683
    36  H   12.092725  11.976446  13.271724  10.395002   9.195311
    37  H   13.132871  13.141927  14.614227  11.735863  10.374566
    38  H   13.323751  13.133212  14.616102  11.733760  10.372212
    39  H   14.813625  14.536625  15.864995  12.979009  11.753854
    40  H   14.642140  14.544473  15.863248  12.980893  11.755908
    41  H   16.721072  16.589481  17.980481  15.084010  13.797196
    42  H   15.734226  15.739534  17.210448  14.326416  12.969310
    43  H   15.876781  15.725127  17.205179  14.318087  12.960169
    44  H    0.960000   2.244108   3.635365   2.950213   3.010813
                    6          7          8          9         10
     6  C    0.000000
     7  C    1.550228   0.000000
     8  C    2.583668   1.550369   0.000000
     9  C    3.968280   2.580902   1.552864   0.000000
    10  C    5.164598   3.965477   2.580935   1.552574   0.000000
    11  C    6.517133   5.168112   3.970911   2.587227   1.553186
    12  C    7.756890   6.521073   5.173226   3.978573   2.592294
    13  C    9.088446   7.754645   6.521471   5.173747   3.977747
    14  C   10.350732   9.096630   7.767082   6.531790   5.186154
    15  C   11.665321  10.339109   9.091479   7.758208   6.527427
    16  H    5.208838   6.672948   7.756227   9.176855  10.319465
    17  H    6.176301   7.493131   8.742892  10.053158  11.314101
    18  H    6.109353   7.421368   8.670718   9.978582  11.239923
    19  H    2.727429   4.148428   5.204220   6.596427   7.748119
    20  H    2.748514   4.160731   5.227767   6.614796   7.773513
    21  H    2.129355   2.785105   4.214681   5.256219   6.656081
    22  H    2.129425   2.787187   4.212689   5.254651   6.652121
    23  H    1.090002   2.130500   2.806475   4.230852   5.280428
    24  H    1.089950   2.130549   2.811613   4.235603   5.287682
    25  H    2.127273   1.090006   2.127455   2.800965   4.225138
    26  H    2.127311   1.089978   2.127476   2.798937   4.222898
    27  H    2.804049   2.127955   1.089983   2.130910   2.801069
    28  H    2.806103   2.128076   1.090002   2.130961   2.802406
    29  H    4.228560   2.803125   2.130870   1.089999   2.130607
    30  H    4.226310   2.801691   2.130882   1.089912   2.130646
    31  H    5.275912   4.222538   2.799720   2.129420   1.090044
    32  H    5.277876   4.223609   2.799870   2.129510   1.089999
    33  H    6.678469   5.282002   4.229798   2.806049   2.129221
    34  H    6.677291   5.281621   4.229983   2.806417   2.129202
    35  H    7.834647   6.683593   5.288749   4.239745   2.814395
    36  H    7.835524   6.683801   5.288470   4.239426   2.814271
    37  H    9.201197   7.827459   6.678895   5.283371   4.233252
    38  H    9.200434   7.827258   6.679106   5.283605   4.233336
    39  H   10.413785   9.218322   7.848891   6.698169   5.304526
    40  H   10.414444   9.218472   7.848701   6.697966   5.304458
    41  H   12.510397  11.232569   9.927386   8.657210   7.347394
    42  H   11.780164  10.415057   9.233387   7.852910   6.717030
    43  H   11.773114  10.407593   9.227323   7.845768   6.711381
    44  H    4.389437   5.106783   6.555356   7.510136   8.942875
                   11         12         13         14         15
    11  C    0.000000
    12  C    1.554751   0.000000
    13  C    2.586543   1.554771   0.000000
    14  C    3.978845   2.593921   1.553344   0.000000
    15  C    5.171040   3.975309   2.584512   1.546159   0.000000
    16  H   11.718379  12.900665  14.277683  15.488829  16.844628
    17  H   12.627101  13.900327  15.205638  16.489814  17.784916
    18  H   12.551230  13.824863  15.128828  16.413425  17.707447
    19  H    9.122089  10.321519  11.675909  12.905043  14.240650
    20  H    9.143599  10.347757  11.698953  12.931650  14.264625
    21  H    7.806241   9.186117  10.373096  11.741773  12.945176
    22  H    7.802832   9.181360  10.368924  11.736632  12.940548
    23  H    6.680178   7.834741   9.206993  10.410742  11.759210
    24  H    6.686823   7.842605   9.214274  10.418841  11.766836
    25  H    5.282807   6.682848   7.831309   9.212283  10.395916
    26  H    5.279877   6.680114   7.828275   9.209387  10.392823
    27  H    4.228979   5.285717   6.682109   7.843713   9.208372
    28  H    4.229956   5.286995   6.683095   7.844897   9.209364
    29  H    2.809192   4.238245   5.287446   6.691393   7.833110
    30  H    2.809082   4.238454   5.287637   6.691708   7.833392
    31  H    2.130118   2.813239   4.238710   5.303260   6.692078
    32  H    2.130118   2.812792   4.238303   5.302714   6.691577
    33  H    1.090075   2.131078   2.805073   4.234449   5.281535
    34  H    1.090005   2.131017   2.805203   4.234503   5.281669
    35  H    2.132114   1.090010   2.132219   2.816338   4.236243
    36  H    2.132142   1.090051   2.132184   2.816337   4.236218
    37  H    2.804718   2.130762   1.089957   2.129011   2.804678
    38  H    2.804684   2.130779   1.090058   2.129084   2.804755
    39  H    4.241065   2.815926   2.130886   1.090011   2.122272
    40  H    4.241077   2.815939   2.130846   1.090001   2.122217
    41  H    6.078942   4.757338   3.517228   2.168426   1.089973
    42  H    5.304706   4.269703   2.825135   2.168425   1.089967
    43  H    5.297512   4.265238   2.818426   2.168414   1.089993
    44  H   10.010841  11.426910  12.544028  13.947545  15.092020
                   16         17         18         19         20
    16  H    0.000000
    17  H    1.779963   0.000000
    18  H    1.779939   1.780033   0.000000
    19  H    2.813673   3.665784   4.047186   0.000000
    20  H    2.791936   4.047598   3.552015   1.887880   0.000000
    21  H    4.661796   5.325940   4.938393   2.971009   2.286123
    22  H    4.671094   5.025821   5.290949   2.302695   2.971320
    23  H    5.212337   6.153669   6.357150   2.507692   3.163514
    24  H    5.201095   6.398990   6.064692   3.130183   2.528054
    25  H    6.911365   7.727229   7.433942   4.653753   4.259916
    26  H    6.916993   7.520641   7.669857   4.257737   4.662977
    27  H    7.760434   8.728346   8.848741   5.093574   5.458891
    28  H    7.758075   8.909114   8.647240   5.431371   5.121425
    29  H    9.352794  10.229895   9.989061   6.926515   6.678886
    30  H    9.353801  10.071570  10.162718   6.663997   6.940104
    31  H   10.320142  11.300192  11.375283   7.671680   7.928454
    32  H   10.319407  11.441692  11.220560   7.900967   7.700997
    33  H   11.856658  12.768212  12.559545   9.363410   9.189963
    34  H   11.857655  12.642015  12.698408   9.171125   9.381753
    35  H   12.904567  13.892428  13.938500  10.267598  10.467902
    36  H   12.903506  14.007245  13.811989  10.439573  10.296225
    37  H   14.387566  15.319160  15.131845  11.861687  11.731466
    38  H   14.388504  15.214230  15.247381  11.710610  11.882402
    39  H   15.496995  16.488102  16.514170  12.866782  13.032767
    40  H   15.496112  16.584958  16.407530  13.004428  12.895281
    41  H   17.656318  18.644319  18.567918  15.064748  15.091919
    42  H   16.967725  17.903952  17.736977  14.418434  14.322959
    43  H   16.962429  17.812493  17.823139  14.295280  14.433550
    44  H    4.218819   4.384453   3.613927   3.960201   3.041076
                   21         22         23         24         25
    21  H    0.000000
    22  H    1.887970   0.000000
    23  H    3.007849   2.340835   0.000000
    24  H    2.342386   3.007911   1.887853   0.000000
    25  H    2.560263   3.184900   3.006211   2.337579   0.000000
    26  H    3.174482   2.556853   2.341447   3.006233   1.887909
    27  H    4.719861   4.322820   2.586021   3.207191   3.004461
    28  H    4.331618   4.722412   3.202755   2.593850   2.336568
    29  H    5.141871   5.477080   4.733895   4.344852   2.581791
    30  H    5.471316   5.134838   4.339892   4.736089   3.197316
    31  H    6.984490   6.719709   5.164186   5.506140   4.725771
    32  H    6.729644   6.984851   5.499633   5.173635   4.333175
    33  H    7.729394   7.953962   7.009284   6.756294   5.169317
    34  H    7.952800   7.722712   6.749595   7.014470   5.503113
    35  H    9.429963   9.233718   7.760111   7.994627   7.013039
    36  H    9.242246   9.427897   7.986871   7.768944   6.754207
    37  H   10.311663  10.479454   9.444943   9.261198   7.751638
    38  H   10.480203  10.305087   9.253982   9.451295   7.978134
    39  H   11.938138  11.782316  10.359376  10.538360   9.458918
    40  H   11.790421  11.935101  10.530310  10.368194   9.268641
    41  H   13.860163  13.853912  12.569279  12.578529  11.316808
    42  H   12.917374  13.043229  11.972446  11.837914  10.357816
    43  H   13.036849  12.903736  11.825062  11.972835  10.510895
    44  H    2.350709   3.430965   5.113274   4.461067   4.744072
                   26         27         28         29         30
    26  H    0.000000
    27  H    2.337982   0.000000
    28  H    3.004558   1.887924   0.000000
    29  H    3.196492   3.007683   2.340856   0.000000
    30  H    2.578083   2.341908   3.007702   1.887867   0.000000
    31  H    4.330224   2.578168   3.197044   3.006613   2.340034
    32  H    4.724710   3.195279   2.579792   2.339984   3.006656
    33  H    5.500299   4.731135   4.338894   2.587541   3.202830
    34  H    5.165954   4.338468   4.732162   3.203575   2.587886
    35  H    6.751571   5.174092   5.509147   4.741870   4.350135
    36  H    7.010633   5.507351   5.175099   4.349418   4.741761
    37  H    7.975128   7.007474   6.749231   5.169850   5.503869
    38  H    7.748361   6.748715   7.008634   5.504065   5.170281
    39  H    9.265806   7.773365   8.000617   7.025105   6.767036
    40  H    9.456237   7.999055   7.774368   6.766401   7.025197
    41  H   11.312529   9.998440  10.000991   8.765601   8.764297
    42  H   10.516302   9.474271   9.295345   7.776180   7.990444
    43  H   10.347303   9.289953   9.469182   7.981598   7.769410
    44  H    5.354811   7.061040   6.610721   7.269465   7.679436
                   31         32         33         34         35
    31  H    0.000000
    32  H    1.887955   0.000000
    33  H    3.005836   2.339088   0.000000
    34  H    2.338722   3.005782   1.887974   0.000000
    35  H    2.595928   3.209377   3.007746   2.341285   0.000000
    36  H    3.209865   2.595309   2.341434   3.007712   1.887985
    37  H    4.737170   4.344395   2.582329   3.198998   3.007543
    38  H    4.344732   4.736894   3.198793   2.582419   2.341214
    39  H    5.195203   5.527044   4.739443   4.347184   2.599338
    40  H    5.527613   5.194587   4.347193   4.739484   3.212635
    41  H    7.446047   7.447425   6.231317   6.229094   4.904189
    42  H    7.047150   6.803048   5.189175   5.504915   4.768662
    43  H    6.799814   7.041117   5.495407   5.182210   4.399291
    44  H    9.317430   8.982625   9.831357  10.138767  11.725548
                   36         37         38         39         40
    36  H    0.000000
    37  H    2.341150   0.000000
    38  H    3.007582   1.887884   0.000000
    39  H    3.212641   3.006095   2.339380   0.000000
    40  H    2.599338   2.339286   3.006152   1.887985   0.000000
    41  H    4.907120   3.779600   3.775845   2.466223   2.472043
    42  H    4.400577   2.607875   3.189983   3.030239   2.409828
    43  H    4.764399   3.179809   2.601099   2.415368   3.029806
    44  H   11.460712  12.397490  12.642669  14.197904  13.979982
                   41         42         43         44
    41  H    0.000000
    42  H    1.779956   0.000000
    43  H    1.779962   1.779937   0.000000
    44  H   16.034604  14.988991  15.172476   0.000000
 Stoichiometry    C13H29OS(1+)
 Framework group  C1[X(C13H29OS)]
 Deg. of freedom   126
 Full point group                 C1      NOp   1
 Largest Abelian subgroup         C1      NOp   1
 Largest concise Abelian subgroup C1      NOp   1
                         Standard orientation:                         
 ---------------------------------------------------------------------
 Center     Atomic      Atomic             Coordinates (Angstroms)
 Number     Number       Type             X           Y           Z
 ---------------------------------------------------------------------
      1          8           0        6.383783    1.550983    0.548658
      2         16           0        6.325330    0.260055   -0.402270
      3          6           0        7.714498   -0.801915    0.131552
      4          6           0        4.821281   -0.660451    0.094120
      5          6           0        3.538612    0.132086   -0.237768
      6          6           0        2.246584   -0.635868    0.143657
      7          6           0        0.972717    0.179754   -0.195796
      8          6           0       -0.336059   -0.567408    0.168207
      9          6           0       -1.607023    0.255045   -0.177640
     10          6           0       -2.915959   -0.496527    0.186108
     11          6           0       -4.193396    0.317954   -0.156184
     12          6           0       -5.507315   -0.429893    0.206572
     13          6           0       -6.778740    0.395039   -0.140241
     14          6           0       -8.099663   -0.340143    0.216895
     15          6           0       -9.361726    0.483197   -0.129393
     16          1           0        7.323146   -1.729539    0.549115
     17          1           0        8.348802   -1.028443   -0.725546
     18          1           0        8.299882   -0.280908    0.889172
     19          1           0        4.726829   -1.555245   -0.521173
     20          1           0        4.789807   -0.740483    1.180675
     21          1           0        3.561721    1.020000    0.393995
     22          1           0        3.521297    0.235438   -1.322763
     23          1           0        2.219548   -1.522632   -0.489606
     24          1           0        2.262203   -0.741194    1.228394
     25          1           0        1.002269    1.063643    0.441371
     26          1           0        0.965373    0.289657   -1.280194
     27          1           0       -0.365422   -1.452354   -0.467458
     28          1           0       -0.330697   -0.675404    1.252833
     29          1           0       -1.578355    1.139250    0.459116
     30          1           0       -1.611565    0.364314   -1.262051
     31          1           0       -2.942545   -1.380900   -0.450581
     32          1           0       -2.909487   -0.605773    1.270598
     33          1           0       -4.165036    1.202572    0.480141
     34          1           0       -4.198610    0.426745   -1.240734
     35          1           0       -5.537535   -1.314321   -0.429819
     36          1           0       -5.503849   -0.538728    1.291171
     37          1           0       -6.746174    1.279364    0.496088
     38          1           0       -6.779828    0.503898   -1.224849
     39          1           0       -8.135295   -1.224354   -0.419521
     40          1           0       -8.101609   -0.448761    1.301469
     41          1           0      -10.251764   -0.087005    0.136582
     42          1           0       -9.349437    1.419151    0.429058
     43          1           0       -9.373549    0.697812   -1.197984
     44          1           0        5.621472    2.130234    0.619022
 ---------------------------------------------------------------------
 Rotational constants (GHZ):           3.4318100           0.0700482           0.0693674
 Leave Link  202 at Mon Oct 14 02:00:41 2019, MaxMem= 10737418240 cpu:               0.5 elap:               0.0
 (Enter /apps/cent7/gaussian/g16-A.03/g16-haswell/g16/l301.exe)
 Standard basis: 6-31G(d) (6D, 7F)
 Ernie: Thresh=  0.10000D-02 Tol=  0.10000D-05 Strict=F.
 There are   287 symmetry adapted cartesian basis functions of A   symmetry.
 There are   287 symmetry adapted basis functions of A   symmetry.
   287 basis functions,   560 primitive gaussians,   287 cartesian basis functions
    65 alpha electrons       65 beta electrons
       nuclear repulsion energy      1037.1161878381 Hartrees.
 IExCor=  402 DFT=T Ex+Corr=B3LYP ExCW=0 ScaHFX=  0.200000
 ScaDFX=  0.800000  0.720000  1.000000  0.810000 ScalE2=  1.000000  1.000000
 IRadAn=      5 IRanWt=     -1 IRanGd=            0 ICorTp=0 IEmpDi=  4
 NAtoms=   44 NActive=   44 NUniq=   44 SFac= 1.00D+00 NAtFMM=   60 NAOKFM=F Big=F
 Integral buffers will be    131072 words long.
 Raffenetti 2 integral format.
 Two-electron integral symmetry is turned on.
 Leave Link  301 at Mon Oct 14 02:00:42 2019, MaxMem= 10737418240 cpu:               1.3 elap:               0.1
 (Enter /apps/cent7/gaussian/g16-A.03/g16-haswell/g16/l302.exe)
 NPDir=0 NMtPBC=     1 NCelOv=     1 NCel=       1 NClECP=     1 NCelD=      1
         NCelK=      1 NCelE2=     1 NClLst=     1 CellRange=     0.0.
 One-electron integrals computed using PRISM.
 One-electron integral symmetry used in STVInt
 NBasis=   287 RedAO= T EigKep=  2.55D-03  NBF=   287
 NBsUse=   287 1.00D-06 EigRej= -1.00D+00 NBFU=   287
 Precomputing XC quadrature grid using
 IXCGrd= 4 IRadAn=           5 IRanWt=          -1 IRanGd=           0 AccXCQ= 0.00D+00.
 Generated NRdTot=       0 NPtTot=           0 NUsed=           0 NTot=          32
 NSgBfM=   269   269   269   269   269 MxSgAt=    44 MxSgA2=    44.
 Leave Link  302 at Mon Oct 14 02:00:42 2019, MaxMem= 10737418240 cpu:               6.4 elap:               0.3
 (Enter /apps/cent7/gaussian/g16-A.03/g16-haswell/g16/l303.exe)
 DipDrv:  MaxL=1.
 Leave Link  303 at Mon Oct 14 02:00:42 2019, MaxMem= 10737418240 cpu:               1.2 elap:               0.1
 (Enter /apps/cent7/gaussian/g16-A.03/g16-haswell/g16/l401.exe)
 ExpMin= 1.17D-01 ExpMax= 2.19D+04 ExpMxC= 3.30D+03 IAcc=3 IRadAn=         5 AccDes= 0.00D+00
 Harris functional with IExCor=  402 and IRadAn=       5 diagonalized for initial guess.
 HarFok:  IExCor=  402 AccDes= 0.00D+00 IRadAn=         5 IDoV= 1 UseB2=F ITyADJ=14
 ICtDFT=  3500011 ScaDFX=  1.000000  1.000000  1.000000  1.000000
 FoFCou: FMM=F IPFlag=           0 FMFlag=      100000 FMFlg1=           0
         NFxFlg=           0 DoJE=T BraDBF=F KetDBF=T FulRan=T
         wScrn=  0.000000 ICntrl=       500 IOpCl=  0 I1Cent=   200000004 NGrid=           0
         NMat0=    1 NMatS0=      1 NMatT0=    0 NMatD0=    1 NMtDS0=    0 NMtDT0=    0
 Petite list used in FoFCou.
 Harris En= -986.105373490163    
 JPrj=0 DoOrth=F DoCkMO=F.
 Leave Link  401 at Mon Oct 14 02:00:43 2019, MaxMem= 10737418240 cpu:              15.2 elap:               0.7
 (Enter /apps/cent7/gaussian/g16-A.03/g16-haswell/g16/l502.exe)
 Integral symmetry usage will be decided dynamically.
 Closed shell SCF:
 Using DIIS extrapolation, IDIIS=  1040.
 NGot= 10737418240 LenX= 10737242950 LenY= 10737160140
 Requested convergence on RMS density matrix=1.00D-08 within 128 cycles.
 Requested convergence on MAX density matrix=1.00D-06.
 Requested convergence on             energy=1.00D-06.
 No special actions if energy rises.
 Fock matrices will be formed incrementally for  20 cycles.
 Integral accuracy reduced to 1.0D-05 until final iterations.

 Cycle   1  Pass 0  IDiag  1:
 FoFJK:  IHMeth= 1 ICntrl=       0 DoSepK=F KAlg= 0 I1Cent=           0 FoldK=F
 IRaf= 630000000 NMat=       1 IRICut=       1 DoRegI=T DoRafI=F ISym2E= 0 IDoP0=0 IntGTp=1.
 FoFCou: FMM=F IPFlag=           0 FMFlag=      100000 FMFlg1=           0
         NFxFlg=           0 DoJE=F BraDBF=F KetDBF=F FulRan=T
         wScrn=  0.000000 ICntrl=         0 IOpCl=  0 I1Cent=           0 NGrid=           0
         NMat0=    1 NMatS0=      1 NMatT0=    0 NMatD0=    1 NMtDS0=    0 NMtDT0=    0
 Symmetry not used in FoFCou.
 E= -985.279297154134    
 DIIS: error= 4.22D-02 at cycle   1 NSaved=   1.
 NSaved= 1 IEnMin= 1 EnMin= -985.279297154134     IErMin= 1 ErrMin= 4.22D-02
 ErrMax= 4.22D-02  0.00D+00 EMaxC= 1.00D-01 BMatC= 6.06D-01 BMatP= 6.06D-01
 IDIUse=3 WtCom= 5.78D-01 WtEn= 4.22D-01
 Coeff-Com:  0.100D+01
 Coeff-En:   0.100D+01
 Coeff:      0.100D+01
 Gap=     0.267 Goal=   None    Shift=    0.000
 GapD=    0.267 DampG=1.000 DampE=0.500 DampFc=0.5000 IDamp=-1.
 Damping current iteration by 5.00D-01
 RMSDP=1.52D-02 MaxDP=8.48D-01              OVMax= 9.32D-01

 Cycle   2  Pass 0  IDiag  1:
 RMSU=  7.58D-03    CP:  9.77D-01
 E= -984.357372492207     Delta-E=        0.921924661926 Rises=F Damp=T
 DIIS: error= 2.45D-02 at cycle   2 NSaved=   2.
 NSaved= 2 IEnMin= 1 EnMin= -985.279297154134     IErMin= 2 ErrMin= 2.45D-02
 ErrMax= 2.45D-02  0.00D+00 EMaxC= 1.00D-01 BMatC= 2.77D-01 BMatP= 6.06D-01
 IDIUse=3 WtCom= 7.55D-01 WtEn= 2.45D-01
 Coeff-Com:  0.363D+00 0.637D+00
 Coeff-En:   0.767D+00 0.233D+00
 Coeff:      0.462D+00 0.538D+00
 Gap=    -0.500 Goal=   None    Shift=    0.000
 RMSDP=7.49D-03 MaxDP=4.12D-01 DE= 9.22D-01 OVMax= 7.50D-01

 Cycle   3  Pass 0  IDiag  1:
 RMSU=  3.52D-03    CP:  9.75D-01  1.28D-01
 E= -985.664813620943     Delta-E=       -1.307441128735 Rises=F Damp=F
 DIIS: error= 2.24D-02 at cycle   3 NSaved=   3.
 NSaved= 3 IEnMin= 3 EnMin= -985.664813620943     IErMin= 3 ErrMin= 2.24D-02
 ErrMax= 2.24D-02  0.00D+00 EMaxC= 1.00D-01 BMatC= 2.41D-01 BMatP= 2.77D-01
 IDIUse=3 WtCom= 7.76D-01 WtEn= 2.24D-01
 EnCoef did     1 forward-backward iterations
 Coeff-Com:  0.203D+00 0.397D+00 0.399D+00
 Coeff-En:   0.124D+00 0.470D-01 0.829D+00
 Coeff:      0.186D+00 0.319D+00 0.495D+00
 Gap=     0.358 Goal=   None    Shift=    0.000
 RMSDP=2.22D-03 MaxDP=7.81D-02 DE=-1.31D+00 OVMax= 8.56D-02

 Cycle   4  Pass 0  IDiag  1:
 RMSU=  1.48D-03    CP:  9.81D-01  1.22D-01  5.32D-01
 E= -985.910778943844     Delta-E=       -0.245965322901 Rises=F Damp=F
 DIIS: error= 7.37D-03 at cycle   4 NSaved=   4.
 NSaved= 4 IEnMin= 4 EnMin= -985.910778943844     IErMin= 4 ErrMin= 7.37D-03
 ErrMax= 7.37D-03  0.00D+00 EMaxC= 1.00D-01 BMatC= 1.59D-02 BMatP= 2.41D-01
 IDIUse=3 WtCom= 9.26D-01 WtEn= 7.37D-02
 Coeff-Com: -0.783D-02 0.159D+00 0.137D+00 0.712D+00
 Coeff-En:   0.000D+00 0.000D+00 0.000D+00 0.100D+01
 Coeff:     -0.725D-02 0.147D+00 0.127D+00 0.733D+00
 Gap=     0.253 Goal=   None    Shift=    0.000
 RMSDP=6.42D-04 MaxDP=3.34D-02 DE=-2.46D-01 OVMax= 2.51D-02

 Cycle   5  Pass 0  IDiag  1:
 RMSU=  6.16D-04    CP:  9.81D-01  1.40D-01  5.52D-01  1.07D+00
 E= -985.921898505261     Delta-E=       -0.011119561417 Rises=F Damp=F
 DIIS: error= 5.12D-03 at cycle   5 NSaved=   5.
 NSaved= 5 IEnMin= 5 EnMin= -985.921898505261     IErMin= 5 ErrMin= 5.12D-03
 ErrMax= 5.12D-03  0.00D+00 EMaxC= 1.00D-01 BMatC= 8.47D-03 BMatP= 1.59D-02
 IDIUse=3 WtCom= 9.49D-01 WtEn= 5.12D-02
 Coeff-Com: -0.462D-01 0.614D-01-0.340D-01 0.428D+00 0.591D+00
 Coeff-En:   0.000D+00 0.000D+00 0.000D+00 0.912D-01 0.909D+00
 Coeff:     -0.438D-01 0.582D-01-0.322D-01 0.410D+00 0.607D+00
 Gap=     0.151 Goal=   None    Shift=    0.000
 RMSDP=4.29D-04 MaxDP=1.81D-02 DE=-1.11D-02 OVMax= 1.91D-02

 Cycle   6  Pass 0  IDiag  1:
 RMSU=  2.90D-04    CP:  9.80D-01  1.46D-01  5.23D-01  1.26D+00  8.95D-01
 E= -985.929599680863     Delta-E=       -0.007701175602 Rises=F Damp=F
 DIIS: error= 1.89D-03 at cycle   6 NSaved=   6.
 NSaved= 6 IEnMin= 6 EnMin= -985.929599680863     IErMin= 6 ErrMin= 1.89D-03
 ErrMax= 1.89D-03  0.00D+00 EMaxC= 1.00D-01 BMatC= 1.04D-03 BMatP= 8.47D-03
 IDIUse=3 WtCom= 9.81D-01 WtEn= 1.89D-02
 Coeff-Com: -0.201D-01 0.139D-01-0.573D-01-0.833D-02 0.286D+00 0.786D+00
 Coeff-En:   0.000D+00 0.000D+00 0.000D+00 0.000D+00 0.000D+00 0.100D+01
 Coeff:     -0.198D-01 0.137D-01-0.562D-01-0.817D-02 0.281D+00 0.790D+00
 Gap=     0.132 Goal=   None    Shift=    0.000
 RMSDP=1.73D-04 MaxDP=4.74D-03 DE=-7.70D-03 OVMax= 6.34D-03

 Cycle   7  Pass 0  IDiag  1:
 RMSU=  9.26D-05    CP:  9.80D-01  1.49D-01  5.11D-01  1.31D+00  1.08D+00
                    CP:  9.85D-01
 E= -985.930761947616     Delta-E=       -0.001162266753 Rises=F Damp=F
 DIIS: error= 4.70D-04 at cycle   7 NSaved=   7.
 NSaved= 7 IEnMin= 7 EnMin= -985.930761947616     IErMin= 7 ErrMin= 4.70D-04
 ErrMax= 4.70D-04  0.00D+00 EMaxC= 1.00D-01 BMatC= 1.02D-04 BMatP= 1.04D-03
 IDIUse=3 WtCom= 9.95D-01 WtEn= 4.70D-03
 Coeff-Com: -0.658D-02 0.315D-02-0.282D-01-0.497D-01 0.783D-01 0.390D+00
 Coeff-Com:  0.613D+00
 Coeff-En:   0.000D+00 0.000D+00 0.000D+00 0.000D+00 0.000D+00 0.000D+00
 Coeff-En:   0.100D+01
 Coeff:     -0.655D-02 0.313D-02-0.281D-01-0.495D-01 0.779D-01 0.388D+00
 Coeff:      0.615D+00
 Gap=     0.127 Goal=   None    Shift=    0.000
 RMSDP=5.65D-05 MaxDP=4.18D-03 DE=-1.16D-03 OVMax= 2.84D-03

 Cycle   8  Pass 0  IDiag  1:
 RMSU=  3.07D-05    CP:  9.80D-01  1.50D-01  5.07D-01  1.33D+00  1.11D+00
                    CP:  1.04D+00  7.18D-01
 E= -985.930878553517     Delta-E=       -0.000116605901 Rises=F Damp=F
 DIIS: error= 1.12D-04 at cycle   8 NSaved=   8.
 NSaved= 8 IEnMin= 8 EnMin= -985.930878553517     IErMin= 8 ErrMin= 1.12D-04
 ErrMax= 1.12D-04  0.00D+00 EMaxC= 1.00D-01 BMatC= 6.33D-06 BMatP= 1.02D-04
 IDIUse=3 WtCom= 9.99D-01 WtEn= 1.12D-03
 Coeff-Com: -0.544D-03 0.410D-03-0.493D-02-0.170D-01-0.440D-02 0.484D-01
 Coeff-Com:  0.231D+00 0.747D+00
 Coeff-En:   0.000D+00 0.000D+00 0.000D+00 0.000D+00 0.000D+00 0.000D+00
 Coeff-En:   0.000D+00 0.100D+01
 Coeff:     -0.543D-03 0.410D-03-0.493D-02-0.170D-01-0.440D-02 0.483D-01
 Coeff:      0.231D+00 0.747D+00
 Gap=     0.126 Goal=   None    Shift=    0.000
 RMSDP=1.40D-05 MaxDP=3.29D-04 DE=-1.17D-04 OVMax= 5.58D-04

 Cycle   9  Pass 0  IDiag  1:
 RMSU=  6.41D-06    CP:  9.80D-01  1.51D-01  5.07D-01  1.34D+00  1.12D+00
                    CP:  1.05D+00  7.80D-01  8.71D-01
 E= -985.930885894166     Delta-E=       -0.000007340649 Rises=F Damp=F
 DIIS: error= 1.92D-05 at cycle   9 NSaved=   9.
 NSaved= 9 IEnMin= 9 EnMin= -985.930885894166     IErMin= 9 ErrMin= 1.92D-05
 ErrMax= 1.92D-05  0.00D+00 EMaxC= 1.00D-01 BMatC= 2.86D-07 BMatP= 6.33D-06
 IDIUse=1 WtCom= 1.00D+00 WtEn= 0.00D+00
 Coeff-Com:  0.427D-04 0.535D-04-0.622D-03-0.349D-02-0.571D-02-0.193D-02
 Coeff-Com:  0.550D-01 0.278D+00 0.679D+00
 Coeff:      0.427D-04 0.535D-04-0.622D-03-0.349D-02-0.571D-02-0.193D-02
 Coeff:      0.550D-01 0.278D+00 0.679D+00
 Gap=     0.126 Goal=   None    Shift=    0.000
 RMSDP=2.97D-06 MaxDP=7.78D-05 DE=-7.34D-06 OVMax= 1.33D-04

 Initial convergence to 1.0D-05 achieved.  Increase integral accuracy.
 Cycle  10  Pass 1  IDiag  1:
 E= -985.930805718247     Delta-E=        0.000080175919 Rises=F Damp=F
 DIIS: error= 1.71D-05 at cycle   1 NSaved=   1.
 NSaved= 1 IEnMin= 1 EnMin= -985.930805718247     IErMin= 1 ErrMin= 1.71D-05
 ErrMax= 1.71D-05  0.00D+00 EMaxC= 1.00D-01 BMatC= 8.55D-08 BMatP= 8.55D-08
 IDIUse=1 WtCom= 1.00D+00 WtEn= 0.00D+00
 Coeff-Com:  0.100D+01
 Coeff:      0.100D+01
 Gap=     0.126 Goal=   None    Shift=    0.000
 RMSDP=2.97D-06 MaxDP=7.78D-05 DE= 8.02D-05 OVMax= 8.47D-05

 Cycle  11  Pass 1  IDiag  1:
 RMSU=  3.93D-06    CP:  1.00D+00
 E= -985.930805721354     Delta-E=       -0.000000003106 Rises=F Damp=F
 DIIS: error= 9.09D-06 at cycle   2 NSaved=   2.
 NSaved= 2 IEnMin= 2 EnMin= -985.930805721354     IErMin= 2 ErrMin= 9.09D-06
 ErrMax= 9.09D-06  0.00D+00 EMaxC= 1.00D-01 BMatC= 7.96D-08 BMatP= 8.55D-08
 IDIUse=1 WtCom= 1.00D+00 WtEn= 0.00D+00
 Coeff-Com:  0.489D+00 0.511D+00
 Coeff:      0.489D+00 0.511D+00
 Gap=     0.126 Goal=   None    Shift=    0.000
 RMSDP=1.27D-06 MaxDP=4.69D-05 DE=-3.11D-09 OVMax= 6.11D-05

 Cycle  12  Pass 1  IDiag  1:
 RMSU=  1.15D-06    CP:  1.00D+00  8.63D-01
 E= -985.930805798676     Delta-E=       -0.000000077322 Rises=F Damp=F
 DIIS: error= 2.34D-06 at cycle   3 NSaved=   3.
 NSaved= 3 IEnMin= 3 EnMin= -985.930805798676     IErMin= 3 ErrMin= 2.34D-06
 ErrMax= 2.34D-06  0.00D+00 EMaxC= 1.00D-01 BMatC= 4.06D-09 BMatP= 7.96D-08
 IDIUse=1 WtCom= 1.00D+00 WtEn= 0.00D+00
 Coeff-Com:  0.991D-02 0.184D+00 0.806D+00
 Coeff:      0.991D-02 0.184D+00 0.806D+00
 Gap=     0.126 Goal=   None    Shift=    0.000
 RMSDP=2.49D-07 MaxDP=8.48D-06 DE=-7.73D-08 OVMax= 1.38D-05

 Cycle  13  Pass 1  IDiag  1:
 RMSU=  1.19D-07    CP:  1.00D+00  8.95D-01  8.43D-01
 E= -985.930805802570     Delta-E=       -0.000000003895 Rises=F Damp=F
 DIIS: error= 6.97D-07 at cycle   4 NSaved=   4.
 NSaved= 4 IEnMin= 4 EnMin= -985.930805802570     IErMin= 4 ErrMin= 6.97D-07
 ErrMax= 6.97D-07  0.00D+00 EMaxC= 1.00D-01 BMatC= 2.51D-10 BMatP= 4.06D-09
 IDIUse=1 WtCom= 1.00D+00 WtEn= 0.00D+00
 Coeff-Com: -0.291D-02 0.892D-01 0.426D+00 0.487D+00
 Coeff:     -0.291D-02 0.892D-01 0.426D+00 0.487D+00
 Gap=     0.126 Goal=   None    Shift=    0.000
 RMSDP=6.58D-08 MaxDP=4.62D-06 DE=-3.89D-09 OVMax= 3.40D-06

 Cycle  14  Pass 1  IDiag  1:
 RMSU=  2.57D-08    CP:  1.00D+00  8.95D-01  8.42D-01  4.92D-01
 E= -985.930805802828     Delta-E=       -0.000000000258 Rises=F Damp=F
 DIIS: error= 9.23D-08 at cycle   5 NSaved=   5.
 NSaved= 5 IEnMin= 5 EnMin= -985.930805802828     IErMin= 5 ErrMin= 9.23D-08
 ErrMax= 9.23D-08  0.00D+00 EMaxC= 1.00D-01 BMatC= 4.58D-12 BMatP= 2.51D-10
 IDIUse=1 WtCom= 1.00D+00 WtEn= 0.00D+00
 Coeff-Com: -0.155D-02 0.321D-01 0.156D+00 0.211D+00 0.602D+00
 Coeff:     -0.155D-02 0.321D-01 0.156D+00 0.211D+00 0.602D+00
 Gap=     0.126 Goal=   None    Shift=    0.000
 RMSDP=1.05D-08 MaxDP=3.74D-07 DE=-2.58D-10 OVMax= 5.50D-07

 Cycle  15  Pass 1  IDiag  1:
 RMSU=  8.46D-09    CP:  1.00D+00  8.96D-01  8.42D-01  5.18D-01  7.94D-01
 E= -985.930805802839     Delta-E=       -0.000000000010 Rises=F Damp=F
 DIIS: error= 5.48D-08 at cycle   6 NSaved=   6.
 NSaved= 6 IEnMin= 6 EnMin= -985.930805802839     IErMin= 6 ErrMin= 5.48D-08
 ErrMax= 5.48D-08  0.00D+00 EMaxC= 1.00D-01 BMatC= 8.14D-13 BMatP= 4.58D-12
 IDIUse=1 WtCom= 1.00D+00 WtEn= 0.00D+00
 Coeff-Com: -0.503D-03 0.741D-02 0.368D-01 0.608D-01 0.330D+00 0.566D+00
 Coeff:     -0.503D-03 0.741D-02 0.368D-01 0.608D-01 0.330D+00 0.566D+00
 Gap=     0.126 Goal=   None    Shift=    0.000
 RMSDP=3.83D-09 MaxDP=2.11D-07 DE=-1.02D-11 OVMax= 2.26D-07

 SCF Done:  E(RB3LYP) =  -985.930805803     A.U. after   15 cycles
            NFock= 15  Conv=0.38D-08     -V/T= 2.0071
 KE= 9.789426962535D+02 PE=-4.364341370081D+03 EE= 1.362351680187D+03
 Leave Link  502 at Mon Oct 14 02:00:50 2019, MaxMem= 10737418240 cpu:             180.9 elap:               7.6
 (Enter /apps/cent7/gaussian/g16-A.03/g16-haswell/g16/l601.exe)
 Copying SCF densities to generalized density rwf, IOpCl= 0 IROHF=0.

 **********************************************************************

            Population analysis using the SCF density.

 **********************************************************************

 Orbital symmetries:
       Occupied  (A) (A) (A) (A) (A) (A) (A) (A) (A) (A) (A) (A)
                 (A) (A) (A) (A) (A) (A) (A) (A) (A) (A) (A) (A)
                 (A) (A) (A) (A) (A) (A) (A) (A) (A) (A) (A) (A)
                 (A) (A) (A) (A) (A) (A) (A) (A) (A) (A) (A) (A)
                 (A) (A) (A) (A) (A) (A) (A) (A) (A) (A) (A) (A)
                 (A) (A) (A) (A) (A)
       Virtual   (A) (A) (A) (A) (A) (A) (A) (A) (A) (A) (A) (A)
                 (A) (A) (A) (A) (A) (A) (A) (A) (A) (A) (A) (A)
                 (A) (A) (A) (A) (A) (A) (A) (A) (A) (A) (A) (A)
                 (A) (A) (A) (A) (A) (A) (A) (A) (A) (A) (A) (A)
                 (A) (A) (A) (A) (A) (A) (A) (A) (A) (A) (A) (A)
                 (A) (A) (A) (A) (A) (A) (A) (A) (A) (A) (A) (A)
                 (A) (A) (A) (A) (A) (A) (A) (A) (A) (A) (A) (A)
                 (A) (A) (A) (A) (A) (A) (A) (A) (A) (A) (A) (A)
                 (A) (A) (A) (A) (A) (A) (A) (A) (A) (A) (A) (A)
                 (A) (A) (A) (A) (A) (A) (A) (A) (A) (A) (A) (A)
                 (A) (A) (A) (A) (A) (A) (A) (A) (A) (A) (A) (A)
                 (A) (A) (A) (A) (A) (A) (A) (A) (A) (A) (A) (A)
                 (A) (A) (A) (A) (A) (A) (A) (A) (A) (A) (A) (A)
                 (A) (A) (A) (A) (A) (A) (A) (A) (A) (A) (A) (A)
                 (A) (A) (A) (A) (A) (A) (A) (A) (A) (A) (A) (A)
                 (A) (A) (A) (A) (A) (A) (A) (A) (A) (A) (A) (A)
                 (A) (A) (A) (A) (A) (A) (A) (A) (A) (A) (A) (A)
                 (A) (A) (A) (A) (A) (A) (A) (A) (A) (A) (A) (A)
                 (A) (A) (A) (A) (A) (A)
 The electronic state is 1-A.
 Alpha  occ. eigenvalues --  -89.20606 -19.39812 -10.41101 -10.40515 -10.35071
 Alpha  occ. eigenvalues --  -10.31480 -10.28672 -10.26660 -10.25211 -10.24053
 Alpha  occ. eigenvalues --  -10.23195 -10.22520 -10.21961 -10.21752 -10.20726
 Alpha  occ. eigenvalues --   -8.25683  -6.22291  -6.21821  -6.21226  -1.28023
 Alpha  occ. eigenvalues --   -1.02983  -0.95896  -0.90197  -0.87290  -0.85636
 Alpha  occ. eigenvalues --   -0.83776  -0.81290  -0.78232  -0.74862  -0.73189
 Alpha  occ. eigenvalues --   -0.71138  -0.68106  -0.67390  -0.65432  -0.64627
 Alpha  occ. eigenvalues --   -0.64102  -0.62045  -0.61540  -0.60475  -0.60438
 Alpha  occ. eigenvalues --   -0.59361  -0.57213  -0.56403  -0.54727  -0.54374
 Alpha  occ. eigenvalues --   -0.52730  -0.50931  -0.50473  -0.48082  -0.47800
 Alpha  occ. eigenvalues --   -0.47282  -0.46093  -0.45616  -0.44937  -0.43828
 Alpha  occ. eigenvalues --   -0.43316  -0.41256  -0.41196  -0.40103  -0.39485
 Alpha  occ. eigenvalues --   -0.38633  -0.37977  -0.36210  -0.34616  -0.34149
 Alpha virt. eigenvalues --   -0.21578  -0.16528  -0.13632  -0.09842  -0.06256
 Alpha virt. eigenvalues --   -0.05399  -0.03075  -0.02179  -0.01329  -0.00432
 Alpha virt. eigenvalues --    0.00930   0.02383   0.02603   0.03176   0.04405
 Alpha virt. eigenvalues --    0.04918   0.05311   0.06726   0.07071   0.07884
 Alpha virt. eigenvalues --    0.08474   0.08728   0.09814   0.10420   0.10470
 Alpha virt. eigenvalues --    0.11320   0.12127   0.12328   0.13554   0.13977
 Alpha virt. eigenvalues --    0.14286   0.14568   0.14764   0.15115   0.15247
 Alpha virt. eigenvalues --    0.15430   0.16466   0.16931   0.17377   0.18285
 Alpha virt. eigenvalues --    0.18348   0.19349   0.21311   0.21629   0.24098
 Alpha virt. eigenvalues --    0.25695   0.26863   0.29765   0.30741   0.33937
 Alpha virt. eigenvalues --    0.38663   0.39548   0.41682   0.42731   0.44131
 Alpha virt. eigenvalues --    0.44976   0.47428   0.47771   0.48899   0.50906
 Alpha virt. eigenvalues --    0.51144   0.52695   0.52944   0.54185   0.54716
 Alpha virt. eigenvalues --    0.55091   0.56041   0.56879   0.57339   0.58011
 Alpha virt. eigenvalues --    0.58941   0.60542   0.60854   0.61633   0.62440
 Alpha virt. eigenvalues --    0.63239   0.65608   0.66475   0.66860   0.67763
 Alpha virt. eigenvalues --    0.68477   0.69493   0.69714   0.70705   0.70820
 Alpha virt. eigenvalues --    0.71767   0.72279   0.73600   0.74468   0.75857
 Alpha virt. eigenvalues --    0.75958   0.76647   0.77395   0.77506   0.78061
 Alpha virt. eigenvalues --    0.79684   0.80203   0.80658   0.81088   0.81647
 Alpha virt. eigenvalues --    0.82497   0.83831   0.84465   0.84987   0.85935
 Alpha virt. eigenvalues --    0.86681   0.86953   0.87711   0.88552   0.88641
 Alpha virt. eigenvalues --    0.89644   0.90614   0.90883   0.91210   0.91988
 Alpha virt. eigenvalues --    0.92434   0.93761   0.94063   0.95409   1.00046
 Alpha virt. eigenvalues --    1.00157   1.03572   1.05059   1.11871   1.12283
 Alpha virt. eigenvalues --    1.20762   1.22374   1.24702   1.26799   1.30840
 Alpha virt. eigenvalues --    1.31080   1.32269   1.34050   1.35561   1.36888
 Alpha virt. eigenvalues --    1.39771   1.41078   1.44734   1.46940   1.49690
 Alpha virt. eigenvalues --    1.50930   1.52686   1.56628   1.59338   1.63339
 Alpha virt. eigenvalues --    1.66840   1.68223   1.69461   1.70951   1.75839
 Alpha virt. eigenvalues --    1.76451   1.77081   1.80786   1.81167   1.83448
 Alpha virt. eigenvalues --    1.84652   1.85852   1.87936   1.88363   1.89248
 Alpha virt. eigenvalues --    1.91160   1.91978   1.92204   1.93893   1.94141
 Alpha virt. eigenvalues --    1.96322   1.96933   1.97380   1.99763   2.00438
 Alpha virt. eigenvalues --    2.02045   2.02324   2.02842   2.02999   2.03901
 Alpha virt. eigenvalues --    2.04822   2.05880   2.06788   2.10676   2.11534
 Alpha virt. eigenvalues --    2.13728   2.16893   2.18286   2.19125   2.20756
 Alpha virt. eigenvalues --    2.20972   2.22244   2.23186   2.24472   2.26937
 Alpha virt. eigenvalues --    2.28476   2.30329   2.30708   2.32454   2.35466
 Alpha virt. eigenvalues --    2.40694   2.45704   2.49094   2.52784   2.54317
 Alpha virt. eigenvalues --    2.56603   2.60128   2.60488   2.67258   2.72534
 Alpha virt. eigenvalues --    2.78293   2.80095   3.56942   3.71805   3.97452
 Alpha virt. eigenvalues --    4.02126   4.04815   4.09309   4.14815   4.20440
 Alpha virt. eigenvalues --    4.25461   4.29596   4.32800   4.35795   4.40070
 Alpha virt. eigenvalues --    4.45900   4.51610
          Condensed to atoms (all electrons):
               1          2          3          4          5          6
     1  O    8.253289   0.179680  -0.025162  -0.023527  -0.002360   0.000037
     2  S    0.179680  14.689918   0.196463   0.204546  -0.033789   0.003395
     3  C   -0.025162   0.196463   5.438609  -0.009642   0.002251  -0.000044
     4  C   -0.023527   0.204546  -0.009642   5.494073   0.298926  -0.029714
     5  C   -0.002360  -0.033789   0.002251   0.298926   5.173186   0.333790
     6  C    0.000037   0.003395  -0.000044  -0.029714   0.333790   5.058422
     7  C    0.000000  -0.000158   0.000000   0.003338  -0.034259   0.361886
     8  C    0.000000   0.000002  -0.000000  -0.000097   0.003565  -0.035000
     9  C   -0.000000  -0.000000   0.000000   0.000000  -0.000110   0.003617
    10  C   -0.000000   0.000000  -0.000000  -0.000000   0.000001  -0.000105
    11  C    0.000000  -0.000000   0.000000   0.000000  -0.000000   0.000001
    12  C    0.000000   0.000000   0.000000  -0.000000   0.000000  -0.000000
    13  C    0.000000  -0.000000   0.000000   0.000000  -0.000000   0.000000
    14  C    0.000000   0.000000   0.000000  -0.000000   0.000000  -0.000000
    15  C    0.000000   0.000000   0.000000   0.000000  -0.000000   0.000000
    16  H    0.000814  -0.023476   0.357673  -0.005393   0.000138  -0.000012
    17  H    0.000907  -0.024019   0.366145   0.001429  -0.000028   0.000001
    18  H    0.001174  -0.012813   0.349380   0.000170  -0.000047   0.000001
    19  H    0.001302  -0.019958  -0.000461   0.346688  -0.034862  -0.002576
    20  H    0.000634  -0.025078  -0.004671   0.348717  -0.042604  -0.002908
    21  H    0.003506  -0.003162  -0.000007  -0.058582   0.368714  -0.037150
    22  H   -0.000313   0.003030  -0.000040  -0.054690   0.380597  -0.038172
    23  H   -0.000001   0.000032   0.000000  -0.005580  -0.048263   0.377721
    24  H   -0.000002   0.000101   0.000002  -0.005527  -0.048037   0.375486
    25  H   -0.000001   0.000012   0.000000   0.000070  -0.006040  -0.047969
    26  H    0.000000   0.000009   0.000000   0.000072  -0.005728  -0.047791
    27  H   -0.000000   0.000000   0.000000   0.000005   0.000050  -0.005339
    28  H   -0.000000   0.000000   0.000000   0.000005   0.000044  -0.005223
    29  H    0.000000   0.000000  -0.000000   0.000000   0.000004   0.000036
    30  H   -0.000000   0.000000  -0.000000   0.000000   0.000004   0.000036
    31  H    0.000000  -0.000000  -0.000000   0.000000   0.000000   0.000004
    32  H   -0.000000  -0.000000  -0.000000   0.000000   0.000000   0.000004
    33  H    0.000000   0.000000  -0.000000  -0.000000   0.000000   0.000000
    34  H    0.000000   0.000000  -0.000000  -0.000000   0.000000   0.000000
    35  H    0.000000  -0.000000   0.000000   0.000000  -0.000000   0.000000
    36  H    0.000000  -0.000000   0.000000   0.000000  -0.000000   0.000000
    37  H    0.000000   0.000000   0.000000   0.000000   0.000000  -0.000000
    38  H    0.000000   0.000000   0.000000   0.000000   0.000000  -0.000000
    39  H    0.000000   0.000000   0.000000  -0.000000  -0.000000   0.000000
    40  H    0.000000   0.000000   0.000000  -0.000000  -0.000000   0.000000
    41  H    0.000000   0.000000   0.000000   0.000000   0.000000  -0.000000
    42  H    0.000000   0.000000   0.000000   0.000000  -0.000000   0.000000
    43  H    0.000000   0.000000   0.000000   0.000000  -0.000000   0.000000
    44  H    0.247297  -0.007960   0.001787  -0.002749   0.003199  -0.000100
               7          8          9         10         11         12
     1  O    0.000000   0.000000  -0.000000  -0.000000   0.000000   0.000000
     2  S   -0.000158   0.000002  -0.000000   0.000000  -0.000000   0.000000
     3  C    0.000000  -0.000000   0.000000  -0.000000   0.000000   0.000000
     4  C    0.003338  -0.000097   0.000000  -0.000000   0.000000  -0.000000
     5  C   -0.034259   0.003565  -0.000110   0.000001  -0.000000   0.000000
     6  C    0.361886  -0.035000   0.003617  -0.000105   0.000001  -0.000000
     7  C    5.028900   0.368257  -0.035756   0.003571  -0.000103   0.000000
     8  C    0.368257   5.025541   0.370390  -0.036097   0.003531  -0.000101
     9  C   -0.035756   0.370390   5.025108   0.371559  -0.035744   0.003498
    10  C    0.003571  -0.036097   0.371559   5.024041   0.371957  -0.035422
    11  C   -0.000103   0.003531  -0.035744   0.371957   5.023643   0.373060
    12  C    0.000000  -0.000101   0.003498  -0.035422   0.373060   5.019384
[...]
 0035,-0.00000136,-0.00000064,-0.00000071,-0.00001342,-0.00002307,0.000
 00279,0.00002479,-0.00000301,-0.00000287,-0.00007190,-0.00010724,0.000
 01340,0.00010389,-0.00003839,-0.00001244,-0.00034487,-0.00067942,0.000
 08181,0.00053131,-0.00036632,-0.00002467,-0.00227673,-0.00597552,0.000
 73255,0.00439935,-0.01722221,-0.00000158,-0.02886809,-0.12791207,0.000
 98245,-0.12098602,0.00000062,0.00000139,0.00000051,0.00000205,-0.00000
 165,0.00000026,-0.00000263,-0.00000067,0.00000329,0.00000062,0.0000013
 9,-0.00000136,-0.00000154,-0.00000094,-0.00000124,0.00000127,-0.000000
 54,0.00000132,0.00000100,0.00000098,0.00000078,-0.00000078,0.00000238,
 0.00000031,-0.00000051,-0.00000223,0.00000061,-0.00000016,-0.00000261,
 -0.00000123,0.00000006,0.00000248,-0.00000152,-0.00000155,0.00000553,0
 .00000235,-0.00000252,-0.00000502,0.00000283,0.00000051,-0.00000792,-0
 .00000459,0.00000184,0.00000731,-0.00000515,-0.00000111,0.00001775,0.0
 0000782,-0.00000442,-0.00001687,0.00000957,0.00001635,-0.00003712,-0.0
 0000621,0.00002151,0.00003374,-0.00000913,0.00000500,0.00011222,0.0000
 3198,0.00000013,-0.00011263,0.00003939,0.00020305,-0.00021914,0.000212
 28,0.00020960,0.00024329,0.00011699,0.00131441,0.00045595,0.00009589,0
 .00120838,-0.00065399,0.00008132,0.13999168,0.00000040,-0.00000007,0.0
 0000024,-0.00000015,0.00000021,-0.00000044,0.00000033,0.00000017,0.000
 00067,-0.00000095,0.00000012,-0.00000005,0.00000081,0.,-0.00000002,0.0
 0000014,0.00000074,0.00000108,0.00000190,-0.00000036,-0.00000195,0.000
 00062,0.00000183,0.00000578,0.00000902,-0.00000644,-0.00000835,0.00000
 473,0.00000231,0.00002987,0.00006364,-0.00001285,-0.00004571,0.0001029
 1,0.00059047,0.00018703,0.00058642,0.00015231,-0.00037793,0.00163409,-
 0.00138327,0.00293079,0.00094685,-0.04987666,0.00165349,-0.00000002,0.
 ,-0.00000002,-0.00000013,0.00000017,-0.00000002,0.00000018,0.00000013,
 -0.00000022,0.00000003,-0.00000003,0.00000009,0.00000001,0.00000011,0.
 00000007,-0.00000009,0.,-0.00000022,-0.00000005,-0.00000011,0.00000010
 ,0.00000017,-0.00000033,-0.00000009,-0.00000012,0.,0.00000005,0.000000
 06,0.00000013,-0.00000011,-0.00000006,-0.00000027,0.00000034,0.0000001
 7,-0.00000077,-0.00000022,-0.00000003,0.,-0.00000009,0.00000008,0.0000
 0097,-0.00000027,-0.00000022,-0.00000033,0.00000097,0.00000151,-0.0000
 0380,-0.00000139,-0.00000162,-0.00000056,0.00000029,0.00000382,0.00000
 634,-0.00000215,-0.00000656,0.00000071,0.00000228,-0.00009082,-0.00002
 027,0.00001713,0.00007875,-0.00001723,-0.00001955,0.00020646,0.0002886
 6,0.00041086,-0.00018154,0.00022294,-0.00045021,-0.00007614,0.00003843
 ,0.00040854,-0.00019384,0.00008780,-0.00037536,-0.00162513,0.04820034,
 -0.00000405,-0.00000195,-0.00000240,0.00000389,0.00000186,0.00000331,-
 0.00000141,-0.00000139,-0.00000408,0.00000597,0.00000052,0.00000149,-0
 .00000238,0.00000001,-0.00000208,0.00000076,-0.00000017,-0.00000121,-0
 .00000113,0.00000017,0.00000342,0.00000499,-0.00000079,-0.00000571,0.0
 0000733,-0.00000013,0.00000550,0.00002901,-0.00000196,0.00001223,0.000
 13508,-0.00001197,-0.00001618,0.00046028,-0.00004592,0.00044480,0.0012
 6482,-0.00011110,0.00014998,0.00609363,-0.00004378,0.00876029,-0.12177
 458,0.00172047,-0.23456648,0.00000027,0.00000063,0.00000023,0.00000095
 ,-0.00000080,0.00000014,-0.00000085,-0.00000032,0.00000135,0.00000020,
 0.00000075,-0.00000052,-0.00000071,-0.00000053,-0.00000060,0.00000074,
 -0.00000006,0.00000060,0.00000058,0.00000019,0.00000036,-0.00000052,0.
 00000111,0.00000016,-0.00000044,-0.00000099,0.00000031,0.00000016,-0.0
 0000006,-0.00000010,0.00000009,0.00000003,-0.00000015,-0.00000137,0.00
 000190,0.00000097,-0.00000166,-0.00000151,0.00000111,0.00000018,0.0000
 0080,-0.00000117,0.00000006,-0.00000095,-0.00000115,-0.00000232,0.0000
 0115,0.00000212,-0.00000230,-0.00000037,0.00000210,-0.00000068,0.00000
 639,-0.00000958,-0.00000138,-0.00000740,-0.00000914,-0.00008622,0.0000
 0919,0.00001954,-0.00009407,0.00000981,0.00002123,0.00018363,0.0001773
 0,0.00010622,0.00016785,-0.00021847,0.00016505,-0.00065875,0.00028411,
 0.00053886,-0.00068786,-0.00012131,0.00059498,0.13238386,-0.00171578,0
 .25223609,0.00000072,-0.00000132,-0.00000065,-0.00000060,0.00000129,0.
 00000073,-0.00000002,0.00000006,0.00000006,-0.00000026,0.00000007,-0.0
 0000018,0.00000008,0.00000030,0.00000030,-0.00000021,0.00000061,0.0000
 0025,0.00000050,0.00000083,0.00000066,-0.00000081,0.00000200,0.0000017
 2,0.00000287,0.00000335,0.00000060,0.00001450,-0.00000164,0.00001438,0
 .00004470,-0.00009406,-0.00006626,-0.00009651,-0.00016633,0.00008024,0
 .00190989,0.00101687,0.00132730,-0.00611559,0.03006595,0.01684472,-0.0
 5614713,0.03629923,0.02077829,0.00000004,0.00000008,0.00000011,-0.0000
 0003,0.00000011,0.00000009,0.00000003,0.00000012,-0.00000009,0.0000001
 7,-0.00000008,0.00000016,-0.00000006,0.00000021,0.00000015,-0.00000032
 ,-0.00000022,-0.00000039,-0.00000006,0.00000008,0.00000008,0.00000063,
 -0.00000079,-0.00000017,-0.00000004,0.00000025,0.00000019,-0.00000056,
 -0.00000100,-0.00000120,-0.00000009,0.00000011,0.00000007,0.00000151,-
 0.00000222,-0.00000056,-0.00000011,0.00000050,0.00000050,-0.00000182,-
 0.00000234,-0.00000312,-0.00000024,-0.00000018,0.00000014,0.00001019,-
 0.00000736,0.00000099,-0.00000116,0.00000179,0.00000242,-0.00004592,-0
 .00001854,-0.00006089,-0.00000514,0.00000124,-0.00000565,0.00022282,-0
 .00022965,-0.00014607,0.00000965,0.00002062,0.00002700,-0.00022461,-0.
 00069327,-0.00083552,-0.00006681,-0.00005561,-0.00014130,-0.00677922,0
 .00048583,0.00135610,0.00153655,-0.00049895,-0.00024588,0.00322528,-0.
 01675505,-0.00788455,0.06139254,-0.00000026,0.00000474,0.00000316,0.00
 000033,-0.00000464,-0.00000383,0.00000085,0.00000048,0.00000182,-0.000
 00220,-0.00000030,-0.00000021,0.00000129,-0.00000076,0.00000004,0.0000
 0049,-0.00000090,0.00000056,0.00000226,-0.00000221,-0.00000396,0.00000
 185,-0.00000121,0.00000620,0.00001041,-0.00000784,-0.00001392,0.000004
 44,0.00000278,0.00002995,0.00006658,-0.00003211,-0.00004116,0.00006940
 ,0.00032095,0.00031041,-0.00046996,0.00001051,-0.00014274,0.00066269,-
 0.00175930,-0.00089259,0.03666722,-0.23942166,-0.10921333,-0.00000026,
 -0.00000043,-0.00000042,-0.00000033,0.00000005,-0.00000030,0.00000035,
 -0.00000018,-0.00000045,-0.00000045,-0.00000016,-0.00000006,0.00000038
 ,-0.00000021,-0.00000008,0.00000042,0.00000072,0.00000035,0.,-0.000000
 52,-0.00000036,-0.00000101,0.00000103,0.00000052,-0.00000003,-0.000000
 11,-0.00000024,0.00000097,0.00000251,0.00000175,0.00000021,-0.00000097
 ,-0.00000007,-0.00000229,0.00000239,0.00000136,-0.00000002,-0.00000011
 ,-0.00000050,0.00000212,0.00000653,0.00000392,0.00000029,-0.00000202,-
 0.00000023,-0.00000686,0.00000439,0.00000340,-0.00000053,0.00000007,-0
 .00000142,0.00002244,0.00002467,0.00001817,0.00000214,-0.00000742,0.00
 000131,-0.00021687,0.00002242,0.00001899,-0.00002090,-0.00001774,0.000
 00088,0.00057165,0.00026703,0.00052892,0.00003194,-0.00005098,-0.00006
 135,0.00036797,0.00167769,-0.00001899,0.00046185,0.00086253,0.00006591
 ,-0.00104261,0.00128351,0.00093216,-0.04114071,0.25777564,0.00000181,0
 .00000407,0.00000274,-0.00000151,-0.00000435,-0.00000349,0.00000121,0.
 00000109,0.00000322,-0.00000436,-0.00000044,-0.00000056,0.00000245,-0.
 00000052,0.00000082,-0.00000010,-0.00000090,0.00000220,0.00000364,-0.0
 0000145,-0.00000518,-0.00000076,-0.00000175,0.00001158,0.00001172,-0.0
 0000389,-0.00001683,-0.00000483,-0.00000883,0.00003063,0.00003612,0.00
 001988,-0.00002906,-0.00006731,0.00014172,0.00011836,-0.00050333,0.000
 80583,0.00042836,0.00156746,-0.00647181,-0.00463016,0.02097488,-0.1091
 5906,-0.11376564,-0.00000024,-0.00000064,-0.00000031,-0.00000064,0.000
 00038,-0.00000017,0.00000071,0.,-0.00000095,-0.00000038,-0.00000047,0.
 00000028,0.00000070,0.00000007,0.00000026,-0.00000020,0.00000032,0.000
 00006,-0.00000038,-0.00000019,-0.00000050,-0.00000027,0.00000007,0.000
 00014,0.00000055,0.00000065,-0.00000053,0.00000028,0.00000128,0.000001
 44,-0.00000006,-0.00000012,-0.00000013,-0.00000036,0.00000051,-0.00000
 008,0.00000166,0.00000131,-0.00000158,0.00000004,0.00000243,0.00000366
 ,-0.00000041,0.00000020,0.00000019,0.00000227,0.00000161,-0.00000241,0
 .00000556,0.00000302,-0.00000519,0.00000818,-0.00000298,0.00001323,-0.
 00000154,0.00000123,0.00000282,-0.00013016,0.00001611,-0.00005767,0.00
 003422,0.00000477,-0.00003847,0.00020305,-0.00002209,0.00053171,0.0000
 0367,0.00006427,0.00005496,0.00171693,0.00027800,0.00062350,-0.0001794
 2,-0.00000360,-0.00017165,0.00535792,-0.02441428,-0.01318967,-0.024945
 04,0.12167160,0.11918806,0.00000048,0.00000008,-0.00000056,-0.00000075
 ,-0.00000073,0.00000088,-0.00000023,0.00000024,-0.00000009,0.00000002,
 -0.00000004,-0.00000005,-0.00000023,-0.00000039,0.00000045,-0.00000037
 ,-0.00000064,0.00000017,-0.00000007,-0.00000108,0.00000142,-0.00000145
 ,-0.00000185,0.00000090,0.00000038,-0.00000445,0.00000324,0.00001374,0
 .00000073,0.00000921,0.00004682,0.00007445,-0.00006608,-0.00006922,0.0
 0023364,0.00000625,0.00177006,-0.00119602,0.00143784,-0.01095281,-0.02
 674585,0.01937508,-0.07282711,-0.05999799,0.04431763,0.00000009,-0.000
 00008,0.00000012,-0.00000002,-0.00000007,0.00000017,0.,-0.00000007,-0.
 00000002,-0.00000012,-0.00000020,0.00000023,0.00000028,0.00000006,0.00
 000013,-0.00000010,-0.00000014,0.00000011,-0.00000032,0.00000039,-0.00
 000048,-0.00000007,-0.00000025,0.00000024,0.00000092,0.00000077,-0.000
 00032,-0.00000017,-0.00000024,0.00000009,-0.00000048,0.00000136,-0.000
 00158,-0.00000017,-0.00000046,0.00000061,0.00000227,0.00000215,-0.0000
 0099,-0.00000031,-0.00000011,0.00000017,-0.00000158,0.00000336,-0.0000
 0400,-0.00000126,-0.00000136,0.00000273,0.00001239,0.00000599,-0.00000
 026,-0.00000584,-0.00000207,-0.00000562,-0.00004500,0.00002451,-0.0000
 6514,0.00000954,-0.00002293,0.00002830,0.00028906,0.00016910,-0.000166
 01,-0.00006465,0.00004584,-0.00013307,-0.00019339,0.00068052,-0.000975
 94,0.00151888,0.00036025,-0.00029939,-0.00665719,0.00106387,0.00130507
 ,0.00613925,0.01528962,-0.00953957,0.00111537,0.00395388,-0.00409292,0
 .07990389,-0.00000007,-0.00000094,-0.00000185,-0.00000047,-0.00000005,
 0.00000270,-0.00000083,0.00000001,-0.00000131,0.00000171,0.00000014,0.
 00000029,-0.00000122,-0.00000059,0.00000021,-0.00000053,-0.00000065,-0
 .00000042,-0.00000225,-0.00000129,0.00000348,-0.00000186,-0.00000086,-
 0.00000525,-0.00001052,-0.00000390,0.00001250,-0.00000682,0.00000179,-
 0.00002920,-0.00007645,-0.00003207,0.00005265,-0.00001362,0.00024997,-
 0.00033145,0.00011318,0.00008613,-0.00005486,0.00116152,0.00355760,-0.
 00274260,-0.06035519,-0.20183716,0.11279387,0.00000022,0.00000003,0.00
 000026,0.00000023,-0.00000028,0.00000034,-0.00000027,-0.00000020,0.000
 00037,-0.00000003,-0.00000007,0.00000018,0.00000016,-0.00000007,0.,-0.
 00000006,-0.00000039,0.00000034,-0.00000029,0.00000078,-0.00000040,0.,
 -0.00000013,0.00000014,0.00000105,0.00000066,-0.00000051,-0.00000033,-
 0.00000088,0.00000012,-0.00000048,0.00000216,-0.00000157,0.00000018,-0
 .00000017,0.00000026,0.00000223,0.00000146,-0.00000139,-0.00000063,-0.
 00000195,0.00000038,-0.00000079,0.00000571,-0.00000349,0.00000126,-0.0
 0000009,0.00000049,0.00000560,0.00000165,-0.00000394,-0.00000257,-0.00
 000687,0.00000057,-0.00000979,0.00002265,-0.00000835,0.00001934,-0.000
 01862,-0.00000750,0.00015768,-0.00004529,0.00000356,-0.00002735,-0.000
 05012,0.00009430,-0.00048282,0.00020146,-0.00034615,-0.00058949,0.0008
 6753,-0.00011573,0.00121342,0.00149795,-0.00030202,0.00107342,0.000444
 85,-0.00086159,-0.00823262,-0.02095734,0.01707847,0.06606652,0.2160176
 8,0.00000215,0.00000104,0.00000205,-0.00000135,-0.00000033,-0.00000310
 ,0.00000141,0.00000075,0.00000316,-0.00000445,-0.00000013,-0.00000072,
 0.00000272,0.00000047,0.00000058,0.00000008,0.00000126,0.00000226,0.00
 000405,0.00000063,-0.00000568,-0.00000019,0.00000300,0.00001193,0.0000
 1312,0.00000073,-0.00001830,-0.00000253,0.00001209,0.00003245,0.000038
 94,-0.00002590,-0.00003137,-0.00008773,-0.00014263,0.00016174,-0.00065
 866,-0.00066758,0.00049266,0.00258953,0.00556484,-0.00512098,0.0445463
 5,0.11270360,-0.13460102,-0.00000023,-0.00000029,-0.00000025,-0.000000
 63,0.00000069,-0.00000028,0.00000072,0.00000039,-0.00000100,0.00000005
 ,-0.00000024,0.00000019,0.00000020,0.00000034,0.00000029,-0.00000047,0
 .00000012,-0.00000065,-0.00000012,-0.00000054,0.00000030,0.00000063,-0
 .00000078,-0.00000045,-0.00000056,-0.00000006,0.00000015,-0.00000006,0
 .00000022,-0.00000017,0.00000017,-0.00000140,0.00000174,0.00000138,-0.
 00000168,-0.00000149,-0.00000066,-0.00000060,0.00000010,-0.00000036,0.
 00000007,0.00000019,-0.00000027,-0.00000263,0.00000423,0.00000483,-0.0
 0000435,-0.00000495,0.00000135,-0.00000239,-0.00000189,-0.00000140,-0.
 00000004,0.00000294,0.00000999,0.00000046,0.00001432,0.00003093,-0.000
 01206,-0.00003728,-0.00014896,0.00000363,-0.00005624,-0.00000354,-0.00
 005317,0.00005325,0.00025696,0.00000798,0.00057388,-0.00013534,-0.0000
 6600,-0.00015997,0.00159745,-0.00065423,0.00068075,0.00918499,0.021765
 11,-0.01526458,-0.00610001,-0.01320279,0.01090435,-0.05113935,-0.12522
 757,0.14236894,-0.03149215,0.00029995,0.12336228,-0.00596004,-0.001569
 39,-0.00101549,0.00023016,0.00393187,0.00268533,0.00254258,-0.00387529
 ,-0.00149431,0.00094040,-0.00071305,-0.00055350,-0.00055666,0.00029810
 ,0.00037346,0.00006695,-0.00007272,-0.00019162,-0.00007518,0.00002331,
 0.00004632,0.00000365,-0.00001434,-0.00003865,-0.00001146,0.00000191,-
 0.00000052,-0.00000005,-0.00000356,-0.00000309,-0.00000090,-0.00000053
 ,-0.00000646,-0.00000080,-0.00000114,0.00000284,-0.00000001,-0.0000005
 8,-0.00000619,-0.00000016,-0.00000031,0.00000238,0.00023788,0.00003015
 ,-0.00016636,-0.00153458,0.00001832,0.00024042,-0.00019423,0.00029687,
 0.00008946,-0.00119094,0.00002589,-0.00118044,-0.00017992,0.00001213,0
 .00009031,-0.00025148,0.00051551,-0.00017564,-0.00014905,-0.00015691,0
 .00002731,0.00011705,0.00005272,0.00018809,0.00006920,-0.00004983,0.00
 007264,-0.00004927,0.00007336,0.00000796,-0.00003142,-0.00002763,0.000
 00320,0.00001174,0.00001054,0.00002140,0.00000726,-0.00000778,0.000007
 84,-0.00000656,0.00001669,0.00000316,-0.00000334,-0.00000756,0.0000007
 5,0.00000239,0.00000549,0.00000687,0.00000136,-0.00000329,0.00000309,-
 0.00000210,0.00000573,0.00000130,-0.00000109,-0.00000276,0.00000014,0.
 00000079,0.00000302,0.00000313,0.00000039,-0.00000185,0.00000173,-0.00
 000071,0.00000242,0.00000056,-0.00000031,-0.00000119,-0.00000003,0.000
 00026,0.00000175,0.00000165,0.00000013,-0.00000111,0.00000102,0.000003
 40,-0.00000020,0.00000251,-0.00000069,0.00000088,-0.00000081,-0.000000
 50,-0.00000039,-0.00000113,0.03745801,-0.01304682,-0.03600643,0.047079
 14,0.01112163,-0.00675020,-0.04043075,0.00051991,-0.00554705,-0.001221
 46,0.00025068,-0.00587831,-0.00148424,0.00016110,0.00027381,0.00044950
 ,-0.00005647,-0.00002345,-0.00019549,-0.00005583,0.00011631,0.00015232
 ,0.00005028,-0.00001200,-0.00008718,-0.00001749,0.00002068,0.00006061,
 0.00001874,-0.00000192,-0.00003121,-0.00000519,0.00000853,0.00002286,0
 .00000717,0.00000090,-0.00001171,-0.00000222,0.00000422,0.00000948,0.0
 0000225,0.00000102,-0.00000531,-0.00000037,0.00000161,0.00000361,-0.00
 060408,-0.00002682,-0.00000068,0.00149252,0.00051105,-0.00035156,0.000
 04902,0.00009504,0.00005440,-0.00112760,0.00055190,-0.00123080,0.00061
 682,0.00000765,0.00035630,-0.00023847,0.00012997,0.00003912,-0.0000914
 7,-0.00013511,-0.00005017,0.00006488,0.00001145,0.00005723,-0.00000178
 ,0.00001303,0.00003137,0.00000013,-0.00002188,-0.00001995,0.00000403,-
 0.00001812,-0.00000422,-0.00000272,-0.00000499,-0.00000563,-0.00000265
 ,-0.00000246,0.00001369,0.00000705,-0.00001047,-0.00000770,-0.00000118
 ,-0.00000327,-0.00000035,-0.00000080,-0.00000297,-0.00000251,-0.000000
 95,-0.00000198,0.00000572,0.00000270,-0.00000495,-0.00000357,-0.000000
 46,-0.00000121,0.00000037,-0.00000016,-0.00000192,-0.00000146,-0.00000
 052,-0.00000115,0.00000266,0.00000139,-0.00000272,-0.00000194,-0.00000
 024,-0.00000062,0.00000042,0.00000023,-0.00000131,-0.00000089,-0.00000
 032,-0.00000061,0.00000146,0.00000235,0.00000008,0.00000075,0.00000044
 ,-0.00000153,-0.00000149,-0.00000030,-0.00000022,-0.00000003,0.0008847
 9,0.05271642,0.12303142,-0.00064219,-0.44757935,-0.00003330,0.00450871
 ,-0.00454388,0.00047181,0.00073370,0.00113172,-0.00030348,-0.00145388,
 -0.00094234,0.00034937,-0.00041468,0.00062630,-0.00000100,0.00014816,-
 0.00045713,-0.00011221,0.00004079,0.00029755,0.00010134,-0.00001009,-0
 .00016318,-0.00003702,0.00001000,0.00012050,0.00003685,-0.00000565,-0.
 00006065,-0.00001344,0.00000502,0.00004847,0.00001480,-0.00000184,-0.0
 0002442,-0.00000662,0.00000260,0.00002230,0.00000443,-0.00000057,-0.00
 001241,-0.00000153,0.00000099,0.00000923,-0.00034800,-0.00000829,0.000
 03271,-0.00062030,-0.00000125,0.00030055,0.00003514,0.00002033,0.00011
 238,-0.00025100,-0.00001578,0.00001324,0.00034355,-0.00003162,0.000352
 72,-0.00026169,0.00026869,-0.00000563,-0.00007327,0.00004324,-0.000020
 39,0.00004942,0.00000642,0.00009514,-0.00000842,0.00000328,0.00001181,
 0.00000204,-0.00002056,-0.00001683,0.00002233,0.00001756,-0.00001547,-
 0.00000380,-0.00000429,0.00000242,-0.00000434,0.00000278,0.00000417,0.
 00000751,-0.00001267,-0.00000777,0.00000739,0.00000861,-0.00000725,-0.
 00000122,-0.00000209,0.00000068,-0.00000106,0.00000127,0.00000219,0.00
 000329,-0.00000645,-0.00000384,0.00000352,0.00000418,-0.00000336,-0.00
 000038,-0.00000156,0.,-0.00000035,0.00000087,0.00000088,0.00000184,-0.
 00000372,-0.00000217,0.00000192,0.00000236,-0.00000180,0.00000024,-0.0
 0000130,-0.00000002,0.00000022,0.00000075,0.00000053,0.00000623,-0.000
 00034,0.00000234,0.00000030,-0.00000239,-0.00000231,0.00000041,0.00000
 164,-0.00000206,-0.12241290,-0.00319075,0.45068441\\0.00000116,0.00000
 293,-0.00000060,-0.00002598,-0.00000041,-0.00002145,0.00001023,0.00001
 003,0.00000692,0.00003414,-0.00000585,0.00002795,-0.00001285,0.0000006
 3,-0.00000131,0.00000313,0.00000125,0.00000349,-0.00000144,-0.00000022
 ,-0.00000016,0.00000058,-0.00000019,-0.00000033,0.00000008,0.,0.000000
 34,-0.00000033,-0.00000035,-0.00000031,-0.00000025,0.00000003,-0.00000
 021,0.00000035,-0.00000044,-0.00000008,-0.00000015,-0.00000016,0.00000
 040,-0.00000325,-0.00000024,-0.00000013,0.00000233,-0.00000029,-0.0000
 0079,-0.00000365,-0.00000274,-0.00000213,-0.00000091,-0.00000140,-0.00
 000099,-0.00000203,-0.00000373,-0.00000215,-0.00000225,0.00000050,-0.0
 0000280,-0.00000249,0.00000059,-0.00000569,0.00000094,0.00000118,0.000
 00009,0.00000150,0.00000065,0.00000151,-0.00000067,-0.00000111,-0.0000
 0008,-0.00000048,0.00000015,0.,0.00000050,0.00000092,-0.00000002,0.,0.
 00000088,-0.00000006,-0.00000012,-0.00000061,0.00000041,0.,-0.00000036
 ,-0.00000035,0.00000018,0.00000053,-0.00000045,-0.00000028,0.00000039,
 0.00000045,-0.00000013,-0.00000078,0.00000038,0.00000018,-0.00000042,-
 0.00000050,0.00000011,0.00000050,-0.00000033,-0.00000010,0.00000020,0.
 00000044,-0.00000011,-0.00000101,0.00000020,0.00000013,-0.00000052,-0.
 00000054,0.00000008,0.00000044,-0.00000048,-0.00000012,0.,0.00000039,0
 .00000064,-0.00000101,-0.00000019,0.00000095,-0.00000068,-0.00000120,-
 0.00000100,-0.00000056,0.00000015,0.00000007,0.00000017,-0.00000079,-0
 .00000031,-0.00000014,0.00000018,0.00000161,0.00000127,0.00000082\\\@


 The impersonal hand of government can
 never replace the helping hand of a neighbor.
                        -- Hubert H. Humphrey
 Job cpu time:       0 days  0 hours 32 minutes 55.7 seconds.
 Elapsed time:       0 days  0 hours  1 minutes 23.1 seconds.
 File lengths (MBytes):  RWF=    429 Int=      0 D2E=      0 Chk=      9 Scr=      1
 Normal termination of Gaussian 16 at Mon Oct 14 02:04:27 2019.
real 225.90
user 5223.23
sys 26.53
Machine:
brown-a298
brown-a298
brown-a298
brown-a298
brown-a298
brown-a298
brown-a298
brown-a298
brown-a298
brown-a298
brown-a298
brown-a298
brown-a298
brown-a298
brown-a298
brown-a298
brown-a298
brown-a298
brown-a298
brown-a298
brown-a298
brown-a298
brown-a298
brown-a298
