Title Card Required                                                     
Freq      RB3LYP                                                      6-31G(d)            
Number of atoms                            I               13
Info1-9                                    I   N=           9
          36          36        1002           0           0         100
           6          18        -502
Full Title                                 C   N=           2
Title Card Required     
Route                                      C   N=           6
#p opt freq b3lyp/6-31g(d) geom=connectivity temperature=0.0
01          
Charge                                     I                1
Multiplicity                               I                1
Number of electrons                        I               50
Number of alpha electrons                  I               25
Number of beta electrons                   I               25
Number of basis functions                  I              117
Number of independent functions            I              117
Number of point charges in /Mol/           I                0
Number of translation vectors              I                0
Atomic numbers                             I   N=          13
           8           7           6           6           6           6
           6           1           1           1           1           1
           1
Nuclear charges                            R   N=          13
  8.00000000E+00  7.00000000E+00  6.00000000E+00  6.00000000E+00  6.00000000E+00
  6.00000000E+00  6.00000000E+00  1.00000000E+00  1.00000000E+00  1.00000000E+00
  1.00000000E+00  1.00000000E+00  1.00000000E+00
Current cartesian coordinates              R   N=          39
 -4.24822821E+00  2.14815161E-04 -1.96157477E-01 -1.64015253E+00 -5.39796960E-05
  1.25734463E-02 -4.41110160E-01 -2.25350968E+00 -1.24123069E-02  2.17607074E+00
 -2.28644747E+00  6.63334745E-03  3.50100486E+00  9.22837068E-06  2.09401820E-02
  2.17603889E+00  2.28648572E+00  6.69642937E-03 -4.41101599E-01  2.25349075E+00
 -1.22987656E-02 -1.64511644E+00 -3.90833891E+00 -6.25664795E-02  3.14697728E+00
 -4.09065762E+00 -4.55886506E-03  5.55202215E+00 -1.04621442E-04  2.67139153E-02
  3.14677869E+00  4.09076518E+00 -4.92000453E-03 -1.64513207E+00  3.90831758E+00
 -6.21305665E-02 -4.91405264E+00 -1.49360504E-03  1.53135437E+00
Number of symbols in /Mol/                 I                0
Force Field                                I                0
Atom Types                                 C   N=          13
                                                            
                                                            
                                    
Int Atom Types                             I   N=          13
           0           0           0           0           0           0
           0           0           0           0           0           0
           0
MM charges                                 R   N=          13
  0.00000000E+00  0.00000000E+00  0.00000000E+00  0.00000000E+00  0.00000000E+00
  0.00000000E+00  0.00000000E+00  0.00000000E+00  0.00000000E+00  0.00000000E+00
  0.00000000E+00  0.00000000E+00  0.00000000E+00
Integer atomic weights                     I   N=          13
          16          14          12          12          12          12
          12           1           1           1           1           1
           1
Real atomic weights                        R   N=          13
  1.59949146E+01  1.40030740E+01  1.20000000E+01  1.20000000E+01  1.20000000E+01
  1.20000000E+01  1.20000000E+01  1.00782504E+00  1.00782504E+00  1.00782504E+00
  1.00782504E+00  1.00782504E+00  1.00782504E+00
Atom fragment info                         I   N=          13
           0           0           0           0           0           0
           0           0           0           0           0           0
           0
Atom residue num                           I   N=          13
           0           0           0           0           0           0
           0           0           0           0           0           0
           0
Nuclear spins                              I   N=          13
           0           2           0           0           0           0
           0           1           1           1           1           1
           1
Nuclear ZEff                               R   N=          13
 -5.60000000E+00 -4.55000000E+00 -3.60000000E+00 -3.60000000E+00 -3.60000000E+00
 -3.60000000E+00 -3.60000000E+00 -1.00000000E+00 -1.00000000E+00 -1.00000000E+00
 -1.00000000E+00 -1.00000000E+00 -1.00000000E+00
Nuclear ZNuc                               R   N=          13
  8.00000000E+00  7.00000000E+00  6.00000000E+00  6.00000000E+00  6.00000000E+00
  6.00000000E+00  6.00000000E+00  1.00000000E+00  1.00000000E+00  1.00000000E+00
  1.00000000E+00  1.00000000E+00  1.00000000E+00
Nuclear QMom                               R   N=          13
  0.00000000E+00  2.04400000E+00  0.00000000E+00  0.00000000E+00  0.00000000E+00
  0.00000000E+00  0.00000000E+00  0.00000000E+00  0.00000000E+00  0.00000000E+00
  0.00000000E+00  0.00000000E+00  0.00000000E+00
Nuclear GFac                               R   N=          13
  0.00000000E+00  4.03761000E-01  0.00000000E+00  0.00000000E+00  0.00000000E+00
  0.00000000E+00  0.00000000E+00  2.79284600E+00  2.79284600E+00  2.79284600E+00
  2.79284600E+00  2.79284600E+00  2.79284600E+00
MicOpt                                     I   N=          13
          -1          -1          -1          -1          -1          -1
          -1          -1          -1          -1          -1          -1
          -1
Number of residues                         I                0
Number of secondary structures             I                0
Redundant internal dimensions              I   N=           4
          58          13          19          26
Redundant internal coordinate indices      I   N=         232
           1           2           0           0           1          13
           0           0           2           3           0           0
           2           7           0           0           3           4
           0           0           3           8           0           0
           4           5           0           0           4           9
           0           0           5           6           0           0
           5          10           0           0           6           7
           0           0           6          11           0           0
           7          12           0           0           2           1
          13           0           1           2           3           0
           1           2           7           0           3           2
           7           0           2           3           4           0
           2           3           8           0           4           3
           8           0           3           4           5           0
           3           4           9           0           5           4
           9           0           4           5           6           0
           4           5          10           0           6           5
          10           0           5           6           7           0
           5           6          11           0           7           6
          11           0           2           7           6           0
           2           7          12           0           6           7
          12           0          13           1           2           3
          13           1           2           7           1           2
           3           4           1           2           3           8
           7           2           3           4           7           2
           3           8           1           2           7           6
           1           2           7          12           3           2
           7           6           3           2           7          12
           2           3           4           5           2           3
           4           9           8           3           4           5
           8           3           4           9           3           4
           5           6           3           4           5          10
           9           4           5           6           9           4
           5          10           4           5           6           7
           4           5           6          11          10           5
           6           7          10           5           6          11
           5           6           7           2           5           6
           7          12          11           6           7           2
          11           6           7          12
Redundant internal coordinates             R   N=          58
  2.61641499E+00  1.85138389E+00  2.55272197E+00  2.55280349E+00  2.61745745E+00
  2.04709705E+00  2.64263870E+00  2.04889215E+00  2.64267146E+00  2.05102542E+00
  2.61741739E+00  2.04887654E+00  2.04710146E+00  1.85881179E+00  2.05728409E+00
  2.05706983E+00  2.16344841E+00  2.07224810E+00  2.02370922E+00  2.18719038E+00
  2.08342129E+00  2.07699977E+00  2.12273442E+00  2.09116070E+00  2.09593510E+00
  2.09605279E+00  2.08340576E+00  2.12281596E+00  2.07693196E+00  2.07225761E+00
  2.02371155E+00  2.18717945E+00  1.62325665E+00 -1.62518468E+00  3.05968267E+00
 -7.30876781E-02  3.20040750E-02 -3.10076628E+00 -3.05967321E+00  7.32043329E-02
 -3.19816490E-02  3.10089589E+00 -1.30347096E-02  3.13672096E+00  3.11883597E+00
 -1.45936739E-02 -4.01201560E-03 -3.13640648E+00  3.12919635E+00 -3.19811880E-03
  4.03437246E-03 -3.12892480E+00  3.13642821E+00  3.46904218E-03  1.29898489E-02
 -3.11899903E+00 -3.13700770E+00  1.41887279E-02
ZRed-IntVec                                I   N=          58
           0           0           0           0           0           0
           0           0           0           0           0           0
           0           0           0           0           0           0
           0           0           0           0           0           0
           0           0           0           0           0           0
           0           0           0           0           0           0
           0           0           0           0           0           0
           0           0           0           0           0           0
           0           0           0           0           0           0
           0           0           0           0
ZRed-FPVec                                 R   N=          58
  0.00000000E+00  0.00000000E+00  0.00000000E+00  0.00000000E+00  0.00000000E+00
  0.00000000E+00  0.00000000E+00  0.00000000E+00  0.00000000E+00  0.00000000E+00
  0.00000000E+00  0.00000000E+00  0.00000000E+00  0.00000000E+00  0.00000000E+00
  0.00000000E+00  0.00000000E+00  0.00000000E+00  0.00000000E+00  0.00000000E+00
  0.00000000E+00  0.00000000E+00  0.00000000E+00  0.00000000E+00  0.00000000E+00
  0.00000000E+00  0.00000000E+00  0.00000000E+00  0.00000000E+00  0.00000000E+00
  0.00000000E+00  0.00000000E+00  0.00000000E+00  0.00000000E+00  0.00000000E+00
  0.00000000E+00  0.00000000E+00  0.00000000E+00  0.00000000E+00  0.00000000E+00
  0.00000000E+00  0.00000000E+00  0.00000000E+00  0.00000000E+00  0.00000000E+00
  0.00000000E+00  0.00000000E+00  0.00000000E+00  0.00000000E+00  0.00000000E+00
  0.00000000E+00  0.00000000E+00  0.00000000E+00  0.00000000E+00  0.00000000E+00
  0.00000000E+00  0.00000000E+00  0.00000000E+00
ZRed-Constraint1                           R   N=          58
  2.61641499E+00  1.85138389E+00  2.55272197E+00  2.55280349E+00  2.61745745E+00
  2.04709705E+00  2.64263870E+00  2.04889215E+00  2.64267146E+00  2.05102542E+00
  2.61741739E+00  2.04887654E+00  2.04710146E+00  1.85881179E+00  2.05728409E+00
  2.05706983E+00  2.16344841E+00  2.07224810E+00  2.02370922E+00  2.18719038E+00
  2.08342129E+00  2.07699977E+00  2.12273442E+00  2.09116070E+00  2.09593510E+00
  2.09605279E+00  2.08340576E+00  2.12281596E+00  2.07693196E+00  2.07225761E+00
  2.02371155E+00  2.18717945E+00  1.62325665E+00 -1.62518468E+00  3.05968267E+00
 -7.30876781E-02  3.20040750E-02 -3.10076628E+00 -3.05967321E+00  7.32043329E-02
 -3.19816490E-02  3.10089589E+00 -1.30347096E-02  3.13672096E+00  3.11883597E+00
 -1.45936739E-02 -4.01201560E-03 -3.13640648E+00  3.12919635E+00 -3.19811880E-03
  4.03437246E-03 -3.12892480E+00  3.13642821E+00  3.46904218E-03  1.29898489E-02
 -3.11899903E+00 -3.13700770E+00  1.41887279E-02
ZRed-Constraint2                           R   N=          58
  2.57002751E+00  1.81413707E+00  2.45658094E+00  2.79039537E+00  2.91000353E+00
  2.02200694E+00  2.54858938E+00  2.02200696E+00  2.89831385E+00  2.02200697E+00
  2.56173162E+00  2.02200695E+00  2.02200695E+00  1.91063324E+00  2.08399466E+00
  2.08399511E+00  2.11493019E+00  2.10545300E+00  2.08886606E+00  2.08886623E+00
  2.08249603E+00  2.10034469E+00  2.10034456E+00  2.07286641E+00  2.10515941E+00
  2.10515942E+00  2.08519683E+00  2.09899416E+00  2.09899431E+00  2.10537709E+00
  2.08890403E+00  2.08890417E+00  2.10662468E+00 -1.05942712E+00  3.12738762E+00
 -1.44295462E-02  1.07002448E-02 -3.13111692E+00 -3.12754745E+00  1.42673551E-02
 -1.08600876E-02  3.13095472E+00 -4.31461637E-03  3.13747849E+00  3.13750255E+00
 -3.88965553E-03 -2.18972146E-03  3.13980197E+00  3.13920248E+00 -1.99113922E-03
  2.02620755E-03 -3.13936784E+00 -3.13996548E+00  1.82578335E-03  4.12807769E-03
 -3.13768673E+00 -3.13766319E+00  3.70731351E-03
SymInf integers                            I   N=          26
           1           1           1           1           1           0
           0           0           0           0           0           0
           0           0           0           0           0           0
           0           0           0           0           0           0
           0           0
RotTr to input orientation                 R   N=          12
  9.99906686E-01 -1.11513466E-02 -7.89096837E-03  1.10596843E-02  9.99871948E-01
 -1.15659224E-02  8.01893353E-03  1.14775715E-02  9.99901976E-01  4.69745508E-01
  2.28521914E+00  2.06733573E-02
Number of contracted shells                I               40
Number of primitive shells                 I              101
Pure/Cartesian d shells                    I                1
Pure/Cartesian f shells                    I                0
Highest angular momentum                   I                2
Largest degree of contraction              I                6
Shell types                                I   N=          40
           0          -1          -1           2           0          -1
          -1           2           0          -1          -1           2
           0          -1          -1           2           0          -1
          -1           2           0          -1          -1           2
           0          -1          -1           2           0           0
           0           0           0           0           0           0
           0           0           0           0
Number of primitives per shell             I   N=          40
           6           3           1           1           6           3
           1           1           6           3           1           1
           6           3           1           1           6           3
           1           1           6           3           1           1
           6           3           1           1           3           1
           3           1           3           1           3           1
           3           1           3           1
Shell to atom map                          I   N=          40
           1           1           1           1           2           2
           2           2           3           3           3           3
           4           4           4           4           5           5
           5           5           6           6           6           6
           7           7           7           7           8           8
           9           9          10          10          11          11
          12          12          13          13
Primitive exponents                        R   N=         101
  5.48467166E+03  8.25234946E+02  1.88046958E+02  5.29645000E+01  1.68975704E+01
  5.79963534E+00  1.55396162E+01  3.59993359E+00  1.01376175E+00  2.70005823E-01
  8.00000000E-01  4.17351146E+03  6.27457911E+02  1.42902093E+02  4.02343293E+01
  1.28202129E+01  4.39043701E+00  1.16263619E+01  2.71627981E+00  7.72218397E-01
  2.12031498E-01  8.00000000E-01  3.04752488E+03  4.57369518E+02  1.03948685E+02
  2.92101553E+01  9.28666296E+00  3.16392696E+00  7.86827235E+00  1.88128854E+00
  5.44249258E-01  1.68714478E-01  8.00000000E-01  3.04752488E+03  4.57369518E+02
  1.03948685E+02  2.92101553E+01  9.28666296E+00  3.16392696E+00  7.86827235E+00
  1.88128854E+00  5.44249258E-01  1.68714478E-01  8.00000000E-01  3.04752488E+03
  4.57369518E+02  1.03948685E+02  2.92101553E+01  9.28666296E+00  3.16392696E+00
  7.86827235E+00  1.88128854E+00  5.44249258E-01  1.68714478E-01  8.00000000E-01
  3.04752488E+03  4.57369518E+02  1.03948685E+02  2.92101553E+01  9.28666296E+00
  3.16392696E+00  7.86827235E+00  1.88128854E+00  5.44249258E-01  1.68714478E-01
  8.00000000E-01  3.04752488E+03  4.57369518E+02  1.03948685E+02  2.92101553E+01
  9.28666296E+00  3.16392696E+00  7.86827235E+00  1.88128854E+00  5.44249258E-01
  1.68714478E-01  8.00000000E-01  1.87311370E+01  2.82539436E+00  6.40121692E-01
  1.61277759E-01  1.87311370E+01  2.82539436E+00  6.40121692E-01  1.61277759E-01
  1.87311370E+01  2.82539436E+00  6.40121692E-01  1.61277759E-01  1.87311370E+01
  2.82539436E+00  6.40121692E-01  1.61277759E-01  1.87311370E+01  2.82539436E+00
  6.40121692E-01  1.61277759E-01  1.87311370E+01  2.82539436E+00  6.40121692E-01
  1.61277759E-01
Contraction coefficients                   R   N=         101
  1.83107443E-03  1.39501722E-02  6.84450781E-02  2.32714336E-01  4.70192898E-01
  3.58520853E-01 -1.10777550E-01 -1.48026263E-01  1.13076702E+00  1.00000000E+00
  1.00000000E+00  1.83477216E-03  1.39946270E-02  6.85865518E-02  2.32240873E-01
  4.69069948E-01  3.60455199E-01 -1.14961182E-01 -1.69117479E-01  1.14585195E+00
  1.00000000E+00  1.00000000E+00  1.83473713E-03  1.40373228E-02  6.88426223E-02
  2.32184443E-01  4.67941348E-01  3.62311985E-01 -1.19332420E-01 -1.60854152E-01
  1.14345644E+00  1.00000000E+00  1.00000000E+00  1.83473713E-03  1.40373228E-02
  6.88426223E-02  2.32184443E-01  4.67941348E-01  3.62311985E-01 -1.19332420E-01
 -1.60854152E-01  1.14345644E+00  1.00000000E+00  1.00000000E+00  1.83473713E-03
  1.40373228E-02  6.88426223E-02  2.32184443E-01  4.67941348E-01  3.62311985E-01
 -1.19332420E-01 -1.60854152E-01  1.14345644E+00  1.00000000E+00  1.00000000E+00
  1.83473713E-03  1.40373228E-02  6.88426223E-02  2.32184443E-01  4.67941348E-01
  3.62311985E-01 -1.19332420E-01 -1.60854152E-01  1.14345644E+00  1.00000000E+00
  1.00000000E+00  1.83473713E-03  1.40373228E-02  6.88426223E-02  2.32184443E-01
  4.67941348E-01  3.62311985E-01 -1.19332420E-01 -1.60854152E-01  1.14345644E+00
  1.00000000E+00  1.00000000E+00  3.34946043E-02  2.34726953E-01  8.13757326E-01
  1.00000000E+00  3.34946043E-02  2.34726953E-01  8.13757326E-01  1.00000000E+00
  3.34946043E-02  2.34726953E-01  8.13757326E-01  1.00000000E+00  3.34946043E-02
  2.34726953E-01  8.13757326E-01  1.00000000E+00  3.34946043E-02  2.34726953E-01
  8.13757326E-01  1.00000000E+00  3.34946043E-02  2.34726953E-01  8.13757326E-01
  1.00000000E+00
P(S=P) Contraction coefficients            R   N=         101
  0.00000000E+00  0.00000000E+00  0.00000000E+00  0.00000000E+00  0.00000000E+00
  0.00000000E+00  7.08742682E-02  3.39752839E-01  7.27158577E-01  1.00000000E+00
  0.00000000E+00  0.00000000E+00  0.00000000E+00  0.00000000E+00  0.00000000E+00
  0.00000000E+00  0.00000000E+00  6.75797439E-02  3.23907296E-01  7.40895140E-01
  1.00000000E+00  0.00000000E+00  0.00000000E+00  0.00000000E+00  0.00000000E+00
  0.00000000E+00  0.00000000E+00  0.00000000E+00  6.89990666E-02  3.16423961E-01
  7.44308291E-01  1.00000000E+00  0.00000000E+00  0.00000000E+00  0.00000000E+00
  0.00000000E+00  0.00000000E+00  0.00000000E+00  0.00000000E+00  6.89990666E-02
  3.16423961E-01  7.44308291E-01  1.00000000E+00  0.00000000E+00  0.00000000E+00
  0.00000000E+00  0.00000000E+00  0.00000000E+00  0.00000000E+00  0.00000000E+00
  6.89990666E-02  3.16423961E-01  7.44308291E-01  1.00000000E+00  0.00000000E+00
  0.00000000E+00  0.00000000E+00  0.00000000E+00  0.00000000E+00  0.00000000E+00
  0.00000000E+00  6.89990666E-02  3.16423961E-01  7.44308291E-01  1.00000000E+00
  0.00000000E+00  0.00000000E+00  0.00000000E+00  0.00000000E+00  0.00000000E+00
  0.00000000E+00  0.00000000E+00  6.89990666E-02  3.16423961E-01  7.44308291E-01
  1.00000000E+00  0.00000000E+00  0.00000000E+00  0.00000000E+00  0.00000000E+00
  0.00000000E+00  0.00000000E+00  0.00000000E+00  0.00000000E+00  0.00000000E+00
  0.00000000E+00  0.00000000E+00  0.00000000E+00  0.00000000E+00  0.00000000E+00
  0.00000000E+00  0.00000000E+00  0.00000000E+00  0.00000000E+00  0.00000000E+00
  0.00000000E+00  0.00000000E+00  0.00000000E+00  0.00000000E+00  0.00000000E+00
  0.00000000E+00
Coordinates of each shell                  R   N=         120
 -4.24822821E+00  2.14815161E-04 -1.96157477E-01 -4.24822821E+00  2.14815161E-04
 -1.96157477E-01 -4.24822821E+00  2.14815161E-04 -1.96157477E-01 -4.24822821E+00
  2.14815161E-04 -1.96157477E-01 -1.64015253E+00 -5.39796960E-05  1.25734463E-02
 -1.64015253E+00 -5.39796960E-05  1.25734463E-02 -1.64015253E+00 -5.39796960E-05
  1.25734463E-02 -1.64015253E+00 -5.39796960E-05  1.25734463E-02 -4.41110160E-01
 -2.25350968E+00 -1.24123069E-02 -4.41110160E-01 -2.25350968E+00 -1.24123069E-02
 -4.41110160E-01 -2.25350968E+00 -1.24123069E-02 -4.41110160E-01 -2.25350968E+00
 -1.24123069E-02  2.17607074E+00 -2.28644747E+00  6.63334745E-03  2.17607074E+00
 -2.28644747E+00  6.63334745E-03  2.17607074E+00 -2.28644747E+00  6.63334745E-03
  2.17607074E+00 -2.28644747E+00  6.63334745E-03  3.50100486E+00  9.22837068E-06
  2.09401820E-02  3.50100486E+00  9.22837068E-06  2.09401820E-02  3.50100486E+00
  9.22837068E-06  2.09401820E-02  3.50100486E+00  9.22837068E-06  2.09401820E-02
  2.17603889E+00  2.28648572E+00  6.69642937E-03  2.17603889E+00  2.28648572E+00
  6.69642937E-03  2.17603889E+00  2.28648572E+00  6.69642937E-03  2.17603889E+00
  2.28648572E+00  6.69642937E-03 -4.41101599E-01  2.25349075E+00 -1.22987656E-02
 -4.41101599E-01  2.25349075E+00 -1.22987656E-02 -4.41101599E-01  2.25349075E+00
 -1.22987656E-02 -4.41101599E-01  2.25349075E+00 -1.22987656E-02 -1.64511644E+00
 -3.90833891E+00 -6.25664795E-02 -1.64511644E+00 -3.90833891E+00 -6.25664795E-02
  3.14697728E+00 -4.09065762E+00 -4.55886506E-03  3.14697728E+00 -4.09065762E+00
 -4.55886506E-03  5.55202215E+00 -1.04621442E-04  2.67139153E-02  5.55202215E+00
 -1.04621442E-04  2.67139153E-02  3.14677869E+00  4.09076518E+00 -4.92000453E-03
  3.14677869E+00  4.09076518E+00 -4.92000453E-03 -1.64513207E+00  3.90831758E+00
 -6.21305665E-02 -1.64513207E+00  3.90831758E+00 -6.21305665E-02 -4.91405264E+00
 -1.49360504E-03  1.53135437E+00 -4.91405264E+00 -1.49360504E-03  1.53135437E+00
Num ILSW                                   I              100
ILSW                                       I   N=         100
           0           1           0           0           2           0
           0           0           0           0         402          -1
           5           0           0           0           2           0
           0           0           0           0           1           0
           1           0           0           0           0           0
           0           0      100000           0          -1           0
           0           0           0           0           0           0
           0           0           0           1           0           0
           0 -2000000000           1           0           0           0
           0           0           4          52           0           0
           0           0           5           0           0           0
           0           0           0          13           0           1
           0           0           0           0           0           0
           0           0           0           0           0           0
           0           0           0           0           0           0
           0           0           0           0           0           0
           0           0           0           0
Num RLSW                                   I               52
RLSW                                       R   N=          52
  8.00000000E-01  7.20000000E-01  1.00000000E+00  8.10000000E-01  2.00000000E-01
  0.00000000E+00  0.00000000E+00  1.00000000E+00  0.00000000E+00  0.00000000E+00
  0.00000000E+00  0.00000000E+00  1.00000000E+00  0.00000000E+00  0.00000000E+00
  0.00000000E+00  0.00000000E+00  1.00000000E+00  0.00000000E+00  0.00000000E+00
  0.00000000E+00  0.00000000E+00  1.00000000E+00  0.00000000E+00  0.00000000E+00
  0.00000000E+00  0.00000000E+00  1.00000000E+00  0.00000000E+00  0.00000000E+00
  0.00000000E+00  0.00000000E+00  1.00000000E+00  0.00000000E+00  0.00000000E+00
  0.00000000E+00  0.00000000E+00  0.00000000E+00  1.00000000E+00  1.00000000E+00
  0.00000000E+00  1.00000000E+00  0.00000000E+00  0.00000000E+00  0.00000000E+00
  0.00000000E+00  0.00000000E+00  0.00000000E+00  0.00000000E+00  0.00000000E+00
  0.00000000E+00  0.00000000E+00
MxBond                                     I                3
NBond                                      I   N=          13
           2           3           3           3           3           3
           3           1           1           1           1           1
           1
IBond                                      I   N=          39
           2          13           0           1           3           7
           2           4           8           3           5           9
           4           6          10           5           7          11
           2           6          12           3           0           0
           4           0           0           5           0           0
           6           0           0           7           0           0
           1           0           0
RBond                                      R   N=          39
  1.00000000E+00  1.00000000E+00  0.00000000E+00  1.00000000E+00  2.00000000E+00
  1.00000000E+00  2.00000000E+00  1.00000000E+00  1.00000000E+00  1.00000000E+00
  2.00000000E+00  1.00000000E+00  2.00000000E+00  1.00000000E+00  1.00000000E+00
  1.00000000E+00  2.00000000E+00  1.00000000E+00  1.00000000E+00  2.00000000E+00
  1.00000000E+00  1.00000000E+00  0.00000000E+00  0.00000000E+00  1.00000000E+00
  0.00000000E+00  0.00000000E+00  1.00000000E+00  0.00000000E+00  0.00000000E+00
  1.00000000E+00  0.00000000E+00  0.00000000E+00  1.00000000E+00  0.00000000E+00
  0.00000000E+00  1.00000000E+00  0.00000000E+00  0.00000000E+00
Virial Ratio                               R      2.009545998045193E+00
SCF Energy                                 R     -3.238112215970829E+02
Total Energy                               R     -3.238112215970829E+02
RMS Force                                  R      3.572470988621935E-05
RMS Density                                R      3.032909391853222E-09
NImag                                      I                0
Job Status                                 I                1
Nuclear derivative order                   I                2
External E-field                           R   N=          35
  0.00000000E+00  0.00000000E+00  0.00000000E+00  0.00000000E+00  0.00000000E+00
  0.00000000E+00  0.00000000E+00  0.00000000E+00  0.00000000E+00  0.00000000E+00
  0.00000000E+00  0.00000000E+00  0.00000000E+00  0.00000000E+00  0.00000000E+00
  0.00000000E+00  0.00000000E+00  0.00000000E+00  0.00000000E+00  0.00000000E+00
  0.00000000E+00  0.00000000E+00  0.00000000E+00  0.00000000E+00  0.00000000E+00
  0.00000000E+00  0.00000000E+00  0.00000000E+00  0.00000000E+00  0.00000000E+00
  0.00000000E+00  0.00000000E+00  0.00000000E+00  0.00000000E+00  0.00000000E+00
IOpCl                                      I                0
IROHF                                      I                0
Alpha Orbital Energies                     R   N=         117
 -1.94151522E+01 -1.46890010E+01 -1.04575343E+01 -1.04575188E+01 -1.04184936E+01
 -1.04118133E+01 -1.04117919E+01 -1.33665214E+00 -1.15269002E+00 -1.01303237E+00
 -1.00189855E+00 -8.72837270E-01 -8.55565509E-01 -7.95759142E-01 -7.24363617E-01
 -7.15615579E-01 -6.91504808E-01 -6.68057984E-01 -6.55591579E-01 -5.96279208E-01
 -5.83720485E-01 -5.80106368E-01 -5.32011005E-01 -5.00918605E-01 -4.81509665E-01
 -2.58850200E-01 -2.22893427E-01 -1.42646497E-01 -1.01120686E-01 -7.35998569E-02
 -4.63434586E-02 -4.29099579E-02 -3.32250932E-02  3.62399091E-03  7.60928496E-03
  4.93192129E-02  7.63662163E-02  1.12880872E-01  1.16586974E-01  2.42521151E-01
  2.49375694E-01  3.07799671E-01  3.21818613E-01  3.37396013E-01  3.67591604E-01
  3.81228937E-01  3.91425219E-01  3.95301361E-01  4.04534276E-01  4.08984023E-01
  4.49057638E-01  4.56801430E-01  4.90187375E-01  5.84651738E-01  6.05593905E-01
  6.17572595E-01  6.30771290E-01  6.47239636E-01  6.66310970E-01  7.11502391E-01
  7.25699446E-01  7.32545438E-01  7.54439081E-01  7.82902026E-01  8.19418334E-01
  8.56545768E-01  8.89542359E-01  8.95469020E-01  9.36216528E-01  9.93773396E-01
  1.00356273E+00  1.03103908E+00  1.14101144E+00  1.18508392E+00  1.21824895E+00
  1.22083900E+00  1.25320977E+00  1.26399784E+00  1.27646655E+00  1.30593161E+00
  1.50397462E+00  1.52497684E+00  1.61063751E+00  1.63179837E+00  1.69294520E+00
  1.71952879E+00  1.72342629E+00  1.77725480E+00  1.84327444E+00  1.85708696E+00