 Entering Gaussian System, Link 0=/apps/cent7/gaussian/g16-A.03/g16-haswell/g16/g16
 Initial command:
 /apps/cent7/gaussian/g16-A.03/g16-haswell/g16/l1.exe "/scratch/brown/finej/gaussian/Gau-40031.inp" -scrdir="/scratch/brown/finej/gaussian/"
 Entering Link 1 = /apps/cent7/gaussian/g16-A.03/g16-haswell/g16/l1.exe PID=     40032.
  
 Copyright (c) 1988,1990,1992,1993,1995,1998,2003,2009,2016,
            Gaussian, Inc.  All Rights Reserved.
  
 This is part of the Gaussian(R) 16 program.  It is based on
 the Gaussian(R) 09 system (copyright 2009, Gaussian, Inc.),
 the Gaussian(R) 03 system (copyright 2003, Gaussian, Inc.),
 the Gaussian(R) 98 system (copyright 1998, Gaussian, Inc.),
 the Gaussian(R) 94 system (copyright 1995, Gaussian, Inc.),
 the Gaussian 92(TM) system (copyright 1992, Gaussian, Inc.),
 the Gaussian 90(TM) system (copyright 1990, Gaussian, Inc.),
 the Gaussian 88(TM) system (copyright 1988, Gaussian, Inc.),
 the Gaussian 86(TM) system (copyright 1986, Carnegie Mellon
 University), and the Gaussian 82(TM) system (copyright 1983,
 Carnegie Mellon University). Gaussian is a federally registered
 trademark of Gaussian, Inc.
  
 This software contains proprietary and confidential information,
 including trade secrets, belonging to Gaussian, Inc.
  
 This software is provided under written license and may be
 used, copied, transmitted, or stored only in accord with that
 written license.
  
 The following legend is applicable only to US Government
 contracts under FAR:
  
                    RESTRICTED RIGHTS LEGEND
  
 Use, reproduction and disclosure by the US Government is
 subject to restrictions as set forth in subparagraphs (a)
 and (c) of the Commercial Computer Software - Restricted
 Rights clause in FAR 52.227-19.
  
 Gaussian, Inc.
 340 Quinnipiac St., Bldg. 40, Wallingford CT 06492
  
  
 ---------------------------------------------------------------
 Warning -- This program may not be used in any manner that
 competes with the business of Gaussian, Inc. or will provide
 assistance to any competitor of Gaussian, Inc.  The licensee
 of this program is prohibited from giving any competitor of
 Gaussian, Inc. access to this program.  By using this program,
 the user acknowledges that Gaussian, Inc. is engaged in the
 business of creating and licensing software in the field of
 computational chemistry and represents and warrants to the
 licensee that it is not a competitor of Gaussian, Inc. and that
 it will not use this program in any manner prohibited above.
 ---------------------------------------------------------------
  

 Cite this work as:
 Gaussian 16, Revision A.03,
 M. J. Frisch, G. W. Trucks, H. B. Schlegel, G. E. Scuseria, 
 M. A. Robb, J. R. Cheeseman, G. Scalmani, V. Barone, 
 G. A. Petersson, H. Nakatsuji, X. Li, M. Caricato, A. V. Marenich, 
 J. Bloino, B. G. Janesko, R. Gomperts, B. Mennucci, H. P. Hratchian, 
 J. V. Ortiz, A. F. Izmaylov, J. L. Sonnenberg, D. Williams-Young, 
 F. Ding, F. Lipparini, F. Egidi, J. Goings, B. Peng, A. Petrone, 
 T. Henderson, D. Ranasinghe, V. G. Zakrzewski, J. Gao, N. Rega, 
 G. Zheng, W. Liang, M. Hada, M. Ehara, K. Toyota, R. Fukuda, 
 J. Hasegawa, M. Ishida, T. Nakajima, Y. Honda, O. Kitao, H. Nakai, 
 T. Vreven, K. Throssell, J. A. Montgomery, Jr., J. E. Peralta, 
 F. Ogliaro, M. J. Bearpark, J. J. Heyd, E. N. Brothers, K. N. Kudin, 
 V. N. Staroverov, T. A. Keith, R. Kobayashi, J. Normand, 
 K. Raghavachari, A. P. Rendell, J. C. Burant, S. S. Iyengar, 
 J. Tomasi, M. Cossi, J. M. Millam, M. Klene, C. Adamo, R. Cammi, 
 J. W. Ochterski, R. L. Martin, K. Morokuma, O. Farkas, 
 J. B. Foresman, and D. J. Fox, Gaussian, Inc., Wallingford CT, 2016.
 
 ******************************************
 Gaussian 16:  ES64L-G16RevA.03 25-Dec-2016
                14-Oct-2019 
 ******************************************
 %chk=3_p.chk
 %nprocshared=24
 Will use up to   24 processors via shared memory.
 %mem=80GB
 --------------------------------------------------------------
 #p opt freq b3lyp/6-31g(d) geom=connectivity temperature=0.001
 --------------------------------------------------------------
 1/18=20,19=15,26=3,38=1,57=2,112=-1000/1,3;
 2/9=110,12=2,17=6,18=5,40=1/2;
 3/5=1,6=6,7=1,11=2,25=1,30=1,71=1,74=-5/1,2,3;
 4//1;
 5/5=2,38=5/2;
 6/7=2,8=2,9=2,10=2,28=1/1;
 7//1,2,3,16;
 1/18=20,19=15,26=3/3(2);
 2/9=110/2;
 99//99;
 2/9=110/2;
 3/5=1,6=6,7=1,11=2,25=1,30=1,71=1,74=-5/1,2,3;
 4/5=5,16=3,69=1/1;
 5/5=2,38=5/2;
 7//1,2,3,16;
 1/18=20,19=15,26=3/3(-5);
 2/9=110/2;
 6/7=2,8=2,9=2,10=2,19=2,28=1/1;
 99/9=1/99;
 Leave Link    1 at Mon Oct 14 11:05:47 2019, MaxMem= 10737418240 cpu:               1.5 elap:               0.1
 (Enter /apps/cent7/gaussian/g16-A.03/g16-haswell/g16/l101.exe)
 -------------------
 Title Card Required
 -------------------
 Symbolic Z-matrix:
 Charge =  1 Multiplicity = 1
 O                    -2.06673   1.10866  -0.00271 
 N                    -0.70683   1.11837   0.011 
 C                    -0.06042  -0.00946   0.00323 
 C                     1.47933  -0.03134  -0.00048 
 C                     2.15636   1.13506  -0.00065 
 C                     1.36412   2.44832  -0.00006 
 C                     0.00906   2.40981   0.003 
 H                    -0.60345  -0.93142  -0.00043 
 H                     2.00665  -0.96238  -0.00309 
 H                     3.22632   1.14411  -0.00154 
 H                     1.87689   3.38745  -0.00223 
 H                    -0.54705   3.32394  -0.00021 
 H                    -2.39784   1.55861   0.778 
 
 ITRead=  0  0  0  0  0  0  0  0  0  0  0  0  0
 MicOpt= -1 -1 -1 -1 -1 -1 -1 -1 -1 -1 -1 -1 -1
 NAtoms=     13 NQM=       13 NQMF=       0 NMMI=      0 NMMIF=      0
                NMic=       0 NMicF=      0.
                    Isotopes and Nuclear Properties:
 (Nuclear quadrupole moments (NQMom) in fm**2, nuclear magnetic moments (NMagM)
  in nuclear magnetons)

  Atom         1           2           3           4           5           6           7           8           9          10
 IAtWgt=          16          14          12          12          12          12          12           1           1           1
 AtmWgt=  15.9949146  14.0030740  12.0000000  12.0000000  12.0000000  12.0000000  12.0000000   1.0078250   1.0078250   1.0078250
 NucSpn=           0           2           0           0           0           0           0           1           1           1
 AtZEff=  -0.0000000  -0.0000000  -0.0000000  -0.0000000  -0.0000000  -0.0000000  -0.0000000  -0.0000000  -0.0000000  -0.0000000
 NQMom=    0.0000000   2.0440000   0.0000000   0.0000000   0.0000000   0.0000000   0.0000000   0.0000000   0.0000000   0.0000000
 NMagM=    0.0000000   0.4037610   0.0000000   0.0000000   0.0000000   0.0000000   0.0000000   2.7928460   2.7928460   2.7928460
 AtZNuc=   8.0000000   7.0000000   6.0000000   6.0000000   6.0000000   6.0000000   6.0000000   1.0000000   1.0000000   1.0000000

  Atom        11          12          13
 IAtWgt=           1           1           1
 AtmWgt=   1.0078250   1.0078250   1.0078250
 NucSpn=           1           1           1
 AtZEff=  -0.0000000  -0.0000000  -0.0000000
 NQMom=    0.0000000   0.0000000   0.0000000
 NMagM=    2.7928460   2.7928460   2.7928460
 AtZNuc=   1.0000000   1.0000000   1.0000000
 Leave Link  101 at Mon Oct 14 11:05:48 2019, MaxMem= 10737418240 cpu:              10.4 elap:               0.5
 (Enter /apps/cent7/gaussian/g16-A.03/g16-haswell/g16/l103.exe)

 GradGradGradGradGradGradGradGradGradGradGradGradGradGradGradGradGradGrad
 Berny optimization.
 Initialization pass.
                           ----------------------------
                           !    Initial Parameters    !
                           ! (Angstroms and Degrees)  !
 --------------------------                            --------------------------
 ! Name  Definition              Value          Derivative Info.                !
 --------------------------------------------------------------------------------
 ! R1    R(1,2)                  1.36           estimate D2E/DX2                !
 ! R2    R(1,13)                 0.96           estimate D2E/DX2                !
 ! R3    R(2,3)                  1.3            estimate D2E/DX2                !
 ! R4    R(2,7)                  1.4766         estimate D2E/DX2                !
 ! R5    R(3,4)                  1.5399         estimate D2E/DX2                !
 ! R6    R(3,8)                  1.07           estimate D2E/DX2                !
 ! R7    R(4,5)                  1.3487         estimate D2E/DX2                !
 ! R8    R(4,9)                  1.07           estimate D2E/DX2                !
 ! R9    R(5,6)                  1.5337         estimate D2E/DX2                !
 ! R10   R(5,10)                 1.07           estimate D2E/DX2                !
 ! R11   R(6,7)                  1.3556         estimate D2E/DX2                !
 ! R12   R(6,11)                 1.07           estimate D2E/DX2                !
 ! R13   R(7,12)                 1.07           estimate D2E/DX2                !
 ! A1    A(2,1,13)             109.4712         estimate D2E/DX2                !
 ! A2    A(1,2,3)              119.4041         estimate D2E/DX2                !
 ! A3    A(1,2,7)              119.4041         estimate D2E/DX2                !
 ! A4    A(3,2,7)              121.1766         estimate D2E/DX2                !
 ! A5    A(2,3,4)              120.6336         estimate D2E/DX2                !
 ! A6    A(2,3,8)              119.6832         estimate D2E/DX2                !
 ! A7    A(4,3,8)              119.6832         estimate D2E/DX2                !
 ! A8    A(3,4,5)              119.3182         estimate D2E/DX2                !
 ! A9    A(3,4,9)              120.3409         estimate D2E/DX2                !
 ! A10   A(5,4,9)              120.3409         estimate D2E/DX2                !
 ! A11   A(4,5,6)              118.7665         estimate D2E/DX2                !
 ! A12   A(4,5,10)             120.6167         estimate D2E/DX2                !
 ! A13   A(6,5,10)             120.6167         estimate D2E/DX2                !
 ! A14   A(5,6,7)              119.473          estimate D2E/DX2                !
 ! A15   A(5,6,11)             120.2635         estimate D2E/DX2                !
 ! A16   A(7,6,11)             120.2635         estimate D2E/DX2                !
 ! A17   A(2,7,6)              120.6292         estimate D2E/DX2                !
 ! A18   A(2,7,12)             119.6854         estimate D2E/DX2                !
 ! A19   A(6,7,12)             119.6854         estimate D2E/DX2                !
 ! D1    D(13,1,2,3)           120.7007         estimate D2E/DX2                !
 ! D2    D(13,1,2,7)           -60.7007         estimate D2E/DX2                !
 ! D3    D(1,2,3,4)            179.1861         estimate D2E/DX2                !
 ! D4    D(1,2,3,8)             -0.8268         estimate D2E/DX2                !
 ! D5    D(7,2,3,4)              0.6131         estimate D2E/DX2                !
 ! D6    D(7,2,3,8)           -179.3998         estimate D2E/DX2                !
 ! D7    D(1,2,7,6)           -179.1953         estimate D2E/DX2                !
 ! D8    D(1,2,7,12)             0.8175         estimate D2E/DX2                !
 ! D9    D(3,2,7,6)             -0.6222         estimate D2E/DX2                !
 ! D10   D(3,2,7,12)           179.3905         estimate D2E/DX2                !
 ! D11   D(2,3,4,5)             -0.2472         estimate D2E/DX2                !
 ! D12   D(2,3,4,9)            179.7643         estimate D2E/DX2                !
 ! D13   D(8,3,4,5)            179.7657         estimate D2E/DX2                !
 ! D14   D(8,3,4,9)             -0.2229         estimate D2E/DX2                !
 ! D15   D(3,4,5,6)             -0.1255         estimate D2E/DX2                !
 ! D16   D(3,4,5,10)           179.8974         estimate D2E/DX2                !
 ! D17   D(9,4,5,6)            179.8631         estimate D2E/DX2                !
 ! D18   D(9,4,5,10)            -0.1141         estimate D2E/DX2                !
 ! D19   D(4,5,6,7)              0.1161         estimate D2E/DX2                !
 ! D20   D(4,5,6,11)          -179.8725         estimate D2E/DX2                !
 ! D21   D(10,5,6,7)          -179.9068         estimate D2E/DX2                !
 ! D22   D(10,5,6,11)            0.1046         estimate D2E/DX2                !
 ! D23   D(5,6,7,2)              0.2365         estimate D2E/DX2                !
 ! D24   D(5,6,7,12)          -179.7762         estimate D2E/DX2                !
 ! D25   D(11,6,7,2)          -179.7749         estimate D2E/DX2                !
 ! D26   D(11,6,7,12)            0.2124         estimate D2E/DX2                !
 --------------------------------------------------------------------------------
 Trust Radius=3.00D-01 FncErr=1.00D-07 GrdErr=1.00D-06 EigMax=2.50D+02 EigMin=1.00D-04
 Number of steps in this run=     68 maximum allowed number of steps=    100.
 GradGradGradGradGradGradGradGradGradGradGradGradGradGradGradGradGradGrad

 Leave Link  103 at Mon Oct 14 11:05:48 2019, MaxMem= 10737418240 cpu:               0.3 elap:               0.0
 (Enter /apps/cent7/gaussian/g16-A.03/g16-haswell/g16/l202.exe)
                          Input orientation:                          
 ---------------------------------------------------------------------
 Center     Atomic      Atomic             Coordinates (Angstroms)
 Number     Number       Type             X           Y           Z
 ---------------------------------------------------------------------
      1          8           0       -2.066727    1.108663   -0.002712
      2          7           0       -0.706831    1.118367    0.011004
      3          6           0       -0.060416   -0.009463    0.003226
      4          6           0        1.479331   -0.031344   -0.000482
      5          6           0        2.156358    1.135064   -0.000646
      6          6           0        1.364116    2.448325   -0.000058
      7          6           0        0.009057    2.409811    0.003001
      8          1           0       -0.603450   -0.931418   -0.000428
      9          1           0        2.006654   -0.962378   -0.003090
     10          1           0        3.226319    1.144108   -0.001544
     11          1           0        1.876895    3.387448   -0.002230
     12          1           0       -0.547051    3.323942   -0.000210
     13          1           0       -2.397837    1.558606    0.778004
 ---------------------------------------------------------------------
                    Distance matrix (angstroms):
                    1          2          3          4          5
     1  O    0.000000
     2  N    1.360000   0.000000
     3  C    2.296851   1.299967   0.000000
     4  C    3.724802   2.470076   1.539908   0.000000
     5  C    4.223168   2.863261   2.494803   1.348655   0.000000
     6  C    3.683122   2.461246   2.840779   2.482344   1.533722
     7  C    2.449878   1.476614   2.420272   2.849730   2.497178
     8  H    2.510600   2.052422   1.070000   2.268945   3.447736
     9  H    4.569644   3.419459   2.276152   1.070000   2.102779
    10  H    5.293165   3.933255   3.483300   2.105624   1.070000
    11  H    4.554670   3.438684   3.910526   3.441831   2.269656
    12  H    2.686426   2.211383   3.368740   3.919715   3.478449
    13  H    0.960000   1.908298   2.919359   4.262208   4.639653
                    6          7          8          9         10
     6  C    0.000000
     7  C    1.355610   0.000000
     8  H    3.910751   3.396909   0.000000
     9  H    3.470700   3.919450   2.610289   0.000000
    10  H    2.273496   3.457283   4.356023   2.434105   0.000000
    11  H    1.070000   2.108227   4.980434   4.351761   2.617924
    12  H    2.102205   1.070000   4.255733   4.989384   4.357752
    13  H    3.943256   2.668018   3.166386   5.134687   5.693034
                   11         12         13
    11  H    0.000000
    12  H    2.424778   0.000000
    13  H    4.714527   2.673469   0.000000
 Stoichiometry    C5H6NO(1+)
 Framework group  C1[X(C5H6NO)]
 Deg. of freedom    33
 Full point group                 C1      NOp   1
 Largest Abelian subgroup         C1      NOp   1
 Largest concise Abelian subgroup C1      NOp   1
                         Standard orientation:                         
 ---------------------------------------------------------------------
 Center     Atomic      Atomic             Coordinates (Angstroms)
 Number     Number       Type             X           Y           Z
 ---------------------------------------------------------------------
      1          8           0       -2.296746   -0.066702   -0.062627
      2          7           0       -0.937352   -0.056857   -0.023219
      3          6           0       -0.290970   -1.184682   -0.012511
      4          6           0        1.248570   -1.206509    0.013056
      5          6           0        1.925545   -0.040088    0.019252
      6          6           0        1.133509    1.273118   -0.002433
      7          6           0       -0.221368    1.234558   -0.024818
      8          1           0       -0.833890   -2.106668   -0.021341
      9          1           0        1.775795   -2.137518    0.025589
     10          1           0        2.995332   -0.030998    0.038563
     11          1           0        1.646290    2.212240   -0.000096
     12          1           0       -0.777263    2.148629   -0.043619
     13          1           0       -2.642552    0.387542    0.709176
 ---------------------------------------------------------------------
 Rotational constants (GHZ):           5.5193992           2.5173882           1.7357308
 Leave Link  202 at Mon Oct 14 11:05:48 2019, MaxMem= 10737418240 cpu:               0.3 elap:               0.0
 (Enter /apps/cent7/gaussian/g16-A.03/g16-haswell/g16/l301.exe)
 Standard basis: 6-31G(d) (6D, 7F)
 Ernie: Thresh=  0.10000D-02 Tol=  0.10000D-05 Strict=F.
 There are   117 symmetry adapted cartesian basis functions of A   symmetry.
 There are   117 symmetry adapted basis functions of A   symmetry.
   117 basis functions,   220 primitive gaussians,   117 cartesian basis functions
    25 alpha electrons       25 beta electrons
       nuclear repulsion energy       280.7183330801 Hartrees.
 IExCor=  402 DFT=T Ex+Corr=B3LYP ExCW=0 ScaHFX=  0.200000
 ScaDFX=  0.800000  0.720000  1.000000  0.810000 ScalE2=  1.000000  1.000000
 IRadAn=      5 IRanWt=     -1 IRanGd=            0 ICorTp=0 IEmpDi=  4
 NAtoms=   13 NActive=   13 NUniq=   13 SFac= 1.00D+00 NAtFMM=   60 NAOKFM=F Big=F
 Integral buffers will be    131072 words long.
 Raffenetti 2 integral format.
 Two-electron integral symmetry is turned on.
 Leave Link  301 at Mon Oct 14 11:05:48 2019, MaxMem= 10737418240 cpu:               2.1 elap:               0.1
 (Enter /apps/cent7/gaussian/g16-A.03/g16-haswell/g16/l302.exe)
 NPDir=0 NMtPBC=     1 NCelOv=     1 NCel=       1 NClECP=     1 NCelD=      1
         NCelK=      1 NCelE2=     1 NClLst=     1 CellRange=     0.0.
 One-electron integrals computed using PRISM.
 One-electron integral symmetry used in STVInt
 NBasis=   117 RedAO= T EigKep=  9.83D-04  NBF=   117
 NBsUse=   117 1.00D-06 EigRej= -1.00D+00 NBFU=   117
 Precomputing XC quadrature grid using
 IXCGrd= 4 IRadAn=           5 IRanWt=          -1 IRanGd=           0 AccXCQ= 0.00D+00.
 Generated NRdTot=       0 NPtTot=           0 NUsed=           0 NTot=          32
 NSgBfM=   117   117   117   117   117 MxSgAt=    13 MxSgA2=    13.
 Leave Link  302 at Mon Oct 14 11:05:48 2019, MaxMem= 10737418240 cpu:               3.0 elap:               0.1
 (Enter /apps/cent7/gaussian/g16-A.03/g16-haswell/g16/l303.exe)
 DipDrv:  MaxL=1.
 Leave Link  303 at Mon Oct 14 11:05:48 2019, MaxMem= 10737418240 cpu:               0.9 elap:               0.1
 (Enter /apps/cent7/gaussian/g16-A.03/g16-haswell/g16/l401.exe)
 ExpMin= 1.61D-01 ExpMax= 5.48D+03 ExpMxC= 8.25D+02 IAcc=3 IRadAn=         5 AccDes= 0.00D+00
 Harris functional with IExCor=  402 and IRadAn=       5 diagonalized for initial guess.
 HarFok:  IExCor=  402 AccDes= 0.00D+00 IRadAn=         5 IDoV= 1 UseB2=F ITyADJ=14
 ICtDFT=  3500011 ScaDFX=  1.000000  1.000000  1.000000  1.000000
 FoFCou: FMM=F IPFlag=           0 FMFlag=      100000 FMFlg1=           0
         NFxFlg=           0 DoJE=T BraDBF=F KetDBF=T FulRan=T
         wScrn=  0.000000 ICntrl=       500 IOpCl=  0 I1Cent=   200000004 NGrid=           0
         NMat0=    1 NMatS0=      1 NMatT0=    0 NMatD0=    1 NMtDS0=    0 NMtDT0=    0
 Petite list used in FoFCou.
 Harris En= -323.814881508874    
 JPrj=0 DoOrth=F DoCkMO=F.
 Leave Link  401 at Mon Oct 14 11:05:49 2019, MaxMem= 10737418240 cpu:               4.9 elap:               0.2
 (Enter /apps/cent7/gaussian/g16-A.03/g16-haswell/g16/l502.exe)
 Integral symmetry usage will be decided dynamically.
 Closed shell SCF:
 Using DIIS extrapolation, IDIIS=  1040.
 NGot= 10737418240 LenX= 10737386646 LenY= 10737372516
 Requested convergence on RMS density matrix=1.00D-08 within 128 cycles.
 Requested convergence on MAX density matrix=1.00D-06.
 Requested convergence on             energy=1.00D-06.
 No special actions if energy rises.
 Fock matrices will be formed incrementally for  20 cycles.
 Integral accuracy reduced to 1.0D-05 until final iterations.

 Cycle   1  Pass 0  IDiag  1:
 FoFJK:  IHMeth= 1 ICntrl=       0 DoSepK=F KAlg= 0 I1Cent=           0 FoldK=F
 IRaf= 980000000 NMat=       1 IRICut=       1 DoRegI=T DoRafI=F ISym2E= 0 IDoP0=0 IntGTp=1.
 FoFCou: FMM=F IPFlag=           0 FMFlag=      100000 FMFlg1=           0
         NFxFlg=           0 DoJE=F BraDBF=F KetDBF=F FulRan=T
         wScrn=  0.000000 ICntrl=         0 IOpCl=  0 I1Cent=           0 NGrid=           0
         NMat0=    1 NMatS0=      1 NMatT0=    0 NMatD0=    1 NMtDS0=    0 NMtDT0=    0
 Symmetry not used in FoFCou.
 E= -323.623073981407    
 DIIS: error= 3.02D-02 at cycle   1 NSaved=   1.
 NSaved= 1 IEnMin= 1 EnMin= -323.623073981407     IErMin= 1 ErrMin= 3.02D-02
 ErrMax= 3.02D-02  0.00D+00 EMaxC= 1.00D-01 BMatC= 1.63D-01 BMatP= 1.63D-01
 IDIUse=3 WtCom= 6.98D-01 WtEn= 3.02D-01
 Coeff-Com:  0.100D+01
 Coeff-En:   0.100D+01
 Coeff:      0.100D+01
 Gap=     0.270 Goal=   None    Shift=    0.000
 GapD=    0.270 DampG=1.000 DampE=0.500 DampFc=0.5000 IDamp=-1.
 Damping current iteration by 5.00D-01
 RMSDP=7.98D-03 MaxDP=2.25D-01              OVMax= 4.04D-01

 Cycle   2  Pass 0  IDiag  1:
 RMSU=  3.97D-03    CP:  9.88D-01
 E= -323.632845044978     Delta-E=       -0.009771063571 Rises=F Damp=T
 DIIS: error= 1.78D-02 at cycle   2 NSaved=   2.
 NSaved= 2 IEnMin= 2 EnMin= -323.632845044978     IErMin= 2 ErrMin= 1.78D-02
 ErrMax= 1.78D-02  0.00D+00 EMaxC= 1.00D-01 BMatC= 4.56D-02 BMatP= 1.63D-01
 IDIUse=3 WtCom= 8.22D-01 WtEn= 1.78D-01
 Coeff-Com:  0.300D+00 0.700D+00
 Coeff-En:   0.474D+00 0.526D+00
 Coeff:      0.331D+00 0.669D+00
 Gap=     0.206 Goal=   None    Shift=    0.000
 RMSDP=2.49D-03 MaxDP=6.61D-02 DE=-9.77D-03 OVMax= 2.90D-01

 Cycle   3  Pass 0  IDiag  1:
 RMSU=  2.11D-03    CP:  9.80D-01  6.77D-01
 E= -323.766979757862     Delta-E=       -0.134134712884 Rises=F Damp=F
 DIIS: error= 7.72D-03 at cycle   3 NSaved=   3.
 NSaved= 3 IEnMin= 3 EnMin= -323.766979757862     IErMin= 3 ErrMin= 7.72D-03
 ErrMax= 7.72D-03  0.00D+00 EMaxC= 1.00D-01 BMatC= 9.64D-03 BMatP= 4.56D-02
 IDIUse=3 WtCom= 9.23D-01 WtEn= 7.72D-02
 Coeff-Com:  0.887D-01 0.298D+00 0.613D+00
 Coeff-En:   0.000D+00 0.000D+00 0.100D+01
 Coeff:      0.818D-01 0.275D+00 0.643D+00
 Gap=     0.214 Goal=   None    Shift=    0.000
 RMSDP=1.14D-03 MaxDP=2.20D-02 DE=-1.34D-01 OVMax= 5.28D-02

 Cycle   4  Pass 0  IDiag  1:
 RMSU=  8.34D-04    CP:  9.84D-01  7.63D-01  6.76D-01
 E= -323.774763219958     Delta-E=       -0.007783462096 Rises=F Damp=F
 DIIS: error= 3.19D-03 at cycle   4 NSaved=   4.
 NSaved= 4 IEnMin= 4 EnMin= -323.774763219958     IErMin= 4 ErrMin= 3.19D-03
 ErrMax= 3.19D-03  0.00D+00 EMaxC= 1.00D-01 BMatC= 2.32D-03 BMatP= 9.64D-03
 IDIUse=3 WtCom= 9.68D-01 WtEn= 3.19D-02
 Coeff-Com:  0.182D-01 0.677D-01 0.340D+00 0.574D+00
 Coeff-En:   0.000D+00 0.000D+00 0.197D+00 0.803D+00
 Coeff:      0.176D-01 0.655D-01 0.336D+00 0.581D+00
 Gap=     0.212 Goal=   None    Shift=    0.000
 RMSDP=4.64D-04 MaxDP=1.13D-02 DE=-7.78D-03 OVMax= 2.50D-02

 Cycle   5  Pass 0  IDiag  1:
 RMSU=  2.26D-04    CP:  9.83D-01  7.17D-01  7.65D-01  6.29D-01
 E= -323.776976009632     Delta-E=       -0.002212789674 Rises=F Damp=F
 DIIS: error= 1.06D-03 at cycle   5 NSaved=   5.
 NSaved= 5 IEnMin= 5 EnMin= -323.776976009632     IErMin= 5 ErrMin= 1.06D-03
 ErrMax= 1.06D-03  0.00D+00 EMaxC= 1.00D-01 BMatC= 2.81D-04 BMatP= 2.32D-03
 IDIUse=3 WtCom= 9.89D-01 WtEn= 1.06D-02
 Coeff-Com:  0.185D-02 0.761D-02 0.125D+00 0.336D+00 0.530D+00
 Coeff-En:   0.000D+00 0.000D+00 0.000D+00 0.635D-01 0.937D+00
 Coeff:      0.183D-02 0.753D-02 0.123D+00 0.333D+00 0.534D+00
 Gap=     0.212 Goal=   None    Shift=    0.000
 RMSDP=1.49D-04 MaxDP=3.59D-03 DE=-2.21D-03 OVMax= 7.07D-03

 Cycle   6  Pass 0  IDiag  1:
 RMSU=  8.33D-05    CP:  9.83D-01  7.27D-01  7.60D-01  6.83D-01  5.29D-01
 E= -323.777245938016     Delta-E=       -0.000269928384 Rises=F Damp=F
 DIIS: error= 2.46D-04 at cycle   6 NSaved=   6.
 NSaved= 6 IEnMin= 6 EnMin= -323.777245938016     IErMin= 6 ErrMin= 2.46D-04
 ErrMax= 2.46D-04  0.00D+00 EMaxC= 1.00D-01 BMatC= 1.37D-05 BMatP= 2.81D-04
 IDIUse=3 WtCom= 9.98D-01 WtEn= 2.46D-03
 Coeff-Com: -0.392D-03-0.149D-02 0.334D-01 0.119D+00 0.268D+00 0.582D+00
 Coeff-En:   0.000D+00 0.000D+00 0.000D+00 0.000D+00 0.000D+00 0.100D+01
 Coeff:     -0.391D-03-0.149D-02 0.333D-01 0.119D+00 0.267D+00 0.583D+00
 Gap=     0.213 Goal=   None    Shift=    0.000
 RMSDP=3.81D-05 MaxDP=7.36D-04 DE=-2.70D-04 OVMax= 1.90D-03

 Cycle   7  Pass 0  IDiag  1:
 RMSU=  2.30D-05    CP:  9.83D-01  7.27D-01  7.61D-01  6.85D-01  5.98D-01
                    CP:  6.89D-01
 E= -323.777258881471     Delta-E=       -0.000012943456 Rises=F Damp=F
 DIIS: error= 9.76D-05 at cycle   7 NSaved=   7.
 NSaved= 7 IEnMin= 7 EnMin= -323.777258881471     IErMin= 7 ErrMin= 9.76D-05
 ErrMax= 9.76D-05  0.00D+00 EMaxC= 1.00D-01 BMatC= 1.65D-06 BMatP= 1.37D-05
 IDIUse=1 WtCom= 1.00D+00 WtEn= 0.00D+00
 Coeff-Com: -0.256D-03-0.138D-02 0.127D-01 0.510D-01 0.126D+00 0.343D+00
 Coeff-Com:  0.469D+00
 Coeff:     -0.256D-03-0.138D-02 0.127D-01 0.510D-01 0.126D+00 0.343D+00
 Coeff:      0.469D+00
 Gap=     0.212 Goal=   None    Shift=    0.000
 RMSDP=1.26D-05 MaxDP=2.81D-04 DE=-1.29D-05 OVMax= 6.24D-04

 Cycle   8  Pass 0  IDiag  1:
 RMSU=  6.45D-06    CP:  9.83D-01  7.27D-01  7.61D-01  6.87D-01  5.94D-01
                    CP:  7.10D-01  5.48D-01
 E= -323.777260756054     Delta-E=       -0.000001874582 Rises=F Damp=F
 DIIS: error= 1.92D-05 at cycle   8 NSaved=   8.
 NSaved= 8 IEnMin= 8 EnMin= -323.777260756054     IErMin= 8 ErrMin= 1.92D-05
 ErrMax= 1.92D-05  0.00D+00 EMaxC= 1.00D-01 BMatC= 5.34D-08 BMatP= 1.65D-06
 IDIUse=1 WtCom= 1.00D+00 WtEn= 0.00D+00
 Coeff-Com:  0.188D-05-0.380D-03 0.507D-03 0.379D-02 0.115D-01 0.474D-01
 Coeff-Com:  0.172D+00 0.766D+00
 Coeff:      0.188D-05-0.380D-03 0.507D-03 0.379D-02 0.115D-01 0.474D-01
 Coeff:      0.172D+00 0.766D+00
 Gap=     0.212 Goal=   None    Shift=    0.000
 RMSDP=2.56D-06 MaxDP=7.17D-05 DE=-1.87D-06 OVMax= 1.96D-04

 Initial convergence to 1.0D-05 achieved.  Increase integral accuracy.
 Cycle   9  Pass 1  IDiag  1:
 E= -323.777250388558     Delta-E=        0.000010367496 Rises=F Damp=F
 DIIS: error= 9.60D-06 at cycle   1 NSaved=   1.
 NSaved= 1 IEnMin= 1 EnMin= -323.777250388558     IErMin= 1 ErrMin= 9.60D-06
 ErrMax= 9.60D-06  0.00D+00 EMaxC= 1.00D-01 BMatC= 1.72D-08 BMatP= 1.72D-08
 IDIUse=1 WtCom= 1.00D+00 WtEn= 0.00D+00
 Coeff-Com:  0.100D+01
 Coeff:      0.100D+01
 Gap=     0.212 Goal=   None    Shift=    0.000
 RMSDP=2.56D-06 MaxDP=7.17D-05 DE= 1.04D-05 OVMax= 1.18D-04

 Cycle  10  Pass 1  IDiag  1:
 RMSU=  3.07D-06    CP:  1.00D+00
 E= -323.777250366605     Delta-E=        0.000000021953 Rises=F Damp=F
 DIIS: error= 1.59D-05 at cycle   2 NSaved=   2.
 NSaved= 2 IEnMin= 1 EnMin= -323.777250388558     IErMin= 1 ErrMin= 9.60D-06
 ErrMax= 1.59D-05  0.00D+00 EMaxC= 1.00D-01 BMatC= 3.96D-08 BMatP= 1.72D-08
 IDIUse=1 WtCom= 1.00D+00 WtEn= 0.00D+00
 Coeff-Com:  0.608D+00 0.392D+00
 Coeff:      0.608D+00 0.392D+00
 Gap=     0.212 Goal=   None    Shift=    0.000
 RMSDP=1.51D-06 MaxDP=4.74D-05 DE= 2.20D-08 OVMax= 8.68D-05

 Cycle  11  Pass 1  IDiag  1:
 RMSU=  9.94D-07    CP:  1.00D+00  6.31D-01
 E= -323.777250405394     Delta-E=       -0.000000038789 Rises=F Damp=F
 DIIS: error= 1.76D-06 at cycle   3 NSaved=   3.
 NSaved= 3 IEnMin= 3 EnMin= -323.777250405394     IErMin= 3 ErrMin= 1.76D-06
 ErrMax= 1.76D-06  0.00D+00 EMaxC= 1.00D-01 BMatC= 5.94D-10 BMatP= 1.72D-08
 IDIUse=1 WtCom= 1.00D+00 WtEn= 0.00D+00
 Coeff-Com:  0.130D+00 0.140D+00 0.729D+00
 Coeff:      0.130D+00 0.140D+00 0.729D+00
 Gap=     0.212 Goal=   None    Shift=    0.000
 RMSDP=3.22D-07 MaxDP=9.54D-06 DE=-3.88D-08 OVMax= 1.81D-05

 Cycle  12  Pass 1  IDiag  1:
 RMSU=  2.77D-07    CP:  1.00D+00  6.53D-01  8.50D-01
 E= -323.777250405559     Delta-E=       -0.000000000165 Rises=F Damp=F
 DIIS: error= 1.29D-06 at cycle   4 NSaved=   4.
 NSaved= 4 IEnMin= 4 EnMin= -323.777250405559     IErMin= 4 ErrMin= 1.29D-06
 ErrMax= 1.29D-06  0.00D+00 EMaxC= 1.00D-01 BMatC= 4.37D-10 BMatP= 5.94D-10
 IDIUse=1 WtCom= 1.00D+00 WtEn= 0.00D+00
 Coeff-Com: -0.334D-02 0.392D-01 0.513D+00 0.451D+00
 Coeff:     -0.334D-02 0.392D-01 0.513D+00 0.451D+00
 Gap=     0.212 Goal=   None    Shift=    0.000
 RMSDP=1.64D-07 MaxDP=4.88D-06 DE=-1.65D-10 OVMax= 8.99D-06

 Cycle  13  Pass 1  IDiag  1:
 RMSU=  4.85D-08    CP:  1.00D+00  6.59D-01  9.13D-01  4.89D-01
 E= -323.777250406004     Delta-E=       -0.000000000445 Rises=F Damp=F
 DIIS: error= 1.74D-07 at cycle   5 NSaved=   5.
 NSaved= 5 IEnMin= 5 EnMin= -323.777250406004     IErMin= 5 ErrMin= 1.74D-07
 ErrMax= 1.74D-07  0.00D+00 EMaxC= 1.00D-01 BMatC= 5.29D-12 BMatP= 4.37D-10
 IDIUse=1 WtCom= 1.00D+00 WtEn= 0.00D+00
 Coeff-Com: -0.678D-02 0.138D-01 0.206D+00 0.202D+00 0.585D+00
 Coeff:     -0.678D-02 0.138D-01 0.206D+00 0.202D+00 0.585D+00
 Gap=     0.212 Goal=   None    Shift=    0.000
 RMSDP=2.38D-08 MaxDP=4.48D-07 DE=-4.45D-10 OVMax= 1.24D-06

 Cycle  14  Pass 1  IDiag  1:
 RMSU=  1.88D-08    CP:  1.00D+00  6.60D-01  9.15D-01  4.93D-01  7.13D-01
 E= -323.777250406009     Delta-E=       -0.000000000005 Rises=F Damp=F
 DIIS: error= 1.02D-07 at cycle   6 NSaved=   6.
 NSaved= 6 IEnMin= 6 EnMin= -323.777250406009     IErMin= 6 ErrMin= 1.02D-07
 ErrMax= 1.02D-07  0.00D+00 EMaxC= 1.00D-01 BMatC= 1.35D-12 BMatP= 5.29D-12
 IDIUse=1 WtCom= 1.00D+00 WtEn= 0.00D+00
 Coeff-Com: -0.392D-02 0.571D-02 0.839D-01 0.875D-01 0.377D+00 0.449D+00
 Coeff:     -0.392D-02 0.571D-02 0.839D-01 0.875D-01 0.377D+00 0.449D+00
 Gap=     0.212 Goal=   None    Shift=    0.000
 RMSDP=1.07D-08 MaxDP=2.02D-07 DE=-4.77D-12 OVMax= 5.79D-07

 Cycle  15  Pass 1  IDiag  1:
 RMSU=  6.45D-09    CP:  1.00D+00  6.60D-01  9.14D-01  4.95D-01  7.47D-01
                    CP:  5.68D-01
 E= -323.777250406009     Delta-E=        0.000000000000 Rises=F Damp=F
 DIIS: error= 1.97D-08 at cycle   7 NSaved=   7.
 NSaved= 7 IEnMin= 6 EnMin= -323.777250406009     IErMin= 7 ErrMin= 1.97D-08
 ErrMax= 1.97D-08  0.00D+00 EMaxC= 1.00D-01 BMatC= 4.03D-14 BMatP= 1.35D-12
 IDIUse=1 WtCom= 1.00D+00 WtEn= 0.00D+00
 Coeff-Com: -0.705D-03 0.864D-03 0.719D-02 0.879D-02 0.640D-01 0.149D+00
 Coeff-Com:  0.771D+00
 Coeff:     -0.705D-03 0.864D-03 0.719D-02 0.879D-02 0.640D-01 0.149D+00
 Coeff:      0.771D+00
 Gap=     0.212 Goal=   None    Shift=    0.000
 RMSDP=2.40D-09 MaxDP=5.35D-08 DE= 0.00D+00 OVMax= 1.66D-07

 SCF Done:  E(RB3LYP) =  -323.777250406     A.U. after   15 cycles
            NFock= 15  Conv=0.24D-08     -V/T= 2.0105
 KE= 3.204025298982D+02 PE=-1.303613185241D+03 EE= 3.787150718568D+02
 Leave Link  502 at Mon Oct 14 11:05:51 2019, MaxMem= 10737418240 cpu:              47.1 elap:               2.0
 (Enter /apps/cent7/gaussian/g16-A.03/g16-haswell/g16/l601.exe)
 Copying SCF densities to generalized density rwf, IOpCl= 0 IROHF=0.

 **********************************************************************

            Population analysis using the SCF density.

 **********************************************************************

 Orbital symmetries:
       Occupied  (A) (A) (A) (A) (A) (A) (A) (A) (A) (A) (A) (A)
                 (A) (A) (A) (A) (A) (A) (A) (A) (A) (A) (A) (A)
                 (A)
       Virtual   (A) (A) (A) (A) (A) (A) (A) (A) (A) (A) (A) (A)
                 (A) (A) (A) (A) (A) (A) (A) (A) (A) (A) (A) (A)
                 (A) (A) (A) (A) (A) (A) (A) (A) (A) (A) (A) (A)
                 (A) (A) (A) (A) (A) (A) (A) (A) (A) (A) (A) (A)
                 (A) (A) (A) (A) (A) (A) (A) (A) (A) (A) (A) (A)
                 (A) (A) (A) (A) (A) (A) (A) (A) (A) (A) (A) (A)
                 (A) (A) (A) (A) (A) (A) (A) (A) (A) (A) (A) (A)
                 (A) (A) (A) (A) (A) (A) (A) (A)
 The electronic state is 1-A.
 Alpha  occ. eigenvalues --  -19.41918 -14.69865 -10.47426 -10.45105 -10.41734
 Alpha  occ. eigenvalues --  -10.41667 -10.41537  -1.34754  -1.14282  -1.00768
 Alpha  occ. eigenvalues --   -0.97900  -0.86665  -0.84804  -0.79943  -0.71888
 Alpha  occ. eigenvalues --   -0.71172  -0.69327  -0.67307  -0.64530  -0.59766
 Alpha  occ. eigenvalues --   -0.57834  -0.56877  -0.53826  -0.49028  -0.47054
 Alpha virt. eigenvalues --   -0.25805  -0.22425  -0.13755  -0.10017  -0.08433
 Alpha virt. eigenvalues --   -0.07429  -0.04431  -0.03217  -0.01615   0.00473
 Alpha virt. eigenvalues --    0.04588   0.05911   0.07700   0.12401   0.20614
 Alpha virt. eigenvalues --    0.23542   0.30145   0.31038   0.33171   0.36471
 Alpha virt. eigenvalues --    0.37960   0.38682   0.39489   0.40220   0.44051
 Alpha virt. eigenvalues --    0.45515   0.45772   0.49226   0.59592   0.59726
 Alpha virt. eigenvalues --    0.61283   0.64536   0.65795   0.68754   0.71666
 Alpha virt. eigenvalues --    0.72039   0.73193   0.75112   0.77679   0.80725
 Alpha virt. eigenvalues --    0.86283   0.87548   0.89066   0.93862   0.96449
 Alpha virt. eigenvalues --    1.00489   1.03639   1.12804   1.19715   1.22714
 Alpha virt. eigenvalues --    1.23114   1.25904   1.26745   1.27194   1.28450
 Alpha virt. eigenvalues --    1.40321   1.54805   1.56628   1.65660   1.69407
 Alpha virt. eigenvalues --    1.72941   1.74133   1.74727   1.75138   1.75873
 Alpha virt. eigenvalues --    1.83873   1.86413   1.94438   1.97782   1.98768
 Alpha virt. eigenvalues --    2.05412   2.09446   2.20041   2.25905   2.29223
 Alpha virt. eigenvalues --    2.31277   2.36958   2.40534   2.43168   2.45076
 Alpha virt. eigenvalues --    2.47784   2.57017   2.75659   2.83230   3.07221
 Alpha virt. eigenvalues --    3.49364   3.79257   3.84688   3.87831   4.03633
 Alpha virt. eigenvalues --    4.09661   4.35259
          Condensed to atoms (all electrons):
               1          2          3          4          5          6
     1  O    8.114501   0.149211  -0.038606   0.002547   0.000133   0.003222
     2  N    0.149211   6.394909   0.421745  -0.008127  -0.032804  -0.010175
     3  C   -0.038606   0.421745   4.800277   0.439159  -0.032146  -0.024137
     4  C    0.002547  -0.008127   0.439159   4.884997   0.569670  -0.025398
     5  C    0.000133  -0.032804  -0.032146   0.569670   4.829941   0.446843
     6  C    0.003222  -0.010175  -0.024137  -0.025398   0.446843   4.880444
     7  C   -0.024563   0.303465  -0.057928  -0.023321  -0.034773   0.562205
     8  H    0.001099  -0.036031   0.362798  -0.023042   0.002660   0.000000
     9  H   -0.000034   0.002107  -0.027035   0.371087  -0.032218   0.003723
    10  H    0.000002   0.000018   0.003838  -0.036565   0.368905  -0.029623
    11  H   -0.000044   0.002784   0.000163   0.003307  -0.026665   0.366250
    12  H    0.000211  -0.035751   0.002494   0.000059   0.003272  -0.027141
    13  H    0.238067  -0.022144   0.000859  -0.000169   0.000032   0.000094
               7          8          9         10         11         12
     1  O   -0.024563   0.001099  -0.000034   0.000002  -0.000044   0.000211
     2  N    0.303465  -0.036031   0.002107   0.000018   0.002784  -0.035751
     3  C   -0.057928   0.362798  -0.027035   0.003838   0.000163   0.002494
     4  C   -0.023321  -0.023042   0.371087  -0.036565   0.003307   0.000059
     5  C   -0.034773   0.002660  -0.032218   0.368905  -0.026665   0.003272
     6  C    0.562205   0.000000   0.003723  -0.029623   0.366250  -0.027141
     7  C    4.844822   0.002833   0.000221   0.003523  -0.029010   0.364486
     8  H    0.002833   0.420429  -0.001782  -0.000081   0.000007  -0.000092
     9  H    0.000221  -0.001782   0.452810  -0.004085  -0.000100   0.000006
    10  H    0.003523  -0.000081  -0.004085   0.462898  -0.002426  -0.000082
    11  H   -0.029010   0.000007  -0.000100  -0.002426   0.451787  -0.003454
    12  H    0.364486  -0.000092   0.000006  -0.000082  -0.003454   0.442413
    13  H   -0.000503  -0.000011   0.000002  -0.000000  -0.000001   0.000841
              13
     1  O    0.238067
     2  N   -0.022144
     3  C    0.000859
     4  C   -0.000169
     5  C    0.000032
     6  C    0.000094
     7  C   -0.000503
     8  H   -0.000011
     9  H    0.000002
    10  H   -0.000000
    11  H   -0.000001
    12  H    0.000841
    13  H    0.312014
 Mulliken charges:
               1
     1  O   -0.445745
     2  N   -0.129208
     3  C    0.148520
     4  C   -0.154204
     5  C   -0.062850
     6  C   -0.146307
     7  C    0.088543
     8  H    0.271212
     9  H    0.235300
    10  H    0.233678
    11  H    0.237402
    12  H    0.252739
    13  H    0.470920
 Sum of Mulliken charges =   1.00000
 Mulliken charges with hydrogens summed into heavy atoms:
               1
     1  O    0.025176
     2  N   -0.129208
     3  C    0.419732
     4  C    0.081096
     5  C    0.170827
     6  C    0.091095
     7  C    0.341282
 Electronic spatial extent (au):  <R**2>=            659.5844
 Charge=              1.0000 electrons
 Dipole moment (field-independent basis, Debye):
    X=              0.3521    Y=              0.4658    Z=              1.4340  Tot=              1.5483
 Quadrupole moment (field-independent basis, Debye-Ang):
   XX=            -21.4065   YY=            -24.5495   ZZ=            -39.5923
   XY=             -2.0105   XZ=             -4.1031   YZ=              0.6634
 Traceless Quadrupole moment (field-independent basis, Debye-Ang):
   XX=              7.1096   YY=              3.9666   ZZ=            -11.0762
   XY=             -2.0105   XZ=             -4.1031   YZ=              0.6634
 Octapole moment (field-independent basis, Debye-Ang**2):
  XXX=             -5.4800  YYY=              0.1587  ZZZ=              1.3850  XYY=              0.2329
  XXY=              6.0050  XXZ=             12.2176  XZZ=             -8.9438  YZZ=              0.0030
  YYZ=              0.1030  XYZ=             -2.0109
 Hexadecapole moment (field-independent basis, Debye-Ang**3):
 XXXX=           -371.4363 YYYY=           -209.3144 ZZZZ=            -38.4368 XXXY=            -20.2489
 XXXZ=            -32.4282 YYYX=              1.1802 YYYZ=             -0.0007 ZZZX=             -4.2188
 ZZZY=              0.8535 XXYY=           -103.2124 XXZZ=            -85.8221 YYZZ=            -56.7190
 XXYZ=              4.9836 YYXZ=             -0.7987 ZZXY=             -0.8511
 N-N= 2.807183330801D+02 E-N=-1.303613186627D+03  KE= 3.204025298982D+02
 No NMR shielding tensors so no spin-rotation constants.
 Leave Link  601 at Mon Oct 14 11:05:51 2019, MaxMem= 10737418240 cpu:               2.1 elap:               0.1
 (Enter /apps/cent7/gaussian/g16-A.03/g16-haswell/g16/l701.exe)
 ... and contract with generalized density number  0.
 Compute integral first derivatives.
 Leave Link  701 at Mon Oct 14 11:05:51 2019, MaxMem= 10737418240 cpu:               2.6 elap:               0.1
 (Enter /apps/cent7/gaussian/g16-A.03/g16-haswell/g16/l702.exe)
 L702 exits ... SP integral derivatives will be done elsewhere.
 Leave Link  702 at Mon Oct 14 11:05:51 2019, MaxMem= 10737418240 cpu:               0.5 elap:               0.0
 (Enter /apps/cent7/gaussian/g16-A.03/g16-haswell/g16/l703.exe)
 Integral derivatives from FoFJK, PRISM(SPDF).
 Compute integral first derivatives, UseDBF=F ICtDFT=           0.
 Calling FoFJK, ICntrl=      2127 FMM=F ISym2X=0 I1Cent= 0 IOpClX= 0 NMat=1 NMatS=1 NMatT=0.
 FoFJK:  IHMeth= 1 ICntrl=    2127 DoSepK=F KAlg= 0 I1Cent=           0 FoldK=F
 IRaf=         0 NMat=       1 IRICut=       1 DoRegI=T DoRafI=F ISym2E= 0 IDoP0=0 IntGTp=1.
 FoFCou: FMM=F IPFlag=           0 FMFlag=      100000 FMFlg1=         800
         NFxFlg=           0 DoJE=F BraDBF=F KetDBF=F FulRan=T
         wScrn=  0.000000 ICntrl=      2127 IOpCl=  0 I1Cent=           0 NGrid=           0
         NMat0=    1 NMatS0=      1 NMatT0=    0 NMatD0=    1 NMtDS0=    0 NMtDT0=    0
 Symmetry not used in FoFCou.
 Leave Link  703 at Mon Oct 14 11:05:51 2019, MaxMem= 10737418240 cpu:              10.3 elap:               0.5
 (Enter /apps/cent7/gaussian/g16-A.03/g16-haswell/g16/l716.exe)
 Dipole        = 1.38512873D-01 1.83256090D-01 5.64170572D-01
 ***** Axes restored to original set *****
 -------------------------------------------------------------------
 Center     Atomic                   Forces (Hartrees/Bohr)
 Number     Number              X              Y              Z
 -------------------------------------------------------------------
      1        8          -0.004457266   -0.011757680   -0.023574342
      2        7           0.035773619    0.063595029    0.009784793
      3        6           0.080946265   -0.016511039   -0.001036344
      4        6          -0.073887146    0.005116345   -0.001872014
      5        6          -0.037598484    0.061536678    0.000098509
      6        6           0.024622130   -0.068734703    0.000284670
      7        6          -0.009500857   -0.036770427   -0.000440707
      8        1          -0.009626732   -0.006339241    0.000813248
      9        1          -0.002807409   -0.012951726   -0.000136239
     10        1           0.010614791    0.003851980    0.000154180
     11        1           0.004380750    0.008899573   -0.000104003
     12        1          -0.017084224    0.000916055   -0.000640837
     13        1          -0.001375437    0.009149156    0.016669086
 -------------------------------------------------------------------
 Cartesian Forces:  Max     0.080946265 RMS     0.028471343
 Leave Link  716 at Mon Oct 14 11:05:51 2019, MaxMem= 10737418240 cpu:               0.6 elap:               0.0
 (Enter /apps/cent7/gaussian/g16-A.03/g16-haswell/g16/l103.exe)

 GradGradGradGradGradGradGradGradGradGradGradGradGradGradGradGradGradGrad
 Berny optimization.
 FormGI is forming the generalized inverse of G from B-inverse, IUseBI=4.
 Internal  Forces:  Max     0.071961533 RMS     0.015515015
 Search for a local minimum.
 Step number   1 out of a maximum of   68
 All quantities printed in internal units (Hartrees-Bohrs-Radians)
 RMS Force = .15515D-01 SwitMx=.10000D-02 MixMth= 1
 Mixed Optimization -- RFO/linear search
 Second derivative matrix not updated -- first step.
 ITU=  0
     Eigenvalues ---    0.00856   0.00962   0.01503   0.01572   0.01580
     Eigenvalues ---    0.01628   0.01768   0.01824   0.02245   0.02383
     Eigenvalues ---    0.16000   0.16000   0.16000   0.16000   0.16000
     Eigenvalues ---    0.16000   0.22000   0.22000   0.23505   0.24992
     Eigenvalues ---    0.28022   0.28756   0.34196   0.37230   0.37230
     Eigenvalues ---    0.37230   0.37230   0.37230   0.51590   0.52948
     Eigenvalues ---    0.53837   0.55473   0.64911
 RFO step:  Lambda=-4.13482541D-02 EMin= 8.56237956D-03
 Linear search not attempted -- first point.
 Maximum step size (   0.300) exceeded in Quadratic search.
    -- Step size scaled by   0.845
 Iteration  1 RMS(Cart)=  0.04831555 RMS(Int)=  0.00068365
 Iteration  2 RMS(Cart)=  0.00076000 RMS(Int)=  0.00011703
 Iteration  3 RMS(Cart)=  0.00000044 RMS(Int)=  0.00011703
 ITry= 1 IFail=0 DXMaxC= 1.41D-01 DCOld= 1.00D+10 DXMaxT= 3.00D-01 DXLimC= 3.00D+00 Rises=F
 Variable       Old X    -DE/DX   Delta X   Delta X   Delta X     New X
                                 (Linear)    (Quad)   (Total)
    R1        2.57003   0.00592   0.00000   0.00876   0.00876   2.57879
    R2        1.81414   0.01832   0.00000   0.02596   0.02596   1.84010
    R3        2.45658   0.01238   0.00000   0.01483   0.01492   2.47150
    R4        2.79040  -0.05485   0.00000  -0.11971  -0.11976   2.67063
    R5        2.91000  -0.07196   0.00000  -0.18435  -0.18420   2.72580
    R6        2.02201   0.01035   0.00000   0.02113   0.02113   2.04314
    R7        2.54859   0.01637   0.00000   0.02405   0.02411   2.57270
    R8        2.02201   0.00989   0.00000   0.02019   0.02019   2.04220
    R9        2.89831  -0.05862   0.00000  -0.14951  -0.14961   2.74871
   R10        2.02201   0.01065   0.00000   0.02175   0.02175   2.04375
   R11        2.56173  -0.00312   0.00000  -0.00557  -0.00572   2.55601
   R12        2.02201   0.00991   0.00000   0.02024   0.02024   2.04225
   R13        2.02201   0.00966   0.00000   0.01974   0.01974   2.04174
    A1        1.91063  -0.00955   0.00000  -0.04008  -0.04008   1.87055
    A2        2.08399  -0.00586   0.00000  -0.01690  -0.01704   2.06695
    A3        2.08400  -0.00381   0.00000  -0.01090  -0.01106   2.07294
    A4        2.11493   0.00962   0.00000   0.02716   0.02708   2.14201
    A5        2.10545  -0.00575   0.00000  -0.01539  -0.01514   2.09032
    A6        2.08887  -0.00226   0.00000  -0.01386  -0.01400   2.07487
    A7        2.08887   0.00801   0.00000   0.02925   0.02912   2.11798
    A8        2.08250  -0.00104   0.00000   0.00136   0.00158   2.08408
    A9        2.10034  -0.00840   0.00000  -0.03812  -0.03823   2.06211
   A10        2.10034   0.00944   0.00000   0.03676   0.03664   2.13699
   A11        2.07287   0.00219   0.00000   0.00913   0.00912   2.08199
   A12        2.10516   0.00271   0.00000   0.01140   0.01140   2.11656
   A13        2.10516  -0.00490   0.00000  -0.02053  -0.02052   2.08463
   A14        2.08520   0.00154   0.00000   0.00253   0.00230   2.08749
   A15        2.09899  -0.00034   0.00000   0.00051   0.00062   2.09962
   A16        2.09899  -0.00119   0.00000  -0.00305  -0.00294   2.09605
   A17        2.10538  -0.00656   0.00000  -0.02483  -0.02503   2.08035
   A18        2.08890  -0.01099   0.00000  -0.04747  -0.04738   2.04153
   A19        2.08890   0.01755   0.00000   0.07231   0.07240   2.16130
    D1        2.10662   0.00064   0.00000   0.00967   0.00936   2.11598
    D2       -1.05943  -0.00133   0.00000  -0.01944  -0.01913  -1.07856
    D3        3.12739  -0.00220   0.00000  -0.03017  -0.03011   3.09728
    D4       -0.01443  -0.00179   0.00000  -0.02410  -0.02417  -0.03859
    D5        0.01070  -0.00000   0.00000   0.00003   0.00016   0.01086
    D6       -3.13112   0.00040   0.00000   0.00610   0.00610  -3.12501
    D7       -3.12755   0.00169   0.00000   0.02303   0.02308  -3.10447
    D8        0.01427   0.00126   0.00000   0.01756   0.01779   0.03206
    D9       -0.01086  -0.00053   0.00000  -0.00725  -0.00737  -0.01823
   D10        3.13095  -0.00096   0.00000  -0.01272  -0.01266   3.11830
   D11       -0.00431   0.00059   0.00000   0.00740   0.00736   0.00305
   D12        3.13748   0.00027   0.00000   0.00328   0.00331   3.14079
   D13        3.13750   0.00019   0.00000   0.00134   0.00127   3.13877
   D14       -0.00389  -0.00014   0.00000  -0.00279  -0.00278  -0.00667
   D15       -0.00219  -0.00046   0.00000  -0.00695  -0.00707  -0.00926
   D16        3.13980  -0.00028   0.00000  -0.00363  -0.00369   3.13612
   D17        3.13920  -0.00013   0.00000  -0.00284  -0.00284   3.13636
   D18       -0.00199   0.00004   0.00000   0.00049   0.00054  -0.00146
   D19        0.00203  -0.00006   0.00000  -0.00005  -0.00009   0.00193
   D20       -3.13937   0.00044   0.00000   0.00720   0.00721  -3.13215
   D21       -3.13997  -0.00023   0.00000  -0.00337  -0.00340   3.13982
   D22        0.00183   0.00027   0.00000   0.00388   0.00390   0.00573
   D23        0.00413   0.00056   0.00000   0.00723   0.00718   0.01131
   D24       -3.13769   0.00099   0.00000   0.01268   0.01284  -3.12485
   D25       -3.13766   0.00007   0.00000  -0.00002  -0.00011  -3.13777
   D26        0.00371   0.00049   0.00000   0.00543   0.00555   0.00926
         Item               Value     Threshold  Converged?
 Maximum Force            0.071962     0.000450     NO 
 RMS     Force            0.015515     0.000300     NO 
 Maximum Displacement     0.141153     0.001800     NO 
 RMS     Displacement     0.048510     0.001200     NO 
 Predicted change in Energy=-2.210768D-02
 Lowest energy point so far.  Saving SCF results.
 GradGradGradGradGradGradGradGradGradGradGradGradGradGradGradGradGradGrad

 Leave Link  103 at Mon Oct 14 11:05:52 2019, MaxMem= 10737418240 cpu:               0.8 elap:               0.1
 (Enter /apps/cent7/gaussian/g16-A.03/g16-haswell/g16/l202.exe)
                          Input orientation:                          
 ---------------------------------------------------------------------
 Center     Atomic      Atomic             Coordinates (Angstroms)
 Number     Number       Type             X           Y           Z
 ---------------------------------------------------------------------
      1          8           0       -2.014044    1.119545   -0.023376
      2          7           0       -0.650207    1.138059    0.019524
      3          6           0       -0.011410   -0.003136    0.008931
      4          6           0        1.430919   -0.016374   -0.002092
      5          6           0        2.110338    1.163383    0.002297
      6          6           0        1.366121    2.413124    0.006282
      7          6           0        0.013820    2.385526    0.007847
      8          1           0       -0.582444   -0.921199    0.003234
      9          1           0        1.931959   -0.973859   -0.009949
     10          1           0        3.191549    1.188545   -0.000619
     11          1           0        1.888830    3.359002    0.000983
     12          1           0       -0.605949    3.270456   -0.004248
     13          1           0       -2.333066    1.576660    0.775022
 ---------------------------------------------------------------------
                    Distance matrix (angstroms):
                    1          2          3          4          5
     1  O    0.000000
     2  N    1.364637   0.000000
     3  C    2.296084   1.307861   0.000000
     4  C    3.627470   2.379973   1.442432   0.000000
     5  C    4.124696   2.760716   2.421286   1.361416   0.000000
     6  C    3.619357   2.385696   2.781350   2.430376   1.454554
     7  C    2.390799   1.413238   2.388796   2.788798   2.426738
     8  H    2.492954   2.060437   1.081181   2.207345   3.405372
     9  H    4.466930   3.335963   2.172405   1.080686   2.144708
    10  H    5.206101   3.842141   3.417476   2.133459   1.081508
    11  H    4.499799   3.373372   3.861987   3.406296   2.206765
    12  H    2.570898   2.132988   3.327169   3.866793   3.437735
    13  H    0.973740   1.896091   2.910797   4.160438   4.528989
                    6          7          8          9         10
     6  C    0.000000
     7  C    1.352584   0.000000
     8  H    3.861946   3.360057   0.000000
     9  H    3.433961   3.868468   2.514989   0.000000
    10  H    2.198142   3.395703   4.323663   2.502528   0.000000
    11  H    1.080712   2.112668   4.942400   4.333089   2.531395
    12  H    2.150394   1.080445   4.191728   4.945222   4.330746
    13  H    3.869705   2.598210   3.146368   5.031080   5.592283
                   11         12         13
    11  H    0.000000
    12  H    2.496356   0.000000
    13  H    4.647610   2.541483   0.000000
 Stoichiometry    C5H6NO(1+)
 Framework group  C1[X(C5H6NO)]
 Deg. of freedom    33
 Full point group                 C1      NOp   1
 RotChk:  IX=0 Diff= 4.86D-03
 Largest Abelian subgroup         C1      NOp   1
 Largest concise Abelian subgroup C1      NOp   1
                         Standard orientation:                         
 ---------------------------------------------------------------------
 Center     Atomic      Atomic             Coordinates (Angstroms)
 Number     Number       Type             X           Y           Z
 ---------------------------------------------------------------------
      1          8           0       -2.254023   -0.058826   -0.075560
      2          7           0       -0.891040   -0.039947   -0.011104
      3          6           0       -0.252237   -1.181162   -0.003354
      4          6           0        1.190084   -1.194419    0.008664
      5          6           0        1.869432   -0.014633    0.015403
      6          6           0        1.125337    1.235073   -0.001410
      7          6           0       -0.226821    1.207432   -0.021159
      8          1           0       -0.823176   -2.099267   -0.011552
      9          1           0        1.691115   -2.151915    0.015642
     10          1           0        2.950555    0.010552    0.029507
     11          1           0        1.648132    2.180911   -0.005172
     12          1           0       -0.846255    2.092226   -0.049454
     13          1           0       -2.585672    0.403988    0.714365
 ---------------------------------------------------------------------
 Rotational constants (GHZ):           5.6907595           2.6457816           1.8138714
 Leave Link  202 at Mon Oct 14 11:05:52 2019, MaxMem= 10737418240 cpu:               0.3 elap:               0.0
 (Enter /apps/cent7/gaussian/g16-A.03/g16-haswell/g16/l301.exe)
 Standard basis: 6-31G(d) (6D, 7F)
 Ernie: Thresh=  0.10000D-02 Tol=  0.10000D-05 Strict=F.
 There are   117 symmetry adapted cartesian basis functions of A   symmetry.
 There are   117 symmetry adapted basis functions of A   symmetry.
   117 basis functions,   220 primitive gaussians,   117 cartesian basis functions
    25 alpha electrons       25 beta electrons
       nuclear repulsion energy       285.6724702628 Hartrees.
 IExCor=  402 DFT=T Ex+Corr=B3LYP ExCW=0 ScaHFX=  0.200000
 ScaDFX=  0.800000  0.720000  1.000000  0.810000 ScalE2=  1.000000  1.000000
 IRadAn=      5 IRanWt=     -1 IRanGd=            0 ICorTp=0 IEmpDi=  4
 NAtoms=   13 NActive=   13 NUniq=   13 SFac= 1.00D+00 NAtFMM=   60 NAOKFM=F Big=F
 Integral buffers will be    131072 words long.
 Raffenetti 2 integral format.
 Two-electron integral symmetry is turned on.
 Leave Link  301 at Mon Oct 14 11:05:52 2019, MaxMem= 10737418240 cpu:               1.2 elap:               0.1
 (Enter /apps/cent7/gaussian/g16-A.03/g16-haswell/g16/l302.exe)
 NPDir=0 NMtPBC=     1 NCelOv=     1 NCel=       1 NClECP=     1 NCelD=      1
         NCelK=      1 NCelE2=     1 NClLst=     1 CellRange=     0.0.
 One-electron integrals computed using PRISM.
 One-electron integral symmetry used in STVInt
 NBasis=   117 RedAO= T EigKep=  8.04D-04  NBF=   117
 NBsUse=   117 1.00D-06 EigRej= -1.00D+00 NBFU=   117
 Precomputing XC quadrature grid using
 IXCGrd= 4 IRadAn=           5 IRanWt=          -1 IRanGd=           0 AccXCQ= 0.00D+00.
 Generated NRdTot=       0 NPtTot=           0 NUsed=           0 NTot=          32
 NSgBfM=   117   117   117   117   117 MxSgAt=    13 MxSgA2=    13.
 Leave Link  302 at Mon Oct 14 11:05:52 2019, MaxMem= 10737418240 cpu:               2.7 elap:               0.1
 (Enter /apps/cent7/gaussian/g16-A.03/g16-haswell/g16/l303.exe)
 DipDrv:  MaxL=1.
 Leave Link  303 at Mon Oct 14 11:05:52 2019, MaxMem= 10737418240 cpu:               1.0 elap:               0.1
 (Enter /apps/cent7/gaussian/g16-A.03/g16-haswell/g16/l401.exe)
 Initial guess from the checkpoint file:  "3_p.chk"
 B after Tr=     0.000000   -0.000000    0.000000
         Rot=    1.000000    0.000302   -0.000004    0.000349 Ang=   0.05 deg.
 Guess basis will be translated and rotated to current coordinates.
 JPrj=2 DoOrth=T DoCkMO=T.
 Generating alternative initial guess.
 ExpMin= 1.61D-01 ExpMax= 5.48D+03 ExpMxC= 8.25D+02 IAcc=2 IRadAn=         4 AccDes= 0.00D+00
 Harris functional with IExCor=  402 and IRadAn=       4 diagonalized for initial guess.
 HarFok:  IExCor=  402 AccDes= 0.00D+00 IRadAn=         4 IDoV= 1 UseB2=F ITyADJ=14
 ICtDFT=  3500011 ScaDFX=  1.000000  1.000000  1.000000  1.000000
 FoFCou: FMM=F IPFlag=           0 FMFlag=      100000 FMFlg1=           0
         NFxFlg=           0 DoJE=T BraDBF=F KetDBF=T FulRan=T
         wScrn=  0.000000 ICntrl=       500 IOpCl=  0 I1Cent=   200000004 NGrid=           0
         NMat0=    1 NMatS0=      1 NMatT0=    0 NMatD0=    1 NMtDS0=    0 NMtDT0=    0
 Petite list used in FoFCou.
 Harris En= -323.838470576838    
 Leave Link  401 at Mon Oct 14 11:05:52 2019, MaxMem= 10737418240 cpu:               5.8 elap:               0.3
 (Enter /apps/cent7/gaussian/g16-A.03/g16-haswell/g16/l502.exe)
 Integral symmetry usage will be decided dynamically.
 Closed shell SCF:
 Using DIIS extrapolation, IDIIS=  1040.
 NGot= 10737418240 LenX= 10737386646 LenY= 10737372516
 Requested convergence on RMS density matrix=1.00D-08 within 128 cycles.
 Requested convergence on MAX density matrix=1.00D-06.
 Requested convergence on             energy=1.00D-06.
 No special actions if energy rises.
 Fock matrices will be formed incrementally for  20 cycles.
 Integral accuracy reduced to 1.0D-05 until final iterations.

 Cycle   1  Pass 0  IDiag  1:
 FoFJK:  IHMeth= 1 ICntrl=       0 DoSepK=F KAlg= 0 I1Cent=           0 FoldK=F
 IRaf= 980000000 NMat=       1 IRICut=       1 DoRegI=T DoRafI=F ISym2E= 0 IDoP0=0 IntGTp=1.
 FoFCou: FMM=F IPFlag=           0 FMFlag=      100000 FMFlg1=           0
         NFxFlg=           0 DoJE=F BraDBF=F KetDBF=F FulRan=T
         wScrn=  0.000000 ICntrl=         0 IOpCl=  0 I1Cent=           0 NGrid=           0
         NMat0=    1 NMatS0=      1 NMatT0=    0 NMatD0=    1 NMtDS0=    0 NMtDT0=    0
 Symmetry not used in FoFCou.
 E= -323.795956818907    
 DIIS: error= 4.75D-03 at cycle   1 NSaved=   1.
 NSaved= 1 IEnMin= 1 EnMin= -323.795956818907     IErMin= 1 ErrMin= 4.75D-03
 ErrMax= 4.75D-03  0.00D+00 EMaxC= 1.00D-01 BMatC= 3.59D-03 BMatP= 3.59D-03
 IDIUse=3 WtCom= 9.53D-01 WtEn= 4.75D-02
 Coeff-Com:  0.100D+01
 Coeff-En:   0.100D+01
 Coeff:      0.100D+01
 Gap=     1.747 Goal=   None    Shift=    0.000
 GapD=    1.747 DampG=2.000 DampE=1.000 DampFc=2.0000 IDamp=-1.
 RMSDP=1.08D-03 MaxDP=1.73D-02              OVMax= 5.39D-02

 Cycle   2  Pass 0  IDiag  1:
 RMSU=  1.07D-03    CP:  1.00D+00
 E= -323.802371453583     Delta-E=       -0.006414634676 Rises=F Damp=F
 DIIS: error= 1.68D-03 at cycle   2 NSaved=   2.
 NSaved= 2 IEnMin= 2 EnMin= -323.802371453583     IErMin= 2 ErrMin= 1.68D-03
 ErrMax= 1.68D-03  0.00D+00 EMaxC= 1.00D-01 BMatC= 7.09D-04 BMatP= 3.59D-03
 IDIUse=3 WtCom= 9.83D-01 WtEn= 1.68D-02
 Coeff-Com:  0.215D+00 0.785D+00
 Coeff-En:   0.000D+00 0.100D+01
 Coeff:      0.212D+00 0.788D+00
 Gap=     0.222 Goal=   None    Shift=    0.000
 RMSDP=3.66D-04 MaxDP=6.50D-03 DE=-6.41D-03 OVMax= 1.09D-02

 Cycle   3  Pass 0  IDiag  1:
 RMSU=  3.60D-04    CP:  1.00D+00  9.52D-01
 E= -323.802527644173     Delta-E=       -0.000156190590 Rises=F Damp=F
 DIIS: error= 1.89D-03 at cycle   3 NSaved=   3.
 NSaved= 3 IEnMin= 3 EnMin= -323.802527644173     IErMin= 2 ErrMin= 1.68D-03
 ErrMax= 1.89D-03  0.00D+00 EMaxC= 1.00D-01 BMatC= 5.51D-04 BMatP= 7.09D-04
 IDIUse=3 WtCom= 9.81D-01 WtEn= 1.89D-02
 Coeff-Com:  0.173D-01 0.463D+00 0.520D+00
 Coeff-En:   0.000D+00 0.435D+00 0.565D+00
 Coeff:      0.170D-01 0.462D+00 0.521D+00
 Gap=     0.221 Goal=   None    Shift=    0.000
 RMSDP=2.14D-04 MaxDP=4.82D-03 DE=-1.56D-04 OVMax= 1.31D-02

 Cycle   4  Pass 0  IDiag  1:
 RMSU=  1.13D-04    CP:  1.00D+00  1.02D+00  5.38D-01
 E= -323.803007581664     Delta-E=       -0.000479937491 Rises=F Damp=F
 DIIS: error= 4.58D-04 at cycle   4 NSaved=   4.
 NSaved= 4 IEnMin= 4 EnMin= -323.803007581664     IErMin= 4 ErrMin= 4.58D-04
 ErrMax= 4.58D-04  0.00D+00 EMaxC= 1.00D-01 BMatC= 5.32D-05 BMatP= 5.51D-04
 IDIUse=3 WtCom= 9.95D-01 WtEn= 4.58D-03
 Coeff-Com: -0.145D-01 0.138D+00 0.286D+00 0.590D+00
 Coeff-En:   0.000D+00 0.000D+00 0.369D-01 0.963D+00
 Coeff:     -0.144D-01 0.138D+00 0.285D+00 0.591D+00
 Gap=     0.221 Goal=   None    Shift=    0.000
 RMSDP=6.65D-05 MaxDP=1.21D-03 DE=-4.80D-04 OVMax= 3.85D-03

 Cycle   5  Pass 0  IDiag  1:
 RMSU=  4.98D-05    CP:  1.00D+00  1.02D+00  6.05D-01  6.77D-01
 E= -323.803053364786     Delta-E=       -0.000045783122 Rises=F Damp=F
 DIIS: error= 1.80D-04 at cycle   5 NSaved=   5.
 NSaved= 5 IEnMin= 5 EnMin= -323.803053364786     IErMin= 5 ErrMin= 1.80D-04
 ErrMax= 1.80D-04  0.00D+00 EMaxC= 1.00D-01 BMatC= 5.78D-06 BMatP= 5.32D-05
 IDIUse=3 WtCom= 9.98D-01 WtEn= 1.80D-03
 Coeff-Com: -0.819D-02 0.421D-01 0.131D+00 0.344D+00 0.491D+00
 Coeff-En:   0.000D+00 0.000D+00 0.000D+00 0.800D-02 0.992D+00
 Coeff:     -0.817D-02 0.421D-01 0.131D+00 0.343D+00 0.492D+00
 Gap=     0.221 Goal=   None    Shift=    0.000
 RMSDP=2.46D-05 MaxDP=5.40D-04 DE=-4.58D-05 OVMax= 1.39D-03

 Cycle   6  Pass 0  IDiag  1:
 RMSU=  1.73D-05    CP:  1.00D+00  1.02D+00  6.08D-01  7.45D-01  6.86D-01
 E= -323.803059210111     Delta-E=       -0.000005845324 Rises=F Damp=F
 DIIS: error= 5.80D-05 at cycle   6 NSaved=   6.
 NSaved= 6 IEnMin= 6 EnMin= -323.803059210111     IErMin= 6 ErrMin= 5.80D-05
 ErrMax= 5.80D-05  0.00D+00 EMaxC= 1.00D-01 BMatC= 5.53D-07 BMatP= 5.78D-06
 IDIUse=1 WtCom= 1.00D+00 WtEn= 0.00D+00
 Coeff-Com: -0.192D-02-0.962D-03 0.308D-01 0.945D-01 0.261D+00 0.617D+00
 Coeff:     -0.192D-02-0.962D-03 0.308D-01 0.945D-01 0.261D+00 0.617D+00
 Gap=     0.221 Goal=   None    Shift=    0.000
 RMSDP=7.92D-06 MaxDP=1.62D-04 DE=-5.85D-06 OVMax= 4.75D-04

 Initial convergence to 1.0D-05 achieved.  Increase integral accuracy.
 Cycle   7  Pass 1  IDiag  1:
 E= -323.803048239352     Delta-E=        0.000010970758 Rises=F Damp=F
 DIIS: error= 1.81D-05 at cycle   1 NSaved=   1.
 NSaved= 1 IEnMin= 1 EnMin= -323.803048239352     IErMin= 1 ErrMin= 1.81D-05
 ErrMax= 1.81D-05  0.00D+00 EMaxC= 1.00D-01 BMatC= 6.89D-08 BMatP= 6.89D-08
 IDIUse=1 WtCom= 1.00D+00 WtEn= 0.00D+00
 Coeff-Com:  0.100D+01
 Coeff:      0.100D+01
 Gap=     0.221 Goal=   None    Shift=    0.000
 RMSDP=7.92D-06 MaxDP=1.62D-04 DE= 1.10D-05 OVMax= 2.89D-04

 Cycle   8  Pass 1  IDiag  1:
 RMSU=  6.12D-06    CP:  1.00D+00
 E= -323.803048136057     Delta-E=        0.000000103296 Rises=F Damp=F
 DIIS: error= 4.16D-05 at cycle   2 NSaved=   2.
 NSaved= 2 IEnMin= 1 EnMin= -323.803048239352     IErMin= 1 ErrMin= 1.81D-05
 ErrMax= 4.16D-05  0.00D+00 EMaxC= 1.00D-01 BMatC= 1.70D-07 BMatP= 6.89D-08
 IDIUse=1 WtCom= 1.00D+00 WtEn= 0.00D+00
 Coeff-Com:  0.617D+00 0.383D+00
 Coeff:      0.617D+00 0.383D+00
 Gap=     0.221 Goal=   None    Shift=    0.000
 RMSDP=3.74D-06 MaxDP=8.50D-05 DE= 1.03D-07 OVMax= 1.99D-04

 Cycle   9  Pass 1  IDiag  1:
 RMSU=  1.92D-06    CP:  1.00D+00  4.77D-01
 E= -323.803048316450     Delta-E=       -0.000000180393 Rises=F Damp=F
 DIIS: error= 5.64D-06 at cycle   3 NSaved=   3.
 NSaved= 3 IEnMin= 3 EnMin= -323.803048316450     IErMin= 3 ErrMin= 5.64D-06
 ErrMax= 5.64D-06  0.00D+00 EMaxC= 1.00D-01 BMatC= 4.73D-09 BMatP= 6.89D-08
 IDIUse=1 WtCom= 1.00D+00 WtEn= 0.00D+00
 Coeff-Com:  0.221D+00 0.193D+00 0.586D+00
 Coeff:      0.221D+00 0.193D+00 0.586D+00
 Gap=     0.221 Goal=   None    Shift=    0.000
 RMSDP=6.43D-07 MaxDP=1.64D-05 DE=-1.80D-07 OVMax= 2.94D-05

 Cycle  10  Pass 1  IDiag  1:
 RMSU=  5.10D-07    CP:  1.00D+00  5.24D-01  8.61D-01
 E= -323.803048320981     Delta-E=       -0.000000004532 Rises=F Damp=F
 DIIS: error= 1.73D-06 at cycle   4 NSaved=   4.
 NSaved= 4 IEnMin= 4 EnMin= -323.803048320981     IErMin= 4 ErrMin= 1.73D-06
 ErrMax= 1.73D-06  0.00D+00 EMaxC= 1.00D-01 BMatC= 6.25D-10 BMatP= 4.73D-09
 IDIUse=1 WtCom= 1.00D+00 WtEn= 0.00D+00
 Coeff-Com:  0.185D-01 0.462D-01 0.303D+00 0.633D+00
 Coeff:      0.185D-01 0.462D-01 0.303D+00 0.633D+00
 Gap=     0.221 Goal=   None    Shift=    0.000
 RMSDP=2.34D-07 MaxDP=5.30D-06 DE=-4.53D-09 OVMax= 1.42D-05

 Cycle  11  Pass 1  IDiag  1:
 RMSU=  1.95D-07    CP:  1.00D+00  5.33D-01  9.05D-01  8.36D-01
 E= -323.803048321452     Delta-E=       -0.000000000471 Rises=F Damp=F
 DIIS: error= 8.29D-07 at cycle   5 NSaved=   5.
 NSaved= 5 IEnMin= 5 EnMin= -323.803048321452     IErMin= 5 ErrMin= 8.29D-07
 ErrMax= 8.29D-07  0.00D+00 EMaxC= 1.00D-01 BMatC= 1.36D-10 BMatP= 6.25D-10
 IDIUse=1 WtCom= 1.00D+00 WtEn= 0.00D+00
 Coeff-Com: -0.210D-01 0.182D-02 0.104D+00 0.389D+00 0.527D+00
 Coeff:     -0.210D-01 0.182D-02 0.104D+00 0.389D+00 0.527D+00
 Gap=     0.221 Goal=   None    Shift=    0.000
 RMSDP=1.10D-07 MaxDP=2.22D-06 DE=-4.71D-10 OVMax= 7.42D-06

 Cycle  12  Pass 1  IDiag  1:
 RMSU=  7.88D-08    CP:  1.00D+00  5.35D-01  9.22D-01  8.77D-01  6.80D-01
 E= -323.803048321580     Delta-E=       -0.000000000128 Rises=F Damp=F
 DIIS: error= 2.58D-07 at cycle   6 NSaved=   6.
 NSaved= 6 IEnMin= 6 EnMin= -323.803048321580     IErMin= 6 ErrMin= 2.58D-07
 ErrMax= 2.58D-07  0.00D+00 EMaxC= 1.00D-01 BMatC= 8.18D-12 BMatP= 1.36D-10
 IDIUse=1 WtCom= 1.00D+00 WtEn= 0.00D+00
 Coeff-Com: -0.152D-01-0.523D-02 0.162D-01 0.126D+00 0.265D+00 0.613D+00
 Coeff:     -0.152D-01-0.523D-02 0.162D-01 0.126D+00 0.265D+00 0.613D+00
 Gap=     0.221 Goal=   None    Shift=    0.000
 RMSDP=3.48D-08 MaxDP=5.19D-07 DE=-1.28D-10 OVMax= 1.92D-06

 Cycle  13  Pass 1  IDiag  1:
 RMSU=  2.62D-08    CP:  1.00D+00  5.37D-01  9.26D-01  8.82D-01  7.65D-01
                    CP:  8.81D-01
 E= -323.803048321589     Delta-E=       -0.000000000009 Rises=F Damp=F
 DIIS: error= 8.76D-08 at cycle   7 NSaved=   7.
 NSaved= 7 IEnMin= 7 EnMin= -323.803048321589     IErMin= 7 ErrMin= 8.76D-08
 ErrMax= 8.76D-08  0.00D+00 EMaxC= 1.00D-01 BMatC= 1.17D-12 BMatP= 8.18D-12
 IDIUse=1 WtCom= 1.00D+00 WtEn= 0.00D+00
 Coeff-Com: -0.543D-02-0.233D-02-0.990D-03 0.274D-01 0.847D-01 0.325D+00
 Coeff-Com:  0.572D+00
 Coeff:     -0.543D-02-0.233D-02-0.990D-03 0.274D-01 0.847D-01 0.325D+00
 Coeff:      0.572D+00
 Gap=     0.221 Goal=   None    Shift=    0.000
 RMSDP=1.24D-08 MaxDP=2.84D-07 DE=-9.32D-12 OVMax= 8.20D-07

 Cycle  14  Pass 1  IDiag  1:
 RMSU=  8.79D-09    CP:  1.00D+00  5.37D-01  9.26D-01  8.91D-01  7.64D-01
                    CP:  9.31D-01  7.55D-01
 E= -323.803048321590     Delta-E=       -0.000000000001 Rises=F Damp=F
 DIIS: error= 2.26D-08 at cycle   8 NSaved=   8.
 NSaved= 8 IEnMin= 8 EnMin= -323.803048321590     IErMin= 8 ErrMin= 2.26D-08
 ErrMax= 2.26D-08  0.00D+00 EMaxC= 1.00D-01 BMatC= 1.44D-13 BMatP= 1.17D-12
 IDIUse=1 WtCom= 1.00D+00 WtEn= 0.00D+00
 Coeff-Com:  0.241D-03-0.326D-04-0.300D-02-0.909D-02-0.842D-02 0.239D-01
 Coeff-Com:  0.282D+00 0.715D+00
 Coeff:      0.241D-03-0.326D-04-0.300D-02-0.909D-02-0.842D-02 0.239D-01
 Coeff:      0.282D+00 0.715D+00
 Gap=     0.221 Goal=   None    Shift=    0.000
 RMSDP=3.52D-09 MaxDP=5.29D-08 DE=-9.09D-13 OVMax= 2.03D-07

 SCF Done:  E(RB3LYP) =  -323.803048322     A.U. after   14 cycles
            NFock= 14  Conv=0.35D-08     -V/T= 2.0097
 KE= 3.207020159112D+02 PE=-1.313706022635D+03 EE= 3.835284881393D+02
 Leave Link  502 at Mon Oct 14 11:05:54 2019, MaxMem= 10737418240 cpu:              46.9 elap:               2.0
 (Enter /apps/cent7/gaussian/g16-A.03/g16-haswell/g16/l701.exe)
 ... and contract with generalized density number  0.
 Compute integral first derivatives.
 Leave Link  701 at Mon Oct 14 11:05:54 2019, MaxMem= 10737418240 cpu:               2.9 elap:               0.1
 (Enter /apps/cent7/gaussian/g16-A.03/g16-haswell/g16/l702.exe)
 L702 exits ... SP integral derivatives will be done elsewhere.
 Leave Link  702 at Mon Oct 14 11:05:54 2019, MaxMem= 10737418240 cpu:               0.9 elap:               0.1
 (Enter /apps/cent7/gaussian/g16-A.03/g16-haswell/g16/l703.exe)
 Integral derivatives from FoFJK, PRISM(SPDF).
 Compute integral first derivatives, UseDBF=F ICtDFT=           0.
 Calling FoFJK, ICntrl=      2127 FMM=F ISym2X=0 I1Cent= 0 IOpClX= 0 NMat=1 NMatS=1 NMatT=0.
 FoFJK:  IHMeth= 1 ICntrl=    2127 DoSepK=F KAlg= 0 I1Cent=           0 FoldK=F
 IRaf=         0 NMat=       1 IRICut=       1 DoRegI=T DoRafI=F ISym2E= 0 IDoP0=0 IntGTp=1.
 FoFCou: FMM=F IPFlag=           0 FMFlag=      100000 FMFlg1=         800
         NFxFlg=           0 DoJE=F BraDBF=F KetDBF=F FulRan=T
         wScrn=  0.000000 ICntrl=      2127 IOpCl=  0 I1Cent=           0 NGrid=           0
         NMat0=    1 NMatS0=      1 NMatT0=    0 NMatD0=    1 NMtDS0=    0 NMtDT0=    0
 Symmetry not used in FoFCou.
 Leave Link  703 at Mon Oct 14 11:05:55 2019, MaxMem= 10737418240 cpu:               9.9 elap:               0.4
 (Enter /apps/cent7/gaussian/g16-A.03/g16-haswell/g16/l716.exe)
 Dipole        = 1.62805643D-01 2.32985725D-01 5.63324755D-01
 ***** Axes restored to original set *****
 -------------------------------------------------------------------
 Center     Atomic                   Forces (Hartrees/Bohr)
 Number     Number              X              Y              Z
 -------------------------------------------------------------------
      1        8          -0.008380224   -0.003343225   -0.006836082
      2        7           0.014941875    0.047680826    0.004699569
      3        6           0.042618590   -0.024059649   -0.001336921
      4        6          -0.036803379   -0.009584838   -0.000701336
      5        6          -0.008592817    0.037459433    0.000080256
      6        6           0.027827772   -0.028278184    0.000186221
      7        6          -0.022936570   -0.021406719   -0.000482527
      8        1          -0.005114531    0.000969761    0.000609471
      9        1           0.000148407   -0.002485804   -0.000045068
     10        1           0.002479652    0.000313610   -0.000022036
     11        1           0.000355050    0.002563371    0.000032416
     12        1          -0.005052111   -0.001233416   -0.000591237
     13        1          -0.001491714    0.001404832    0.004407274
 -------------------------------------------------------------------
 Cartesian Forces:  Max     0.047680826 RMS     0.016504951
 Leave Link  716 at Mon Oct 14 11:05:55 2019, MaxMem= 10737418240 cpu:               0.5 elap:               0.0
 (Enter /apps/cent7/gaussian/g16-A.03/g16-haswell/g16/l103.exe)

 GradGradGradGradGradGradGradGradGradGradGradGradGradGradGradGradGradGrad
 Berny optimization.
 Using GEDIIS/GDIIS optimizer.
 FormGI is forming the generalized inverse of G from B-inverse, IUseBI=4.
 Internal  Forces:  Max     0.029438716 RMS     0.007927998
 Search for a local minimum.
 Step number   2 out of a maximum of   68
 All quantities printed in internal units (Hartrees-Bohrs-Radians)
 RMS Force = .79280D-02 SwitMx=.10000D-02 MixMth= 1
 Mixed Optimization -- RFO/linear search
 Update second derivatives using D2CorX and points    1    2
 DE= -2.58D-02 DEPred=-2.21D-02 R= 1.17D+00
 TightC=F SS=  1.41D+00  RLast= 3.06D-01 DXNew= 5.0454D-01 9.1724D-01
 Trust test= 1.17D+00 RLast= 3.06D-01 DXMaxT set to 5.05D-01
 ITU=  1  0
 Use linear search instead of GDIIS.
     Eigenvalues ---    0.00867   0.00962   0.01517   0.01573   0.01605
     Eigenvalues ---    0.01677   0.01787   0.01823   0.02250   0.02393
     Eigenvalues ---    0.15201   0.16000   0.16000   0.16000   0.16000
     Eigenvalues ---    0.16747   0.21227   0.22000   0.22005   0.23702
     Eigenvalues ---    0.25198   0.28250   0.32398   0.37228   0.37230
     Eigenvalues ---    0.37230   0.37230   0.37541   0.51875   0.53098
     Eigenvalues ---    0.54301   0.56247   0.66582
 RFO step:  Lambda=-4.57211828D-03 EMin= 8.67304415D-03
 Quartic linear search produced a step of  0.55836.
 Iteration  1 RMS(Cart)=  0.02710700 RMS(Int)=  0.00045848
 Iteration  2 RMS(Cart)=  0.00043768 RMS(Int)=  0.00016352
 Iteration  3 RMS(Cart)=  0.00000009 RMS(Int)=  0.00016352
 ITry= 1 IFail=0 DXMaxC= 6.36D-02 DCOld= 1.00D+10 DXMaxT= 5.05D-01 DXLimC= 3.00D+00 Rises=F
 Variable       Old X    -DE/DX   Delta X   Delta X   Delta X     New X
                                 (Linear)    (Quad)   (Total)
    R1        2.57879   0.00997   0.00489   0.02344   0.02833   2.60713
    R2        1.84010   0.00476   0.01450  -0.00324   0.01126   1.85136
    R3        2.47150   0.02136   0.00833   0.04044   0.04886   2.52036
    R4        2.67063  -0.02944  -0.06687  -0.04522  -0.11215   2.55849
    R5        2.72580  -0.02893  -0.10285  -0.01555  -0.11824   2.60756
    R6        2.04314   0.00187   0.01180  -0.00695   0.00485   2.04799
    R7        2.57270   0.01730   0.01346   0.03333   0.04686   2.61957
    R8        2.04220   0.00227   0.01127  -0.00465   0.00662   2.04882
    R9        2.74871  -0.02622  -0.08353  -0.02758  -0.11121   2.63750
   R10        2.04375   0.00249   0.01214  -0.00485   0.00729   2.05105
   R11        2.55601   0.01425  -0.00319   0.04359   0.04024   2.59625
   R12        2.04225   0.00242   0.01130  -0.00410   0.00721   2.04946
   R13        2.04174   0.00189   0.01102  -0.00590   0.00512   2.04687
    A1        1.87055  -0.00014  -0.02238   0.03606   0.01368   1.88423
    A2        2.06695  -0.00399  -0.00952  -0.01124  -0.02084   2.04612
    A3        2.07294   0.00104  -0.00617   0.01479   0.00852   2.08145
    A4        2.14201   0.00290   0.01512  -0.00268   0.01240   2.15441
    A5        2.09032  -0.00218  -0.00845   0.00078  -0.00746   2.08285
    A6        2.07487  -0.00387  -0.00781  -0.02718  -0.03517   2.03970
    A7        2.11798   0.00606   0.01626   0.02651   0.04259   2.16057
    A8        2.08408  -0.00043   0.00088  -0.00115  -0.00004   2.08404
    A9        2.06211  -0.00083  -0.02135   0.02565   0.00418   2.06629
   A10        2.13699   0.00126   0.02046  -0.02448  -0.00413   2.13285
   A11        2.08199   0.00081   0.00509  -0.00197   0.00309   2.08508
   A12        2.11656  -0.00014   0.00636  -0.01142  -0.00505   2.11151
   A13        2.08463  -0.00067  -0.01146   0.01341   0.00196   2.08659
   A14        2.08749   0.00067   0.00128  -0.00052   0.00051   2.08801
   A15        2.09962   0.00061   0.00035   0.00757   0.00803   2.10765
   A16        2.09605  -0.00128  -0.00164  -0.00702  -0.00854   2.08751
   A17        2.08035  -0.00177  -0.01398   0.00554  -0.00864   2.07170
   A18        2.04153  -0.00406  -0.02645   0.00635  -0.02000   2.02153
   A19        2.16130   0.00582   0.04042  -0.01189   0.02864   2.18994
    D1        2.11598  -0.00028   0.00523  -0.04975  -0.04465   2.07133
    D2       -1.07856  -0.00142  -0.01068  -0.03195  -0.04250  -1.12106
    D3        3.09728  -0.00108  -0.01681   0.03020   0.01339   3.11066
    D4       -0.03859  -0.00106  -0.01349   0.00969  -0.00343  -0.04202
    D5        0.01086   0.00018   0.00009   0.01111   0.01132   0.02218
    D6       -3.12501   0.00020   0.00341  -0.00940  -0.00549  -3.13050
    D7       -3.10447   0.00097   0.01289  -0.02344  -0.01034  -3.11481
    D8        0.03206   0.00073   0.00993  -0.02147  -0.01127   0.02079
    D9       -0.01823  -0.00044  -0.00412  -0.00508  -0.00912  -0.02735
   D10        3.11830  -0.00068  -0.00707  -0.00310  -0.01004   3.10825
   D11        0.00305   0.00020   0.00411  -0.01404  -0.00984  -0.00679
   D12        3.14079   0.00006   0.00185  -0.00804  -0.00612   3.13467
   D13        3.13877   0.00014   0.00071   0.00681   0.00793  -3.13648
   D14       -0.00667   0.00001  -0.00155   0.01281   0.01165   0.00498
   D15       -0.00926  -0.00020  -0.00395   0.01085   0.00701  -0.00224
   D16        3.13612  -0.00008  -0.00206   0.00761   0.00560  -3.14147
   D17        3.13636  -0.00005  -0.00159   0.00446   0.00313   3.13949
   D18       -0.00146   0.00007   0.00030   0.00122   0.00171   0.00026
   D19        0.00193  -0.00006  -0.00005  -0.00491  -0.00496  -0.00302
   D20       -3.13215   0.00025   0.00403  -0.00969  -0.00565  -3.13780
   D21        3.13982  -0.00018  -0.00190  -0.00179  -0.00358   3.13624
   D22        0.00573   0.00014   0.00218  -0.00657  -0.00427   0.00146
   D23        0.01131   0.00040   0.00401   0.00175   0.00574   0.01705
   D24       -3.12485   0.00069   0.00717  -0.00043   0.00692  -3.11792
   D25       -3.13777   0.00009  -0.00006   0.00658   0.00649  -3.13128
   D26        0.00926   0.00038   0.00310   0.00440   0.00768   0.01693
         Item               Value     Threshold  Converged?
 Maximum Force            0.029439     0.000450     NO 
 RMS     Force            0.007928     0.000300     NO 
 Maximum Displacement     0.063650     0.001800     NO 
 RMS     Displacement     0.027205     0.001200     NO 
 Predicted change in Energy=-8.043096D-03
 Lowest energy point so far.  Saving SCF results.
 GradGradGradGradGradGradGradGradGradGradGradGradGradGradGradGradGradGrad

 Leave Link  103 at Mon Oct 14 11:05:55 2019, MaxMem= 10737418240 cpu:               0.5 elap:               0.0
 (Enter /apps/cent7/gaussian/g16-A.03/g16-haswell/g16/l202.exe)
                          Input orientation:                          
 ---------------------------------------------------------------------
 Center     Atomic      Atomic             Coordinates (Angstroms)
 Number     Number       Type             X           Y           Z
 ---------------------------------------------------------------------
      1          8           0       -1.998286    1.132721   -0.023888
      2          7           0       -0.619639    1.169023    0.013495
      3          6           0        0.022272    0.000016    0.000498
      4          6           0        1.402065   -0.013668   -0.000592
      5          6           0        2.094648    1.187123    0.003629
      6          6           0        1.385041    2.388974    0.006182
      7          6           0        0.011351    2.366820    0.000870
      8          1           0       -0.589383   -0.894628    0.002031
      9          1           0        1.908075   -0.972523   -0.004633
     10          1           0        3.179848    1.206176    0.002778
     11          1           0        1.905553    3.340426    0.005959
     12          1           0       -0.631313    3.238503   -0.018642
     13          1           0       -2.333815    1.550770    0.796151
 ---------------------------------------------------------------------
                    Distance matrix (angstroms):
                    1          2          3          4          5
     1  O    0.000000
     2  N    1.379631   0.000000
     3  C    2.316521   1.333715   0.000000
     4  C    3.588472   2.342273   1.379860   0.000000
     5  C    4.093388   2.714365   2.388299   1.386214   0.000000
     6  C    3.609152   2.346716   2.750326   2.402712   1.395705
     7  C    2.358443   1.353893   2.366829   2.756957   2.394121
     8  H    2.468972   2.063905   1.083749   2.177604   3.396721
     9  H    4.437576   3.312988   2.121818   1.084189   2.167706
    10  H    5.178723   3.799684   3.380105   2.156049   1.085368
    11  H    4.484955   3.330413   3.834726   3.391680   2.161591
    12  H    2.510570   2.069763   3.303837   3.835566   3.411673
    13  H    0.979699   1.922675   2.930708   4.127840   4.513492
                    6          7          8          9         10
     6  C    0.000000
     7  C    1.373879   0.000000
     8  H    3.831502   3.316312   0.000000
     9  H    3.401962   3.840417   2.498681   0.000000
    10  H    2.149501   3.374385   4.315145   2.522735   0.000000
    11  H    1.084525   2.129774   4.915324   4.312963   2.485731
    12  H    2.188149   1.083157   4.133395   4.917461   4.319231
    13  H    3.893138   2.607338   3.107031   5.000190   5.581099
                   11         12         13
    11  H    0.000000
    12  H    2.539032   0.000000
    13  H    4.668996   2.531965   0.000000
 Stoichiometry    C5H6NO(1+)
 Framework group  C1[X(C5H6NO)]
[...]
 ! A2    A(1,2,3)              117.8737         -DE/DX =    0.0                 !
 ! A3    A(1,2,7)              117.8614         -DE/DX =    0.0                 !
 ! A4    A(3,2,7)              123.9565         -DE/DX =    0.0                 !
 ! A5    A(2,3,4)              118.7311         -DE/DX =    0.0                 !
 ! A6    A(2,3,8)              115.95           -DE/DX =    0.0                 !
 ! A7    A(4,3,8)              125.3168         -DE/DX =    0.0                 !
 ! A8    A(3,4,5)              119.3712         -DE/DX =    0.0                 !
 ! A9    A(3,4,9)              119.0033         -DE/DX =    0.0                 !
 ! A10   A(5,4,9)              121.6237         -DE/DX =    0.0                 !
 ! A11   A(4,5,6)              119.8147         -DE/DX =    0.0                 !
 ! A12   A(4,5,10)             120.0882         -DE/DX =    0.0                 !
 ! A13   A(6,5,10)             120.095          -DE/DX =    0.0                 !
 ! A14   A(5,6,7)              119.3704         -DE/DX =    0.0                 !
 ! A15   A(5,6,11)             121.6284         -DE/DX =    0.0                 !
 ! A16   A(7,6,11)             118.9994         -DE/DX =    0.0                 !
 ! A17   A(2,7,6)              118.7316         -DE/DX =    0.0                 !
 ! A18   A(2,7,12)             115.9501         -DE/DX =    0.0                 !
 ! A19   A(6,7,12)             125.3162         -DE/DX =    0.0                 !
 ! D1    D(13,1,2,3)            93.0058         -DE/DX =    0.0                 !
 ! D2    D(13,1,2,7)           -93.1162         -DE/DX =    0.0                 !
 ! D3    D(1,2,3,4)            175.3069         -DE/DX =    0.0                 !
 ! D4    D(1,2,3,8)             -4.1876         -DE/DX =    0.0                 !
 ! D5    D(7,2,3,4)              1.8337         -DE/DX =    0.0                 !
 ! D6    D(7,2,3,8)           -177.6608         -DE/DX =    0.0                 !
 ! D7    D(1,2,7,6)           -175.3064         -DE/DX =    0.0                 !
 ! D8    D(1,2,7,12)             4.1943         -DE/DX =    0.0                 !
 ! D9    D(3,2,7,6)             -1.8324         -DE/DX =    0.0                 !
 ! D10   D(3,2,7,12)           177.6682         -DE/DX =    0.0                 !
 ! D11   D(2,3,4,5)             -0.7468         -DE/DX =    0.0                 !
 ! D12   D(2,3,4,9)            179.7209         -DE/DX =    0.0                 !
 ! D13   D(8,3,4,5)            178.6961         -DE/DX =    0.0                 !
 ! D14   D(8,3,4,9)             -0.8362         -DE/DX =    0.0                 !
 ! D15   D(3,4,5,6)             -0.2299         -DE/DX =    0.0                 !
 ! D16   D(3,4,5,10)          -179.7029         -DE/DX =    0.0                 !
 ! D17   D(9,4,5,6)            179.2897         -DE/DX =    0.0                 !
 ! D18   D(9,4,5,10)            -0.1832         -DE/DX =    0.0                 !
 ! D19   D(4,5,6,7)              0.2312         -DE/DX =    0.0                 !
 ! D20   D(4,5,6,11)          -179.2742         -DE/DX =    0.0                 !
 ! D21   D(10,5,6,7)           179.7041         -DE/DX =    0.0                 !
 ! D22   D(10,5,6,11)            0.1988         -DE/DX =    0.0                 !
 ! D23   D(5,6,7,2)              0.7443         -DE/DX =    0.0                 !
 ! D24   D(5,6,7,12)          -178.7055         -DE/DX =    0.0                 !
 ! D25   D(11,6,7,2)          -179.7373         -DE/DX =    0.0                 !
 ! D26   D(11,6,7,12)            0.813          -DE/DX =    0.0                 !
 --------------------------------------------------------------------------------
 GradGradGradGradGradGradGradGradGradGradGradGradGradGradGradGradGradGrad

 Leave Link  103 at Mon Oct 14 11:06:33 2019, MaxMem= 10737418240 cpu:               0.5 elap:               0.0
 (Enter /apps/cent7/gaussian/g16-A.03/g16-haswell/g16/l9999.exe)

 ----------------------------------------------------------------------

 Electric dipole moment (input orientation):
 (Debye = 10**-18 statcoulomb cm , SI units = C m)
                  (au)            (Debye)         (10**-30 SI)
   Tot        0.671604D+00      0.170705D+01      0.569410D+01
   x          0.189350D+00      0.481279D+00      0.160537D+01
   y          0.474127D-02      0.120511D-01      0.401982D-01
   z          0.644342D+00      0.163775D+01      0.546296D+01

 Dipole polarizability, Alpha (input orientation).
 (esu units = cm**3 , SI units = C**2 m**2 J**-1)
 Alpha(0;0):
               (au)            (10**-24 esu)      (10**-40 SI)
   iso        0.542850D+02      0.804420D+01      0.895038D+01
   aniso      0.466149D+02      0.690761D+01      0.768576D+01
   xx         0.739964D+02      0.109651D+02      0.122004D+02
   yx        -0.114726D+00     -0.170007D-01     -0.189158D-01
   yy         0.651689D+02      0.965704D+01      0.107449D+02
   zx        -0.159573D+01     -0.236462D+00     -0.263100D+00
   zy        -0.463539D+00     -0.686894D-01     -0.764273D-01
   zz         0.236895D+02      0.351043D+01      0.390587D+01

 ----------------------------------------------------------------------

 Dipole orientation:
     8         -3.58867388          2.33533815         -1.18535273
     7         -1.13804585          2.30440336         -0.26933271
     6         -0.00719087          0.03650299          0.03756205
     6          2.50378934         -0.02804491          0.77369755
     6          3.80329015          2.24223860          1.14873056
     6          2.56253198          4.54450908          0.76954429
     6          0.05072915          4.54312943          0.03352903
     1         -1.17245937         -1.60382818         -0.33935881
     1          3.41726669         -1.84391325          1.03087512
     1          5.77392077          2.21731023          1.71679643
     1          3.52235682          6.33683074          1.02294988
     1         -1.07210140          6.21218111         -0.34613195
     1         -4.70266872          2.34931239          0.29330967

 Electric dipole moment (dipole orientation):
 (Debye = 10**-18 statcoulomb cm , SI units = C m)
                  (au)            (Debye)         (10**-30 SI)
   Tot        0.671604D+00      0.170705D+01      0.569410D+01
   x          0.000000D+00      0.000000D+00      0.000000D+00
   y          0.000000D+00      0.000000D+00      0.000000D+00
   z          0.671604D+00      0.170705D+01      0.569410D+01

 Dipole polarizability, Alpha (dipole orientation).
 (esu units = cm**3 , SI units = C**2 m**2 J**-1)
 Alpha(0;0):
               (au)            (10**-24 esu)      (10**-40 SI)
   iso        0.542850D+02      0.804420D+01      0.895038D+01
   aniso      0.466149D+02      0.690761D+01      0.768576D+01
   xx         0.708609D+02      0.105005D+02      0.116834D+02
   yx        -0.601988D-01     -0.892054D-02     -0.992544D-02
   yy         0.651736D+02      0.965773D+01      0.107457D+02
   zx         0.122663D+02      0.181768D+01      0.202244D+01
   zy        -0.193887D+00     -0.287311D-01     -0.319676D-01
   zz         0.268204D+02      0.397437D+01      0.442209D+01

 ----------------------------------------------------------------------
 1\1\GINC-BROWN-A292\Freq\RB3LYP\6-31G(d)\C5H6N1O1(1+)\FINEJ\14-Oct-201
 9\0\\#P Geom=AllCheck Guess=TCheck SCRF=Check GenChk RB3LYP/6-31G(d) F
 req\\Title Card Required\\1,1\O,-2.0001082834,1.2332771143,-0.07511392
 24\N,-0.6192186947,1.2190123001,0.0244419477\C,0.0019335452,0.01946024
 81,0.0200065877\C,1.3866448504,-0.0132958566,0.0193571029\C,2.10114663
 94,1.1887583932,0.0074005757\C,1.4133915036,2.4062868708,-0.0085976693
 \C,0.0283159255,2.4041574013,-0.0075181176\H,-0.6450374539,-0.84932526
 77,0.0086245922\H,1.8897718251,-0.9737178299,0.0204233138\H,3.18642080
 45,1.1766300899,0.0018918259\H,1.9375472601,3.3551492544,-0.0298407097
 \H,-0.5992966367,3.2865442779,-0.0389859307\H,-2.3450939351,1.24679456
 44,0.8417471238\\Version=ES64L-G16RevA.03\State=1-A\HF=-323.8112216\RM
 SD=3.033e-09\RMSF=3.572e-05\ZeroPoint=0.1055571\Thermal=0.1055571\Dipo
 le=0.1893496,0.0047413,0.6443416\DipoleDeriv=-0.5749146,0.0034159,0.07
 74815,0.0041074,-0.3407217,0.0018664,0.1628216,0.0009539,-0.0841803,0.
 359253,-0.0017171,-0.0212344,-0.0020083,0.224857,-0.0021124,-0.0626811
 ,-0.0016615,0.0163065,0.2172046,0.2420298,0.0007913,-0.1252917,0.00302
 82,0.0137865,0.0088065,0.0100589,0.0718452,-0.1929849,-0.337751,0.0066
 888,-0.1584938,-0.0235226,0.0018484,0.0093907,0.0012416,-0.0441372,0.2
 933796,-0.0009031,-0.0005122,-0.0008767,0.2135568,-0.002121,-0.0034298
 ,-0.0020552,0.0300816,-0.1818603,0.3413391,-0.001217,0.1621336,-0.0346
 351,-0.0022529,0.0056391,-0.001875,-0.0440335,0.2145271,-0.2466346,0.0
 061525,0.1207155,0.0052254,-0.0122657,0.0057998,-0.008575,0.07237,0.09
 72818,0.0107791,0.0014935,0.0286039,0.163069,0.0042391,-0.0005324,0.00
 35444,0.1570699,0.100567,-0.0059201,0.0004423,-0.0064286,0.0902827,0.0
 009705,0.0012389,-0.0004749,0.1430778,0.0826853,0.0002071,-0.0005123,0
 .0002082,0.1019207,0.0003403,-0.0013397,0.0003515,0.1309191,0.1008457,
 0.0057063,0.0002907,0.0062174,0.0900344,0.0002307,0.0011437,0.0017171,
 0.143058,0.0964892,-0.0093133,0.001625,-0.0271577,0.1637456,-0.0044098
 ,0.0000361,-0.0036883,0.1572593,0.3875265,-0.0012381,-0.0714899,-0.001
 7291,0.3431595,-0.0001201,-0.1268933,0.0004623,0.2503635\Polar=73.9964
 216,-0.1147263,65.1689293,-1.5957258,-0.463539,23.6895225\Quadrupole=4
 .8593075,2.5197929,-7.3791004,-0.0648412,-3.6545202,-0.0753423\PG=C01 
 [X(C5H6N1O1)]\NImag=0\\0.42064906,-0.00525530,0.05982036,-0.11879040,0
 .00595095,0.50271361,-0.25890202,0.00227827,0.02340252,0.68221270,0.00
 170662,-0.07538731,-0.00019844,0.00057703,0.75028642,-0.03079864,0.000
 40125,-0.07459243,-0.01269792,-0.00667478,0.16266709,-0.04296623,0.037
 69492,0.00164781,-0.16350410,0.02149330,-0.00163732,0.76898801,0.00525
 174,0.00623813,0.00255098,0.09680402,-0.30032631,-0.00028125,0.0816455
 5,0.72850831,-0.00353525,0.00198137,0.00098108,0.00045813,-0.00439776,
 -0.06184481,0.00193415,0.00225387,0.13818076,0.00226761,0.00061649,0.0
 0029530,-0.03552705,0.09219020,0.00008174,-0.36132212,-0.03261600,-0.0
 0036604,0.70806560,0.00385107,-0.00444495,-0.00123264,0.03482226,0.029
 47259,0.00119331,0.02775434,-0.13790820,-0.00023252,-0.04392360,0.7496
 3831,0.00047708,-0.00122096,0.00789008,0.00116154,-0.00063731,0.003832
 83,0.00012099,0.00058712,-0.06293305,-0.00125951,-0.00300516,0.1332704
 2,-0.00141596,0.00001017,-0.00029510,0.00333011,-0.00090616,0.00022721
 ,-0.02870429,-0.03225416,0.00013421,-0.18967657,-0.12059673,0.00164006
 ,0.76415219,0.00001092,-0.00007690,-0.00000916,-0.00090238,-0.07866791
 ,0.00082440,-0.06890329,0.04340374,-0.00019530,-0.06335557,-0.29029039
 ,0.00160636,-0.00103405,0.67251433,-0.00020038,-0.00001172,-0.00133632
 ,0.00018989,0.00082445,-0.00712053,0.00070459,-0.00021596,0.00516470,0
 .00106654,0.00204742,-0.06360073,-0.00192695,-0.00605348,0.14743603,0.
 00216173,-0.00075707,0.00034718,-0.03829375,-0.09066193,0.00216176,-0.
 04202736,0.03921210,-0.00085062,0.06292356,0.01188160,-0.00032848,-0.1
 8565261,0.06103507,-0.00036077,0.71005462,-0.00398257,-0.00427528,0.00
 150924,-0.03328624,0.03221796,-0.00184379,0.01821839,-0.01688144,0.000
 77243,-0.01438747,-0.05027649,0.00057756,0.11826616,-0.29424392,0.0032
 3248,0.04477282,0.74748729,0.00060358,0.00149201,0.00782963,0.00195547
 ,-0.00002469,0.00385849,-0.00029863,0.00017788,-0.00399685,-0.00002554
 ,0.00074449,0.00663810,-0.00109680,0.00367878,-0.06363925,-0.00242302,
 -0.01124137,0.13346219,-0.04390304,-0.03654145,0.00245318,-0.16615757,
 -0.02444079,-0.00104221,0.05422916,-0.02950607,0.00170230,-0.04328487,
 -0.01763709,0.00011563,-0.02643178,0.07044520,-0.00090830,-0.36116279,
 -0.02281108,0.00072167,0.76540564,-0.00422442,0.00706023,-0.00272887,-
 0.09969043,-0.29731759,0.00577951,0.02667575,-0.07513132,0.00228725,-0
 .03863685,-0.01564026,0.00010531,0.03379627,0.04112015,-0.00063712,0.0
 3753216,-0.13809108,0.00114221,-0.08244311,0.73163104,-0.00347120,-0.0
 0203005,0.00109229,0.00289153,0.00982524,-0.06209344,0.00101849,-0.000
 39882,0.00789618,0.00003773,-0.00047631,-0.00398253,-0.00062963,-0.000
 65804,0.00517515,-0.00114169,0.00198038,-0.06296341,0.00358457,-0.0159
 4737,0.13860782,0.00186072,0.00001900,0.00020922,0.01169264,0.01993435
 ,-0.00011060,-0.16996828,-0.15246732,-0.00136446,-0.00796192,-0.022521
 04,-0.00016150,-0.00510047,0.00128661,-0.00004411,-0.00059448,0.000500
 00,0.00001351,-0.00228928,0.00321366,-0.00011624,0.17090380,-0.0023873
 2,0.00293522,-0.00037361,-0.01672221,-0.02900451,-0.00010056,-0.140364
 99,-0.24764041,-0.00242674,0.00295573,0.00968312,0.00001553,0.00200844
 ,-0.00012135,-0.00017274,-0.00055268,0.00060622,0.00001415,0.00546333,
 -0.00079904,-0.00014603,0.14986827,0.26465251,0.00020460,0.00031450,-0
 .00409038,-0.00070308,0.00006722,0.00273901,-0.00209071,-0.00299057,-0
 .03734751,0.00025531,0.00015736,0.00604803,0.00010518,0.00004753,0.007
 47480,0.00005040,-0.00006891,-0.00118810,0.00007993,0.00022855,0.00496
 776,0.00130460,0.00313274,0.02527445,-0.00115977,0.00121802,0.00025662
 ,-0.00494174,-0.00140440,-0.00009870,-0.00996701,0.02907390,0.00003185
 ,-0.12423459,0.12133464,-0.00010549,0.01378386,-0.01662776,0.00001528,
 -0.00178277,-0.00348468,0.00008193,-0.00080288,-0.00108362,0.00002923,
 0.00082117,-0.00015017,0.00000307,0.12693128,-0.00067880,0.00038918,0.
 00005963,-0.00151622,0.00191222,-0.00007835,-0.00151653,0.00498204,0.0
 0005685,0.12277211,-0.29128856,0.00037688,0.01286177,-0.01681724,0.000
 00828,-0.00330244,-0.00279984,0.00005943,-0.00104701,-0.00009663,0.000
 02428,0.00004407,0.00051563,-0.00000895,-0.12865122,0.30276775,0.00025
 461,-0.00005588,0.00055391,-0.00004232,0.00049012,0.00820714,0.0003373
 0,-0.00033779,0.00131958,-0.00025217,0.00011491,-0.03899167,-0.0000321
 2,0.00034418,0.00427313,0.00007647,0.00000303,0.00674521,-0.00019322,-
 0.00014941,-0.00055025,0.00005276,0.00008758,-0.00383469,0.00001264,-0
 .00043888,0.02713531,0.00016302,0.00000288,-0.00001145,0.00078939,-0.0
 0002926,-0.00007067,-0.00010056,-0.00201082,0.00007630,-0.00872094,0.0
 0137898,0.00006306,-0.35325693,0.00326090,0.00152654,-0.00811277,-0.00
 108971,0.00008677,0.00000938,0.00190627,0.00003248,-0.00028993,0.00027
 035,0.00000093,0.00073742,0.00017755,-0.00002263,0.36835100,0.00000149
 ,0.00041591,-0.00002105,-0.00003023,-0.00176057,0.00002067,-0.00303758
 ,-0.00475261,0.00007050,-0.02835195,0.00486592,0.00022663,0.00326661,-
 0.06125124,0.00016319,0.02863734,0.00426081,-0.00018741,0.00293154,-0.
 00485941,0.00022143,-0.00122983,0.00042361,-0.00000011,0.00035337,0.00
 103639,-0.00002779,-0.00344094,0.06022895,-0.00011047,-0.00002043,-0.0
 0141999,-0.00018480,0.00002285,-0.00004932,0.00002731,0.00009705,0.007
 89347,0.00038885,-0.00003745,0.00630649,0.00162606,0.00016477,-0.04563
 983,-0.00026675,0.00007419,0.00630836,-0.00004086,0.00019646,0.0078903
 8,0.00001710,-0.00000920,-0.00072997,-0.00004202,-0.00002193,-0.003800
 58,-0.00169016,-0.00035492,0.02787192,-0.00117084,-0.00117708,0.000283
 45,-0.00487390,0.00155061,-0.00012776,-0.00075600,0.00109893,0.0000032
 5,-0.00163316,0.00346019,0.00000353,0.01385345,0.01594461,-0.00035785,
 -0.12969625,-0.12486860,0.00282685,-0.01056919,-0.02872485,0.00070037,
 0.00005737,-0.00009518,-0.00001198,0.00066264,0.00077304,0.00000994,0.
 00072530,-0.00034835,-0.00003518,0.13268981,0.00071874,0.00039988,-0.0
 0006178,0.00166437,0.00183874,0.00022915,0.00105679,-0.00014117,-0.000
 03483,0.00327740,-0.00294512,0.00016381,-0.01353547,-0.01687866,0.0004
 8694,-0.12631500,-0.28571908,0.00541592,0.00186650,0.00558563,-0.00015
 690,-0.00008508,0.00001186,-0.00001034,-0.00080059,-0.00060740,-0.0000
 1733,-0.00017095,0.00104662,-0.00009017,0.13237432,0.29689635,0.000239
 60,0.00005276,0.00055347,-0.00008957,-0.00034117,0.00821464,-0.0002134
 2,0.00014309,-0.00055293,0.00000260,0.00021712,0.00674160,0.00026967,0
 .00013984,0.00426866,0.00272671,0.00568928,-0.03911560,0.00030170,0.00
 023764,0.00131751,0.00000727,0.00000940,-0.00083935,0.00002837,0.00002
 475,-0.00025393,-0.00001908,-0.00008371,-0.00379879,-0.00309776,-0.005
 88998,0.02726126,0.00191318,0.00000601,0.00021694,0.01160023,-0.020828
 36,0.00036845,-0.00248082,-0.00317815,-0.00003764,-0.00059278,-0.00047
 303,0.00002382,-0.00517070,-0.00117500,-0.00000915,-0.00752175,0.02289
 034,-0.00068453,-0.16353356,0.15054085,-0.00473292,0.00073855,-0.00077
 463,-0.00002713,0.00006131,0.00008412,0.00000486,-0.00026819,0.0012450
 3,-0.00001181,0.00082323,-0.00004932,0.00005013,0.16432764,0.00241495,
 0.00287739,0.00020827,0.01580120,-0.02889115,0.00082665,-0.00542275,-0
 .00060732,0.00027780,0.00058023,0.00060506,-0.00005573,-0.00189386,-0.
 00004431,0.00034673,-0.00257033,0.00923677,-0.00008453,0.13842606,-0.2
 5383505,0.00739041,0.00074210,-0.00069019,0.00002812,0.00009376,0.0000
 0746,-0.00002908,-0.00025496,0.00040174,-0.00001735,0.00014325,0.00050
 956,-0.00018856,-0.14758476,0.27095277,0.00014040,-0.00048266,-0.00408
 896,-0.00107580,0.00068494,0.00272001,0.00020259,-0.00009986,0.0049656
 0,0.00003876,0.00002701,-0.00118870,0.00015149,0.00012373,0.00746807,0
 .00031033,-0.00024109,0.00605483,-0.00515788,0.00796384,-0.03758635,-0
 .00004485,0.00002539,0.00158640,-0.00001399,-0.00000910,-0.00083851,0.
 00000668,-0.00002658,-0.00072951,-0.00000205,-0.00009249,-0.00383085,0
 .00458582,-0.00876297,0.02554935,-0.07949746,0.00188513,0.08998473,-0.
 03742495,0.00081880,0.04374467,-0.00142039,-0.00105372,0.00181382,-0.0
 0030277,0.00066842,-0.00175072,0.00028971,0.00001475,0.00030467,-0.000
 29538,-0.00073736,-0.00176126,-0.00150920,0.00113831,0.00179728,0.0001
 3011,0.00048107,0.00082886,-0.00010892,-0.00000044,-0.00020611,-0.0000
 2619,0.00000349,0.00032274,-0.00011246,-0.00000172,-0.00020621,0.00010
 367,-0.00047490,0.00085851,0.12017422,0.00257289,0.00404814,-0.0056535
 2,0.00020056,-0.00437257,-0.00029620,0.00470610,0.00025657,-0.00041291
 ,-0.00112073,-0.00147103,0.00125996,0.00001102,0.00135371,-0.00001849,
 0.00108837,-0.00152191,-0.00118689,-0.00470602,0.00037334,0.00037178,0
 .00069521,-0.00057267,-0.00089715,0.00012875,-0.00000099,0.00001635,-0
 .00000032,-0.00005610,-0.00000387,-0.00013089,0.00000281,-0.00001048,-
 0.00070309,-0.00052274,0.00088984,-0.00274183,0.00248345,0.15498647,-0
 .00637114,-0.43608599,-0.01526559,0.00035931,0.01346134,-0.00175315,-0
 .00148575,0.00027380,-0.00026358,0.00048248,-0.00003087,-0.00017328,-0
 .00001361,0.00007613,-0.00030151,-0.00044344,0.00000640,-0.00161650,0.
 00152200,0.00022890,0.00023731,-0.00005592,-0.00006044,-0.00019878,-0.
 00005287,0.00003535,0.00002124,-0.00000086,-0.00010261,-0.00019481,0.0
 0005800,0.00003433,0.00025315,0.00006024,-0.00008139,-0.13573097,0.005
 94157,0.42224504\\0.00012536,0.00000914,0.00005074,-0.00013842,-0.0000
 3832,-0.00003665,-0.00004605,0.00004343,-0.00000951,0.00001618,0.00000
 002,-0.00000442,0.00003637,-0.00000396,-0.00000746,0.00000654,0.000011
 21,0.00002057,-0.00002909,-0.00001788,-0.00001963,0.00001209,-0.000012
 44,0.00000543,0.00000555,-0.00000147,0.00000844,0.00000106,-0.00000699
 ,0.00000471,-0.00000577,0.00000057,-0.00000523,0.00001507,0.00001904,0
 .00000923,0.00000111,-0.00000236,-0.00001623\\\@


 IF I HAVE SEEN FARTHER, IT IS BY STANDING ON THE
 SHOULDERS OF GIANTS. -- SIR ISAAC NEWTON
 Job cpu time:       0 days  0 hours  4 minutes 16.7 seconds.
 Elapsed time:       0 days  0 hours  0 minutes 11.2 seconds.
 File lengths (MBytes):  RWF=     27 Int=      0 D2E=      0 Chk=      2 Scr=      1
 Normal termination of Gaussian 16 at Mon Oct 14 11:06:33 2019.
real 46.25
user 982.55
sys 13.03
Machine:
brown-a292
brown-a292
brown-a292
brown-a292
brown-a292
brown-a292
brown-a292
brown-a292
brown-a292
brown-a292
brown-a292
brown-a292
brown-a292
brown-a292
brown-a292
brown-a292
brown-a292
brown-a292
brown-a292
brown-a292
brown-a292
brown-a292
brown-a292
brown-a292
