 Entering Gaussian System, Link 0=/apps/cent7/gaussian/g16-A.03/g16-haswell/g16/g16
 Initial command:
 /apps/cent7/gaussian/g16-A.03/g16-haswell/g16/l1.exe "/scratch/brown/finej/gaussian/Gau-65395.inp" -scrdir="/scratch/brown/finej/gaussian/"
 Entering Link 1 = /apps/cent7/gaussian/g16-A.03/g16-haswell/g16/l1.exe PID=     65396.
  
 Copyright (c) 1988,1990,1992,1993,1995,1998,2003,2009,2016,
            Gaussian, Inc.  All Rights Reserved.
  
 This is part of the Gaussian(R) 16 program.  It is based on
 the Gaussian(R) 09 system (copyright 2009, Gaussian, Inc.),
 the Gaussian(R) 03 system (copyright 2003, Gaussian, Inc.),
 the Gaussian(R) 98 system (copyright 1998, Gaussian, Inc.),
 the Gaussian(R) 94 system (copyright 1995, Gaussian, Inc.),
 the Gaussian 92(TM) system (copyright 1992, Gaussian, Inc.),
 the Gaussian 90(TM) system (copyright 1990, Gaussian, Inc.),
 the Gaussian 88(TM) system (copyright 1988, Gaussian, Inc.),
 the Gaussian 86(TM) system (copyright 1986, Carnegie Mellon
 University), and the Gaussian 82(TM) system (copyright 1983,
 Carnegie Mellon University). Gaussian is a federally registered
 trademark of Gaussian, Inc.
  
 This software contains proprietary and confidential information,
 including trade secrets, belonging to Gaussian, Inc.
  
 This software is provided under written license and may be
 used, copied, transmitted, or stored only in accord with that
 written license.
  
 The following legend is applicable only to US Government
 contracts under FAR:
  
                    RESTRICTED RIGHTS LEGEND
  
 Use, reproduction and disclosure by the US Government is
 subject to restrictions as set forth in subparagraphs (a)
 and (c) of the Commercial Computer Software - Restricted
 Rights clause in FAR 52.227-19.
  
 Gaussian, Inc.
 340 Quinnipiac St., Bldg. 40, Wallingford CT 06492
  
  
 ---------------------------------------------------------------
 Warning -- This program may not be used in any manner that
 competes with the business of Gaussian, Inc. or will provide
 assistance to any competitor of Gaussian, Inc.  The licensee
 of this program is prohibited from giving any competitor of
 Gaussian, Inc. access to this program.  By using this program,
 the user acknowledges that Gaussian, Inc. is engaged in the
 business of creating and licensing software in the field of
 computational chemistry and represents and warrants to the
 licensee that it is not a competitor of Gaussian, Inc. and that
 it will not use this program in any manner prohibited above.
 ---------------------------------------------------------------
  

 Cite this work as:
 Gaussian 16, Revision A.03,
 M. J. Frisch, G. W. Trucks, H. B. Schlegel, G. E. Scuseria, 
 M. A. Robb, J. R. Cheeseman, G. Scalmani, V. Barone, 
 G. A. Petersson, H. Nakatsuji, X. Li, M. Caricato, A. V. Marenich, 
 J. Bloino, B. G. Janesko, R. Gomperts, B. Mennucci, H. P. Hratchian, 
 J. V. Ortiz, A. F. Izmaylov, J. L. Sonnenberg, D. Williams-Young, 
 F. Ding, F. Lipparini, F. Egidi, J. Goings, B. Peng, A. Petrone, 
 T. Henderson, D. Ranasinghe, V. G. Zakrzewski, J. Gao, N. Rega, 
 G. Zheng, W. Liang, M. Hada, M. Ehara, K. Toyota, R. Fukuda, 
 J. Hasegawa, M. Ishida, T. Nakajima, Y. Honda, O. Kitao, H. Nakai, 
 T. Vreven, K. Throssell, J. A. Montgomery, Jr., J. E. Peralta, 
 F. Ogliaro, M. J. Bearpark, J. J. Heyd, E. N. Brothers, K. N. Kudin, 
 V. N. Staroverov, T. A. Keith, R. Kobayashi, J. Normand, 
 K. Raghavachari, A. P. Rendell, J. C. Burant, S. S. Iyengar, 
 J. Tomasi, M. Cossi, J. M. Millam, M. Klene, C. Adamo, R. Cammi, 
 J. W. Ochterski, R. L. Martin, K. Morokuma, O. Farkas, 
 J. B. Foresman, and D. J. Fox, Gaussian, Inc., Wallingford CT, 2016.
 
 ******************************************
 Gaussian 16:  ES64L-G16RevA.03 25-Dec-2016
                14-Oct-2019 
 ******************************************
 %chk=4.chk
 %nprocshared=24
 Will use up to   24 processors via shared memory.
 %mem=80GB
 --------------------------------------------------------------
 #P opt freq b3lyp/6-31g(d) geom=connectivity temperature=0.001
 --------------------------------------------------------------
 1/18=20,19=15,26=3,38=1,57=2,112=-1000/1,3;
 2/9=110,12=2,17=6,18=5,40=1/2;
 3/5=1,6=6,7=1,11=2,25=1,30=1,71=1,74=-5/1,2,3;
 4//1;
 5/5=2,38=5/2;
 6/7=2,8=2,9=2,10=2,28=1/1;
 7//1,2,3,16;
 1/18=20,19=15,26=3/3(2);
 2/9=110/2;
 99//99;
 2/9=110/2;
 3/5=1,6=6,7=1,11=2,25=1,30=1,71=1,74=-5/1,2,3;
 4/5=5,16=3,69=1/1;
 5/5=2,38=5/2;
 7//1,2,3,16;
 1/18=20,19=15,26=3/3(-5);
 2/9=110/2;
 6/7=2,8=2,9=2,10=2,19=2,28=1/1;
 99/9=1/99;
 Leave Link    1 at Mon Oct 14 02:11:08 2019, MaxMem= 10737418240 cpu:               1.7 elap:               0.1
 (Enter /apps/cent7/gaussian/g16-A.03/g16-haswell/g16/l101.exe)
 -------------------
 Title Card Required
 -------------------
 Symbolic Z-matrix:
 Charge =  0 Multiplicity = 1
 O                     1.3035   -0.0831    0. 
 N                    -0.0047   -0.0133    0. 
 C                    -0.68     -1.1951    0. 
 C                    -2.0841   -1.2155    0. 
 C                    -2.7857   -0.0001    0. 
 C                    -2.0825    1.2242    0. 
 C                    -0.6554    1.1936    0. 
 C                     0.0509    2.4202    0. 
 C                    -0.6339    3.6464    0. 
 C                    -2.0384    3.6678    0. 
 C                    -2.7638    2.4626    0. 
 H                    -0.1005   -2.1183    0. 
 H                    -2.6228   -2.1631    0. 
 H                    -3.8757   -0.0071    0. 
 H                     1.1409    2.4205    0. 
 H                    -0.0749    4.5822    0. 
 H                    -2.5664    4.6214    0. 
 H                    -3.8534    2.4883    0. 
 
 ITRead=  0  0  0  0  0  0  0  0  0  0  0  0  0  0  0  0  0  0
 MicOpt= -1 -1 -1 -1 -1 -1 -1 -1 -1 -1 -1 -1 -1 -1 -1 -1 -1 -1
 NAtoms=     18 NQM=       18 NQMF=       0 NMMI=      0 NMMIF=      0
                NMic=       0 NMicF=      0.
                    Isotopes and Nuclear Properties:
 (Nuclear quadrupole moments (NQMom) in fm**2, nuclear magnetic moments (NMagM)
  in nuclear magnetons)

  Atom         1           2           3           4           5           6           7           8           9          10
 IAtWgt=          16          14          12          12          12          12          12          12          12          12
 AtmWgt=  15.9949146  14.0030740  12.0000000  12.0000000  12.0000000  12.0000000  12.0000000  12.0000000  12.0000000  12.0000000
 NucSpn=           0           2           0           0           0           0           0           0           0           0
 AtZEff=  -0.0000000  -0.0000000  -0.0000000  -0.0000000  -0.0000000  -0.0000000  -0.0000000  -0.0000000  -0.0000000  -0.0000000
 NQMom=    0.0000000   2.0440000   0.0000000   0.0000000   0.0000000   0.0000000   0.0000000   0.0000000   0.0000000   0.0000000
 NMagM=    0.0000000   0.4037610   0.0000000   0.0000000   0.0000000   0.0000000   0.0000000   0.0000000   0.0000000   0.0000000
 AtZNuc=   8.0000000   7.0000000   6.0000000   6.0000000   6.0000000   6.0000000   6.0000000   6.0000000   6.0000000   6.0000000

  Atom        11          12          13          14          15          16          17          18
 IAtWgt=          12           1           1           1           1           1           1           1
 AtmWgt=  12.0000000   1.0078250   1.0078250   1.0078250   1.0078250   1.0078250   1.0078250   1.0078250
 NucSpn=           0           1           1           1           1           1           1           1
 AtZEff=  -0.0000000  -0.0000000  -0.0000000  -0.0000000  -0.0000000  -0.0000000  -0.0000000  -0.0000000
 NQMom=    0.0000000   0.0000000   0.0000000   0.0000000   0.0000000   0.0000000   0.0000000   0.0000000
 NMagM=    0.0000000   2.7928460   2.7928460   2.7928460   2.7928460   2.7928460   2.7928460   2.7928460
 AtZNuc=   6.0000000   1.0000000   1.0000000   1.0000000   1.0000000   1.0000000   1.0000000   1.0000000
 Leave Link  101 at Mon Oct 14 02:11:08 2019, MaxMem= 10737418240 cpu:              13.8 elap:               0.6
 (Enter /apps/cent7/gaussian/g16-A.03/g16-haswell/g16/l103.exe)

 GradGradGradGradGradGradGradGradGradGradGradGradGradGradGradGradGradGrad
 Berny optimization.
 Initialization pass.
                           ----------------------------
                           !    Initial Parameters    !
                           ! (Angstroms and Degrees)  !
 --------------------------                            --------------------------
 ! Name  Definition              Value          Derivative Info.                !
 --------------------------------------------------------------------------------
 ! R1    R(1,2)                  1.3101         estimate D2E/DX2                !
 ! R2    R(2,3)                  1.3611         estimate D2E/DX2                !
 ! R3    R(2,7)                  1.3711         estimate D2E/DX2                !
 ! R4    R(3,4)                  1.4042         estimate D2E/DX2                !
 ! R5    R(3,12)                 1.09           estimate D2E/DX2                !
 ! R6    R(4,5)                  1.4034         estimate D2E/DX2                !
 ! R7    R(4,13)                 1.09           estimate D2E/DX2                !
 ! R8    R(5,6)                  1.4119         estimate D2E/DX2                !
 ! R9    R(5,14)                 1.09           estimate D2E/DX2                !
 ! R10   R(6,7)                  1.4274         estimate D2E/DX2                !
 ! R11   R(6,11)                 1.4134         estimate D2E/DX2                !
 ! R12   R(7,8)                  1.4154         estimate D2E/DX2                !
 ! R13   R(8,9)                  1.4045         estimate D2E/DX2                !
 ! R14   R(8,15)                 1.09           estimate D2E/DX2                !
 ! R15   R(9,10)                 1.4047         estimate D2E/DX2                !
 ! R16   R(9,16)                 1.09           estimate D2E/DX2                !
 ! R17   R(10,11)                1.4067         estimate D2E/DX2                !
 ! R18   R(10,17)                1.09           estimate D2E/DX2                !
 ! R19   R(11,18)                1.0899         estimate D2E/DX2                !
 ! A1    A(1,2,3)              116.6902         estimate D2E/DX2                !
 ! A2    A(1,2,7)              121.3855         estimate D2E/DX2                !
 ! A3    A(3,2,7)              121.9243         estimate D2E/DX2                !
 ! A4    A(2,3,4)              120.5767         estimate D2E/DX2                !
 ! A5    A(2,3,12)             118.1388         estimate D2E/DX2                !
 ! A6    A(4,3,12)             121.2844         estimate D2E/DX2                !
 ! A7    A(3,4,5)              119.1637         estimate D2E/DX2                !
 ! A8    A(3,4,13)             120.4501         estimate D2E/DX2                !
 ! A9    A(5,4,13)             120.3862         estimate D2E/DX2                !
 ! A10   A(4,5,6)              120.1322         estimate D2E/DX2                !
 ! A11   A(4,5,14)             119.6281         estimate D2E/DX2                !
 ! A12   A(6,5,14)             120.2397         estimate D2E/DX2                !
 ! A13   A(5,6,7)              118.6434         estimate D2E/DX2                !
 ! A14   A(5,6,11)             121.3111         estimate D2E/DX2                !
 ! A15   A(7,6,11)             120.0455         estimate D2E/DX2                !
 ! A16   A(2,7,6)              119.5597         estimate D2E/DX2                !
 ! A17   A(2,7,8)              121.7345         estimate D2E/DX2                !
 ! A18   A(6,7,8)              118.7058         estimate D2E/DX2                !
 ! A19   A(7,8,9)              120.8836         estimate D2E/DX2                !
 ! A20   A(7,8,15)             119.9499         estimate D2E/DX2                !
 ! A21   A(9,8,15)             119.1664         estimate D2E/DX2                !
 ! A22   A(8,9,10)             120.0551         estimate D2E/DX2                !
 ! A23   A(8,9,16)             119.9658         estimate D2E/DX2                !
 ! A24   A(10,9,16)            119.979          estimate D2E/DX2                !
 ! A25   A(9,10,11)            120.1705         estimate D2E/DX2                !
 ! A26   A(9,10,17)            119.8458         estimate D2E/DX2                !
 ! A27   A(11,10,17)           119.9837         estimate D2E/DX2                !
 ! A28   A(6,11,10)            120.1394         estimate D2E/DX2                !
 ! A29   A(6,11,18)            120.1684         estimate D2E/DX2                !
 ! A30   A(10,11,18)           119.6922         estimate D2E/DX2                !
 ! D1    D(1,2,3,4)            180.0            estimate D2E/DX2                !
 ! D2    D(1,2,3,12)             0.0            estimate D2E/DX2                !
 ! D3    D(7,2,3,4)              0.0            estimate D2E/DX2                !
 ! D4    D(7,2,3,12)           180.0            estimate D2E/DX2                !
 ! D5    D(1,2,7,6)            180.0            estimate D2E/DX2                !
 ! D6    D(1,2,7,8)              0.0            estimate D2E/DX2                !
 ! D7    D(3,2,7,6)              0.0            estimate D2E/DX2                !
 ! D8    D(3,2,7,8)            180.0            estimate D2E/DX2                !
 ! D9    D(2,3,4,5)              0.0            estimate D2E/DX2                !
 ! D10   D(2,3,4,13)           180.0            estimate D2E/DX2                !
 ! D11   D(12,3,4,5)           180.0            estimate D2E/DX2                !
 ! D12   D(12,3,4,13)            0.0            estimate D2E/DX2                !
 ! D13   D(3,4,5,6)              0.0            estimate D2E/DX2                !
 ! D14   D(3,4,5,14)           180.0            estimate D2E/DX2                !
 ! D15   D(13,4,5,6)           180.0            estimate D2E/DX2                !
 ! D16   D(13,4,5,14)            0.0            estimate D2E/DX2                !
 ! D17   D(4,5,6,7)              0.0            estimate D2E/DX2                !
 ! D18   D(4,5,6,11)           180.0            estimate D2E/DX2                !
 ! D19   D(14,5,6,7)           180.0            estimate D2E/DX2                !
 ! D20   D(14,5,6,11)            0.0            estimate D2E/DX2                !
 ! D21   D(5,6,7,2)              0.0            estimate D2E/DX2                !
 ! D22   D(5,6,7,8)            180.0            estimate D2E/DX2                !
 ! D23   D(11,6,7,2)           180.0            estimate D2E/DX2                !
 ! D24   D(11,6,7,8)             0.0            estimate D2E/DX2                !
 ! D25   D(5,6,11,10)          180.0            estimate D2E/DX2                !
 ! D26   D(5,6,11,18)            0.0            estimate D2E/DX2                !
 ! D27   D(7,6,11,10)            0.0            estimate D2E/DX2                !
 ! D28   D(7,6,11,18)          180.0            estimate D2E/DX2                !
 ! D29   D(2,7,8,9)            180.0            estimate D2E/DX2                !
 ! D30   D(2,7,8,15)             0.0            estimate D2E/DX2                !
 ! D31   D(6,7,8,9)              0.0            estimate D2E/DX2                !
 ! D32   D(6,7,8,15)           180.0            estimate D2E/DX2                !
 ! D33   D(7,8,9,10)             0.0            estimate D2E/DX2                !
 ! D34   D(7,8,9,16)           180.0            estimate D2E/DX2                !
 ! D35   D(15,8,9,10)          180.0            estimate D2E/DX2                !
 ! D36   D(15,8,9,16)            0.0            estimate D2E/DX2                !
 ! D37   D(8,9,10,11)            0.0            estimate D2E/DX2                !
 ! D38   D(8,9,10,17)          180.0            estimate D2E/DX2                !
 ! D39   D(16,9,10,11)         180.0            estimate D2E/DX2                !
 ! D40   D(16,9,10,17)           0.0            estimate D2E/DX2                !
 ! D41   D(9,10,11,6)            0.0            estimate D2E/DX2                !
 ! D42   D(9,10,11,18)         180.0            estimate D2E/DX2                !
 ! D43   D(17,10,11,6)         180.0            estimate D2E/DX2                !
 ! D44   D(17,10,11,18)          0.0            estimate D2E/DX2                !
 --------------------------------------------------------------------------------
 Trust Radius=3.00D-01 FncErr=1.00D-07 GrdErr=1.00D-06 EigMax=2.50D+02 EigMin=1.00D-04
 Number of steps in this run=    103 maximum allowed number of steps=    108.
 GradGradGradGradGradGradGradGradGradGradGradGradGradGradGradGradGradGrad

 Leave Link  103 at Mon Oct 14 02:11:08 2019, MaxMem= 10737418240 cpu:               0.3 elap:               0.0
 (Enter /apps/cent7/gaussian/g16-A.03/g16-haswell/g16/l202.exe)
                          Input orientation:                          
 ---------------------------------------------------------------------
 Center     Atomic      Atomic             Coordinates (Angstroms)
 Number     Number       Type             X           Y           Z
 ---------------------------------------------------------------------
      1          8           0        1.303500   -0.083100    0.000000
      2          7           0       -0.004700   -0.013300    0.000000
      3          6           0       -0.680000   -1.195100    0.000000
      4          6           0       -2.084100   -1.215500    0.000000
      5          6           0       -2.785700   -0.000100    0.000000
      6          6           0       -2.082500    1.224200    0.000000
      7          6           0       -0.655400    1.193600    0.000000
      8          6           0        0.050900    2.420200    0.000000
      9          6           0       -0.633900    3.646400    0.000000
     10          6           0       -2.038400    3.667800    0.000000
     11          6           0       -2.763800    2.462600    0.000000
     12          1           0       -0.100500   -2.118300    0.000000
     13          1           0       -2.622800   -2.163100    0.000000
     14          1           0       -3.875700   -0.007100    0.000000
     15          1           0        1.140900    2.420500    0.000000
     16          1           0       -0.074900    4.582200    0.000000
     17          1           0       -2.566400    4.621400    0.000000
     18          1           0       -3.853400    2.488300    0.000000
 ---------------------------------------------------------------------
                    Distance matrix (angstroms):
                    1          2          3          4          5
     1  O    0.000000
     2  N    1.310061   0.000000
     3  C    2.273943   1.361132   0.000000
     4  C    3.571857   2.401914   1.404248   0.000000
     5  C    4.090042   2.781031   2.421156   1.403367   0.000000
     6  C    3.629605   2.418400   2.796430   2.439701   1.411878
     7  C    2.338216   1.371138   2.388827   2.800883   2.441945
     8  C    2.799199   2.434135   3.688443   4.216223   3.728827
     9  C    4.202700   3.713394   4.841719   5.073574   4.234053
    10  C    5.023698   4.205524   5.049064   4.883514   3.743254
    11  C    4.798283   3.707117   4.209631   3.740376   2.462797
    12  H    2.472500   2.107179   1.090008   2.179385   3.420098
    13  H    4.443223   3.387637   2.170598   1.090020   2.169125
    14  H    5.179758   3.871005   3.409376   2.161032   1.090022
    15  H    2.508875   2.689941   4.048239   4.860156   4.612753
    16  H    4.864670   4.596036   5.808902   6.135977   5.324088
    17  H    6.091670   5.295541   6.114751   5.856792   4.626700
    18  H    5.762440   4.590261   4.861883   4.104699   2.707788
                    6          7          8          9         10
     6  C    0.000000
     7  C    1.427428   0.000000
     8  C    2.445774   1.415418   0.000000
     9  C    2.822321   2.452894   1.404463   0.000000
    10  C    2.443998   2.834494   2.433450   1.404663   0.000000
    11  C    1.413437   2.460836   2.815019   2.436772   1.406667
    12  H    3.885953   3.358064   4.541025   5.789325   6.102000
    13  H    3.430120   3.890771   5.306158   6.140522   5.860112
    14  H    2.175239   3.436861   4.616273   4.884397   4.108596
    15  H    3.438232   2.175311   1.090000   2.157022   3.415217
    16  H    3.912368   3.437963   2.165657   1.090047   2.165978
    17  H    3.431490   3.924504   3.419874   2.164528   1.090017
    18  H    2.175784   3.450138   3.904894   3.421458   2.164589
                   11         12         13         14         15
    11  C    0.000000
    12  H    5.298850   0.000000
    13  H    4.627848   2.522698   0.000000
    14  H    2.708457   4.325425   2.493611   0.000000
    15  H    3.904927   4.705505   5.930837   5.573107   0.000000
    16  H    3.423870   6.700549   7.210469   5.958838   2.480144
    17  H    2.167806   7.176644   6.784734   4.810123   4.311384
    18  H    1.089903   5.941803   4.811434   2.495500   4.994760
                   16         17         18
    16  H    0.000000
    17  H    2.491808   0.000000
    18  H    4.319893   2.491282   0.000000
 Stoichiometry    C9H7NO
 Framework group  CS[SG(C9H7NO)]
 Deg. of freedom    33
 Full point group                 CS      NOp   2
 Largest Abelian subgroup         CS      NOp   2
 Largest concise Abelian subgroup C1      NOp   1
                         Standard orientation:                         
 ---------------------------------------------------------------------
 Center     Atomic      Atomic             Coordinates (Angstroms)
 Number     Number       Type             X           Y           Z
 ---------------------------------------------------------------------
      1          8           0       -1.712656    2.050016   -0.000000
      2          7           0       -1.328464    0.797556   -0.000000
      3          6           0       -2.311802   -0.143575   -0.000000
      4          6           0       -1.991932   -1.510906   -0.000000
      5          6           0       -0.642907   -1.897652   -0.000000
      6          6           0        0.374920   -0.919168    0.000000
      7          6           0        0.000000    0.458143   -0.000000
      8          6           0        1.019308    1.440191    0.000000
      9          6           0        2.374748    1.072359    0.000000
     10          6           0        2.735274   -0.285249    0.000000
     11          6           0        1.741351   -1.280653    0.000000
     12          1           0       -3.347768    0.195383   -0.000000
     13          1           0       -2.781070   -2.262840   -0.000000
     14          1           0       -0.386018   -2.956971    0.000000
     15          1           0        0.755918    2.497889    0.000000
     16          1           0        3.147527    1.841135    0.000000
     17          1           0        3.788279   -0.566882    0.000000
     18          1           0        2.029871   -2.331673    0.000000
 ---------------------------------------------------------------------
 Rotational constants (GHZ):           2.0344134           1.1364987           0.7291619
 Leave Link  202 at Mon Oct 14 02:11:09 2019, MaxMem= 10737418240 cpu:               0.4 elap:               0.0
 (Enter /apps/cent7/gaussian/g16-A.03/g16-haswell/g16/l301.exe)
 Standard basis: 6-31G(d) (6D, 7F)
 Ernie: Thresh=  0.10000D-02 Tol=  0.10000D-05 Strict=F.
 There are   135 symmetry adapted cartesian basis functions of A'  symmetry.
 There are    44 symmetry adapted cartesian basis functions of A"  symmetry.
 There are   135 symmetry adapted basis functions of A'  symmetry.
 There are    44 symmetry adapted basis functions of A"  symmetry.
   179 basis functions,   336 primitive gaussians,   179 cartesian basis functions
    38 alpha electrons       38 beta electrons
       nuclear repulsion energy       556.7407012078 Hartrees.
 IExCor=  402 DFT=T Ex+Corr=B3LYP ExCW=0 ScaHFX=  0.200000
 ScaDFX=  0.800000  0.720000  1.000000  0.810000 ScalE2=  1.000000  1.000000
 IRadAn=      5 IRanWt=     -1 IRanGd=            0 ICorTp=0 IEmpDi=  4
 NAtoms=   18 NActive=   18 NUniq=   18 SFac= 1.00D+00 NAtFMM=   60 NAOKFM=F Big=F
 Integral buffers will be    131072 words long.
 Raffenetti 2 integral format.
 Two-electron integral symmetry is turned on.
 Leave Link  301 at Mon Oct 14 02:11:09 2019, MaxMem= 10737418240 cpu:               1.4 elap:               0.1
 (Enter /apps/cent7/gaussian/g16-A.03/g16-haswell/g16/l302.exe)
 NPDir=0 NMtPBC=     1 NCelOv=     1 NCel=       1 NClECP=     1 NCelD=      1
         NCelK=      1 NCelE2=     1 NClLst=     1 CellRange=     0.0.
 One-electron integrals computed using PRISM.
 One-electron integral symmetry used in STVInt
 NBasis=   179 RedAO= T EigKep=  3.97D-04  NBF=   135    44
 NBsUse=   179 1.00D-06 EigRej= -1.00D+00 NBFU=   135    44
 Precomputing XC quadrature grid using
 IXCGrd= 4 IRadAn=           5 IRanWt=          -1 IRanGd=           0 AccXCQ= 0.00D+00.
 Generated NRdTot=       0 NPtTot=           0 NUsed=           0 NTot=          32
 NSgBfM=   179   179   179   179   179 MxSgAt=    18 MxSgA2=    18.
 Leave Link  302 at Mon Oct 14 02:11:09 2019, MaxMem= 10737418240 cpu:               3.4 elap:               0.2
 (Enter /apps/cent7/gaussian/g16-A.03/g16-haswell/g16/l303.exe)
 DipDrv:  MaxL=1.
 Leave Link  303 at Mon Oct 14 02:11:09 2019, MaxMem= 10737418240 cpu:               0.7 elap:               0.1
 (Enter /apps/cent7/gaussian/g16-A.03/g16-haswell/g16/l401.exe)
 ExpMin= 1.61D-01 ExpMax= 5.48D+03 ExpMxC= 8.25D+02 IAcc=3 IRadAn=         5 AccDes= 0.00D+00
 Harris functional with IExCor=  402 and IRadAn=       5 diagonalized for initial guess.
 HarFok:  IExCor=  402 AccDes= 0.00D+00 IRadAn=         5 IDoV= 1 UseB2=F ITyADJ=14
 ICtDFT=  3500011 ScaDFX=  1.000000  1.000000  1.000000  1.000000
 FoFCou: FMM=F IPFlag=           0 FMFlag=      100000 FMFlg1=           0
         NFxFlg=           0 DoJE=T BraDBF=F KetDBF=T FulRan=T
         wScrn=  0.000000 ICntrl=       500 IOpCl=  0 I1Cent=   200000004 NGrid=           0
         NMat0=    1 NMatS0=      1 NMatT0=    0 NMatD0=    1 NMtDS0=    0 NMtDT0=    0
 Petite list used in FoFCou.
 Harris En= -477.094262720200    
 JPrj=0 DoOrth=F DoCkMO=F.
 Initial guess orbital symmetries:
       Occupied  (A') (A') (A') (A') (A') (A') (A') (A') (A') (A')
                 (A') (A') (A') (A') (A') (A') (A') (A') (A') (A')
                 (A') (A') (A') (A') (A') (A') (A') (A') (A") (A')
                 (A') (A') (A") (A") (A") (A") (A') (A")
       Virtual   (A") (A") (A") (A") (A') (A') (A') (A") (A') (A')
                 (A') (A') (A') (A') (A') (A') (A') (A') (A') (A')
                 (A') (A') (A') (A') (A") (A') (A') (A") (A') (A')
                 (A') (A") (A') (A') (A') (A') (A") (A") (A') (A")
                 (A") (A") (A') (A') (A") (A') (A') (A') (A') (A')
                 (A') (A') (A") (A') (A') (A') (A") (A') (A') (A')
                 (A') (A') (A') (A') (A') (A") (A") (A') (A') (A')
                 (A") (A") (A") (A') (A") (A") (A") (A") (A') (A')
                 (A') (A') (A') (A') (A') (A") (A') (A") (A') (A')
                 (A') (A') (A') (A") (A') (A') (A') (A') (A') (A')
                 (A") (A') (A") (A") (A') (A") (A") (A') (A") (A')
                 (A") (A') (A") (A') (A') (A') (A') (A") (A") (A')
                 (A') (A') (A') (A') (A') (A') (A') (A') (A') (A')
                 (A') (A') (A') (A') (A') (A') (A') (A') (A') (A')
                 (A')
 The electronic state of the initial guess is 1-A'.
 Leave Link  401 at Mon Oct 14 02:11:09 2019, MaxMem= 10737418240 cpu:               6.3 elap:               0.3
 (Enter /apps/cent7/gaussian/g16-A.03/g16-haswell/g16/l502.exe)
 Integral symmetry usage will be decided dynamically.
 Closed shell SCF:
 Using DIIS extrapolation, IDIIS=  1040.
 NGot= 10737418240 LenX= 10737347437 LenY= 10737314955
 Requested convergence on RMS density matrix=1.00D-08 within 128 cycles.
 Requested convergence on MAX density matrix=1.00D-06.
 Requested convergence on             energy=1.00D-06.
 No special actions if energy rises.
 Fock matrices will be formed incrementally for  20 cycles.
 Integral accuracy reduced to 1.0D-05 until final iterations.

 Cycle   1  Pass 0  IDiag  1:
 FoFJK:  IHMeth= 1 ICntrl=       0 DoSepK=F KAlg= 0 I1Cent=           0 FoldK=F
 IRaf= 930000000 NMat=       1 IRICut=       1 DoRegI=T DoRafI=F ISym2E= 1 IDoP0=0 IntGTp=1.
 FoFCou: FMM=F IPFlag=           0 FMFlag=      100000 FMFlg1=           0
         NFxFlg=           0 DoJE=F BraDBF=F KetDBF=F FulRan=T
         wScrn=  0.000000 ICntrl=         0 IOpCl=  0 I1Cent=           0 NGrid=           0
         NMat0=    1 NMatS0=      1 NMatT0=    0 NMatD0=    1 NMtDS0=    0 NMtDT0=    0
 Petite list used in FoFCou.
 E= -476.840267569103    
 DIIS: error= 3.49D-02 at cycle   1 NSaved=   1.
 NSaved= 1 IEnMin= 1 EnMin= -476.840267569103     IErMin= 1 ErrMin= 3.49D-02
 ErrMax= 3.49D-02  0.00D+00 EMaxC= 1.00D-01 BMatC= 2.62D-01 BMatP= 2.62D-01
 IDIUse=3 WtCom= 6.51D-01 WtEn= 3.49D-01
 Coeff-Com:  0.100D+01
 Coeff-En:   0.100D+01
 Coeff:      0.100D+01
 Gap=     0.124 Goal=   None    Shift=    0.000
 GapD=    0.124 DampG=1.000 DampE=0.500 DampFc=0.5000 IDamp=-1.
 Damping current iteration by 5.00D-01
 RMSDP=7.09D-03 MaxDP=1.87D-01              OVMax= 2.21D-01

 Cycle   2  Pass 0  IDiag  1:
 RMSU=  3.52D-03    CP:  9.84D-01
 E= -476.905064961069     Delta-E=       -0.064797391966 Rises=F Damp=T
 DIIS: error= 2.00D-02 at cycle   2 NSaved=   2.
 NSaved= 2 IEnMin= 2 EnMin= -476.905064961069     IErMin= 2 ErrMin= 2.00D-02
 ErrMax= 2.00D-02  0.00D+00 EMaxC= 1.00D-01 BMatC= 5.42D-02 BMatP= 2.62D-01
 IDIUse=3 WtCom= 8.00D-01 WtEn= 2.00D-01
 Coeff-Com:  0.240D+00 0.760D+00
 Coeff-En:   0.348D+00 0.652D+00
 Coeff:      0.262D+00 0.738D+00
 Gap=     0.141 Goal=   None    Shift=    0.000
 RMSDP=2.59D-03 MaxDP=7.64D-02 DE=-6.48D-02 OVMax= 2.03D-01

 Cycle   3  Pass 0  IDiag  1:
 RMSU=  2.38D-03    CP:  9.60D-01  7.67D-01
 E= -477.046984199440     Delta-E=       -0.141919238371 Rises=F Damp=F
 DIIS: error= 2.28D-02 at cycle   3 NSaved=   3.
 NSaved= 3 IEnMin= 3 EnMin= -477.046984199440     IErMin= 2 ErrMin= 2.00D-02
 ErrMax= 2.28D-02  0.00D+00 EMaxC= 1.00D-01 BMatC= 4.26D-02 BMatP= 5.42D-02
 IDIUse=3 WtCom= 7.72D-01 WtEn= 2.28D-01
 Coeff-Com:  0.653D-01 0.457D+00 0.478D+00
 Coeff-En:   0.000D+00 0.000D+00 0.100D+01
 Coeff:      0.504D-01 0.353D+00 0.597D+00
 Gap=     0.122 Goal=   None    Shift=    0.000
 RMSDP=2.28D-03 MaxDP=8.88D-02 DE=-1.42D-01 OVMax= 1.97D-01

 Cycle   4  Pass 0  IDiag  1:
 RMSU=  1.51D-03    CP:  9.70D-01  9.64D-01  3.53D-01
 E= -477.051091689508     Delta-E=       -0.004107490068 Rises=F Damp=F
 DIIS: error= 2.51D-02 at cycle   4 NSaved=   4.
 NSaved= 4 IEnMin= 4 EnMin= -477.051091689508     IErMin= 2 ErrMin= 2.00D-02
 ErrMax= 2.51D-02  0.00D+00 EMaxC= 1.00D-01 BMatC= 3.86D-02 BMatP= 4.26D-02
 IDIUse=3 WtCom= 7.49D-01 WtEn= 2.51D-01
 Coeff-Com:  0.353D-01 0.175D+00 0.448D+00 0.341D+00
 Coeff-En:   0.000D+00 0.000D+00 0.480D+00 0.520D+00
 Coeff:      0.264D-01 0.131D+00 0.456D+00 0.386D+00
 Gap=     0.133 Goal=   None    Shift=    0.000
 RMSDP=1.47D-03 MaxDP=6.61D-02 DE=-4.11D-03 OVMax= 1.53D-01

 Cycle   5  Pass 0  IDiag  1:
 RMSU=  6.08D-04    CP:  9.68D-01  8.28D-01  6.38D-01  3.03D-01
 E= -477.083516082458     Delta-E=       -0.032424392950 Rises=F Damp=F
 DIIS: error= 4.96D-03 at cycle   5 NSaved=   5.
 NSaved= 5 IEnMin= 5 EnMin= -477.083516082458     IErMin= 5 ErrMin= 4.96D-03
 ErrMax= 4.96D-03  0.00D+00 EMaxC= 1.00D-01 BMatC= 3.90D-03 BMatP= 3.86D-02
 IDIUse=3 WtCom= 9.50D-01 WtEn= 4.96D-02
 Coeff-Com:  0.139D-01 0.937D-02 0.236D+00 0.301D+00 0.440D+00
 Coeff-En:   0.000D+00 0.000D+00 0.000D+00 0.116D+00 0.884D+00
 Coeff:      0.132D-01 0.890D-02 0.225D+00 0.291D+00 0.462D+00
 Gap=     0.130 Goal=   None    Shift=    0.000
 RMSDP=4.98D-04 MaxDP=1.49D-02 DE=-3.24D-02 OVMax= 5.10D-02

 Cycle   6  Pass 0  IDiag  1:
 RMSU=  1.46D-04    CP:  9.67D-01  8.38D-01  6.35D-01  4.62D-01  3.26D-01
 E= -477.087643416052     Delta-E=       -0.004127333594 Rises=F Damp=F
 DIIS: error= 1.10D-03 at cycle   6 NSaved=   6.
 NSaved= 6 IEnMin= 6 EnMin= -477.087643416052     IErMin= 6 ErrMin= 1.10D-03
 ErrMax= 1.10D-03  0.00D+00 EMaxC= 1.00D-01 BMatC= 2.00D-04 BMatP= 3.90D-03
 IDIUse=3 WtCom= 9.89D-01 WtEn= 1.10D-02
 Coeff-Com:  0.195D-02-0.478D-02 0.690D-01 0.109D+00 0.255D+00 0.571D+00
 Coeff-En:   0.000D+00 0.000D+00 0.000D+00 0.000D+00 0.279D-01 0.972D+00
 Coeff:      0.193D-02-0.472D-02 0.682D-01 0.107D+00 0.252D+00 0.575D+00
 Gap=     0.131 Goal=   None    Shift=    0.000
 RMSDP=1.15D-04 MaxDP=3.44D-03 DE=-4.13D-03 OVMax= 9.15D-03

 Cycle   7  Pass 0  IDiag  1:
 RMSU=  6.50D-05    CP:  9.67D-01  8.44D-01  6.31D-01  4.49D-01  4.38D-01
                    CP:  5.99D-01
 E= -477.087841099481     Delta-E=       -0.000197683429 Rises=F Damp=F
 DIIS: error= 4.05D-04 at cycle   7 NSaved=   7.
 NSaved= 7 IEnMin= 7 EnMin= -477.087841099481     IErMin= 7 ErrMin= 4.05D-04
 ErrMax= 4.05D-04  0.00D+00 EMaxC= 1.00D-01 BMatC= 3.39D-05 BMatP= 2.00D-04
 IDIUse=3 WtCom= 9.96D-01 WtEn= 4.05D-03
 Coeff-Com: -0.988D-03-0.147D-02 0.614D-02 0.188D-01 0.868D-01 0.371D+00
 Coeff-Com:  0.520D+00
 Coeff-En:   0.000D+00 0.000D+00 0.000D+00 0.000D+00 0.000D+00 0.133D+00
 Coeff-En:   0.867D+00
 Coeff:     -0.984D-03-0.146D-02 0.612D-02 0.187D-01 0.864D-01 0.370D+00
 Coeff:      0.521D+00
 Gap=     0.131 Goal=   None    Shift=    0.000
 RMSDP=3.70D-05 MaxDP=1.26D-03 DE=-1.98D-04 OVMax= 2.90D-03

 Cycle   8  Pass 0  IDiag  1:
 RMSU=  1.22D-05    CP:  9.67D-01  8.44D-01  6.32D-01  4.54D-01  4.34D-01
                    CP:  6.95D-01  5.23D-01
 E= -477.087876705024     Delta-E=       -0.000035605543 Rises=F Damp=F
 DIIS: error= 5.02D-05 at cycle   8 NSaved=   8.
 NSaved= 8 IEnMin= 8 EnMin= -477.087876705024     IErMin= 8 ErrMin= 5.02D-05
 ErrMax= 5.02D-05  0.00D+00 EMaxC= 1.00D-01 BMatC= 6.18D-07 BMatP= 3.39D-05
 IDIUse=1 WtCom= 1.00D+00 WtEn= 0.00D+00
 Coeff-Com: -0.556D-03 0.581D-04-0.777D-03 0.211D-02 0.239D-01 0.122D+00
 Coeff-Com:  0.210D+00 0.643D+00
 Coeff:     -0.556D-03 0.581D-04-0.777D-03 0.211D-02 0.239D-01 0.122D+00
 Coeff:      0.210D+00 0.643D+00
 Gap=     0.131 Goal=   None    Shift=    0.000
 RMSDP=6.84D-06 MaxDP=1.99D-04 DE=-3.56D-05 OVMax= 3.80D-04

 Initial convergence to 1.0D-05 achieved.  Increase integral accuracy.
 Cycle   9  Pass 1  IDiag  1:
 E= -477.087845815319     Delta-E=        0.000030889705 Rises=F Damp=F
 DIIS: error= 2.86D-05 at cycle   1 NSaved=   1.
 NSaved= 1 IEnMin= 1 EnMin= -477.087845815319     IErMin= 1 ErrMin= 2.86D-05
 ErrMax= 2.86D-05  0.00D+00 EMaxC= 1.00D-01 BMatC= 3.11D-07 BMatP= 3.11D-07
 IDIUse=1 WtCom= 1.00D+00 WtEn= 0.00D+00
 Coeff-Com:  0.100D+01
 Coeff:      0.100D+01
 Gap=     0.131 Goal=   None    Shift=    0.000
 RMSDP=6.84D-06 MaxDP=1.99D-04 DE= 3.09D-05 OVMax= 4.10D-04

 Cycle  10  Pass 1  IDiag  1:
 RMSU=  1.50D-05    CP:  1.00D+00
 E= -477.087845465678     Delta-E=        0.000000349641 Rises=F Damp=F
 DIIS: error= 5.43D-05 at cycle   2 NSaved=   2.
 NSaved= 2 IEnMin= 1 EnMin= -477.087845815319     IErMin= 1 ErrMin= 2.86D-05
 ErrMax= 5.43D-05  0.00D+00 EMaxC= 1.00D-01 BMatC= 5.87D-07 BMatP= 3.11D-07
 IDIUse=1 WtCom= 1.00D+00 WtEn= 0.00D+00
 Coeff-Com:  0.588D+00 0.412D+00
 Coeff:      0.588D+00 0.412D+00
 Gap=     0.131 Goal=   None    Shift=    0.000
 RMSDP=5.01D-06 MaxDP=1.57D-04 DE= 3.50D-07 OVMax= 3.32D-04

 Cycle  11  Pass 1  IDiag  1:
 RMSU=  4.42D-06    CP:  1.00D+00  8.42D-01
 E= -477.087846067429     Delta-E=       -0.000000601751 Rises=F Damp=F
 DIIS: error= 1.03D-05 at cycle   3 NSaved=   3.
 NSaved= 3 IEnMin= 3 EnMin= -477.087846067429     IErMin= 3 ErrMin= 1.03D-05
 ErrMax= 1.03D-05  0.00D+00 EMaxC= 1.00D-01 BMatC= 2.27D-08 BMatP= 3.11D-07
 IDIUse=1 WtCom= 1.00D+00 WtEn= 0.00D+00
 Coeff-Com:  0.928D-01 0.175D+00 0.732D+00
 Coeff:      0.928D-01 0.175D+00 0.732D+00
 Gap=     0.131 Goal=   None    Shift=    0.000
 RMSDP=1.50D-06 MaxDP=3.76D-05 DE=-6.02D-07 OVMax= 1.03D-04

 Cycle  12  Pass 1  IDiag  1:
 RMSU=  1.15D-06    CP:  1.00D+00  8.79D-01  8.19D-01
 E= -477.087846076523     Delta-E=       -0.000000009094 Rises=F Damp=F
 DIIS: error= 1.18D-05 at cycle   4 NSaved=   4.
 NSaved= 4 IEnMin= 4 EnMin= -477.087846076523     IErMin= 3 ErrMin= 1.03D-05
 ErrMax= 1.18D-05  0.00D+00 EMaxC= 1.00D-01 BMatC= 1.56D-08 BMatP= 2.27D-08
 IDIUse=1 WtCom= 1.00D+00 WtEn= 0.00D+00
 Coeff-Com:  0.711D-02 0.845D-01 0.531D+00 0.378D+00
 Coeff:      0.711D-02 0.845D-01 0.531D+00 0.378D+00
 Gap=     0.131 Goal=   None    Shift=    0.000
 RMSDP=8.70D-07 MaxDP=3.23D-05 DE=-9.09D-09 OVMax= 9.07D-05

 Cycle  13  Pass 1  IDiag  1:
 RMSU=  3.40D-07    CP:  1.00D+00  8.80D-01  8.57D-01  3.19D-01
 E= -477.087846091266     Delta-E=       -0.000000014743 Rises=F Damp=F
 DIIS: error= 3.85D-06 at cycle   5 NSaved=   5.
 NSaved= 5 IEnMin= 5 EnMin= -477.087846091266     IErMin= 5 ErrMin= 3.85D-06
 ErrMax= 3.85D-06  0.00D+00 EMaxC= 1.00D-01 BMatC= 1.50D-09 BMatP= 1.56D-08
 IDIUse=1 WtCom= 1.00D+00 WtEn= 0.00D+00
 Coeff-Com: -0.216D-02 0.505D-01 0.347D+00 0.281D+00 0.324D+00
 Coeff:     -0.216D-02 0.505D-01 0.347D+00 0.281D+00 0.324D+00
 Gap=     0.131 Goal=   None    Shift=    0.000
 RMSDP=2.62D-07 MaxDP=1.10D-05 DE=-1.47D-08 OVMax= 2.53D-05

 Cycle  14  Pass 1  IDiag  1:
 RMSU=  1.00D-07    CP:  1.00D+00  8.78D-01  8.57D-01  4.03D-01  3.55D-01
 E= -477.087846092692     Delta-E=       -0.000000001426 Rises=F Damp=F
 DIIS: error= 3.13D-07 at cycle   6 NSaved=   6.
 NSaved= 6 IEnMin= 6 EnMin= -477.087846092692     IErMin= 6 ErrMin= 3.13D-07
 ErrMax= 3.13D-07  0.00D+00 EMaxC= 1.00D-01 BMatC= 2.01D-11 BMatP= 1.50D-09
 IDIUse=1 WtCom= 1.00D+00 WtEn= 0.00D+00
 Coeff-Com: -0.151D-02 0.173D-01 0.123D+00 0.106D+00 0.153D+00 0.601D+00
 Coeff:     -0.151D-02 0.173D-01 0.123D+00 0.106D+00 0.153D+00 0.601D+00
 Gap=     0.131 Goal=   None    Shift=    0.000
 RMSDP=3.52D-08 MaxDP=9.62D-07 DE=-1.43D-09 OVMax= 2.65D-06

 Cycle  15  Pass 1  IDiag  1:
 RMSU=  2.44D-08    CP:  1.00D+00  8.78D-01  8.58D-01  4.00D-01  3.93D-01
                    CP:  7.88D-01
 E= -477.087846092710     Delta-E=       -0.000000000017 Rises=F Damp=F
 DIIS: error= 1.25D-07 at cycle   7 NSaved=   7.
 NSaved= 7 IEnMin= 7 EnMin= -477.087846092710     IErMin= 7 ErrMin= 1.25D-07
 ErrMax= 1.25D-07  0.00D+00 EMaxC= 1.00D-01 BMatC= 3.11D-12 BMatP= 2.01D-11
 IDIUse=1 WtCom= 1.00D+00 WtEn= 0.00D+00
 Coeff-Com: -0.579D-03 0.457D-02 0.336D-01 0.316D-01 0.444D-01 0.317D+00
 Coeff-Com:  0.569D+00
 Coeff:     -0.579D-03 0.457D-02 0.336D-01 0.316D-01 0.444D-01 0.317D+00
 Coeff:      0.569D+00
 Gap=     0.131 Goal=   None    Shift=    0.000
 RMSDP=1.15D-08 MaxDP=3.97D-07 DE=-1.73D-11 OVMax= 8.44D-07

 Cycle  16  Pass 1  IDiag  1:
 RMSU=  9.12D-09    CP:  1.00D+00  8.78D-01  8.58D-01  4.00D-01  3.87D-01
                    CP:  8.11D-01  7.42D-01
 E= -477.087846092712     Delta-E=       -0.000000000003 Rises=F Damp=F
 DIIS: error= 4.63D-08 at cycle   8 NSaved=   8.
 NSaved= 8 IEnMin= 8 EnMin= -477.087846092712     IErMin= 8 ErrMin= 4.63D-08
 ErrMax= 4.63D-08  0.00D+00 EMaxC= 1.00D-01 BMatC= 4.41D-13 BMatP= 3.11D-12
 IDIUse=1 WtCom= 1.00D+00 WtEn= 0.00D+00
 Coeff-Com: -0.738D-04-0.277D-03-0.151D-02 0.719D-03-0.481D-02 0.705D-01
 Coeff-Com:  0.294D+00 0.642D+00
 Coeff:     -0.738D-04-0.277D-03-0.151D-02 0.719D-03-0.481D-02 0.705D-01
 Coeff:      0.294D+00 0.642D+00
 Gap=     0.131 Goal=   None    Shift=    0.000
 RMSDP=5.48D-09 MaxDP=1.33D-07 DE=-2.73D-12 OVMax= 3.17D-07

 SCF Done:  E(RB3LYP) =  -477.087846093     A.U. after   16 cycles
            NFock= 16  Conv=0.55D-08     -V/T= 2.0100
 KE= 4.723872179150D+02 PE=-2.221717339160D+03 EE= 7.155015739446D+02
 Leave Link  502 at Mon Oct 14 02:11:12 2019, MaxMem= 10737418240 cpu:              69.4 elap:               2.9
 (Enter /apps/cent7/gaussian/g16-A.03/g16-haswell/g16/l601.exe)
 Copying SCF densities to generalized density rwf, IOpCl= 0 IROHF=0.

 **********************************************************************

            Population analysis using the SCF density.

 **********************************************************************

 Orbital symmetries:
       Occupied  (A') (A') (A') (A') (A') (A') (A') (A') (A') (A')
                 (A') (A') (A') (A') (A') (A') (A') (A') (A') (A')
                 (A') (A') (A') (A') (A") (A') (A') (A') (A') (A')
                 (A") (A') (A') (A") (A") (A") (A') (A")
       Virtual   (A") (A") (A") (A") (A') (A') (A') (A') (A') (A')
                 (A") (A') (A') (A') (A') (A') (A') (A') (A') (A')
                 (A') (A') (A') (A') (A") (A') (A") (A') (A') (A")
                 (A') (A') (A') (A') (A") (A') (A") (A') (A') (A")
                 (A") (A") (A") (A') (A') (A') (A') (A') (A') (A')
                 (A') (A") (A') (A') (A') (A') (A') (A') (A") (A')
                 (A') (A') (A') (A') (A') (A") (A") (A') (A') (A')
                 (A") (A") (A') (A") (A") (A') (A") (A') (A") (A")
                 (A') (A') (A') (A') (A') (A") (A') (A") (A') (A')
                 (A') (A') (A') (A") (A') (A') (A') (A') (A') (A")
                 (A') (A') (A") (A") (A') (A") (A") (A') (A") (A")
                 (A') (A') (A") (A') (A') (A') (A') (A") (A") (A')
                 (A') (A') (A') (A') (A') (A') (A') (A') (A') (A')
                 (A') (A') (A') (A') (A') (A') (A') (A') (A') (A')
                 (A')
 The electronic state is 1-A'.
 Alpha  occ. eigenvalues --  -19.10914 -14.47460 -10.24472 -10.23771 -10.22137
 Alpha  occ. eigenvalues --  -10.21690 -10.21089 -10.21010 -10.21010 -10.20862
 Alpha  occ. eigenvalues --  -10.20768  -1.08563  -0.89962  -0.84875  -0.80173
 Alpha  occ. eigenvalues --   -0.77387  -0.74461  -0.66583  -0.65058  -0.60753
 Alpha  occ. eigenvalues --   -0.55191  -0.52910  -0.51898  -0.47363  -0.46620
 Alpha  occ. eigenvalues --   -0.45606  -0.44682  -0.44019  -0.42048  -0.39630
 Alpha  occ. eigenvalues --   -0.37390  -0.36766  -0.35517  -0.32912  -0.26840
 Alpha  occ. eigenvalues --   -0.26120  -0.23779  -0.19954
 Alpha virt. eigenvalues --   -0.06852  -0.02806   0.00906   0.07188   0.08517
 Alpha virt. eigenvalues --    0.09622   0.12380   0.15384   0.15584   0.16775
 Alpha virt. eigenvalues --    0.17587   0.18457   0.20481   0.22812   0.24494
 Alpha virt. eigenvalues --    0.27360   0.28849   0.29836   0.33771   0.34641
 Alpha virt. eigenvalues --    0.41422   0.43357   0.47897   0.48255   0.49492
 Alpha virt. eigenvalues --    0.51029   0.53042   0.53789   0.56520   0.56655
 Alpha virt. eigenvalues --    0.56997   0.58363   0.58969   0.59723   0.59817
 Alpha virt. eigenvalues --    0.60619   0.61428   0.62681   0.65005   0.65540
 Alpha virt. eigenvalues --    0.67015   0.70329   0.77197   0.79492   0.80420
 Alpha virt. eigenvalues --    0.81583   0.82374   0.83680   0.85144   0.85486
 Alpha virt. eigenvalues --    0.88713   0.88832   0.90652   0.92987   0.93722
 Alpha virt. eigenvalues --    0.96500   1.00444   1.01150   1.01700   1.02710
 Alpha virt. eigenvalues --    1.05443   1.10588   1.13380   1.14433   1.17646
 Alpha virt. eigenvalues --    1.20463   1.23317   1.24307   1.27626   1.31426
 Alpha virt. eigenvalues --    1.35629   1.37808   1.41701   1.42758   1.44670
 Alpha virt. eigenvalues --    1.45188   1.46270   1.46632   1.47115   1.48577
 Alpha virt. eigenvalues --    1.56242   1.58341   1.65945   1.75244   1.77939
 Alpha virt. eigenvalues --    1.79478   1.83149   1.86713   1.87165   1.88044
 Alpha virt. eigenvalues --    1.90939   1.91805   1.93584   1.94346   1.96549
 Alpha virt. eigenvalues --    1.99299   2.00711   2.05647   2.09225   2.11117
 Alpha virt. eigenvalues --    2.11182   2.16856   2.17258   2.18354   2.23300
 Alpha virt. eigenvalues --    2.24439   2.27991   2.30062   2.31181   2.33752
 Alpha virt. eigenvalues --    2.33755   2.41254   2.51170   2.57866   2.58813
 Alpha virt. eigenvalues --    2.61127   2.61527   2.64524   2.66388   2.69776
 Alpha virt. eigenvalues --    2.71806   2.75189   2.80014   2.82851   2.88789
 Alpha virt. eigenvalues --    2.93759   3.01091   3.15523   3.37045   3.44871
 Alpha virt. eigenvalues --    3.77561   4.05395   4.06589   4.09979   4.11436
 Alpha virt. eigenvalues --    4.21430   4.22263   4.34774   4.38559   4.49679
 Alpha virt. eigenvalues --    4.76758
          Condensed to atoms (all electrons):
               1          2          3          4          5          6
     1  O    8.404621   0.181757  -0.053422   0.007059   0.000286   0.004307
     2  N    0.181757   6.517920   0.382610   0.001670  -0.053828  -0.012470
     3  C   -0.053422   0.382610   4.965846   0.404172  -0.031378  -0.036346
     4  C    0.007059   0.001670   0.404172   5.016928   0.484352   0.013726
     5  C    0.000286  -0.053828  -0.031378   0.484352   5.114207   0.445346
     6  C    0.004307  -0.012470  -0.036346   0.013726   0.445346   4.738166
     7  C   -0.057451   0.240206  -0.045357  -0.028627  -0.059767   0.411574
     8  C    0.005322  -0.082269   0.008499  -0.002219   0.015063  -0.044861
     9  C    0.000979   0.004549  -0.000075   0.000021  -0.000136  -0.029304
    10  C    0.000004  -0.000541   0.000054  -0.000386   0.008001  -0.002200
    11  C   -0.000095   0.008621  -0.000497   0.008207  -0.086815   0.461127
    12  H    0.003610  -0.038528   0.366588  -0.038263   0.003664   0.000318
    13  H   -0.000077   0.002711  -0.030898   0.357191  -0.029763   0.002040
    14  H    0.000003   0.000027   0.004664  -0.043791   0.359451  -0.040871
    15  H    0.020011  -0.011823   0.000148  -0.000066  -0.000092   0.006216
    16  H   -0.000002  -0.000080   0.000002  -0.000000   0.000004   0.000676
    17  H    0.000000   0.000005  -0.000000   0.000002  -0.000169   0.002955
    18  H    0.000000  -0.000059  -0.000008   0.000311  -0.008499  -0.043234
               7          8          9         10         11         12
     1  O   -0.057451   0.005322   0.000979   0.000004  -0.000095   0.003610
     2  N    0.240206  -0.082269   0.004549  -0.000541   0.008621  -0.038528
     3  C   -0.045357   0.008499  -0.000075   0.000054  -0.000497   0.366588
     4  C   -0.028627  -0.002219   0.000021  -0.000386   0.008207  -0.038263
     5  C   -0.059767   0.015063  -0.000136   0.008001  -0.086815   0.003664
     6  C    0.411574  -0.044861  -0.029304  -0.002200   0.461127   0.000318
     7  C    4.865547   0.427349  -0.020154  -0.043564  -0.004502   0.003929
     8  C    0.427349   5.077576   0.509394  -0.019382  -0.062556  -0.000198
     9  C   -0.020154   0.509394   4.905222   0.500607  -0.027246   0.000001
    10  C   -0.043564  -0.019382   0.500607   4.901391   0.504610  -0.000000
    11  C   -0.004502  -0.062556  -0.027246   0.504610   5.081568   0.000007
    12  H    0.003929  -0.000198   0.000001  -0.000000   0.000007   0.515986
    13  H    0.000845   0.000024  -0.000000   0.000002  -0.000215  -0.003247
    14  H    0.004530  -0.000172   0.000009   0.000244  -0.007616  -0.000141
    15  H   -0.030204   0.345168  -0.039231   0.004308   0.000185  -0.000006
    16  H    0.003060  -0.036779   0.362805  -0.041387   0.004311  -0.000000
    17  H    0.000788   0.003958  -0.040637   0.358101  -0.035666   0.000000
    18  H    0.004246   0.000210   0.004487  -0.042640   0.361676  -0.000000
              13         14         15         16         17         18
     1  O   -0.000077   0.000003   0.020011  -0.000002   0.000000   0.000000
     2  N    0.002711   0.000027  -0.011823  -0.000080   0.000005  -0.000059
     3  C   -0.030898   0.004664   0.000148   0.000002  -0.000000  -0.000008
     4  C    0.357191  -0.043791  -0.000066  -0.000000   0.000002   0.000311
     5  C   -0.029763   0.359451  -0.000092   0.000004  -0.000169  -0.008499
     6  C    0.002040  -0.040871   0.006216   0.000676   0.002955  -0.043234
     7  C    0.000845   0.004530  -0.030204   0.003060   0.000788   0.004246
     8  C    0.000024  -0.000172   0.345168  -0.036779   0.003958   0.000210
     9  C   -0.000000   0.000009  -0.039231   0.362805  -0.040637   0.004487
    10  C    0.000002   0.000244   0.004308  -0.041387   0.358101  -0.042640
    11  C   -0.000215  -0.007616   0.000185   0.004311  -0.035666   0.361676
    12  H   -0.003247  -0.000141  -0.000006  -0.000000   0.000000  -0.000000
    13  H    0.551900  -0.004473   0.000000   0.000000  -0.000000  -0.000006
    14  H   -0.004473   0.581312   0.000002  -0.000000  -0.000009   0.005322
    15  H    0.000000   0.000002   0.532570  -0.004706  -0.000145   0.000011
    16  H    0.000000  -0.000000  -0.004706   0.570876  -0.004691  -0.000166
    17  H   -0.000000  -0.000009  -0.000145  -0.004691   0.579145  -0.004599
    18  H   -0.000006   0.005322   0.000011  -0.000166  -0.004599   0.579839
 Mulliken charges:
               1
     1  O   -0.516914
     2  N   -0.140478
     3  C    0.065400
     4  C   -0.180288
     5  C   -0.159926
     6  C    0.122835
     7  C    0.327552
     8  C   -0.144126
     9  C   -0.131290
    10  C   -0.127221
    11  C   -0.205103
    12  H    0.186279
    13  H    0.153966
    14  H    0.141511
    15  H    0.177653
    16  H    0.146078
    17  H    0.140961
    18  H    0.143110
 Sum of Mulliken charges =   0.00000
 Mulliken charges with hydrogens summed into heavy atoms:
               1
     1  O   -0.516914
     2  N   -0.140478
     3  C    0.251679
     4  C   -0.026321
     5  C   -0.018415
     6  C    0.122835
     7  C    0.327552
     8  C    0.033527
     9  C    0.014788
    10  C    0.013740
    11  C   -0.061994
 Electronic spatial extent (au):  <R**2>=           1510.0582
 Charge=              0.0000 electrons
 Dipole moment (field-independent basis, Debye):
    X=              1.7422    Y=             -3.5352    Z=              0.0000  Tot=              3.9412
 Quadrupole moment (field-independent basis, Debye-Ang):
   XX=            -53.6757   YY=            -62.3942   ZZ=            -65.7615
   XY=              7.9917   XZ=              0.0000   YZ=              0.0000
 Traceless Quadrupole moment (field-independent basis, Debye-Ang):
   XX=              6.9348   YY=             -1.7837   ZZ=             -5.1511
   XY=              7.9917   XZ=              0.0000   YZ=              0.0000
 Octapole moment (field-independent basis, Debye-Ang**2):
  XXX=             -3.4867  YYY=            -15.4496  ZZZ=              0.0000  XYY=             15.1888
  XXY=            -11.4252  XXZ=              0.0000  XZZ=             -5.2181  YZZ=              5.0629
  YYZ=              0.0000  XYZ=             -0.0000
 Hexadecapole moment (field-independent basis, Debye-Ang**3):
 XXXX=          -1079.8146 YYYY=           -678.5350 ZZZZ=            -64.9341 XXXY=             16.9500
 XXXZ=             -0.0000 YYYX=             24.7268 YYYZ=              0.0000 ZZZX=             -0.0000
 ZZZY=              0.0000 XXYY=           -317.4232 XXZZ=           -234.7658 YYZZ=           -137.5174
 XXYZ=              0.0000 YYXZ=             -0.0000 ZZXY=            -10.6170
 N-N= 5.567407012078D+02 E-N=-2.221717346150D+03  KE= 4.723872179150D+02
 Symmetry A'   KE= 4.565581810062D+02
 Symmetry A"   KE= 1.582903690873D+01
 No NMR shielding tensors so no spin-rotation constants.
 Leave Link  601 at Mon Oct 14 02:11:13 2019, MaxMem= 10737418240 cpu:               3.2 elap:               0.2
 (Enter /apps/cent7/gaussian/g16-A.03/g16-haswell/g16/l701.exe)
 ... and contract with generalized density number  0.
 Compute integral first derivatives.
 Leave Link  701 at Mon Oct 14 02:11:13 2019, MaxMem= 10737418240 cpu:               3.9 elap:               0.2
 (Enter /apps/cent7/gaussian/g16-A.03/g16-haswell/g16/l702.exe)
 L702 exits ... SP integral derivatives will be done elsewhere.
 Leave Link  702 at Mon Oct 14 02:11:13 2019, MaxMem= 10737418240 cpu:               0.5 elap:               0.0
 (Enter /apps/cent7/gaussian/g16-A.03/g16-haswell/g16/l703.exe)
 Integral derivatives from FoFJK, PRISM(SPDF).
 Compute integral first derivatives, UseDBF=F ICtDFT=           0.
 Calling FoFJK, ICntrl=      2127 FMM=F ISym2X=1 I1Cent= 0 IOpClX= 0 NMat=1 NMatS=1 NMatT=0.
 FoFJK:  IHMeth= 1 ICntrl=    2127 DoSepK=F KAlg= 0 I1Cent=           0 FoldK=F
 IRaf=         0 NMat=       1 IRICut=       1 DoRegI=T DoRafI=F ISym2E= 1 IDoP0=0 IntGTp=1.
 FoFCou: FMM=F IPFlag=           0 FMFlag=      100000 FMFlg1=         800
         NFxFlg=           0 DoJE=F BraDBF=F KetDBF=F FulRan=T
         wScrn=  0.000000 ICntrl=      2127 IOpCl=  0 I1Cent=           0 NGrid=           0
         NMat0=    1 NMatS0=      1 NMatT0=    0 NMatD0=    1 NMtDS0=    0 NMtDT0=    0
 Petite list used in FoFCou.
 Leave Link  703 at Mon Oct 14 02:11:14 2019, MaxMem= 10737418240 cpu:              16.7 elap:               0.7
 (Enter /apps/cent7/gaussian/g16-A.03/g16-haswell/g16/l716.exe)
 Dipole        = 6.85425331D-01-1.39086734D+00 5.59183983D-32
 ***** Axes restored to original set *****
 -------------------------------------------------------------------
 Center     Atomic                   Forces (Hartrees/Bohr)
 Number     Number              X              Y              Z
 -------------------------------------------------------------------
      1        8          -0.020576052    0.012157493   -0.000000000
      2        7           0.044733742   -0.037786724    0.000000000
      3        6          -0.019982537    0.000318362   -0.000000000
      4        6          -0.005108175    0.021752537   -0.000000000
      5        6           0.000253438   -0.023446408    0.000000000
      6        6          -0.006683487   -0.009593848    0.000000000
      7        6          -0.012583585    0.029476679   -0.000000000
      8        6           0.004488674    0.014192233   -0.000000000
      9        6           0.009844819   -0.019519190    0.000000000
     10        6          -0.017162159   -0.016417276    0.000000000
     11        6           0.013658909    0.027478325   -0.000000000
     12        1           0.004068154    0.010902955   -0.000000000
     13        1           0.003967632    0.002261910   -0.000000000
     14        1           0.002830607    0.001629247   -0.000000000
     15        1          -0.004681808   -0.004865032    0.000000000
     16        1          -0.000388631   -0.003554415    0.000000000
     17        1           0.000445399   -0.002580651    0.000000000
     18        1           0.002875061   -0.002406195    0.000000000
 -------------------------------------------------------------------
 Cartesian Forces:  Max     0.044733742 RMS     0.012955720
 Leave Link  716 at Mon Oct 14 02:11:14 2019, MaxMem= 10737418240 cpu:               0.6 elap:               0.0
 (Enter /apps/cent7/gaussian/g16-A.03/g16-haswell/g16/l103.exe)

 GradGradGradGradGradGradGradGradGradGradGradGradGradGradGradGradGradGrad
 Berny optimization.
 FormGI is forming the generalized inverse of G from B-inverse, IUseBI=4.
 Internal  Forces:  Max     0.022458181 RMS     0.006269535
 Search for a local minimum.
 Step number   1 out of a maximum of  103
 All quantities printed in internal units (Hartrees-Bohrs-Radians)
 RMS Force = .62695D-02 SwitMx=.10000D-02 MixMth= 1
 Mixed Optimization -- RFO/linear search
 Second derivative matrix not updated -- first step.
 ITU=  0
     Eigenvalues ---    0.01852   0.01885   0.01909   0.01952   0.01955
     Eigenvalues ---    0.01956   0.01985   0.02012   0.02014   0.02020
     Eigenvalues ---    0.02028   0.02038   0.02106   0.02116   0.02148
     Eigenvalues ---    0.16000   0.16000   0.16000   0.16000   0.16000
     Eigenvalues ---    0.16000   0.16000   0.22000   0.22085   0.22574
     Eigenvalues ---    0.23536   0.24500   0.24931   0.25000   0.34807
     Eigenvalues ---    0.34810   0.34810   0.34811   0.34812   0.34813
     Eigenvalues ---    0.34824   0.37157   0.40077   0.41744   0.42349
     Eigenvalues ---    0.43424   0.43902   0.44179   0.44667   0.44783
     Eigenvalues ---    0.49420   0.51600   0.64475
 RFO step:  Lambda=-1.05954999D-02 EMin= 1.85192319D-02
 Linear search not attempted -- first point.
 Iteration  1 RMS(Cart)=  0.03236542 RMS(Int)=  0.00053364
 Iteration  2 RMS(Cart)=  0.00060795 RMS(Int)=  0.00005395
 Iteration  3 RMS(Cart)=  0.00000029 RMS(Int)=  0.00005395
 ITry= 1 IFail=0 DXMaxC= 1.48D-01 DCOld= 1.00D+10 DXMaxT= 3.00D-01 DXLimC= 3.00D+00 Rises=F
 ClnCor:  largest displacement from symmetrization is 2.03D-09 for atom    13.
 Variable       Old X    -DE/DX   Delta X   Delta X   Delta X     New X
                                 (Linear)    (Quad)   (Total)
    R1        2.47566  -0.02119   0.00000  -0.03234  -0.03234   2.44331
    R2        2.57217  -0.00746   0.00000  -0.01418  -0.01407   2.55809
    R3        2.59107   0.01372   0.00000   0.02822   0.02821   2.61929
    R4        2.65364  -0.00295   0.00000  -0.00879  -0.00867   2.64497
    R5        2.05982  -0.00707   0.00000  -0.01971  -0.01971   2.04010
    R6        2.65198  -0.01863   0.00000  -0.04241  -0.04240   2.60958
    R7        2.05984  -0.00393   0.00000  -0.01095  -0.01095   2.04889
    R8        2.66806   0.00274   0.00000   0.00650   0.00639   2.67445
    R9        2.05984  -0.00284   0.00000  -0.00792  -0.00792   2.05192
   R10        2.69745   0.00120   0.00000   0.00690   0.00679   2.70424
   R11        2.67101   0.00139   0.00000   0.00390   0.00391   2.67492
   R12        2.67475  -0.00961   0.00000  -0.02113  -0.02114   2.65361
   R13        2.65405  -0.02071   0.00000  -0.04582  -0.04583   2.60822
   R14        2.05980  -0.00468   0.00000  -0.01306  -0.01306   2.04675
   R15        2.65443   0.00647   0.00000   0.01272   0.01272   2.66715
   R16        2.05989  -0.00325   0.00000  -0.00906  -0.00906   2.05083
   R17        2.65822  -0.02246   0.00000  -0.04987  -0.04986   2.60835
   R18        2.05983  -0.00247   0.00000  -0.00690  -0.00690   2.05294
   R19        2.05962  -0.00293   0.00000  -0.00817  -0.00817   2.05145
    A1        2.03663   0.01926   0.00000   0.07228   0.07223   2.10886
    A2        2.11858  -0.00808   0.00000  -0.03264  -0.03269   2.08589
    A3        2.12798  -0.01118   0.00000  -0.03964  -0.03954   2.08844
    A4        2.10446   0.00642   0.00000   0.02280   0.02302   2.12748
    A5        2.06191  -0.01273   0.00000  -0.06720  -0.06730   1.99461
    A6        2.11681   0.00631   0.00000   0.04440   0.04429   2.16110
    A7        2.07980   0.00693   0.00000   0.02151   0.02164   2.10143
    A8        2.10225  -0.00586   0.00000  -0.02483  -0.02489   2.07736
    A9        2.10114  -0.00106   0.00000   0.00332   0.00326   2.10439
   A10        2.09670  -0.00437   0.00000  -0.02189  -0.02199   2.07471
   A11        2.08790   0.00385   0.00000   0.02067   0.02072   2.10863
   A12        2.09858   0.00053   0.00000   0.00122   0.00127   2.09985
   A13        2.07072   0.00156   0.00000   0.00886   0.00864   2.07936
   A14        2.11728   0.00777   0.00000   0.02463   0.02476   2.14204
   A15        2.09519  -0.00933   0.00000  -0.03349  -0.03340   2.06179
   A16        2.08671   0.00065   0.00000   0.00836   0.00825   2.09496
   A17        2.12467  -0.00985   0.00000  -0.04430  -0.04421   2.08045
   A18        2.07181   0.00920   0.00000   0.03594   0.03597   2.10777
   A19        2.10982  -0.00630   0.00000  -0.02630  -0.02634   2.08348
   A20        2.09352  -0.00186   0.00000  -0.01622  -0.01619   2.07733
   A21        2.07985   0.00816   0.00000   0.04251   0.04253   2.12238
   A22        2.09536   0.00371   0.00000   0.01312   0.01308   2.10843
   A23        2.09380  -0.00339   0.00000  -0.01555  -0.01553   2.07827
   A24        2.09403  -0.00032   0.00000   0.00243   0.00245   2.09648
   A25        2.09737   0.00162   0.00000   0.00436   0.00433   2.10170
   A26        2.09170   0.00008   0.00000   0.00302   0.00303   2.09473
   A27        2.09411  -0.00170   0.00000  -0.00737  -0.00736   2.08675
   A28        2.09683   0.00110   0.00000   0.00638   0.00636   2.10319
   A29        2.09733  -0.00296   0.00000  -0.01730  -0.01729   2.08004
   A30        2.08902   0.00186   0.00000   0.01092   0.01093   2.09995
    D1        3.14159  -0.00000   0.00000  -0.00000   0.00000   3.14159
    D2       -0.00000   0.00000   0.00000  -0.00000   0.00000   0.00000
    D3        0.00000  -0.00000   0.00000  -0.00000   0.00000   0.00000
    D4        3.14159  -0.00000   0.00000  -0.00000   0.00000   3.14159
    D5        3.14159   0.00000   0.00000   0.00000   0.00000   3.14159
    D6        0.00000  -0.00000   0.00000  -0.00000   0.00000   0.00000
    D7       -0.00000   0.00000   0.00000  -0.00000   0.00000   0.00000
    D8        3.14159   0.00000   0.00000  -0.00000   0.00000   3.14159
    D9       -0.00000  -0.00000   0.00000  -0.00000   0.00000   0.00000
   D10        3.14159   0.00000   0.00000  -0.00000   0.00000   3.14159
   D11        3.14159  -0.00000   0.00000  -0.00000   0.00000   3.14159
   D12       -0.00000   0.00000   0.00000  -0.00000   0.00000   0.00000
   D13       -0.00000  -0.00000   0.00000   0.00000   0.00000   0.00000
   D14        3.14159  -0.00000   0.00000   0.00000   0.00000   3.14159
   D15        3.14159   0.00000   0.00000   0.00000   0.00000   3.14159
   D16       -0.00000   0.00000   0.00000   0.00000   0.00000   0.00000
   D17        0.00000  -0.00000   0.00000  -0.00000   0.00000   0.00000
   D18        3.14159  -0.00000   0.00000  -0.00000   0.00000   3.14159
   D19        3.14159  -0.00000   0.00000  -0.00000   0.00000   3.14159
   D20       -0.00000  -0.00000   0.00000  -0.00000   0.00000   0.00000
   D21        0.00000   0.00000   0.00000   0.00000   0.00000   0.00000
   D22        3.14159   0.00000   0.00000   0.00000   0.00000   3.14159
   D23        3.14159   0.00000   0.00000   0.00000   0.00000   3.14159
   D24        0.00000   0.00000   0.00000   0.00000   0.00000   0.00000
   D25        3.14159   0.00000   0.00000  -0.00000   0.00000   3.14159
   D26        0.00000   0.00000   0.00000   0.00000   0.00000   0.00000
   D27       -0.00000   0.00000   0.00000  -0.00000   0.00000   0.00000
   D28        3.14159   0.00000   0.00000   0.00000   0.00000   3.14159
   D29        3.14159  -0.00000   0.00000  -0.00000   0.00000   3.14159
   D30        0.00000  -0.00000   0.00000   0.00000  -0.00000   0.00000
   D31       -0.00000  -0.00000   0.00000  -0.00000   0.00000   0.00000
   D32        3.14159  -0.00000   0.00000  -0.00000   0.00000   3.14159
   D33        0.00000  -0.00000   0.00000  -0.00000   0.00000   0.00000
   D34        3.14159   0.00000   0.00000  -0.00000   0.00000   3.14159
   D35        3.14159  -0.00000   0.00000  -0.00000   0.00000   3.14159
   D36       -0.00000  -0.00000   0.00000  -0.00000   0.00000   0.00000
   D37       -0.00000   0.00000   0.00000   0.00000   0.00000   0.00000
   D38        3.14159   0.00000   0.00000   0.00000   0.00000   3.14159
   D39        3.14159   0.00000   0.00000   0.00000   0.00000   3.14159
   D40        0.00000   0.00000   0.00000   0.00000   0.00000   0.00000
   D41        0.00000  -0.00000   0.00000  -0.00000   0.00000   0.00000
   D42        3.14159  -0.00000   0.00000  -0.00000   0.00000   3.14159
   D43        3.14159  -0.00000   0.00000   0.00000   0.00000   3.14159
   D44       -0.00000  -0.00000   0.00000  -0.00000   0.00000   0.00000
         Item               Value     Threshold  Converged?
 Maximum Force            0.022458     0.000450     NO 
 RMS     Force            0.006270     0.000300     NO 
 Maximum Displacement     0.147780     0.001800     NO 
 RMS     Displacement     0.032431     0.001200     NO 
 Predicted change in Energy=-5.489187D-03
 Lowest energy point so far.  Saving SCF results.
 GradGradGradGradGradGradGradGradGradGradGradGradGradGradGradGradGradGrad

 Leave Link  103 at Mon Oct 14 02:11:14 2019, MaxMem= 10737418240 cpu:               0.9 elap:               0.1
 (Enter /apps/cent7/gaussian/g16-A.03/g16-haswell/g16/l202.exe)
                          Input orientation:                          
 ---------------------------------------------------------------------
 Center     Atomic      Atomic             Coordinates (Angstroms)
 Number     Number       Type             X           Y           Z
 ---------------------------------------------------------------------
      1          8           0        1.297358   -0.004898    0.000000
      2          7           0        0.004411   -0.003865    0.000000
      3          6           0       -0.690245   -1.165724    0.000000
      4          6           0       -2.089682   -1.190662    0.000000
      5          6           0       -2.809659   -0.012270    0.000000
      6          6           0       -2.108376    1.217024   -0.000000
      7          6           0       -0.677423    1.202902   -0.000000
      8          6           0        0.052770    2.402354   -0.000000
      9          6           0       -0.622548    3.606069   -0.000000
     10          6           0       -2.033452    3.643277   -0.000000
     11          6           0       -2.763444    2.471832   -0.000000
     12          1           0       -0.073452   -2.051756    0.000000
     13          1           0       -2.598744   -2.147951    0.000000
     14          1           0       -3.895429   -0.023807    0.000000
     15          1           0        1.134982    2.358703   -0.000000
     16          1           0       -0.053405    4.530107   -0.000000
     17          1           0       -2.551968    4.597917   -0.000000
     18          1           0       -3.848596    2.502348   -0.000000
 ---------------------------------------------------------------------
                    Distance matrix (angstroms):
                    1          2          3          4          5
     1  O    0.000000
     2  N    1.292947   0.000000
     3  C    2.301756   1.353685   0.000000
     4  C    3.588603   2.407013   1.399659   0.000000
     5  C    4.107023   2.814083   2.412959   1.380933   0.000000
     6  C    3.618302   2.440172   2.772829   2.407759   1.415260
     7  C    2.314852   1.386068   2.368660   2.779140   2.454195
     8  C    2.709956   2.406705   3.644619   4.183284   3.744851
     9  C    4.089636   3.663974   4.772274   5.016086   4.227982
    10  C    4.939988   4.177862   4.993065   4.834266   3.737047
    11  C    4.756501   3.713502   4.186880   3.723952   2.484532
    12  H    2.463482   2.049370   1.079576   2.192410   3.412672
    13  H    4.446604   3.372466   2.146425   1.084226   2.146070
    14  H    5.192821   3.899891   3.402525   2.149948   1.085831
    15  H    2.369173   2.619145   3.969010   4.795462   4.602359
    16  H    4.731895   4.534340   5.731322   6.072366   5.313203
    17  H    6.000268   5.264169   6.056861   5.807009   4.617383
    18  H    5.724257   4.596386   4.840447   4.090489   2.720789
                    6          7          8          9         10
     6  C    0.000000
     7  C    1.431022   0.000000
     8  C    2.464865   1.404232   0.000000
     9  C    2.813401   2.403794   1.380212   0.000000
    10  C    2.427410   2.791818   2.427389   1.411395   0.000000
    11  C    1.415506   2.441652   2.817071   2.422794   1.380280
    12  H    3.850433   3.310223   4.455898   5.684408   6.022873
    13  H    3.400517   3.862601   5.266479   6.083922   5.818752
    14  H    2.175596   3.443889   4.634062   4.887509   4.112719
    15  H    3.438430   2.149579   1.083092   2.155188   3.418933
    16  H    3.898644   3.385217   2.130401   1.085251   2.169575
    17  H    3.409870   3.878150   3.406635   2.169429   1.086368
    18  H    2.163429   3.427083   3.902647   3.409631   2.143937
                   11         12         13         14         15
    11  C    0.000000
    12  H    5.262974   0.000000
    13  H    4.622717   2.527124   0.000000
    14  H    2.740365   4.326671   2.488650   0.000000
    15  H    3.900067   4.573015   5.852405   5.566093   0.000000
    16  H    3.403059   6.581893   7.146692   5.958127   2.475329
    17  H    2.136577   7.096562   6.746030   4.813026   4.313662
    18  H    1.085581   5.915367   4.815330   2.526588   4.985648
                   16         17         18
    16  H    0.000000
    17  H    2.499483   0.000000
    18  H    4.302939   2.464276   0.000000
 Stoichiometry    C9H7NO
 Framework group  CS[SG(C9H7NO)]
 Deg. of freedom    33
 Full point group                 CS      NOp   2
 RotChk:  IX=0 Diff= 2.38D-02
 Largest Abelian subgroup         CS      NOp   2
 Largest concise Abelian subgroup C1      NOp   1
                         Standard orientation:                         
 ---------------------------------------------------------------------
 Center     Atomic      Atomic             Coordinates (Angstroms)
 Number     Number       Type             X           Y           Z
 ---------------------------------------------------------------------
      1          8           0       -1.676782    2.037810    0.000000
      2          7           0       -1.341907    0.788983    0.000000
      3          6           0       -2.284980   -0.182139    0.000000
      4          6           0       -1.947696   -1.540552    0.000000
      5          6           0       -0.623352   -1.931815    0.000000
      6          6           0        0.383157   -0.936877    0.000000
      7          6           0       -0.000000    0.441896    0.000000
      8          6           0        0.970214    1.457058    0.000000
      9          6           0        2.307491    1.115479    0.000000
     10          6           0        2.707773   -0.237965    0.000000
     11          6           0        1.764564   -1.245700    0.000000
     12          1           0       -3.300234    0.184935    0.000000
     13          1           0       -2.741062   -2.279549    0.000000
     14          1           0       -0.354119   -2.983738    0.000000
     15          1           0        0.648585    2.491293    0.000000
     16          1           0        3.053219    1.903932    0.000000
     17          1           0        3.763931   -0.492378    0.000000
     18          1           0        2.074263   -2.286167    0.000000
 ---------------------------------------------------------------------
 Rotational constants (GHZ):           2.0141449           1.1687243           0.7395780
 Leave Link  202 at Mon Oct 14 02:11:14 2019, MaxMem= 10737418240 cpu:               0.9 elap:               0.1
 (Enter /apps/cent7/gaussian/g16-A.03/g16-haswell/g16/l301.exe)
 Standard basis: 6-31G(d) (6D, 7F)
 Ernie: Thresh=  0.10000D-02 Tol=  0.10000D-05 Strict=F.
 There are   135 symmetry adapted cartesian basis functions of A'  symmetry.
 There are    44 symmetry adapted cartesian basis functions of A"  symmetry.
 There are   135 symmetry adapted basis functions of A'  symmetry.
 There are    44 symmetry adapted basis functions of A"  symmetry.
   179 basis functions,   336 primitive gaussians,   179 cartesian basis functions
    38 alpha electrons       38 beta electrons
       nuclear repulsion energy       559.7843096820 Hartrees.
 IExCor=  402 DFT=T Ex+Corr=B3LYP ExCW=0 ScaHFX=  0.200000
 ScaDFX=  0.800000  0.720000  1.000000  0.810000 ScalE2=  1.000000  1.000000
 IRadAn=      5 IRanWt=     -1 IRanGd=            0 ICorTp=0 IEmpDi=  4
 NAtoms=   18 NActive=   18 NUniq=   18 SFac= 1.00D+00 NAtFMM=   60 NAOKFM=F Big=F
 Integral buffers will be    131072 words long.
 Raffenetti 2 integral format.
 Two-electron integral symmetry is turned on.
 Leave Link  301 at Mon Oct 14 02:11:14 2019, MaxMem= 10737418240 cpu:               1.6 elap:               0.1
 (Enter /apps/cent7/gaussian/g16-A.03/g16-haswell/g16/l302.exe)
 NPDir=0 NMtPBC=     1 NCelOv=     1 NCel=       1 NClECP=     1 NCelD=      1
         NCelK=      1 NCelE2=     1 NClLst=     1 CellRange=     0.0.
 One-electron integrals computed using PRISM.
 One-electron integral symmetry used in STVInt
 NBasis=   179 RedAO= T EigKep=  3.82D-04  NBF=   135    44
 NBsUse=   179 1.00D-06 EigRej= -1.00D+00 NBFU=   135    44
 Precomputing XC quadrature grid using
 IXCGrd= 4 IRadAn=           5 IRanWt=          -1 IRanGd=           0 AccXCQ= 0.00D+00.
 Generated NRdTot=       0 NPtTot=           0 NUsed=           0 NTot=          32
 NSgBfM=   179   179   179   179   179 MxSgAt=    18 MxSgA2=    18.
 Leave Link  302 at Mon Oct 14 02:11:14 2019, MaxMem= 10737418240 cpu:               3.1 elap:               0.1
 (Enter /apps/cent7/gaussian/g16-A.03/g16-haswell/g16/l303.exe)
 DipDrv:  MaxL=1.
 Leave Link  303 at Mon Oct 14 02:11:15 2019, MaxMem= 10737418240 cpu:               0.6 elap:               0.0
 (Enter /apps/cent7/gaussian/g16-A.03/g16-haswell/g16/l401.exe)
 Initial guess from the checkpoint file:  "4.chk"
 B after Tr=    -0.000000    0.000000    0.000000
         Rot=    0.999973   -0.000000   -0.000000   -0.007352 Ang=  -0.84 deg.
 Guess basis will be translated and rotated to current coordinates.
 JPrj=2 DoOrth=T DoCkMO=T.
 Initial guess orbital symmetries:
       Occupied  (A') (A') (A') (A') (A') (A') (A') (A') (A') (A')
                 (A') (A') (A') (A') (A') (A') (A') (A') (A') (A')
                 (A') (A') (A') (A') (A") (A') (A') (A') (A') (A')
                 (A") (A') (A') (A") (A") (A") (A') (A")
       Virtual   (A") (A") (A") (A") (A') (A') (A') (A') (A') (A')
                 (A") (A') (A') (A') (A') (A') (A') (A') (A') (A')
                 (A') (A') (A') (A') (A") (A') (A") (A') (A') (A")
                 (A') (A') (A') (A') (A") (A') (A") (A') (A') (A")
                 (A") (A") (A") (A') (A') (A') (A') (A') (A') (A')
                 (A') (A") (A') (A') (A') (A') (A') (A') (A") (A')
                 (A') (A') (A') (A') (A') (A") (A") (A') (A') (A')
                 (A") (A") (A') (A") (A") (A') (A") (A') (A") (A")
                 (A') (A') (A') (A') (A') (A") (A') (A") (A') (A')
                 (A') (A') (A') (A") (A') (A') (A') (A') (A') (A")
                 (A') (A') (A") (A") (A') (A") (A") (A') (A") (A")
                 (A') (A') (A") (A') (A') (A') (A') (A") (A") (A')
                 (A') (A') (A') (A') (A') (A') (A') (A') (A') (A')
                 (A') (A') (A') (A') (A') (A') (A') (A') (A') (A')
                 (A')
 The electronic state of the initial guess is 1-A'.
 Generating alternative initial guess.
 ExpMin= 1.61D-01 ExpMax= 5.48D+03 ExpMxC= 8.25D+02 IAcc=2 IRadAn=         4 AccDes= 0.00D+00
 Harris functional with IExCor=  402 and IRadAn=       4 diagonalized for initial guess.
 HarFok:  IExCor=  402 AccDes= 0.00D+00 IRadAn=         4 IDoV= 1 UseB2=F ITyADJ=14
 ICtDFT=  3500011 ScaDFX=  1.000000  1.000000  1.000000  1.000000
 FoFCou: FMM=F IPFlag=           0 FMFlag=      100000 FMFlg1=           0
         NFxFlg=           0 DoJE=T BraDBF=F KetDBF=T FulRan=T
         wScrn=  0.000000 ICntrl=       500 IOpCl=  0 I1Cent=   200000004 NGrid=           0
         NMat0=    1 NMatS0=      1 NMatT0=    0 NMatD0=    1 NMtDS0=    0 NMtDT0=    0
 Petite list used in FoFCou.
 Harris En= -477.106550988210    
 Leave Link  401 at Mon Oct 14 02:11:15 2019, MaxMem= 10737418240 cpu:               6.1 elap:               0.3
 (Enter /apps/cent7/gaussian/g16-A.03/g16-haswell/g16/l502.exe)
 Integral symmetry usage will be decided dynamically.
 Closed shell SCF:
 Using DIIS extrapolation, IDIIS=  1040.
 NGot= 10737418240 LenX= 10737347437 LenY= 10737314955
 Requested convergence on RMS density matrix=1.00D-08 within 128 cycles.
 Requested convergence on MAX density matrix=1.00D-06.
 Requested convergence on             energy=1.00D-06.
 No special actions if energy rises.
 Fock matrices will be formed incrementally for  20 cycles.
 Integral accuracy reduced to 1.0D-05 until final iterations.

 Cycle   1  Pass 0  IDiag  1:
 FoFJK:  IHMeth= 1 ICntrl=       0 DoSepK=F KAlg= 0 I1Cent=           0 FoldK=F
 IRaf= 930000000 NMat=       1 IRICut=       1 DoRegI=T DoRafI=F ISym2E= 1 IDoP0=0 IntGTp=1.
 FoFCou: FMM=F IPFlag=           0 FMFlag=      100000 FMFlg1=           0
         NFxFlg=           0 DoJE=F BraDBF=F KetDBF=F FulRan=T
         wScrn=  0.000000 ICntrl=         0 IOpCl=  0 I1Cent=           0 NGrid=           0
         NMat0=    1 NMatS0=      1 NMatT0=    0 NMatD0=    1 NMtDS0=    0 NMtDT0=    0
 Petite list used in FoFCou.
 E= -477.090434594268    
 DIIS: error= 1.79D-03 at cycle   1 NSaved=   1.
 NSaved= 1 IEnMin= 1 EnMin= -477.090434594268     IErMin= 1 ErrMin= 1.79D-03
 ErrMax= 1.79D-03  0.00D+00 EMaxC= 1.00D-01 BMatC= 2.02D-03 BMatP= 2.02D-03
 IDIUse=3 WtCom= 9.82D-01 WtEn= 1.79D-02
 Coeff-Com:  0.100D+01
 Coeff-En:   0.100D+01
 Coeff:      0.100D+01
 Gap=     0.140 Goal=   None    Shift=    0.000
 GapD=    0.140 DampG=1.000 DampE=1.000 DampFc=1.0000 IDamp=-1.
 RMSDP=7.03D-04 MaxDP=1.29D-02              OVMax= 2.50D-02

 Cycle   2  Pass 0  IDiag  1:
 RMSU=  7.03D-04    CP:  1.00D+00
 E= -477.093570936436     Delta-E=       -0.003136342169 Rises=F Damp=F
 DIIS: error= 1.34D-03 at cycle   2 NSaved=   2.
 NSaved= 2 IEnMin= 2 EnMin= -477.093570936436     IErMin= 2 ErrMin= 1.34D-03
 ErrMax= 1.34D-03  0.00D+00 EMaxC= 1.00D-01 BMatC= 3.31D-04 BMatP= 2.02D-03
 IDIUse=3 WtCom= 9.87D-01 WtEn= 1.34D-02
 Coeff-Com:  0.162D+00 0.838D+00
 Coeff-En:   0.000D+00 0.100D+01
 Coeff:      0.160D+00 0.840D+00
 Gap=     0.139 Goal=   None    Shift=    0.000
 RMSDP=2.07D-04 MaxDP=7.06D-03 DE=-3.14D-03 OVMax= 1.26D-02

 Cycle   3  Pass 0  IDiag  1:
 RMSU=  2.06D-04    CP:  1.00D+00  9.72D-01
 E= -477.093356304697     Delta-E=        0.000214631739 Rises=F Damp=F
 DIIS: error= 1.84D-03 at cycle   3 NSaved=   3.
 NSaved= 3 IEnMin= 2 EnMin= -477.093570936436     IErMin= 2 ErrMin= 1.34D-03
 ErrMax= 1.84D-03  0.00D+00 EMaxC= 1.00D-01 BMatC= 5.46D-04 BMatP= 3.31D-04
 IDIUse=3 WtCom= 1.89D-01 WtEn= 8.11D-01
 Coeff-Com: -0.106D-01 0.570D+00 0.441D+00
 Coeff-En:   0.000D+00 0.609D+00 0.391D+00
 Coeff:     -0.200D-02 0.601D+00 0.401D+00
 Gap=     0.139 Goal=   None    Shift=    0.000
 RMSDP=1.32D-04 MaxDP=5.06D-03 DE= 2.15D-04 OVMax= 1.04D-02

 Cycle   4  Pass 0  IDiag  1:
 RMSU=  5.74D-05    CP:  9.99D-01  1.02D+00  4.53D-01
 E= -477.093865800356     Delta-E=       -0.000509495658 Rises=F Damp=F
 DIIS: error= 2.66D-04 at cycle   4 NSaved=   4.
 NSaved= 4 IEnMin= 4 EnMin= -477.093865800356     IErMin= 4 ErrMin= 2.66D-04
 ErrMax= 2.66D-04  0.00D+00 EMaxC= 1.00D-01 BMatC= 2.00D-05 BMatP= 3.31D-04
 IDIUse=3 WtCom= 9.97D-01 WtEn= 2.66D-03
 Coeff-Com: -0.197D-01 0.282D+00 0.216D+00 0.522D+00
 Coeff-En:   0.000D+00 0.000D+00 0.000D+00 0.100D+01
 Coeff:     -0.197D-01 0.281D+00 0.215D+00 0.524D+00
 Gap=     0.140 Goal=   None    Shift=    0.000
 RMSDP=4.30D-05 MaxDP=1.55D-03 DE=-5.09D-04 OVMax= 3.82D-03

 Cycle   5  Pass 0  IDiag  1:
 RMSU=  3.00D-05    CP:  9.99D-01  1.03D+00  4.77D-01  4.74D-01
 E= -477.093878055655     Delta-E=       -0.000012255300 Rises=F Damp=F
 DIIS: error= 3.22D-04 at cycle   5 NSaved=   5.
 NSaved= 5 IEnMin= 5 EnMin= -477.093878055655     IErMin= 4 ErrMin= 2.66D-04
 ErrMax= 3.22D-04  0.00D+00 EMaxC= 1.00D-01 BMatC= 7.73D-06 BMatP= 2.00D-05
 IDIUse=3 WtCom= 9.97D-01 WtEn= 3.22D-03
 Coeff-Com: -0.110D-01 0.125D+00 0.983D-01 0.382D+00 0.405D+00
 Coeff-En:   0.000D+00 0.000D+00 0.000D+00 0.304D+00 0.696D+00
 Coeff:     -0.109D-01 0.124D+00 0.980D-01 0.382D+00 0.406D+00
 Gap=     0.139 Goal=   None    Shift=    0.000
 RMSDP=2.19D-05 MaxDP=9.05D-04 DE=-1.23D-05 OVMax= 2.21D-03

 Cycle   6  Pass 0  IDiag  1:
 RMSU=  1.20D-05    CP:  9.99D-01  1.03D+00  4.63D-01  6.16D-01  4.65D-01
 E= -477.093885117562     Delta-E=       -0.000007061906 Rises=F Damp=F
 DIIS: error= 1.16D-04 at cycle   6 NSaved=   6.
 NSaved= 6 IEnMin= 6 EnMin= -477.093885117562     IErMin= 6 ErrMin= 1.16D-04
 ErrMax= 1.16D-04  0.00D+00 EMaxC= 1.00D-01 BMatC= 9.08D-07 BMatP= 7.73D-06
 IDIUse=3 WtCom= 9.99D-01 WtEn= 1.16D-03
 Coeff-Com: -0.339D-02 0.274D-01 0.229D-01 0.154D+00 0.287D+00 0.512D+00
 Coeff-En:   0.000D+00 0.000D+00 0.000D+00 0.000D+00 0.111D+00 0.889D+00
 Coeff:     -0.338D-02 0.274D-01 0.229D-01 0.154D+00 0.286D+00 0.513D+00
 Gap=     0.139 Goal=   None    Shift=    0.000
 RMSDP=6.21D-06 MaxDP=2.26D-04 DE=-7.06D-06 OVMax= 4.44D-04

[...]
 ! D37   D(8,9,10,11)            0.0            -DE/DX =    0.0                 !
 ! D38   D(8,9,10,17)          180.0            -DE/DX =    0.0                 !
 ! D39   D(16,9,10,11)         180.0            -DE/DX =    0.0                 !
 ! D40   D(16,9,10,17)           0.0            -DE/DX =    0.0                 !
 ! D41   D(9,10,11,6)            0.0            -DE/DX =    0.0                 !
 ! D42   D(9,10,11,18)         180.0            -DE/DX =    0.0                 !
 ! D43   D(17,10,11,6)         180.0            -DE/DX =    0.0                 !
 ! D44   D(17,10,11,18)          0.0            -DE/DX =    0.0                 !
 --------------------------------------------------------------------------------
 GradGradGradGradGradGradGradGradGradGradGradGradGradGradGradGradGradGrad

 Leave Link  103 at Mon Oct 14 02:11:51 2019, MaxMem= 10737418240 cpu:               0.5 elap:               0.0
 (Enter /apps/cent7/gaussian/g16-A.03/g16-haswell/g16/l9999.exe)

 ----------------------------------------------------------------------

 Electric dipole moment (input orientation):
 (Debye = 10**-18 statcoulomb cm , SI units = C m)
                  (au)            (Debye)         (10**-30 SI)
   Tot        0.143579D+01      0.364940D+01      0.121731D+02
   x         -0.141111D+01     -0.358670D+01     -0.119639D+02
   y          0.265018D+00      0.673608D+00      0.224691D+01
   z          0.000000D+00      0.000000D+00      0.000000D+00

 Dipole polarizability, Alpha (input orientation).
 (esu units = cm**3 , SI units = C**2 m**2 J**-1)
 Alpha(0;0):
               (au)            (10**-24 esu)      (10**-40 SI)
   iso        0.102641D+03      0.152098D+02      0.169232D+02
   aniso      0.105223D+03      0.155925D+02      0.173489D+02
   xx         0.124991D+03      0.185218D+02      0.206083D+02
   yx        -0.177036D+01     -0.262341D+00     -0.291893D+00
   yy         0.149023D+03      0.220829D+02      0.245705D+02
   zx         0.000000D+00      0.000000D+00      0.000000D+00
   zy         0.000000D+00      0.000000D+00      0.000000D+00
   zz         0.339082D+02      0.502468D+01      0.559071D+01

 ----------------------------------------------------------------------

 Dipole orientation:
     8          0.07799151          0.41527420         -2.39920356
     7         -0.00340314         -0.01812038         -0.02817458
     6         -0.44519760         -2.37050256          0.87179236
     6         -0.54211149         -2.88653098          3.46644973
     6         -0.18725822         -0.99707655          5.21886324
     6          0.28058957          1.49402935          4.34621485
     6          0.37071709          1.97392304          1.70176532
     6          0.82897795          4.41398232          0.74694601
     6          1.19917738          6.38514907          2.41129809
     6          1.11998313          5.96347077          5.05030793
     6          0.67210842          3.57871361          5.99221002
     1         -0.70861388         -3.77309088         -0.59181601
     1         -0.90530900         -4.82041523          4.04553427
     1         -0.25879212         -1.37796652          7.23304368
     1          0.87412056          4.65434904         -1.28442290
     1          1.55404264          8.27466731          1.69273769
     1          1.41498749          7.53425322          6.33894937
     1          0.61018973          3.24902093          8.01865716

 Electric dipole moment (dipole orientation):
 (Debye = 10**-18 statcoulomb cm , SI units = C m)
                  (au)            (Debye)         (10**-30 SI)
   Tot        0.143579D+01      0.364940D+01      0.121731D+02
   x          0.000000D+00      0.000000D+00      0.000000D+00
   y          0.000000D+00      0.000000D+00      0.000000D+00
   z          0.143579D+01      0.364940D+01      0.121731D+02

 Dipole polarizability, Alpha (dipole orientation).
 (esu units = cm**3 , SI units = C**2 m**2 J**-1)
 Alpha(0;0):
               (au)            (10**-24 esu)      (10**-40 SI)
   iso        0.102641D+03      0.152098D+02      0.169232D+02
   aniso      0.105223D+03      0.155925D+02      0.173489D+02
   xx         0.377804D+02      0.559847D+01      0.622914D+01
   yx         0.206177D+02      0.305523D+01      0.339941D+01
   yy         0.143690D+03      0.212926D+02      0.236912D+02
   zx         0.110919D+01      0.164366D+00      0.182881D+00
   zy         0.590602D+01      0.875183D+00      0.973772D+00
   zz         0.126452D+03      0.187383D+02      0.208492D+02

 ----------------------------------------------------------------------
 1\1\GINC-BROWN-A528\Freq\RB3LYP\6-31G(d)\C9H7N1O1\FINEJ\14-Oct-2019\0\
 \#P Geom=AllCheck Guess=TCheck SCRF=Check GenChk RB3LYP/6-31G(d) Freq\
 \Title Card Required\\0,1\O,1.2890601386,-0.0145901595,0.\N,0.01285229
 9,-0.0123408622,0.\C,-0.6889942028,-1.169263033,0.\C,-2.0897201472,-1.
 1888986281,0.\C,-2.813343152,-0.0178742492,0.\C,-2.1119177833,1.215125
 7126,0.\C,-0.6888868932,1.2107761506,0.\C,0.0502011227,2.4087373003,0.
 \C,-0.6195016451,3.6144005226,0.\C,-2.033917799,3.6490250147,0.\C,-2.7
 6079166,2.4790667866,0.\H,-0.067187924,-2.0544397298,0.\H,-2.583088940
 1,-2.1557036359,0.\H,-3.8987414814,-0.0226961251,0.\H,1.1305732421,2.3
 375185826,0.\H,-0.0580028456,4.5441046482,0.\H,-2.5480107781,4.6061161
 988,0.\H,-3.8474815507,2.5025355058,0.\\Version=ES64L-G16RevA.03\State
 =1-A'\HF=-477.0946274\RMSD=3.703e-09\RMSF=1.071e-04\ZeroPoint=0.140341
 9\Thermal=0.1403419\Dipole=-1.4111149,0.2650176,0.\DipoleDeriv=-1.4391
 279,0.1563974,0.,0.0564173,-0.3663838,0.,0.,0.,-0.3576987,1.3937769,-0
 .2023765,0.,0.0384757,0.0636653,0.,0.,0.,0.1712396,-0.1233676,0.031571
 1,0.,-0.4801246,0.0772664,0.,0.,0.,-0.1178939,0.1885572,-0.0873812,0.,
 0.1378034,0.0778675,0.,0.,0.,-0.0753453,0.0081876,0.0672002,0.,-0.0063
 091,-0.1759981,0.,0.,0.,-0.1664864,-0.1114936,0.0071912,0.,-0.0013247,
 0.2120255,0.,0.,0.,0.0989943,-0.1847082,0.0510005,0.,0.3197051,0.11499
 24,0.,0.,0.,0.0227205,-0.0168624,0.0812593,0.,-0.131373,-0.0974288,0.,
 0.,0.,-0.0859341,0.0108066,0.0578323,0.,0.2228368,0.0462562,0.,0.,0.,-
 0.1123816,0.0933143,-0.0806376,0.,-0.1240171,0.1071229,0.,0.,0.,-0.098
 9336,0.1700917,-0.0510109,0.,-0.0240674,-0.1337373,0.,0.,0.,-0.1374861
 ,0.0234028,0.0486553,0.,0.0116054,0.0459302,0.,0.,0.,0.14309,0.0544668
 ,-0.0626669,0.,-0.065502,-0.0516957,0.,0.,0.,0.1222632,-0.0700153,-0.0
 201086,0.,0.0327489,0.0551742,0.,0.,0.,0.125046,0.0466553,-0.0224552,0
 .,0.0423853,0.1119934,0.,0.,0.,0.1227058,0.0190124,-0.0750947,0.,-0.07
 11826,-0.0637034,0.,0.,0.,0.1155655,0.028846,0.0796489,0.,0.0757836,-0
 .0761951,0.,0.,0.,0.1166877,-0.0915427,0.0209754,0.,-0.0338608,0.05284
 81,0.,0.,0.,0.1138469\Polar=124.9911483,-1.7703626,149.0227909,0.,0.,3
 3.9081897\Quadrupole=-3.3079805,7.0439036,-3.735923,3.2842156,0.,0.\PG
 =CS [SG(C9H7N1O1)]\NImag=0\\0.53168377,0.00525339,0.10640737,0.,0.,0.0
 3028377,-0.41661420,-0.00360066,0.,0.76216128,-0.00500430,-0.10263103,
 0.,0.06047923,0.66891336,0.,0.,-0.06064064,0.,0.,0.18237893,-0.0619473
 1,-0.06004438,0.,-0.17590474,-0.02595089,0.,0.75359338,-0.03341305,0.0
 0465017,0.,-0.08154854,-0.29220511,0.,-0.06391627,0.70982188,0.,0.,0.0
 1530606,0.,0.,-0.06652725,0.,0.,0.11367139,0.00278210,0.00958311,0.,-0
 .02933425,-0.08243600,0.,-0.32600624,0.03377346,0.,0.67573191,0.004916
 33,-0.00890654,0.,-0.04294980,0.03393591,0.,-0.02510713,-0.13012526,0.
 ,0.00704221,0.76748801,0.,0.,0.00761761,0.,0.,-0.00230694,0.,0.,-0.050
 60408,0.,0.,0.12375338,-0.00739603,-0.00141603,0.,0.00906484,0.0060511
 8,0.,-0.03642384,0.02815280,0.,-0.19914139,0.14517374,0.,0.75318129,-0
 .00253475,0.00912171,0.,-0.00061840,-0.06468257,0.,0.07065984,0.030407
 89,0.,0.08469305,-0.31666735,0.,-0.04649335,0.67265265,0.,0.,-0.000679
 72,0.,0.,-0.00274363,0.,0.,0.00687586,0.,0.,-0.05451696,0.,0.,0.120457
 82,0.00139905,-0.00635856,0.,-0.01620628,0.04794301,0.,-0.02379629,-0.
 01362560,0.,0.04136477,-0.00333132,0.,-0.17337769,-0.07235774,0.,0.644
 23005,-0.00164869,-0.01231446,0.,0.03940188,0.04398529,0.,-0.03478111,
 -0.01899109,0.,0.03220170,-0.06511672,0.,-0.10167314,-0.22816878,0.,0.
 00750747,0.70132596,0.,0.,0.00533755,0.,0.,-0.00276379,0.,0.,-0.003328
 05,0.,0.,0.00545058,0.,0.,-0.06177129,0.,0.,0.15660472,-0.05478360,0.0
 4687808,0.,-0.14299171,0.01455386,0.,0.04024114,0.00384305,0.,-0.02305
 466,0.01406339,0.,-0.02275829,-0.04163426,0.,-0.27323311,-0.01173652,0
 .,0.68627779,0.03160738,0.00112137,0.,0.02672434,-0.18255596,0.,-0.024
 62686,-0.05879993,0.,0.02925718,-0.01580783,0.,-0.03084830,0.03167556,
 0.,0.00047131,-0.13976185,0.,0.05651315,0.64398479,0.,0.,0.01150382,0.
 ,0.,-0.06904805,0.,0.,0.00387296,0.,0.,-0.00118535,0.,0.,0.00436913,0.
 ,0.,-0.06507373,0.,0.,0.14684607,-0.00149300,0.00004407,0.,0.02425393,
 0.01332176,0.,-0.00196641,0.00440131,0.,-0.00135605,0.00123228,0.,-0.0
 0528486,0.00207454,0.,-0.02224936,-0.02621323,0.,-0.18879571,-0.113158
 97,0.,0.75824509,-0.00774413,-0.00104325,0.,-0.00179342,-0.08025129,0.
 ,0.02125729,0.01143081,0.,-0.01486577,0.00544739,0.,0.00275952,-0.0110
 1509,0.,-0.04862425,0.03537160,0.,-0.07432008,-0.22228733,0.,-0.049700
 83,0.69255061,0.,0.,-0.00083934,0.,0.,0.00231690,0.,0.,0.00391596,0.,0
 .,-0.00049921,0.,0.,0.00477495,0.,0.,0.00658530,0.,0.,-0.06264796,0.,0
 .,0.13093145,0.00130955,0.00603122,0.,-0.00438322,-0.03004762,0.,0.015
 24802,0.00950133,0.,-0.01525011,0.00736371,0.,-0.00142336,-0.01703192,
 0.,-0.02775943,0.03517043,0.,0.04633398,0.03056018,0.,-0.19089038,0.07
 726758,0.,0.66316083,0.00283030,0.00032242,0.,-0.00906445,0.01397106,0
 .,-0.00796486,-0.00520441,0.,0.00722667,-0.00398184,0.,0.00065263,0.00
 634772,0.,0.01894244,-0.01760287,0.,-0.01251441,-0.06668601,0.,0.13883
 079,-0.32497961,0.,0.01569847,0.75560955,0.,0.,0.00015893,0.,0.,0.0057
 1160,0.,0.,0.00061238,0.,0.,-0.00010455,0.,0.,-0.00019322,0.,0.,-0.006
 56463,0.,0.,0.00461007,0.,0.,-0.05760084,0.,0.,0.12931813,0.00163042,-
 0.00189908,0.,-0.00317670,0.02094657,0.,-0.01526508,-0.00816875,0.,0.0
 1672809,-0.00922393,0.,-0.00054435,0.02466950,0.,0.04272261,-0.0336754
 3,0.,-0.03163318,-0.03614785,0.,-0.02557908,0.07325369,0.,-0.30124621,
 -0.02848487,0.,0.66373083,-0.00058665,-0.00207482,0.,-0.00006244,0.009
 99870,0.,-0.00774086,-0.00474026,0.,0.00906495,-0.00583628,0.,0.005824
 43,0.01162164,0.,0.00369787,-0.06076658,0.,-0.01696578,-0.01875213,0.,
 0.03092083,0.02922509,0.,0.03678052,-0.12807553,0.,-0.00894831,0.75958
 210,0.,0.,-0.00055325,0.,0.,-0.00042283,0.,0.,0.00029306,0.,0.,0.00056
 335,0.,0.,0.00545250,0.,0.,0.00576488,0.,0.,-0.00687882,0.,0.,0.006892
 92,0.,0.,-0.06041804,0.,0.,0.13100969,0.00087060,0.00226247,0.,-0.0083
 0036,-0.00278289,0.,-0.00106201,-0.00033395,0.,-0.00145169,-0.00567002
 ,0.,0.01712510,-0.01145903,0.,-0.16575679,0.09705975,0.,-0.01898392,0.
 02960557,0.,-0.00075527,-0.00400690,0.,-0.03307663,-0.02664985,0.,-0.2
 0080703,-0.14494844,0.,0.74134044,-0.00070854,0.00313417,0.,-0.0024422
 3,-0.01872176,0.,0.01808154,0.00865515,0.,-0.02540428,0.01207861,0.,0.
 00939689,-0.06597554,0.,0.06537351,-0.23353519,0.,0.05034867,0.0339934
 7,0.,-0.00044828,-0.05712412,0.,-0.07056817,0.03361617,0.,-0.08448010,
 -0.31790949,0.,0.04668329,0.67947373,0.,0.,-0.00053515,0.,0.,0.0063372
 9,0.,0.,-0.00044676,0.,0.,0.00479442,0.,0.,0.00463044,0.,0.,-0.0648566
 7,0.,0.,0.00470861,0.,0.,-0.00445663,0.,0.,0.00759935,0.,0.,-0.0577562
 0,0.,0.,0.13001207,0.00176144,-0.00031790,0.,0.01046235,-0.02049383,0.
 ,-0.15825867,0.14839949,0.,-0.00887414,0.02420537,0.,-0.00467914,-0.00
 224069,0.,-0.00012328,-0.00072235,0.,-0.00260808,-0.00161734,0.,0.0006
 6949,-0.00073724,0.,-0.00003649,-0.00016804,0.,-0.00008931,-0.00005856
 ,0.,0.00008192,0.00018608,0.,0.16134682,0.00221414,0.00375715,0.,0.017
 87851,-0.03100693,0.,0.13565221,-0.25393414,0.,-0.00231330,0.00737543,
 0.,-0.00168592,0.00120890,0.,-0.00054028,-0.00031065,0.,-0.00498968,-0
 .00129261,0.,0.00126855,-0.00072361,0.,-0.00035698,-0.00030791,0.,-0.0
 0015740,0.00000005,0.,0.00010988,0.00022072,0.,-0.14730795,0.27440686,
 0.,0.,-0.00531553,0.,0.,0.00498171,0.,0.,-0.03154453,0.,0.,0.00145657,
 0.,0.,0.00540789,0.,0.,-0.00057899,0.,0.,0.00589772,0.,0.,0.00048275,0
 .,0.,-0.00066822,0.,0.,0.00009225,0.,0.,-0.00059543,0.,0.,0.02253031,-
 0.00082151,-0.00142771,0.,-0.00567266,0.00238970,0.,-0.00904351,-0.030
 29573,0.,-0.12026436,-0.11532028,0.,0.01344382,0.01586471,0.,-0.001753
 43,0.00319223,0.,-0.00049391,0.00089737,0.,0.00017020,-0.00020739,0.,-
 0.00020161,0.00000946,0.,-0.00000652,0.00031450,0.,0.00084059,0.000254
 16,0.,0.00071787,0.00041858,0.,0.12222334,-0.00034562,-0.00002698,0.,0
 .00175910,0.00207216,0.,0.00117280,0.00269576,0.,-0.11601247,-0.284736
 22,0.,-0.01476945,-0.01859275,0.,0.00437128,-0.00272074,0.,0.00066930,
 0.00016035,0.,-0.00014689,0.00019625,0.,0.00020761,0.00002036,0.,0.000
 25029,-0.00044672,0.,-0.00126913,-0.00039825,0.,-0.00028150,0.00050741
 ,0.,0.12432856,0.30029616,0.,0.,-0.00011804,0.,0.,0.00657129,0.,0.,0.0
 0057383,0.,0.,-0.03532562,0.,0.,0.00300102,0.,0.,0.00835904,0.,0.,-0.0
 0032339,0.,0.,-0.00069602,0.,0.,0.00018041,0.,0.,-0.00076290,0.,0.,0.0
 0031066,0.,0.,-0.00289219,0.,0.,0.02541487,0.00023943,0.00003423,0.,0.
 00020788,-0.00031475,0.,0.00095986,0.00302326,0.,-0.01173328,-0.002290
 60,0.,-0.34293267,-0.00189295,0.,-0.01190684,0.00160686,0.,0.00080445,
 -0.00248737,0.,-0.00071005,0.00061029,0.,0.00024433,-0.00002670,0.,-0.
 00003836,-0.00032973,0.,0.00072099,0.00171684,0.,-0.00052755,-0.000287
 03,0.,0.00082519,0.00012153,0.,0.36341233,0.00018858,0.00057842,0.,-0.
 00012627,-0.00121483,0.,0.00168018,-0.00468364,0.,0.02913527,0.0049935
 5,0.,-0.00251996,-0.05976901,0.,-0.02824858,0.00363466,0.,-0.00091096,
 -0.00502300,0.,-0.00143538,0.00058801,0.,-0.00008892,0.00017105,0.,0.0
 0036714,0.00011591,0.,-0.00117780,0.00180995,0.,0.00124611,0.00027798,
 0.,-0.00054839,0.00112843,0.,0.00168730,0.05816723,0.,0.,-0.00107411,0
 .,0.,-0.00065035,0.,0.,0.00809294,0.,0.,0.00189811,0.,0.,-0.03157972,0
 .,0.,0.00186966,0.,0.,0.00488315,0.,0.,0.00014049,0.,0.,-0.00016851,0.
 ,0.,-0.00015352,0.,0.,-0.00279112,0.,0.,0.00039826,0.,0.,-0.00453727,0
 .,0.,0.02293545,0.00115448,0.00432995,0.,-0.00350428,0.00153856,0.,-0.
 00029894,-0.00009538,0.,-0.00000285,-0.00009531,0.,-0.00062845,0.00043
 533,0.,0.00059433,-0.00259743,0.,-0.01330330,-0.00106885,0.,-0.3511707
 6,0.01315398,0.,-0.00703356,-0.00069685,0.,0.00090874,0.00193793,0.,0.
 00068567,-0.00006065,0.,0.00006703,-0.00003385,0.,-0.00000594,-0.00001
 168,0.,-0.00005430,-0.00017775,0.,0.37213861,0.00451894,-0.00143583,0.
 ,-0.00420142,0.00014828,0.,0.00136250,0.00127427,0.,-0.00064317,0.0001
 9491,0.,-0.00095459,0.00041415,0.,-0.00081246,-0.00480451,0.,-0.027695
 57,0.00716594,0.,0.01523918,-0.05785148,0.,0.02773535,0.00364442,0.,0.
 00147246,-0.00453249,0.,-0.00027934,-0.00100381,0.,0.00000968,-0.00003
 391,0.,0.00009462,-0.00001091,0.,-0.00025918,-0.00041437,0.,-0.0164450
 4,0.05582295,0.,0.,-0.00102467,0.,0.,-0.00296115,0.,0.,-0.00009662,0.,
 0.,-0.00035652,0.,0.,0.00030718,0.,0.,0.00382426,0.,0.,0.00499631,0.,0
 .,-0.03731694,0.,0.,0.00325140,0.,0.,0.00835570,0.,0.,-0.00033614,0.,0
 .,0.00025040,0.,0.,0.00005328,0.,0.,0.00027853,0.,0.,0.02665020,0.0000
 6572,-0.00004891,0.,0.00075269,0.00049436,0.,-0.00001803,0.00025029,0.
 ,-0.00022276,0.00006456,0.,0.00015628,-0.00026301,0.,-0.00048958,0.001
 07450,0.,-0.00129701,0.00296624,0.,0.01232138,0.01501277,0.,-0.1360495
 9,-0.12498335,0.,-0.01127553,-0.02885891,0.,-0.00563565,0.00188215,0.,
 0.00004313,0.00008288,0.,0.00000984,-0.00001922,0.,0.00003772,0.000056
 66,0.,0.00081853,-0.00046540,0.,0.14040447,0.00009262,-0.00005133,0.,-
 0.00156231,-0.00073876,0.,0.00039936,-0.00033882,0.,0.00016486,0.00000
 541,0.,-0.00008886,0.00017874,0.,0.00065886,-0.00010036,0.,0.00404792,
 -0.00246313,0.,-0.01596215,-0.01992235,0.,-0.12468965,-0.26566464,0.,0
 .00261442,0.00480201,0.,0.00073073,0.00133298,0.,-0.00006760,-0.000122
 08,0.,-0.00001551,-0.00001486,0.,-0.00003784,-0.00001911,0.,0.00005072
 ,0.00118394,0.,0.13385657,0.28108515,0.,0.,0.00041891,0.,0.,0.00073882
 ,0.,0.,-0.00095050,0.,0.,0.00022177,0.,0.,-0.00095246,0.,0.,-0.0003667
 2,0.,0.,0.00838512,0.,0.,0.00292525,0.,0.,-0.03595711,0.,0.,0.00235620
 ,0.,0.,0.00530954,0.,0.,-0.00003683,0.,0.,0.00011167,0.,0.,0.00005716,
 0.,0.,-0.00496500,0.,0.,0.02528957,0.00024466,0.00026949,0.,-0.0002131
 2,0.00035979,0.,-0.00021003,-0.00002897,0.,0.00003256,-0.00032274,0.,0
 .00078070,-0.00022419,0.,-0.00178186,-0.00310606,0.,-0.00065582,-0.001
 32193,0.,-0.00598293,-0.00136538,0.,-0.00958346,0.02966888,0.,-0.12353
 869,0.11713529,0.,0.01218295,-0.01657204,0.,0.00001369,0.00001206,0.,0
 .00004764,-0.00007765,0.,-0.00000202,0.00000657,0.,-0.00030412,0.00131
 988,0.,0.00109839,-0.00040045,0.,0.12694495,0.00028780,-0.00006887,0.,
 -0.00014758,0.00020900,0.,-0.00015048,0.00004874,0.,-0.00028414,-0.000
 45490,0.,0.00124218,-0.00047231,0.,-0.00413281,-0.00226951,0.,-0.00075
 109,0.00006173,0.,-0.00033945,0.00142699,0.,-0.00177118,0.00340963,0.,
 0.11664859,-0.27757107,0.,0.01511995,-0.01959996,0.,0.00001613,-0.0000
 0314,0.,0.00007532,-0.00011886,0.,-0.00004856,-0.00001013,0.,-0.000185
 23,0.00005770,0.,0.00037390,0.00071914,0.,-0.12574613,0.29360509,0.,0.
 ,-0.00006787,0.,0.,-0.00102288,0.,0.,0.00015654,0.,0.,-0.00073460,0.,0
 .,0.00027687,0.,0.,0.00871545,0.,0.,0.00018834,0.,0.,0.00544083,0.,0.,
 0.00246833,0.,0.,-0.03695864,0.,0.,0.00294549,0.,0.,0.00009993,0.,0.,-
 0.00001494,0.,0.,0.00016624,0.,0.,0.00016702,0.,0.,-0.00288285,0.,0.,0
 .02576851,-0.00008557,0.00042722,0.,-0.00060143,-0.00104775,0.,0.00015
 867,0.00008125,0.,0.00005235,0.00024952,0.,0.00083802,-0.00164669,0.,-
 0.01187687,-0.00106087,0.,0.00093494,0.00267473,0.,0.00057378,0.000050
 30,0.,0.00063734,-0.00330626,0.,-0.01252065,0.00282337,0.,-0.33801890,
 0.00676115,0.,0.00003292,0.00003557,0.,-0.00001507,0.00005314,0.,0.000
 45289,0.00086620,0.,-0.00006090,0.00000356,0.,-0.00072000,0.00020829,0
 .,0.00092650,-0.00020721,0.,0.35929200,0.00007622,-0.00053967,0.,0.001
 87444,0.00077450,0.,0.00001711,0.00003800,0.,-0.00018332,0.00011372,0.
 ,0.00119622,0.00171442,0.,0.02906585,0.00214582,0.,0.00060091,-0.00473
 343,0.,0.00007185,-0.00103863,0.,-0.00176198,-0.00460956,0.,-0.0290369
 5,0.00535987,0.,0.00700570,-0.06004684,0.,-0.00004985,-0.00001952,0.,-
 0.00002416,-0.00001062,0.,-0.00082561,-0.00033110,0.,0.00002154,0.0001
 8075,0.,-0.00147607,0.00012807,0.,0.00039359,0.00103074,0.,-0.00696551
 ,0.05984348,0.,0.,0.00022169,0.,0.,0.00005097,0.,0.,0.00012682,0.,0.,-
 0.00012196,0.,0.,-0.00311665,0.,0.,0.00279244,0.,0.,0.00489600,0.,0.,-
 0.00034984,0.,0.,0.00776453,0.,0.,0.00312365,0.,0.,-0.03487375,0.,0.,0
 .00003395,0.,0.,0.00009431,0.,0.,0.00023460,0.,0.,-0.00107724,0.,0.,0.
 00029746,0.,0.,-0.00471178,0.,0.,0.02461482\\-0.00009228,-0.00010473,0
 .,0.00024556,0.00035486,0.,-0.00026968,-0.00029571,0.,0.00008869,0.000
 07811,0.,0.00005391,0.00007489,0.,-0.00013181,-0.00014593,0.,0.0000040
 6,-0.00014330,0.,-0.00000937,0.00020278,0.,0.00012518,-0.00006436,0.,-
 0.00018862,-0.00007094,0.,0.00013685,0.00018959,0.,0.00008028,0.000037
 54,0.,0.00000215,-0.00001720,0.,-0.00001049,0.00000973,0.,0.00000323,-
 0.00006599,0.,-0.00000887,0.00000530,0.,0.00001105,-0.00000728,0.,-0.0
 0003985,-0.00003735,0.\\\@


 WHEN IT COMES TO CASH FLOW, IT SEEMS LIKE THE TIDE IS ALWAYS GOING OUT.
 Job cpu time:       0 days  0 hours  7 minutes 47.2 seconds.
 Elapsed time:       0 days  0 hours  0 minutes 20.0 seconds.
 File lengths (MBytes):  RWF=     73 Int=      0 D2E=      0 Chk=      4 Scr=      1
 Normal termination of Gaussian 16 at Mon Oct 14 02:11:51 2019.
real 43.51
user 945.04
sys 10.74
Machine:
brown-a528
brown-a528
brown-a528
brown-a528
brown-a528
brown-a528
brown-a528
brown-a528
brown-a528
brown-a528
brown-a528
brown-a528
brown-a528
brown-a528
brown-a528
brown-a528
brown-a528
brown-a528
brown-a528
brown-a528
brown-a528
brown-a528
brown-a528
brown-a528
