Title Card Required                                                     
Freq      RB3LYP                                                      6-31G(d)            
Number of atoms                            I               19
Info1-9                                    I   N=           9
          48          48        1002           0           0         100
           6          18        -502
Full Title                                 C   N=           2
Title Card Required     
Route                                      C   N=           6
#p opt freq b3lyp/6-31g(d) geom=connectivity temperature=0.0
01          
Charge                                     I                1
Multiplicity                               I                1
Number of electrons                        I               76
Number of alpha electrons                  I               38
Number of beta electrons                   I               38
Number of basis functions                  I              181
Number of independent functions            I              181
Number of point charges in /Mol/           I                0
Number of translation vectors              I                0
Atomic numbers                             I   N=          19
           8           7           6           6           6           6
           6           6           6           6           6           1
           1           1           1           1           1           1
           1
Nuclear charges                            R   N=          19
  8.00000000E+00  7.00000000E+00  6.00000000E+00  6.00000000E+00  6.00000000E+00
  6.00000000E+00  6.00000000E+00  6.00000000E+00  6.00000000E+00  6.00000000E+00
  6.00000000E+00  1.00000000E+00  1.00000000E+00  1.00000000E+00  1.00000000E+00
  1.00000000E+00  1.00000000E+00  1.00000000E+00  1.00000000E+00
Current cartesian coordinates              R   N=          57
 -3.20016649E+00 -3.86032435E+00 -1.37780214E-01 -2.46245753E+00 -1.35094293E+00
  1.88306311E-02 -4.30294644E+00  3.81186670E-01 -3.46819751E-02 -3.69464466E+00
  2.94462914E+00 -3.26045858E-02 -1.17575082E+00  3.65394824E+00  1.31955786E-02
  7.63899970E-01  1.81887285E+00  2.72029982E-02  9.08240139E-02 -8.02214059E-01
 -1.55172687E-03  1.94013038E+00 -2.70964635E+00 -5.09808545E-02  4.45287049E+00
 -1.99940927E+00 -4.14249587E-02  5.17644126E+00  5.76206351E-01  1.62023909E-02
  3.37244362E+00  2.44945653E+00  4.32147548E-02 -6.21116680E+00 -3.59108982E-01
 -8.06763638E-02 -5.20818460E+00  4.32306898E+00 -6.55238510E-02 -6.66926825E-01
  5.64249012E+00  2.31934633E-02  1.39308426E+00 -4.67909345E+00 -1.36900386E-01
  5.90106657E+00 -3.45126869E+00 -9.05228382E-02  7.16755781E+00  1.06529053E+00
  2.50462857E-02  3.90844656E+00  4.42959999E+00  6.91226530E-02 -3.18494927E+00
 -4.50996380E+00  1.59525860E+00
Number of symbols in /Mol/                 I                0
Force Field                                I                0
Atom Types                                 C   N=          19
                                                            
                                                            
                                                            
                                                
Int Atom Types                             I   N=          19
           0           0           0           0           0           0
           0           0           0           0           0           0
           0           0           0           0           0           0
           0
MM charges                                 R   N=          19
  0.00000000E+00  0.00000000E+00  0.00000000E+00  0.00000000E+00  0.00000000E+00
  0.00000000E+00  0.00000000E+00  0.00000000E+00  0.00000000E+00  0.00000000E+00
  0.00000000E+00  0.00000000E+00  0.00000000E+00  0.00000000E+00  0.00000000E+00
  0.00000000E+00  0.00000000E+00  0.00000000E+00  0.00000000E+00
Integer atomic weights                     I   N=          19
          16          14          12          12          12          12
          12          12          12          12          12           1
           1           1           1           1           1           1
           1
Real atomic weights                        R   N=          19
  1.59949146E+01  1.40030740E+01  1.20000000E+01  1.20000000E+01  1.20000000E+01
  1.20000000E+01  1.20000000E+01  1.20000000E+01  1.20000000E+01  1.20000000E+01
  1.20000000E+01  1.00782504E+00  1.00782504E+00  1.00782504E+00  1.00782504E+00
  1.00782504E+00  1.00782504E+00  1.00782504E+00  1.00782504E+00
Atom fragment info                         I   N=          19
           0           0           0           0           0           0
           0           0           0           0           0           0
           0           0           0           0           0           0
           0
Atom residue num                           I   N=          19
           0           0           0           0           0           0
           0           0           0           0           0           0
           0           0           0           0           0           0
           0
Nuclear spins                              I   N=          19
           0           2           0           0           0           0
           0           0           0           0           0           1
           1           1           1           1           1           1
           1
Nuclear ZEff                               R   N=          19
 -5.60000000E+00 -4.55000000E+00 -3.60000000E+00 -3.60000000E+00 -3.60000000E+00
 -3.60000000E+00 -3.60000000E+00 -3.60000000E+00 -3.60000000E+00 -3.60000000E+00
 -3.60000000E+00 -1.00000000E+00 -1.00000000E+00 -1.00000000E+00 -1.00000000E+00
 -1.00000000E+00 -1.00000000E+00 -1.00000000E+00 -1.00000000E+00
Nuclear ZNuc                               R   N=          19
  8.00000000E+00  7.00000000E+00  6.00000000E+00  6.00000000E+00  6.00000000E+00
  6.00000000E+00  6.00000000E+00  6.00000000E+00  6.00000000E+00  6.00000000E+00
  6.00000000E+00  1.00000000E+00  1.00000000E+00  1.00000000E+00  1.00000000E+00
  1.00000000E+00  1.00000000E+00  1.00000000E+00  1.00000000E+00
Nuclear QMom                               R   N=          19
  0.00000000E+00  2.04400000E+00  0.00000000E+00  0.00000000E+00  0.00000000E+00
  0.00000000E+00  0.00000000E+00  0.00000000E+00  0.00000000E+00  0.00000000E+00
  0.00000000E+00  0.00000000E+00  0.00000000E+00  0.00000000E+00  0.00000000E+00
  0.00000000E+00  0.00000000E+00  0.00000000E+00  0.00000000E+00
Nuclear GFac                               R   N=          19
  0.00000000E+00  4.03761000E-01  0.00000000E+00  0.00000000E+00  0.00000000E+00
  0.00000000E+00  0.00000000E+00  0.00000000E+00  0.00000000E+00  0.00000000E+00
  0.00000000E+00  2.79284600E+00  2.79284600E+00  2.79284600E+00  2.79284600E+00
  2.79284600E+00  2.79284600E+00  2.79284600E+00  2.79284600E+00
MicOpt                                     I   N=          19
          -1          -1          -1          -1          -1          -1
          -1          -1          -1          -1          -1          -1
          -1          -1          -1          -1          -1          -1
          -1
Number of residues                         I                0
Number of secondary structures             I                0
Redundant internal dimensions              I   N=           4
          97          20          31          46
Redundant internal coordinate indices      I   N=         388
           1           2           0           0           1          19
           0           0           2           3           0           0
           2           7           0           0           3           4
           0           0           3          12           0           0
           4           5           0           0           4          13
           0           0           5           6           0           0
           5          14           0           0           6           7
           0           0           6          11           0           0
           7           8           0           0           8           9
           0           0           8          15           0           0
           9          10           0           0           9          16
           0           0          10          11           0           0
          10          17           0           0          11          18
           0           0           2           1          19           0
           1           2           3           0           1           2
           7           0           3           2           7           0
           2           3           4           0           2           3
          12           0           4           3          12           0
           3           4           5           0           3           4
          13           0           5           4          13           0
           4           5           6           0           4           5
          14           0           6           5          14           0
           5           6           7           0           5           6
          11           0           7           6          11           0
           2           7           6           0           2           7
           8           0           6           7           8           0
           7           8           9           0           7           8
          15           0           9           8          15           0
           8           9          10           0           8           9
          16           0          10           9          16           0
           9          10          11           0           9          10
          17           0          11          10          17           0
           6          11          10           0           6          11
          18           0          10          11          18           0
          19           1           2           3          19           1
           2           7           1           2           3           4
           1           2           3          12           7           2
           3           4           7           2           3          12
           1           2           7           6           1           2
           7           8           3           2           7           6
           3           2           7           8           2           3
           4           5           2           3           4          13
          12           3           4           5          12           3
           4          13           3           4           5           6
           3           4           5          14          13           4
           5           6          13           4           5          14
           4           5           6           7           4           5
           6          11          14           5           6           7
          14           5           6          11           5           6
           7           2           5           6           7           8
          11           6           7           2          11           6
           7           8           5           6          11          10
           5           6          11          18           7           6
          11          10           7           6          11          18
           2           7           8           9           2           7
           8          15           6           7           8           9
           6           7           8          15           7           8
           9          10           7           8           9          16
          15           8           9          10          15           8
           9          16           8           9          10          11
           8           9          10          17          16           9
          10          11          16           9          10          17
           9          10          11           6           9          10
          11          18          17          10          11           6
          17          10          11          18
Redundant internal coordinates             R   N=          97
  2.62025506E+00  1.85086102E+00  2.52795094E+00  2.61165952E+00  2.63462951E+00
  2.04730508E+00  2.61726144E+00  2.04743333E+00  2.67019533E+00  2.05263261E+00
  2.70628059E+00  2.68372728E+00  2.65719311E+00  2.61120487E+00  2.04581610E+00
  2.67594308E+00  2.05123823E+00  2.60080822E+00  2.05032355E+00  2.05156976E+00
  1.85236397E+00  2.03751158E+00  2.06689488E+00  2.17444808E+00  2.09273562E+00
  2.01673899E+00  2.17370933E+00  2.07820737E+00  2.07643743E+00  2.12854025E+00
  2.10940748E+00  2.09579366E+00  2.07795086E+00  2.07703331E+00  2.14672082E+00
  2.05937766E+00  2.03371306E+00  2.12907606E+00  2.12039544E+00  2.06508062E+00
  2.10101677E+00  2.11684028E+00  2.12008309E+00  2.07919909E+00  2.08388543E+00
  2.10124466E+00  2.08550307E+00  2.09641107E+00  2.10006273E+00  2.07237014E+00
  2.11074392E+00 -1.73623267E+00  1.50060990E+00 -3.07699225E+00  6.29029750E-02
 -3.71709779E-02  3.10272424E+00  3.08511225E+00 -5.51924958E-02  4.68709392E-02
 -3.09343381E+00  5.29102853E-03 -3.13553255E+00 -3.13444239E+00  7.91934292E-03
  1.31745025E-02 -3.13727212E+00 -3.12921117E+00  3.52751162E-03 -2.19368869E-03
  3.12804817E+00 -3.13502156E+00 -4.77969301E-03 -2.59165203E-02  3.11439512E+00
  3.12645730E+00 -1.64163645E-02 -3.12368884E+00  1.35117826E-02  6.66132209E-03
 -3.13932337E+00 -3.12982484E+00  3.53757514E-02  1.31191834E-02 -3.10486553E+00
 -9.38996599E-05 -3.13525310E+00  3.11766673E+00 -1.74924615E-02 -9.48398057E-03
  3.13992461E+00  3.12565830E+00 -8.11841413E-03  5.88845261E-03 -3.13121441E+00
  3.13961618E+00  2.51331625E-03
ZRed-IntVec                                I   N=          97
           0           0           0           0           0           0
           0           0           0           0           0           0
           0           0           0           0           0           0
           0           0           0           0           0           0
           0           0           0           0           0           0
           0           0           0           0           0           0
           0           0           0           0           0           0
           0           0           0           0           0           0
           0           0           0           0           0           0
           0           0           0           0           0           0
           0           0           0           0           0           0
           0           0           0           0           0           0
           0           0           0           0           0           0
           0           0           0           0           0           0
           0           0           0           0           0           0
           0           0           0           0           0           0
           0
ZRed-FPVec                                 R   N=          97
  0.00000000E+00  0.00000000E+00  0.00000000E+00  0.00000000E+00  0.00000000E+00
  0.00000000E+00  0.00000000E+00  0.00000000E+00  0.00000000E+00  0.00000000E+00
  0.00000000E+00  0.00000000E+00  0.00000000E+00  0.00000000E+00  0.00000000E+00
  0.00000000E+00  0.00000000E+00  0.00000000E+00  0.00000000E+00  0.00000000E+00
  0.00000000E+00  0.00000000E+00  0.00000000E+00  0.00000000E+00  0.00000000E+00
  0.00000000E+00  0.00000000E+00  0.00000000E+00  0.00000000E+00  0.00000000E+00
  0.00000000E+00  0.00000000E+00  0.00000000E+00  0.00000000E+00  0.00000000E+00
  0.00000000E+00  0.00000000E+00  0.00000000E+00  0.00000000E+00  0.00000000E+00
  0.00000000E+00  0.00000000E+00  0.00000000E+00  0.00000000E+00  0.00000000E+00
  0.00000000E+00  0.00000000E+00  0.00000000E+00  0.00000000E+00  0.00000000E+00
  0.00000000E+00  0.00000000E+00  0.00000000E+00  0.00000000E+00  0.00000000E+00
  0.00000000E+00  0.00000000E+00  0.00000000E+00  0.00000000E+00  0.00000000E+00
  0.00000000E+00  0.00000000E+00  0.00000000E+00  0.00000000E+00  0.00000000E+00
  0.00000000E+00  0.00000000E+00  0.00000000E+00  0.00000000E+00  0.00000000E+00
  0.00000000E+00  0.00000000E+00  0.00000000E+00  0.00000000E+00  0.00000000E+00
  0.00000000E+00  0.00000000E+00  0.00000000E+00  0.00000000E+00  0.00000000E+00
  0.00000000E+00  0.00000000E+00  0.00000000E+00  0.00000000E+00  0.00000000E+00
  0.00000000E+00  0.00000000E+00  0.00000000E+00  0.00000000E+00  0.00000000E+00
  0.00000000E+00  0.00000000E+00  0.00000000E+00  0.00000000E+00  0.00000000E+00
  0.00000000E+00  0.00000000E+00
ZRed-Constraint1                           R   N=          97
  2.62025506E+00  1.85086102E+00  2.52795094E+00  2.61165952E+00  2.63462951E+00
  2.04730508E+00  2.61726144E+00  2.04743333E+00  2.67019533E+00  2.05263261E+00
  2.70628059E+00  2.68372728E+00  2.65719311E+00  2.61120487E+00  2.04581610E+00
  2.67594308E+00  2.05123823E+00  2.60080822E+00  2.05032355E+00  2.05156976E+00
  1.85236397E+00  2.03751158E+00  2.06689488E+00  2.17444808E+00  2.09273562E+00
  2.01673899E+00  2.17370933E+00  2.07820737E+00  2.07643743E+00  2.12854025E+00
  2.10940748E+00  2.09579366E+00  2.07795086E+00  2.07703331E+00  2.14672082E+00
  2.05937766E+00  2.03371306E+00  2.12907606E+00  2.12039544E+00  2.06508062E+00
  2.10101677E+00  2.11684028E+00  2.12008309E+00  2.07919909E+00  2.08388543E+00
  2.10124466E+00  2.08550307E+00  2.09641107E+00  2.10006273E+00  2.07237014E+00
  2.11074392E+00 -1.73623267E+00  1.50060990E+00 -3.07699225E+00  6.29029750E-02
 -3.71709779E-02  3.10272424E+00  3.08511225E+00 -5.51924958E-02  4.68709392E-02
 -3.09343381E+00  5.29102853E-03 -3.13553255E+00 -3.13444239E+00  7.91934292E-03
  1.31745025E-02 -3.13727212E+00 -3.12921117E+00  3.52751162E-03 -2.19368869E-03
  3.12804817E+00 -3.13502156E+00 -4.77969301E-03 -2.59165203E-02  3.11439512E+00
  3.12645730E+00 -1.64163645E-02 -3.12368884E+00  1.35117826E-02  6.66132209E-03
 -3.13932337E+00 -3.12982484E+00  3.53757514E-02  1.31191834E-02 -3.10486553E+00
 -9.38996599E-05 -3.13525310E+00  3.11766673E+00 -1.74924615E-02 -9.48398057E-03
  3.13992461E+00  3.12565830E+00 -8.11841413E-03  5.88845261E-03 -3.13121441E+00
  3.13961618E+00  2.51331625E-03
ZRed-Constraint2                           R   N=          97
  2.47565610E+00  1.81413708E+00  2.57216740E+00  2.59107439E+00  2.65364448E+00
  2.05981750E+00  2.65197981E+00  2.05983914E+00  2.66806357E+00  2.05984395E+00
  2.69744803E+00  2.67100889E+00  2.67475179E+00  2.65405120E+00  2.05980155E+00
  2.65442841E+00  2.05989045E+00  2.65821548E+00  2.05983351E+00  2.05961826E+00
  1.91063323E+00  2.03662812E+00  2.11857638E+00  2.12798081E+00  2.10446119E+00
  2.06191140E+00  2.11681272E+00  2.07979843E+00  2.10225137E+00  2.10113551E+00
  2.09670274E+00  2.08790435E+00  2.09857821E+00  2.07071748E+00  2.11727790E+00
  2.09518992E+00  2.08670997E+00  2.12466799E+00  2.07180734E+00  2.10981747E+00
  2.09352137E+00  2.07984646E+00  2.09535725E+00  2.09379870E+00  2.09402936E+00
  2.09737014E+00  2.09170467E+00  2.09411050E+00  2.09682849E+00  2.09733339E+00
  2.08902343E+00 -1.04719755E+00  2.09439510E+00  3.14159265E+00  0.00000000E+00
  0.00000000E+00  3.14159265E+00  3.14159265E+00  0.00000000E+00  0.00000000E+00
  3.14159265E+00  0.00000000E+00  3.14159265E+00  3.14159265E+00  0.00000000E+00
  0.00000000E+00  3.14159265E+00  3.14159265E+00  0.00000000E+00  0.00000000E+00
  3.14159265E+00  3.14159265E+00  0.00000000E+00  0.00000000E+00  3.14159265E+00
  3.14159265E+00  0.00000000E+00  3.14159265E+00  0.00000000E+00  0.00000000E+00
  3.14159265E+00  3.14159265E+00  0.00000000E+00  0.00000000E+00  3.14159265E+00
  0.00000000E+00  3.14159265E+00  3.14159265E+00  0.00000000E+00  0.00000000E+00
  3.14159265E+00  3.14159265E+00  0.00000000E+00  0.00000000E+00  3.14159265E+00
  3.14159265E+00  0.00000000E+00
SymInf integers                            I   N=          26
           1           1           1           1           1           0
           0           0           0           0           0           0
           0           0           0           0           0           0
           0           0           0           0           0           0
           0           0
RotTr to input orientation                 R   N=          12
 -2.34949862E-01  9.72005784E-01  1.82152042E-03 -9.71955516E-01 -2.34917507E-01
 -1.07814797E-02 -1.00517536E-02 -4.30354399E-03  9.99940219E-01 -2.02743834E+00
  1.96302644E+00  1.86159898E-02
Number of contracted shells                I               60
Number of primitive shells                 I              153
Pure/Cartesian d shells                    I                1
Pure/Cartesian f shells                    I                0
Highest angular momentum                   I                2
Largest degree of contraction              I                6
Shell types                                I   N=          60
           0          -1          -1           2           0          -1
          -1           2           0          -1          -1           2
           0          -1          -1           2           0          -1
          -1           2           0          -1          -1           2
           0          -1          -1           2           0          -1
          -1           2           0          -1          -1           2
           0          -1          -1           2           0          -1
          -1           2           0           0           0           0
           0           0           0           0           0           0
           0           0           0           0           0           0
Number of primitives per shell             I   N=          60
           6           3           1           1           6           3
           1           1           6           3           1           1
           6           3           1           1           6           3
           1           1           6           3           1           1
           6           3           1           1           6           3
           1           1           6           3           1           1
           6           3           1           1           6           3
           1           1           3           1           3           1
           3           1           3           1           3           1
           3           1           3           1           3           1
Shell to atom map                          I   N=          60
           1           1           1           1           2           2
           2           2           3           3           3           3
           4           4           4           4           5           5
           5           5           6           6           6           6
           7           7           7           7           8           8
           8           8           9           9           9           9
          10          10          10          10          11          11
          11          11          12          12          13          13
          14          14          15          15          16          16
          17          17          18          18          19          19
Primitive exponents                        R   N=         153
  5.48467166E+03  8.25234946E+02  1.88046958E+02  5.29645000E+01  1.68975704E+01
  5.79963534E+00  1.55396162E+01  3.59993359E+00  1.01376175E+00  2.70005823E-01
  8.00000000E-01  4.17351146E+03  6.27457911E+02  1.42902093E+02  4.02343293E+01
  1.28202129E+01  4.39043701E+00  1.16263619E+01  2.71627981E+00  7.72218397E-01
  2.12031498E-01  8.00000000E-01  3.04752488E+03  4.57369518E+02  1.03948685E+02
  2.92101553E+01  9.28666296E+00  3.16392696E+00  7.86827235E+00  1.88128854E+00
  5.44249258E-01  1.68714478E-01  8.00000000E-01  3.04752488E+03  4.57369518E+02
  1.03948685E+02  2.92101553E+01  9.28666296E+00  3.16392696E+00  7.86827235E+00
  1.88128854E+00  5.44249258E-01  1.68714478E-01  8.00000000E-01  3.04752488E+03
  4.57369518E+02  1.03948685E+02  2.92101553E+01  9.28666296E+00  3.16392696E+00
  7.86827235E+00  1.88128854E+00  5.44249258E-01  1.68714478E-01  8.00000000E-01
  3.04752488E+03  4.57369518E+02  1.03948685E+02  2.92101553E+01  9.28666296E+00
  3.16392696E+00  7.86827235E+00  1.88128854E+00  5.44249258E-01  1.68714478E-01
  8.00000000E-01  3.04752488E+03  4.57369518E+02  1.03948685E+02  2.92101553E+01
  9.28666296E+00  3.16392696E+00  7.86827235E+00  1.88128854E+00  5.44249258E-01
  1.68714478E-01  8.00000000E-01  3.04752488E+03  4.57369518E+02  1.03948685E+02
  2.92101553E+01  9.28666296E+00  3.16392696E+00  7.86827235E+00  1.88128854E+00
  5.44249258E-01  1.68714478E-01  8.00000000E-01  3.04752488E+03  4.57369518E+02
  1.03948685E+02  2.92101553E+01  9.28666296E+00  3.16392696E+00  7.86827235E+00
  1.88128854E+00  5.44249258E-01  1.68714478E-01  8.00000000E-01  3.04752488E+03
  4.57369518E+02  1.03948685E+02  2.92101553E+01  9.28666296E+00  3.16392696E+00
  7.86827235E+00  1.88128854E+00  5.44249258E-01  1.68714478E-01  8.00000000E-01
  3.04752488E+03  4.57369518E+02  1.03948685E+02  2.92101553E+01  9.28666296E+00
  3.16392696E+00  7.86827235E+00  1.88128854E+00  5.44249258E-01  1.68714478E-01
  8.00000000E-01  1.87311370E+01  2.82539436E+00  6.40121692E-01  1.61277759E-01
  1.87311370E+01  2.82539436E+00  6.40121692E-01  1.61277759E-01  1.87311370E+01
  2.82539436E+00  6.40121692E-01  1.61277759E-01  1.87311370E+01  2.82539436E+00
  6.40121692E-01  1.61277759E-01  1.87311370E+01  2.82539436E+00  6.40121692E-01
  1.61277759E-01  1.87311370E+01  2.82539436E+00  6.40121692E-01  1.61277759E-01
  1.87311370E+01  2.82539436E+00  6.40121692E-01  1.61277759E-01  1.87311370E+01
  2.82539436E+00  6.40121692E-01  1.61277759E-01
Contraction coefficients                   R   N=         153
  1.83107443E-03  1.39501722E-02  6.84450781E-02  2.32714336E-01  4.70192898E-01
  3.58520853E-01 -1.10777550E-01 -1.48026263E-01  1.13076702E+00  1.00000000E+00
  1.00000000E+00  1.83477216E-03  1.39946270E-02  6.85865518E-02  2.32240873E-01
  4.69069948E-01  3.60455199E-01 -1.14961182E-01 -1.69117479E-01  1.14585195E+00
  1.00000000E+00  1.00000000E+00  1.83473713E-03  1.40373228E-02  6.88426223E-02
  2.32184443E-01  4.67941348E-01  3.62311985E-01 -1.19332420E-01 -1.60854152E-01
  1.14345644E+00  1.00000000E+00  1.00000000E+00  1.83473713E-03  1.40373228E-02
  6.88426223E-02  2.32184443E-01  4.67941348E-01  3.62311985E-01 -1.19332420E-01
 -1.60854152E-01  1.14345644E+00  1.00000000E+00  1.00000000E+00  1.83473713E-03
  1.40373228E-02  6.88426223E-02  2.32184443E-01  4.67941348E-01  3.62311985E-01
 -1.19332420E-01 -1.60854152E-01  1.14345644E+00  1.00000000E+00  1.00000000E+00
  1.83473713E-03  1.40373228E-02  6.88426223E-02  2.32184443E-01  4.67941348E-01
  3.62311985E-01 -1.19332420E-01 -1.60854152E-01  1.14345644E+00  1.00000000E+00
  1.00000000E+00  1.83473713E-03  1.40373228E-02  6.88426223E-02  2.32184443E-01
  4.67941348E-01  3.62311985E-01 -1.19332420E-01 -1.60854152E-01  1.14345644E+00
  1.00000000E+00  1.00000000E+00  1.83473713E-03  1.40373228E-02  6.88426223E-02
  2.32184443E-01  4.67941348E-01  3.62311985E-01 -1.19332420E-01 -1.60854152E-01
  1.14345644E+00  1.00000000E+00  1.00000000E+00  1.83473713E-03  1.40373228E-02
  6.88426223E-02  2.32184443E-01  4.67941348E-01  3.62311985E-01 -1.19332420E-01
 -1.60854152E-01  1.14345644E+00  1.00000000E+00  1.00000000E+00  1.83473713E-03
  1.40373228E-02  6.88426223E-02  2.32184443E-01  4.67941348E-01  3.62311985E-01
 -1.19332420E-01 -1.60854152E-01  1.14345644E+00  1.00000000E+00  1.00000000E+00
  1.83473713E-03  1.40373228E-02  6.88426223E-02  2.32184443E-01  4.67941348E-01
  3.62311985E-01 -1.19332420E-01 -1.60854152E-01  1.14345644E+00  1.00000000E+00
  1.00000000E+00  3.34946043E-02  2.34726953E-01  8.13757326E-01  1.00000000E+00
  3.34946043E-02  2.34726953E-01  8.13757326E-01  1.00000000E+00  3.34946043E-02
  2.34726953E-01  8.13757326E-01  1.00000000E+00  3.34946043E-02  2.34726953E-01
  8.13757326E-01  1.00000000E+00  3.34946043E-02  2.34726953E-01  8.13757326E-01
  1.00000000E+00  3.34946043E-02  2.34726953E-01  8.13757326E-01  1.00000000E+00
  3.34946043E-02  2.34726953E-01  8.13757326E-01  1.00000000E+00  3.34946043E-02
  2.34726953E-01  8.13757326E-01  1.00000000E+00
P(S=P) Contraction coefficients            R   N=         153
  0.00000000E+00  0.00000000E+00  0.00000000E+00  0.00000000E+00  0.00000000E+00
  0.00000000E+00  7.08742682E-02  3.39752839E-01  7.27158577E-01  1.00000000E+00
  0.00000000E+00  0.00000000E+00  0.00000000E+00  0.00000000E+00  0.00000000E+00
  0.00000000E+00  0.00000000E+00  6.75797439E-02  3.23907296E-01  7.40895140E-01
  1.00000000E+00  0.00000000E+00  0.00000000E+00  0.00000000E+00  0.00000000E+00
  0.00000000E+00  0.00000000E+00  0.00000000E+00  6.89990666E-02  3.16423961E-01
  7.44308291E-01  1.00000000E+00  0.00000000E+00  0.00000000E+00  0.00000000E+00
  0.00000000E+00  0.00000000E+00  0.00000000E+00  0.00000000E+00  6.89990666E-02
  3.16423961E-01  7.44308291E-01  1.00000000E+00  0.00000000E+00  0.00000000E+00
  0.00000000E+00  0.00000000E+00  0.00000000E+00  0.00000000E+00  0.00000000E+00
  6.89990666E-02  3.16423961E-01  7.44308291E-01  1.00000000E+00  0.00000000E+00
  0.00000000E+00  0.00000000E+00  0.00000000E+00  0.00000000E+00  0.00000000E+00
  0.00000000E+00  6.89990666E-02  3.16423961E-01  7.44308291E-01  1.00000000E+00
  0.00000000E+00  0.00000000E+00  0.00000000E+00  0.00000000E+00  0.00000000E+00
  0.00000000E+00  0.00000000E+00  6.89990666E-02  3.16423961E-01  7.44308291E-01
  1.00000000E+00  0.00000000E+00  0.00000000E+00  0.00000000E+00  0.00000000E+00
  0.00000000E+00  0.00000000E+00  0.00000000E+00  6.89990666E-02  3.16423961E-01