 Entering Gaussian System, Link 0=/apps/cent7/gaussian/g16-A.03/g16-haswell/g16/g16
 Initial command:
 /apps/cent7/gaussian/g16-A.03/g16-haswell/g16/l1.exe "/scratch/brown/finej/gaussian/Gau-317044.inp" -scrdir="/scratch/brown/finej/gaussian/"
 Entering Link 1 = /apps/cent7/gaussian/g16-A.03/g16-haswell/g16/l1.exe PID=    317045.
  
 Copyright (c) 1988,1990,1992,1993,1995,1998,2003,2009,2016,
            Gaussian, Inc.  All Rights Reserved.
  
 This is part of the Gaussian(R) 16 program.  It is based on
 the Gaussian(R) 09 system (copyright 2009, Gaussian, Inc.),
 the Gaussian(R) 03 system (copyright 2003, Gaussian, Inc.),
 the Gaussian(R) 98 system (copyright 1998, Gaussian, Inc.),
 the Gaussian(R) 94 system (copyright 1995, Gaussian, Inc.),
 the Gaussian 92(TM) system (copyright 1992, Gaussian, Inc.),
 the Gaussian 90(TM) system (copyright 1990, Gaussian, Inc.),
 the Gaussian 88(TM) system (copyright 1988, Gaussian, Inc.),
 the Gaussian 86(TM) system (copyright 1986, Carnegie Mellon
 University), and the Gaussian 82(TM) system (copyright 1983,
 Carnegie Mellon University). Gaussian is a federally registered
 trademark of Gaussian, Inc.
  
 This software contains proprietary and confidential information,
 including trade secrets, belonging to Gaussian, Inc.
  
 This software is provided under written license and may be
 used, copied, transmitted, or stored only in accord with that
 written license.
  
 The following legend is applicable only to US Government
 contracts under FAR:
  
                    RESTRICTED RIGHTS LEGEND
  
 Use, reproduction and disclosure by the US Government is
 subject to restrictions as set forth in subparagraphs (a)
 and (c) of the Commercial Computer Software - Restricted
 Rights clause in FAR 52.227-19.
  
 Gaussian, Inc.
 340 Quinnipiac St., Bldg. 40, Wallingford CT 06492
  
  
 ---------------------------------------------------------------
 Warning -- This program may not be used in any manner that
 competes with the business of Gaussian, Inc. or will provide
 assistance to any competitor of Gaussian, Inc.  The licensee
 of this program is prohibited from giving any competitor of
 Gaussian, Inc. access to this program.  By using this program,
 the user acknowledges that Gaussian, Inc. is engaged in the
 business of creating and licensing software in the field of
 computational chemistry and represents and warrants to the
 licensee that it is not a competitor of Gaussian, Inc. and that
 it will not use this program in any manner prohibited above.
 ---------------------------------------------------------------
  

 Cite this work as:
 Gaussian 16, Revision A.03,
 M. J. Frisch, G. W. Trucks, H. B. Schlegel, G. E. Scuseria, 
 M. A. Robb, J. R. Cheeseman, G. Scalmani, V. Barone, 
 G. A. Petersson, H. Nakatsuji, X. Li, M. Caricato, A. V. Marenich, 
 J. Bloino, B. G. Janesko, R. Gomperts, B. Mennucci, H. P. Hratchian, 
 J. V. Ortiz, A. F. Izmaylov, J. L. Sonnenberg, D. Williams-Young, 
 F. Ding, F. Lipparini, F. Egidi, J. Goings, B. Peng, A. Petrone, 
 T. Henderson, D. Ranasinghe, V. G. Zakrzewski, J. Gao, N. Rega, 
 G. Zheng, W. Liang, M. Hada, M. Ehara, K. Toyota, R. Fukuda, 
 J. Hasegawa, M. Ishida, T. Nakajima, Y. Honda, O. Kitao, H. Nakai, 
 T. Vreven, K. Throssell, J. A. Montgomery, Jr., J. E. Peralta, 
 F. Ogliaro, M. J. Bearpark, J. J. Heyd, E. N. Brothers, K. N. Kudin, 
 V. N. Staroverov, T. A. Keith, R. Kobayashi, J. Normand, 
 K. Raghavachari, A. P. Rendell, J. C. Burant, S. S. Iyengar, 
 J. Tomasi, M. Cossi, J. M. Millam, M. Klene, C. Adamo, R. Cammi, 
 J. W. Ochterski, R. L. Martin, K. Morokuma, O. Farkas, 
 J. B. Foresman, and D. J. Fox, Gaussian, Inc., Wallingford CT, 2016.
 
 ******************************************
 Gaussian 16:  ES64L-G16RevA.03 25-Dec-2016
                14-Oct-2019 
 ******************************************
 %chk=4_p.chk
 %nprocshared=24
 Will use up to   24 processors via shared memory.
 %mem=80GB
 --------------------------------------------------------------
 #p opt freq b3lyp/6-31g(d) geom=connectivity temperature=0.001
 --------------------------------------------------------------
 1/18=20,19=15,26=3,38=1,57=2,112=-1000/1,3;
 2/9=110,12=2,17=6,18=5,40=1/2;
 3/5=1,6=6,7=1,11=2,25=1,30=1,71=1,74=-5/1,2,3;
 4//1;
 5/5=2,38=5/2;
 6/7=2,8=2,9=2,10=2,28=1/1;
 7//1,2,3,16;
 1/18=20,19=15,26=3/3(2);
 2/9=110/2;
 99//99;
 2/9=110/2;
 3/5=1,6=6,7=1,11=2,25=1,30=1,71=1,74=-5/1,2,3;
 4/5=5,16=3,69=1/1;
 5/5=2,38=5/2;
 7//1,2,3,16;
 1/18=20,19=15,26=3/3(-5);
 2/9=110/2;
 6/7=2,8=2,9=2,10=2,19=2,28=1/1;
 99/9=1/99;
 Leave Link    1 at Mon Oct 14 11:05:55 2019, MaxMem= 10737418240 cpu:               1.7 elap:               0.1
 (Enter /apps/cent7/gaussian/g16-A.03/g16-haswell/g16/l101.exe)
 -------------------
 Title Card Required
 -------------------
 Symbolic Z-matrix:
 Charge =  1 Multiplicity = 1
 O                     1.3035   -0.0831    0. 
 N                    -0.0047   -0.0133    0. 
 C                    -0.68     -1.1951    0. 
 C                    -2.0841   -1.2155    0. 
 C                    -2.7857   -0.0001    0. 
 C                    -2.0825    1.2242    0. 
 C                    -0.6554    1.1936    0. 
 C                     0.0509    2.4202    0. 
 C                    -0.6339    3.6464    0. 
 C                    -2.0384    3.6678    0. 
 C                    -2.7638    2.4626    0. 
 H                    -0.1005   -2.1183    0. 
 H                    -2.6228   -2.1631    0. 
 H                    -3.8757   -0.0071    0. 
 H                     1.1409    2.4205    0. 
 H                    -0.0749    4.5822    0. 
 H                    -2.5664    4.6214    0. 
 H                    -3.8534    2.4883    0. 
 H                     1.59893  -0.55206   0.78384 
 
 ITRead=  0  0  0  0  0  0  0  0  0  0  0  0  0  0  0  0  0  0  0
 MicOpt= -1 -1 -1 -1 -1 -1 -1 -1 -1 -1 -1 -1 -1 -1 -1 -1 -1 -1 -1
 NAtoms=     19 NQM=       19 NQMF=       0 NMMI=      0 NMMIF=      0
                NMic=       0 NMicF=      0.
                    Isotopes and Nuclear Properties:
 (Nuclear quadrupole moments (NQMom) in fm**2, nuclear magnetic moments (NMagM)
  in nuclear magnetons)

  Atom         1           2           3           4           5           6           7           8           9          10
 IAtWgt=          16          14          12          12          12          12          12          12          12          12
 AtmWgt=  15.9949146  14.0030740  12.0000000  12.0000000  12.0000000  12.0000000  12.0000000  12.0000000  12.0000000  12.0000000
 NucSpn=           0           2           0           0           0           0           0           0           0           0
 AtZEff=  -0.0000000  -0.0000000  -0.0000000  -0.0000000  -0.0000000  -0.0000000  -0.0000000  -0.0000000  -0.0000000  -0.0000000
 NQMom=    0.0000000   2.0440000   0.0000000   0.0000000   0.0000000   0.0000000   0.0000000   0.0000000   0.0000000   0.0000000
 NMagM=    0.0000000   0.4037610   0.0000000   0.0000000   0.0000000   0.0000000   0.0000000   0.0000000   0.0000000   0.0000000
 AtZNuc=   8.0000000   7.0000000   6.0000000   6.0000000   6.0000000   6.0000000   6.0000000   6.0000000   6.0000000   6.0000000

  Atom        11          12          13          14          15          16          17          18          19
 IAtWgt=          12           1           1           1           1           1           1           1           1
 AtmWgt=  12.0000000   1.0078250   1.0078250   1.0078250   1.0078250   1.0078250   1.0078250   1.0078250   1.0078250
 NucSpn=           0           1           1           1           1           1           1           1           1
 AtZEff=  -0.0000000  -0.0000000  -0.0000000  -0.0000000  -0.0000000  -0.0000000  -0.0000000  -0.0000000  -0.0000000
 NQMom=    0.0000000   0.0000000   0.0000000   0.0000000   0.0000000   0.0000000   0.0000000   0.0000000   0.0000000
 NMagM=    0.0000000   2.7928460   2.7928460   2.7928460   2.7928460   2.7928460   2.7928460   2.7928460   2.7928460
 AtZNuc=   6.0000000   1.0000000   1.0000000   1.0000000   1.0000000   1.0000000   1.0000000   1.0000000   1.0000000
 Leave Link  101 at Mon Oct 14 11:05:56 2019, MaxMem= 10737418240 cpu:              12.8 elap:               0.6
 (Enter /apps/cent7/gaussian/g16-A.03/g16-haswell/g16/l103.exe)

 GradGradGradGradGradGradGradGradGradGradGradGradGradGradGradGradGradGrad
 Berny optimization.
 Initialization pass.
                           ----------------------------
                           !    Initial Parameters    !
                           ! (Angstroms and Degrees)  !
 --------------------------                            --------------------------
 ! Name  Definition              Value          Derivative Info.                !
 --------------------------------------------------------------------------------
 ! R1    R(1,2)                  1.3101         estimate D2E/DX2                !
 ! R2    R(1,19)                 0.96           estimate D2E/DX2                !
 ! R3    R(2,3)                  1.3611         estimate D2E/DX2                !
 ! R4    R(2,7)                  1.3711         estimate D2E/DX2                !
 ! R5    R(3,4)                  1.4042         estimate D2E/DX2                !
 ! R6    R(3,12)                 1.09           estimate D2E/DX2                !
 ! R7    R(4,5)                  1.4034         estimate D2E/DX2                !
 ! R8    R(4,13)                 1.09           estimate D2E/DX2                !
 ! R9    R(5,6)                  1.4119         estimate D2E/DX2                !
 ! R10   R(5,14)                 1.09           estimate D2E/DX2                !
 ! R11   R(6,7)                  1.4274         estimate D2E/DX2                !
 ! R12   R(6,11)                 1.4134         estimate D2E/DX2                !
 ! R13   R(7,8)                  1.4154         estimate D2E/DX2                !
 ! R14   R(8,9)                  1.4045         estimate D2E/DX2                !
 ! R15   R(8,15)                 1.09           estimate D2E/DX2                !
 ! R16   R(9,10)                 1.4047         estimate D2E/DX2                !
 ! R17   R(9,16)                 1.09           estimate D2E/DX2                !
 ! R18   R(10,11)                1.4067         estimate D2E/DX2                !
 ! R19   R(10,17)                1.09           estimate D2E/DX2                !
 ! R20   R(11,18)                1.0899         estimate D2E/DX2                !
 ! A1    A(2,1,19)             109.4712         estimate D2E/DX2                !
 ! A2    A(1,2,3)              116.6902         estimate D2E/DX2                !
 ! A3    A(1,2,7)              121.3855         estimate D2E/DX2                !
 ! A4    A(3,2,7)              121.9243         estimate D2E/DX2                !
 ! A5    A(2,3,4)              120.5767         estimate D2E/DX2                !
 ! A6    A(2,3,12)             118.1388         estimate D2E/DX2                !
 ! A7    A(4,3,12)             121.2844         estimate D2E/DX2                !
 ! A8    A(3,4,5)              119.1637         estimate D2E/DX2                !
 ! A9    A(3,4,13)             120.4501         estimate D2E/DX2                !
 ! A10   A(5,4,13)             120.3862         estimate D2E/DX2                !
 ! A11   A(4,5,6)              120.1322         estimate D2E/DX2                !
 ! A12   A(4,5,14)             119.6281         estimate D2E/DX2                !
 ! A13   A(6,5,14)             120.2397         estimate D2E/DX2                !
 ! A14   A(5,6,7)              118.6434         estimate D2E/DX2                !
 ! A15   A(5,6,11)             121.3111         estimate D2E/DX2                !
 ! A16   A(7,6,11)             120.0455         estimate D2E/DX2                !
 ! A17   A(2,7,6)              119.5597         estimate D2E/DX2                !
 ! A18   A(2,7,8)              121.7345         estimate D2E/DX2                !
 ! A19   A(6,7,8)              118.7058         estimate D2E/DX2                !
 ! A20   A(7,8,9)              120.8836         estimate D2E/DX2                !
 ! A21   A(7,8,15)             119.9499         estimate D2E/DX2                !
 ! A22   A(9,8,15)             119.1664         estimate D2E/DX2                !
 ! A23   A(8,9,10)             120.0551         estimate D2E/DX2                !
 ! A24   A(8,9,16)             119.9658         estimate D2E/DX2                !
 ! A25   A(10,9,16)            119.979          estimate D2E/DX2                !
 ! A26   A(9,10,11)            120.1705         estimate D2E/DX2                !
 ! A27   A(9,10,17)            119.8458         estimate D2E/DX2                !
 ! A28   A(11,10,17)           119.9837         estimate D2E/DX2                !
 ! A29   A(6,11,10)            120.1394         estimate D2E/DX2                !
 ! A30   A(6,11,18)            120.1684         estimate D2E/DX2                !
 ! A31   A(10,11,18)           119.6922         estimate D2E/DX2                !
 ! D1    D(19,1,2,3)           -60.0            estimate D2E/DX2                !
 ! D2    D(19,1,2,7)           120.0            estimate D2E/DX2                !
 ! D3    D(1,2,3,4)            180.0            estimate D2E/DX2                !
 ! D4    D(1,2,3,12)             0.0            estimate D2E/DX2                !
 ! D5    D(7,2,3,4)              0.0            estimate D2E/DX2                !
 ! D6    D(7,2,3,12)           180.0            estimate D2E/DX2                !
 ! D7    D(1,2,7,6)            180.0            estimate D2E/DX2                !
 ! D8    D(1,2,7,8)              0.0            estimate D2E/DX2                !
 ! D9    D(3,2,7,6)              0.0            estimate D2E/DX2                !
 ! D10   D(3,2,7,8)            180.0            estimate D2E/DX2                !
 ! D11   D(2,3,4,5)              0.0            estimate D2E/DX2                !
 ! D12   D(2,3,4,13)           180.0            estimate D2E/DX2                !
 ! D13   D(12,3,4,5)           180.0            estimate D2E/DX2                !
 ! D14   D(12,3,4,13)            0.0            estimate D2E/DX2                !
 ! D15   D(3,4,5,6)              0.0            estimate D2E/DX2                !
 ! D16   D(3,4,5,14)           180.0            estimate D2E/DX2                !
 ! D17   D(13,4,5,6)           180.0            estimate D2E/DX2                !
 ! D18   D(13,4,5,14)            0.0            estimate D2E/DX2                !
 ! D19   D(4,5,6,7)              0.0            estimate D2E/DX2                !
 ! D20   D(4,5,6,11)           180.0            estimate D2E/DX2                !
 ! D21   D(14,5,6,7)           180.0            estimate D2E/DX2                !
 ! D22   D(14,5,6,11)            0.0            estimate D2E/DX2                !
 ! D23   D(5,6,7,2)              0.0            estimate D2E/DX2                !
 ! D24   D(5,6,7,8)            180.0            estimate D2E/DX2                !
 ! D25   D(11,6,7,2)           180.0            estimate D2E/DX2                !
 ! D26   D(11,6,7,8)             0.0            estimate D2E/DX2                !
 ! D27   D(5,6,11,10)          180.0            estimate D2E/DX2                !
 ! D28   D(5,6,11,18)            0.0            estimate D2E/DX2                !
 ! D29   D(7,6,11,10)            0.0            estimate D2E/DX2                !
 ! D30   D(7,6,11,18)          180.0            estimate D2E/DX2                !
 ! D31   D(2,7,8,9)            180.0            estimate D2E/DX2                !
 ! D32   D(2,7,8,15)             0.0            estimate D2E/DX2                !
 ! D33   D(6,7,8,9)              0.0            estimate D2E/DX2                !
 ! D34   D(6,7,8,15)           180.0            estimate D2E/DX2                !
 ! D35   D(7,8,9,10)             0.0            estimate D2E/DX2                !
 ! D36   D(7,8,9,16)           180.0            estimate D2E/DX2                !
 ! D37   D(15,8,9,10)          180.0            estimate D2E/DX2                !
 ! D38   D(15,8,9,16)            0.0            estimate D2E/DX2                !
 ! D39   D(8,9,10,11)            0.0            estimate D2E/DX2                !
 ! D40   D(8,9,10,17)          180.0            estimate D2E/DX2                !
 ! D41   D(16,9,10,11)         180.0            estimate D2E/DX2                !
 ! D42   D(16,9,10,17)           0.0            estimate D2E/DX2                !
 ! D43   D(9,10,11,6)            0.0            estimate D2E/DX2                !
 ! D44   D(9,10,11,18)         180.0            estimate D2E/DX2                !
 ! D45   D(17,10,11,6)         180.0            estimate D2E/DX2                !
 ! D46   D(17,10,11,18)          0.0            estimate D2E/DX2                !
 --------------------------------------------------------------------------------
 Trust Radius=3.00D-01 FncErr=1.00D-07 GrdErr=1.00D-06 EigMax=2.50D+02 EigMin=1.00D-04
 Number of steps in this run=    107 maximum allowed number of steps=    114.
 GradGradGradGradGradGradGradGradGradGradGradGradGradGradGradGradGradGrad

 Leave Link  103 at Mon Oct 14 11:05:56 2019, MaxMem= 10737418240 cpu:               0.7 elap:               0.1
 (Enter /apps/cent7/gaussian/g16-A.03/g16-haswell/g16/l202.exe)
                          Input orientation:                          
 ---------------------------------------------------------------------
 Center     Atomic      Atomic             Coordinates (Angstroms)
 Number     Number       Type             X           Y           Z
 ---------------------------------------------------------------------
      1          8           0        1.303500   -0.083100    0.000000
      2          7           0       -0.004700   -0.013300    0.000000
      3          6           0       -0.680000   -1.195100    0.000000
      4          6           0       -2.084100   -1.215500    0.000000
      5          6           0       -2.785700   -0.000100    0.000000
      6          6           0       -2.082500    1.224200    0.000000
      7          6           0       -0.655400    1.193600    0.000000
      8          6           0        0.050900    2.420200    0.000000
      9          6           0       -0.633900    3.646400    0.000000
     10          6           0       -2.038400    3.667800    0.000000
     11          6           0       -2.763800    2.462600    0.000000
     12          1           0       -0.100500   -2.118300    0.000000
     13          1           0       -2.622800   -2.163100    0.000000
     14          1           0       -3.875700   -0.007100    0.000000
     15          1           0        1.140900    2.420500    0.000000
     16          1           0       -0.074900    4.582200    0.000000
     17          1           0       -2.566400    4.621400    0.000000
     18          1           0       -3.853400    2.488300    0.000000
     19          1           0        1.598934   -0.552055    0.783837
 ---------------------------------------------------------------------
                    Distance matrix (angstroms):
                    1          2          3          4          5
     1  O    0.000000
     2  N    1.310061   0.000000
     3  C    2.273943   1.361132   0.000000
     4  C    3.571857   2.401914   1.404248   0.000000
     5  C    4.090042   2.781031   2.421156   1.403367   0.000000
     6  C    3.629605   2.418400   2.796430   2.439701   1.411878
     7  C    2.338216   1.371138   2.388827   2.800883   2.441945
     8  C    2.799199   2.434135   3.688443   4.216223   3.728827
     9  C    4.202700   3.713394   4.841719   5.073574   4.234053
    10  C    5.023698   4.205524   5.049064   4.883514   3.743254
    11  C    4.798283   3.707117   4.209631   3.740376   2.462797
    12  H    2.472500   2.107179   1.090008   2.179385   3.420098
    13  H    4.443223   3.387637   2.170598   1.090020   2.169125
    14  H    5.179758   3.871005   3.409376   2.161032   1.090022
    15  H    2.508875   2.689941   4.048239   4.860156   4.612753
    16  H    4.864670   4.596036   5.808902   6.135977   5.324088
    17  H    6.091670   5.295541   6.114751   5.856792   4.626700
    18  H    5.762440   4.590261   4.861883   4.104699   2.707788
    19  H    0.960000   1.864483   2.494283   3.823519   4.488214
                    6          7          8          9         10
     6  C    0.000000
     7  C    1.427428   0.000000
     8  C    2.445774   1.415418   0.000000
     9  C    2.822321   2.452894   1.404463   0.000000
    10  C    2.443998   2.834494   2.433450   1.404663   0.000000
    11  C    1.413437   2.460836   2.815019   2.436772   1.406667
    12  H    3.885953   3.358064   4.541025   5.789325   6.102000
    13  H    3.430120   3.890771   5.306158   6.140522   5.860112
    14  H    2.175239   3.436861   4.616273   4.884397   4.108596
    15  H    3.438232   2.175311   1.090000   2.157022   3.415217
    16  H    3.912368   3.437963   2.165657   1.090047   2.165978
    17  H    3.431490   3.924504   3.419874   2.164528   1.090017
    18  H    2.175784   3.450138   3.904894   3.421458   2.164589
    19  H    4.162023   2.956980   3.441672   4.819437   5.625991
                   11         12         13         14         15
    11  C    0.000000
    12  H    5.298850   0.000000
    13  H    4.627848   2.522698   0.000000
    14  H    2.708457   4.325425   2.493611   0.000000
    15  H    3.904927   4.705505   5.930837   5.573107   0.000000
    16  H    3.423870   6.700549   7.210469   5.958838   2.480144
    17  H    2.167806   7.176644   6.784734   4.810123   4.311384
    18  H    1.089903   5.941803   4.811434   2.495500   4.994760
    19  H    5.360596   2.440409   4.586164   5.557247   3.108099
                   16         17         18         19
    16  H    0.000000
    17  H    2.491808   0.000000
    18  H    4.319893   2.491282   0.000000
    19  H    5.456803   6.687977   6.291749   0.000000
 Stoichiometry    C9H8NO(1+)
 Framework group  C1[X(C9H8NO)]
 Deg. of freedom    51
 Full point group                 C1      NOp   1
 Largest Abelian subgroup         C1      NOp   1
 Largest concise Abelian subgroup C1      NOp   1
                         Standard orientation:                         
 ---------------------------------------------------------------------
 Center     Atomic      Atomic             Coordinates (Angstroms)
 Number     Number       Type             X           Y           Z
 ---------------------------------------------------------------------
      1          8           0       -1.711855   -1.996748   -0.045842
      2          7           0       -1.310013   -0.749963   -0.028251
      3          6           0       -2.279930    0.204983   -0.023734
      4          6           0       -1.940779    1.567534   -0.005210
      5          6           0       -0.586457    1.935040    0.008638
      6          6           0        0.417417    0.942258    0.003911
      7          6           0        0.023082   -0.429489   -0.015108
      8          6           0        1.028387   -1.425856   -0.019868
      9          6           0        2.388856   -1.077351   -0.006201
     10          6           0        2.768520    0.274900    0.012484
     11          6           0        1.788785    1.284260    0.017577
     12          1           0       -3.320557   -0.119193   -0.034870
     13          1           0       -2.719194    2.330554   -0.001625
     14          1           0       -0.314632    2.990527    0.023051
     15          1           0        0.750084   -2.479630   -0.034306
     16          1           0        3.150675   -1.856979   -0.010100
     17          1           0        3.825373    0.541519    0.023052
     18          1           0        2.092122    2.331000    0.032107
     19          1           0       -2.246226   -2.171737    0.732250
 ---------------------------------------------------------------------
 Rotational constants (GHZ):           1.9919570           1.1221745           0.7190187
 Leave Link  202 at Mon Oct 14 11:05:56 2019, MaxMem= 10737418240 cpu:               0.3 elap:               0.0
 (Enter /apps/cent7/gaussian/g16-A.03/g16-haswell/g16/l301.exe)
 Standard basis: 6-31G(d) (6D, 7F)
 Ernie: Thresh=  0.10000D-02 Tol=  0.10000D-05 Strict=F.
 There are   181 symmetry adapted cartesian basis functions of A   symmetry.
 There are   181 symmetry adapted basis functions of A   symmetry.
   181 basis functions,   340 primitive gaussians,   181 cartesian basis functions
    38 alpha electrons       38 beta electrons
       nuclear repulsion energy       571.3805323435 Hartrees.
 IExCor=  402 DFT=T Ex+Corr=B3LYP ExCW=0 ScaHFX=  0.200000
 ScaDFX=  0.800000  0.720000  1.000000  0.810000 ScalE2=  1.000000  1.000000
 IRadAn=      5 IRanWt=     -1 IRanGd=            0 ICorTp=0 IEmpDi=  4
 NAtoms=   19 NActive=   19 NUniq=   19 SFac= 1.00D+00 NAtFMM=   60 NAOKFM=F Big=F
 Integral buffers will be    131072 words long.
 Raffenetti 2 integral format.
 Two-electron integral symmetry is turned on.
 Leave Link  301 at Mon Oct 14 11:05:56 2019, MaxMem= 10737418240 cpu:               1.4 elap:               0.1
 (Enter /apps/cent7/gaussian/g16-A.03/g16-haswell/g16/l302.exe)
 NPDir=0 NMtPBC=     1 NCelOv=     1 NCel=       1 NClECP=     1 NCelD=      1
         NCelK=      1 NCelE2=     1 NClLst=     1 CellRange=     0.0.
 One-electron integrals computed using PRISM.
 One-electron integral symmetry used in STVInt
 NBasis=   181 RedAO= T EigKep=  3.97D-04  NBF=   181
 NBsUse=   181 1.00D-06 EigRej= -1.00D+00 NBFU=   181
 Precomputing XC quadrature grid using
 IXCGrd= 4 IRadAn=           5 IRanWt=          -1 IRanGd=           0 AccXCQ= 0.00D+00.
 Generated NRdTot=       0 NPtTot=           0 NUsed=           0 NTot=          32
 NSgBfM=   181   181   181   181   181 MxSgAt=    19 MxSgA2=    19.
 Leave Link  302 at Mon Oct 14 11:05:56 2019, MaxMem= 10737418240 cpu:               3.6 elap:               0.2
 (Enter /apps/cent7/gaussian/g16-A.03/g16-haswell/g16/l303.exe)
 DipDrv:  MaxL=1.
 Leave Link  303 at Mon Oct 14 11:05:56 2019, MaxMem= 10737418240 cpu:               0.9 elap:               0.1
 (Enter /apps/cent7/gaussian/g16-A.03/g16-haswell/g16/l401.exe)
 ExpMin= 1.61D-01 ExpMax= 5.48D+03 ExpMxC= 8.25D+02 IAcc=3 IRadAn=         5 AccDes= 0.00D+00
 Harris functional with IExCor=  402 and IRadAn=       5 diagonalized for initial guess.
 HarFok:  IExCor=  402 AccDes= 0.00D+00 IRadAn=         5 IDoV= 1 UseB2=F ITyADJ=14
 ICtDFT=  3500011 ScaDFX=  1.000000  1.000000  1.000000  1.000000
 FoFCou: FMM=F IPFlag=           0 FMFlag=      100000 FMFlg1=           0
         NFxFlg=           0 DoJE=T BraDBF=F KetDBF=T FulRan=T
         wScrn=  0.000000 ICntrl=       500 IOpCl=  0 I1Cent=   200000004 NGrid=           0
         NMat0=    1 NMatS0=      1 NMatT0=    0 NMatD0=    1 NMtDS0=    0 NMtDT0=    0
 Petite list used in FoFCou.
 Harris En= -477.471403106721    
 JPrj=0 DoOrth=F DoCkMO=F.
 Leave Link  401 at Mon Oct 14 11:05:56 2019, MaxMem= 10737418240 cpu:               7.5 elap:               0.4
 (Enter /apps/cent7/gaussian/g16-A.03/g16-haswell/g16/l502.exe)
 Integral symmetry usage will be decided dynamically.
 Closed shell SCF:
 Using DIIS extrapolation, IDIIS=  1040.
 NGot= 10737418240 LenX= 10737346324 LenY= 10737313122
 Requested convergence on RMS density matrix=1.00D-08 within 128 cycles.
 Requested convergence on MAX density matrix=1.00D-06.
 Requested convergence on             energy=1.00D-06.
 No special actions if energy rises.
 Fock matrices will be formed incrementally for  20 cycles.
 Integral accuracy reduced to 1.0D-05 until final iterations.

 Cycle   1  Pass 0  IDiag  1:
 FoFJK:  IHMeth= 1 ICntrl=       0 DoSepK=F KAlg= 0 I1Cent=           0 FoldK=F
 IRaf= 930000000 NMat=       1 IRICut=       1 DoRegI=T DoRafI=F ISym2E= 0 IDoP0=0 IntGTp=1.
 FoFCou: FMM=F IPFlag=           0 FMFlag=      100000 FMFlg1=           0
         NFxFlg=           0 DoJE=F BraDBF=F KetDBF=F FulRan=T
         wScrn=  0.000000 ICntrl=         0 IOpCl=  0 I1Cent=           0 NGrid=           0
         NMat0=    1 NMatS0=      1 NMatT0=    0 NMatD0=    1 NMtDS0=    0 NMtDT0=    0
 Symmetry not used in FoFCou.
 E= -477.215704536081    
 DIIS: error= 3.17D-02 at cycle   1 NSaved=   1.
 NSaved= 1 IEnMin= 1 EnMin= -477.215704536081     IErMin= 1 ErrMin= 3.17D-02
 ErrMax= 3.17D-02  0.00D+00 EMaxC= 1.00D-01 BMatC= 2.37D-01 BMatP= 2.37D-01
 IDIUse=3 WtCom= 6.83D-01 WtEn= 3.17D-01
 Coeff-Com:  0.100D+01
 Coeff-En:   0.100D+01
 Coeff:      0.100D+01
 Gap=     0.182 Goal=   None    Shift=    0.000
 GapD=    0.182 DampG=1.000 DampE=0.500 DampFc=0.5000 IDamp=-1.
 Damping current iteration by 5.00D-01
 RMSDP=7.35D-03 MaxDP=2.64D-01              OVMax= 3.65D-01

 Cycle   2  Pass 0  IDiag  1:
 RMSU=  3.62D-03    CP:  9.75D-01
 E= -477.242514765920     Delta-E=       -0.026810229839 Rises=F Damp=T
 DIIS: error= 2.08D-02 at cycle   2 NSaved=   2.
 NSaved= 2 IEnMin= 2 EnMin= -477.242514765920     IErMin= 2 ErrMin= 2.08D-02
 ErrMax= 2.08D-02  0.00D+00 EMaxC= 1.00D-01 BMatC= 6.42D-02 BMatP= 2.37D-01
 IDIUse=3 WtCom= 7.92D-01 WtEn= 2.08D-01
 Coeff-Com:  0.283D+00 0.717D+00
 Coeff-En:   0.451D+00 0.549D+00
 Coeff:      0.318D+00 0.682D+00
 Gap=     0.153 Goal=   None    Shift=    0.000
 RMSDP=2.65D-03 MaxDP=8.92D-02 DE=-2.68D-02 OVMax= 4.54D-01

 Cycle   3  Pass 0  IDiag  1:
 RMSU=  2.39D-03    CP:  9.56D-01  7.12D-01
 E= -477.433755999473     Delta-E=       -0.191241233553 Rises=F Damp=F
 DIIS: error= 1.23D-02 at cycle   3 NSaved=   3.
 NSaved= 3 IEnMin= 3 EnMin= -477.433755999473     IErMin= 3 ErrMin= 1.23D-02
 ErrMax= 1.23D-02  0.00D+00 EMaxC= 1.00D-01 BMatC= 2.10D-02 BMatP= 6.42D-02
 IDIUse=3 WtCom= 8.77D-01 WtEn= 1.23D-01
 Coeff-Com:  0.737D-01 0.345D+00 0.582D+00
 Coeff-En:   0.000D+00 0.000D+00 0.100D+01
 Coeff:      0.647D-01 0.302D+00 0.633D+00
 Gap=     0.142 Goal=   None    Shift=    0.000
 RMSDP=1.24D-03 MaxDP=3.40D-02 DE=-1.91D-01 OVMax= 8.14D-02

 Cycle   4  Pass 0  IDiag  1:
 RMSU=  9.23D-04    CP:  9.61D-01  8.29D-01  7.06D-01
 E= -477.451377048271     Delta-E=       -0.017621048798 Rises=F Damp=F
 DIIS: error= 6.16D-03 at cycle   4 NSaved=   4.
 NSaved= 4 IEnMin= 4 EnMin= -477.451377048271     IErMin= 4 ErrMin= 6.16D-03
 ErrMax= 6.16D-03  0.00D+00 EMaxC= 1.00D-01 BMatC= 4.61D-03 BMatP= 2.10D-02
 IDIUse=3 WtCom= 9.38D-01 WtEn= 6.16D-02
 Coeff-Com:  0.158D-01 0.579D-01 0.330D+00 0.596D+00
 Coeff-En:   0.000D+00 0.000D+00 0.203D+00 0.797D+00
 Coeff:      0.149D-01 0.543D-01 0.322D+00 0.609D+00
 Gap=     0.144 Goal=   None    Shift=    0.000
 RMSDP=5.36D-04 MaxDP=1.30D-02 DE=-1.76D-02 OVMax= 4.49D-02

 Cycle   5  Pass 0  IDiag  1:
 RMSU=  2.45D-04    CP:  9.61D-01  7.67D-01  8.01D-01  6.16D-01
 E= -477.455995215721     Delta-E=       -0.004618167450 Rises=F Damp=F
 DIIS: error= 1.39D-03 at cycle   5 NSaved=   5.
 NSaved= 5 IEnMin= 5 EnMin= -477.455995215721     IErMin= 5 ErrMin= 1.39D-03
 ErrMax= 1.39D-03  0.00D+00 EMaxC= 1.00D-01 BMatC= 6.37D-04 BMatP= 4.61D-03
 IDIUse=3 WtCom= 9.86D-01 WtEn= 1.39D-02
 Coeff-Com:  0.246D-02 0.722D-02 0.143D+00 0.375D+00 0.472D+00
 Coeff-En:   0.000D+00 0.000D+00 0.000D+00 0.913D-01 0.909D+00
 Coeff:      0.242D-02 0.712D-02 0.141D+00 0.371D+00 0.478D+00
 Gap=     0.145 Goal=   None    Shift=    0.000
 RMSDP=1.72D-04 MaxDP=5.46D-03 DE=-4.62D-03 OVMax= 1.61D-02

 Cycle   6  Pass 0  IDiag  1:
 RMSU=  9.43D-05    CP:  9.61D-01  7.80D-01  7.91D-01  6.61D-01  4.85D-01
 E= -477.456674555699     Delta-E=       -0.000679339979 Rises=F Damp=F
 DIIS: error= 3.29D-04 at cycle   6 NSaved=   6.
 NSaved= 6 IEnMin= 6 EnMin= -477.456674555699     IErMin= 6 ErrMin= 3.29D-04
 ErrMax= 3.29D-04  0.00D+00 EMaxC= 1.00D-01 BMatC= 3.21D-05 BMatP= 6.37D-04
 IDIUse=3 WtCom= 9.97D-01 WtEn= 3.29D-03
 Coeff-Com: -0.316D-05-0.257D-02 0.364D-01 0.125D+00 0.248D+00 0.594D+00
 Coeff-En:   0.000D+00 0.000D+00 0.000D+00 0.000D+00 0.000D+00 0.100D+01
 Coeff:     -0.315D-05-0.256D-02 0.363D-01 0.124D+00 0.247D+00 0.595D+00
 Gap=     0.145 Goal=   None    Shift=    0.000
 RMSDP=4.56D-05 MaxDP=1.34D-03 DE=-6.79D-04 OVMax= 3.79D-03

 Cycle   7  Pass 0  IDiag  1:
 RMSU=  2.38D-05    CP:  9.61D-01  7.79D-01  7.94D-01  6.69D-01  5.69D-01
                    CP:  6.73D-01
 E= -477.456705127593     Delta-E=       -0.000030571893 Rises=F Damp=F
 DIIS: error= 1.80D-04 at cycle   7 NSaved=   7.
 NSaved= 7 IEnMin= 7 EnMin= -477.456705127593     IErMin= 7 ErrMin= 1.80D-04
 ErrMax= 1.80D-04  0.00D+00 EMaxC= 1.00D-01 BMatC= 5.64D-06 BMatP= 3.21D-05
 IDIUse=3 WtCom= 9.98D-01 WtEn= 1.80D-03
 Coeff-Com: -0.869D-04-0.211D-02 0.130D-01 0.527D-01 0.125D+00 0.379D+00
 Coeff-Com:  0.432D+00
 Coeff-En:   0.000D+00 0.000D+00 0.000D+00 0.000D+00 0.000D+00 0.100D+00
 Coeff-En:   0.900D+00
 Coeff:     -0.867D-04-0.211D-02 0.130D-01 0.526D-01 0.125D+00 0.379D+00
 Coeff:      0.433D+00
 Gap=     0.145 Goal=   None    Shift=    0.000
 RMSDP=1.44D-05 MaxDP=4.23D-04 DE=-3.06D-05 OVMax= 1.08D-03

 Cycle   8  Pass 0  IDiag  1:
 RMSU=  7.50D-06    CP:  9.61D-01  7.79D-01  7.94D-01  6.70D-01  5.60D-01
                    CP:  7.13D-01  5.19D-01
 E= -477.456711219593     Delta-E=       -0.000006092001 Rises=F Damp=F
 DIIS: error= 3.63D-05 at cycle   8 NSaved=   8.
 NSaved= 8 IEnMin= 8 EnMin= -477.456711219593     IErMin= 8 ErrMin= 3.63D-05
 ErrMax= 3.63D-05  0.00D+00 EMaxC= 1.00D-01 BMatC= 1.59D-07 BMatP= 5.64D-06
 IDIUse=1 WtCom= 1.00D+00 WtEn= 0.00D+00
 Coeff-Com:  0.404D-04-0.691D-03 0.913D-03 0.634D-02 0.204D-01 0.774D-01
 Coeff-Com:  0.168D+00 0.727D+00
 Coeff:      0.404D-04-0.691D-03 0.913D-03 0.634D-02 0.204D-01 0.774D-01
 Coeff:      0.168D+00 0.727D+00
 Gap=     0.145 Goal=   None    Shift=    0.000
 RMSDP=3.80D-06 MaxDP=1.06D-04 DE=-6.09D-06 OVMax= 3.02D-04

 Initial convergence to 1.0D-05 achieved.  Increase integral accuracy.
 Cycle   9  Pass 1  IDiag  1:
 E= -477.456678258421     Delta-E=        0.000032961173 Rises=F Damp=F
 DIIS: error= 2.25D-05 at cycle   1 NSaved=   1.
 NSaved= 1 IEnMin= 1 EnMin= -477.456678258421     IErMin= 1 ErrMin= 2.25D-05
 ErrMax= 2.25D-05  0.00D+00 EMaxC= 1.00D-01 BMatC= 1.19D-07 BMatP= 1.19D-07
 IDIUse=1 WtCom= 1.00D+00 WtEn= 0.00D+00
 Coeff-Com:  0.100D+01
 Coeff:      0.100D+01
 Gap=     0.145 Goal=   None    Shift=    0.000
 RMSDP=3.80D-06 MaxDP=1.06D-04 DE= 3.30D-05 OVMax= 3.34D-04

 Cycle  10  Pass 1  IDiag  1:
 RMSU=  9.54D-06    CP:  1.00D+00
 E= -477.456678091803     Delta-E=        0.000000166618 Rises=F Damp=F
 DIIS: error= 3.26D-05 at cycle   2 NSaved=   2.
 NSaved= 2 IEnMin= 1 EnMin= -477.456678258421     IErMin= 1 ErrMin= 2.25D-05
 ErrMax= 3.26D-05  0.00D+00 EMaxC= 1.00D-01 BMatC= 2.42D-07 BMatP= 1.19D-07
 IDIUse=1 WtCom= 1.00D+00 WtEn= 0.00D+00
 Coeff-Com:  0.599D+00 0.401D+00
 Coeff:      0.599D+00 0.401D+00
 Gap=     0.145 Goal=   None    Shift=    0.000
 RMSDP=3.47D-06 MaxDP=9.42D-05 DE= 1.67D-07 OVMax= 2.62D-04

 Cycle  11  Pass 1  IDiag  1:
 RMSU=  3.15D-06    CP:  1.00D+00  8.48D-01
 E= -477.456678360652     Delta-E=       -0.000000268849 Rises=F Damp=F
 DIIS: error= 9.05D-06 at cycle   3 NSaved=   3.
 NSaved= 3 IEnMin= 3 EnMin= -477.456678360652     IErMin= 3 ErrMin= 9.05D-06
 ErrMax= 9.05D-06  0.00D+00 EMaxC= 1.00D-01 BMatC= 8.95D-09 BMatP= 1.19D-07
 IDIUse=1 WtCom= 1.00D+00 WtEn= 0.00D+00
 Coeff-Com:  0.662D-01 0.167D+00 0.767D+00
 Coeff:      0.662D-01 0.167D+00 0.767D+00
 Gap=     0.145 Goal=   None    Shift=    0.000
 RMSDP=7.91D-07 MaxDP=2.24D-05 DE=-2.69D-07 OVMax= 6.59D-05

 Cycle  12  Pass 1  IDiag  1:
 RMSU=  5.23D-07    CP:  1.00D+00  8.77D-01  8.33D-01
 E= -477.456678367469     Delta-E=       -0.000000006817 Rises=F Damp=F
 DIIS: error= 5.28D-06 at cycle   4 NSaved=   4.
 NSaved= 4 IEnMin= 4 EnMin= -477.456678367469     IErMin= 4 ErrMin= 5.28D-06
 ErrMax= 5.28D-06  0.00D+00 EMaxC= 1.00D-01 BMatC= 3.77D-09 BMatP= 8.95D-09
 IDIUse=1 WtCom= 1.00D+00 WtEn= 0.00D+00
 Coeff-Com: -0.386D-02 0.798D-01 0.513D+00 0.411D+00
 Coeff:     -0.386D-02 0.798D-01 0.513D+00 0.411D+00
 Gap=     0.145 Goal=   None    Shift=    0.000
 RMSDP=3.49D-07 MaxDP=1.09D-05 DE=-6.82D-09 OVMax= 2.70D-05

 Cycle  13  Pass 1  IDiag  1:
 RMSU=  1.04D-07    CP:  1.00D+00  8.77D-01  8.59D-01  3.85D-01
 E= -477.456678371268     Delta-E=       -0.000000003799 Rises=F Damp=F
 DIIS: error= 6.14D-07 at cycle   5 NSaved=   5.
 NSaved= 5 IEnMin= 5 EnMin= -477.456678371268     IErMin= 5 ErrMin= 6.14D-07
 ErrMax= 6.14D-07  0.00D+00 EMaxC= 1.00D-01 BMatC= 7.34D-11 BMatP= 3.77D-09
 IDIUse=1 WtCom= 1.00D+00 WtEn= 0.00D+00
 Coeff-Com: -0.377D-02 0.440D-01 0.291D+00 0.248D+00 0.421D+00
 Coeff:     -0.377D-02 0.440D-01 0.291D+00 0.248D+00 0.421D+00
 Gap=     0.145 Goal=   None    Shift=    0.000
 RMSDP=6.03D-08 MaxDP=2.23D-06 DE=-3.80D-09 OVMax= 6.35D-06

 Cycle  14  Pass 1  IDiag  1:
 RMSU=  4.09D-08    CP:  1.00D+00  8.77D-01  8.60D-01  4.24D-01  6.24D-01
 E= -477.456678371348     Delta-E=       -0.000000000080 Rises=F Damp=F
 DIIS: error= 1.94D-07 at cycle   6 NSaved=   6.
 NSaved= 6 IEnMin= 6 EnMin= -477.456678371348     IErMin= 6 ErrMin= 1.94D-07
 ErrMax= 1.94D-07  0.00D+00 EMaxC= 1.00D-01 BMatC= 4.94D-12 BMatP= 7.34D-11
 IDIUse=1 WtCom= 1.00D+00 WtEn= 0.00D+00
 Coeff-Com: -0.126D-02 0.106D-01 0.735D-01 0.657D-01 0.225D+00 0.626D+00
 Coeff:     -0.126D-02 0.106D-01 0.735D-01 0.657D-01 0.225D+00 0.626D+00
 Gap=     0.145 Goal=   None    Shift=    0.000
 RMSDP=1.93D-08 MaxDP=3.96D-07 DE=-8.00D-11 OVMax= 1.65D-06

 Cycle  15  Pass 1  IDiag  1:
 RMSU=  1.27D-08    CP:  1.00D+00  8.77D-01  8.60D-01  4.20D-01  6.82D-01
                    CP:  6.82D-01
 E= -477.456678371351     Delta-E=       -0.000000000003 Rises=F Damp=F
 DIIS: error= 8.22D-08 at cycle   7 NSaved=   7.
 NSaved= 7 IEnMin= 7 EnMin= -477.456678371351     IErMin= 7 ErrMin= 8.22D-08
 ErrMax= 8.22D-08  0.00D+00 EMaxC= 1.00D-01 BMatC= 9.75D-13 BMatP= 4.94D-12
 IDIUse=1 WtCom= 1.00D+00 WtEn= 0.00D+00
 Coeff-Com: -0.406D-03 0.200D-02 0.157D-01 0.153D-01 0.900D-01 0.382D+00
 Coeff-Com:  0.495D+00
 Coeff:     -0.406D-03 0.200D-02 0.157D-01 0.153D-01 0.900D-01 0.382D+00
 Coeff:      0.495D+00
 Gap=     0.145 Goal=   None    Shift=    0.000
 RMSDP=6.23D-09 MaxDP=2.00D-07 DE=-3.18D-12 OVMax= 3.79D-07

 SCF Done:  E(RB3LYP) =  -477.456678371     A.U. after   15 cycles
            NFock= 15  Conv=0.62D-08     -V/T= 2.0098
 KE= 4.728449282012D+02 PE=-2.237775203906D+03 EE= 7.160930649899D+02
 Leave Link  502 at Mon Oct 14 11:06:00 2019, MaxMem= 10737418240 cpu:              88.5 elap:               3.7
 (Enter /apps/cent7/gaussian/g16-A.03/g16-haswell/g16/l601.exe)
 Copying SCF densities to generalized density rwf, IOpCl= 0 IROHF=0.

 **********************************************************************

            Population analysis using the SCF density.

 **********************************************************************

 Orbital symmetries:
       Occupied  (A) (A) (A) (A) (A) (A) (A) (A) (A) (A) (A) (A)
                 (A) (A) (A) (A) (A) (A) (A) (A) (A) (A) (A) (A)
                 (A) (A) (A) (A) (A) (A) (A) (A) (A) (A) (A) (A)
                 (A) (A)
       Virtual   (A) (A) (A) (A) (A) (A) (A) (A) (A) (A) (A) (A)
                 (A) (A) (A) (A) (A) (A) (A) (A) (A) (A) (A) (A)
                 (A) (A) (A) (A) (A) (A) (A) (A) (A) (A) (A) (A)
                 (A) (A) (A) (A) (A) (A) (A) (A) (A) (A) (A) (A)
                 (A) (A) (A) (A) (A) (A) (A) (A) (A) (A) (A) (A)
                 (A) (A) (A) (A) (A) (A) (A) (A) (A) (A) (A) (A)
                 (A) (A) (A) (A) (A) (A) (A) (A) (A) (A) (A) (A)
                 (A) (A) (A) (A) (A) (A) (A) (A) (A) (A) (A) (A)
                 (A) (A) (A) (A) (A) (A) (A) (A) (A) (A) (A) (A)
                 (A) (A) (A) (A) (A) (A) (A) (A) (A) (A) (A) (A)
                 (A) (A) (A) (A) (A) (A) (A) (A) (A) (A) (A) (A)
                 (A) (A) (A) (A) (A) (A) (A) (A) (A) (A) (A)
 The electronic state is 1-A.
 Alpha  occ. eigenvalues --  -19.39946 -14.66605 -10.43972 -10.42846 -10.39673
 Alpha  occ. eigenvalues --  -10.38936 -10.38666 -10.36477 -10.36427 -10.36401
 Alpha  occ. eigenvalues --  -10.35735  -1.35523  -1.12557  -1.02368  -0.99274
 Alpha  occ. eigenvalues --   -0.94392  -0.91070  -0.85387  -0.82522  -0.81147
 Alpha  occ. eigenvalues --   -0.75403  -0.72065  -0.69875  -0.69067  -0.66815
 Alpha  occ. eigenvalues --   -0.63325  -0.61530  -0.60078  -0.58508  -0.57983
 Alpha  occ. eigenvalues --   -0.56532  -0.53544  -0.52207  -0.51366  -0.50598
 Alpha  occ. eigenvalues --   -0.47800  -0.43047  -0.39977
 Alpha virt. eigenvalues --   -0.25437  -0.19350  -0.15879  -0.10930  -0.08681
 Alpha virt. eigenvalues --   -0.07292  -0.04389  -0.03169  -0.00167   0.01156
 Alpha virt. eigenvalues --    0.01194   0.02179   0.03473   0.05049   0.06239
 Alpha virt. eigenvalues --    0.08408   0.10766   0.12646   0.14314   0.17479
 Alpha virt. eigenvalues --    0.18261   0.24463   0.26444   0.31316   0.32050
 Alpha virt. eigenvalues --    0.32946   0.34828   0.37420   0.37936   0.39526
 Alpha virt. eigenvalues --    0.40594   0.41000   0.42356   0.43505   0.44209
 Alpha virt. eigenvalues --    0.44610   0.45547   0.45653   0.45818   0.46882
 Alpha virt. eigenvalues --    0.50127   0.51533   0.54205   0.60204   0.61102
 Alpha virt. eigenvalues --    0.61578   0.65264   0.65887   0.68632   0.69045
 Alpha virt. eigenvalues --    0.69764   0.70208   0.73377   0.74389   0.74665
 Alpha virt. eigenvalues --    0.75704   0.77751   0.80053   0.83045   0.84400
 Alpha virt. eigenvalues --    0.85515   0.88735   0.89203   0.94408   0.95596
 Alpha virt. eigenvalues --    0.98397   1.01284   1.02418   1.06496   1.07421
 Alpha virt. eigenvalues --    1.09835   1.13420   1.18543   1.22224   1.24977
 Alpha virt. eigenvalues --    1.26139   1.28135   1.29057   1.29445   1.30021
 Alpha virt. eigenvalues --    1.31275   1.33122   1.37644   1.40646   1.47348
 Alpha virt. eigenvalues --    1.57863   1.59957   1.61592   1.64048   1.65334
 Alpha virt. eigenvalues --    1.71861   1.73315   1.74986   1.75679   1.76130
 Alpha virt. eigenvalues --    1.78065   1.80250   1.83605   1.87147   1.88555
 Alpha virt. eigenvalues --    1.91948   1.94950   1.97433   1.99967   2.01617
 Alpha virt. eigenvalues --    2.02405   2.06371   2.09447   2.10643   2.12025
 Alpha virt. eigenvalues --    2.16266   2.16420   2.22643   2.26263   2.35358
 Alpha virt. eigenvalues --    2.39974   2.41893   2.43899   2.45175   2.45850
 Alpha virt. eigenvalues --    2.50350   2.52728   2.54501   2.58145   2.63233
 Alpha virt. eigenvalues --    2.64852   2.72621   2.76410   2.79471   2.96634
 Alpha virt. eigenvalues --    3.19633   3.27355   3.60676   3.87547   3.90979
 Alpha virt. eigenvalues --    3.92785   3.95157   4.03897   4.04499   4.17784
 Alpha virt. eigenvalues --    4.22209   4.32625   4.60033
          Condensed to atoms (all electrons):
               1          2          3          4          5          6
     1  O    8.134606   0.150138  -0.043978   0.005439   0.000100   0.003152
     2  N    0.150138   6.678102   0.381283  -0.004875  -0.054066  -0.012247
     3  C   -0.043978   0.381283   4.862554   0.476040  -0.027366  -0.035990
     4  C    0.005439  -0.004875   0.476040   4.945841   0.472272   0.010327
     5  C    0.000100  -0.054066  -0.027366   0.472272   5.032912   0.439828
     6  C    0.003152  -0.012247  -0.035990   0.010327   0.439828   4.715016
     7  C   -0.042697   0.252369  -0.052794  -0.029374  -0.048930   0.453313
     8  C    0.002164  -0.084086   0.006403  -0.001506   0.012793  -0.043925
     9  C    0.000336   0.004616  -0.000065   0.000051  -0.000519  -0.032593
    10  C    0.000006  -0.000659   0.000065  -0.000402   0.007834  -0.004595
    11  C   -0.000070   0.008811  -0.000297   0.007836  -0.076333   0.470945
    12  H    0.000219  -0.040012   0.359885  -0.021373   0.002785   0.000602
    13  H   -0.000061   0.002400  -0.027716   0.363199  -0.023190   0.001908
    14  H    0.000003  -0.000002   0.004460  -0.036819   0.363295  -0.035975
    15  H    0.010275  -0.011532   0.000071  -0.000019  -0.000130   0.004551
    16  H   -0.000003  -0.000072   0.000002  -0.000000   0.000003   0.000626
    17  H    0.000000   0.000004  -0.000000   0.000002  -0.000149   0.002643
    18  H    0.000000  -0.000048  -0.000017   0.000341  -0.006704  -0.042523
    19  H    0.244428  -0.030525  -0.002624   0.000233   0.000010  -0.000047
               7          8          9         10         11         12
     1  O   -0.042697   0.002164   0.000336   0.000006  -0.000070   0.000219
     2  N    0.252369  -0.084086   0.004616  -0.000659   0.008811  -0.040012
     3  C   -0.052794   0.006403  -0.000065   0.000065  -0.000297   0.359885
     4  C   -0.029374  -0.001506   0.000051  -0.000402   0.007836  -0.021373
     5  C   -0.048930   0.012793  -0.000519   0.007834  -0.076333   0.002785
     6  C    0.453313  -0.043925  -0.032593  -0.004595   0.470945   0.000602
     7  C    4.714333   0.454902  -0.005945  -0.042427  -0.015985   0.001878
     8  C    0.454902   5.032470   0.525412  -0.023040  -0.058312  -0.000182
     9  C   -0.005945   0.525412   4.839245   0.497622  -0.024331   0.000002
    10  C   -0.042427  -0.023040   0.497622   4.877664   0.504421  -0.000000
    11  C   -0.015985  -0.058312  -0.024331   0.504421   5.031708   0.000007
    12  H    0.001878  -0.000182   0.000002  -0.000000   0.000007   0.449362
    13  H    0.000813   0.000015  -0.000000   0.000002  -0.000167  -0.002448
    14  H    0.003955  -0.000116   0.000005   0.000244  -0.005548  -0.000108
    15  H   -0.033415   0.357533  -0.032010   0.003926   0.000330  -0.000001
    16  H    0.002875  -0.032405   0.365284  -0.034265   0.003849  -0.000000
    17  H    0.000803   0.003778  -0.034745   0.363383  -0.030464   0.000000
    18  H    0.003628   0.000274   0.003986  -0.033271   0.367395   0.000000
    19  H    0.002245  -0.000201  -0.000001  -0.000000   0.000005   0.001483
              13         14         15         16         17         18
     1  O   -0.000061   0.000003   0.010275  -0.000003   0.000000   0.000000
     2  N    0.002400  -0.000002  -0.011532  -0.000072   0.000004  -0.000048
     3  C   -0.027716   0.004460   0.000071   0.000002  -0.000000  -0.000017
     4  C    0.363199  -0.036819  -0.000019  -0.000000   0.000002   0.000341
     5  C   -0.023190   0.363295  -0.000130   0.000003  -0.000149  -0.006704
     6  C    0.001908  -0.035975   0.004551   0.000626   0.002643  -0.042523
     7  C    0.000813   0.003955  -0.033415   0.002875   0.000803   0.003628
     8  C    0.000015  -0.000116   0.357533  -0.032405   0.003778   0.000274
     9  C   -0.000000   0.000005  -0.032010   0.365284  -0.034745   0.003986
    10  C    0.000002   0.000244   0.003926  -0.034265   0.363383  -0.033271
    11  C   -0.000167  -0.005548   0.000330   0.003849  -0.030464   0.367395
    12  H   -0.002448  -0.000108  -0.000001  -0.000000   0.000000   0.000000
    13  H    0.466248  -0.003352   0.000000   0.000000  -0.000000  -0.000004
    14  H   -0.003352   0.488868   0.000001  -0.000000  -0.000007   0.003881
    15  H    0.000000   0.000001   0.501840  -0.004077  -0.000128   0.000010
    16  H    0.000000  -0.000000  -0.004077   0.496769  -0.003795  -0.000131
    17  H   -0.000000  -0.000007  -0.000128  -0.003795   0.502360  -0.003758
    18  H   -0.000004   0.003881   0.000010  -0.000131  -0.003758   0.509563
    19  H   -0.000001  -0.000001  -0.000305   0.000000   0.000000  -0.000000
              19
     1  O    0.244428
     2  N   -0.030525
     3  C   -0.002624
     4  C    0.000233
     5  C    0.000010
     6  C   -0.000047
     7  C    0.002245
     8  C   -0.000201
     9  C   -0.000001
    10  C   -0.000000
    11  C    0.000005
    12  H    0.001483
    13  H   -0.000001
    14  H   -0.000001
    15  H   -0.000305
    16  H    0.000000
    17  H    0.000000
    18  H   -0.000000
    19  H    0.320217
 Mulliken charges:
               1
     1  O   -0.464059
     2  N   -0.239599
     3  C    0.100083
     4  C   -0.187214
     5  C   -0.094446
     6  C    0.104984
     7  C    0.380451
     8  C   -0.151971
     9  C   -0.106349
    10  C   -0.116507
    11  C   -0.183803
    12  H    0.247902
    13  H    0.222354
    14  H    0.217217
    15  H    0.203080
    16  H    0.205341
    17  H    0.200074
    18  H    0.197378
    19  H    0.465084
 Sum of Mulliken charges =   1.00000
 Mulliken charges with hydrogens summed into heavy atoms:
               1
     1  O    0.001025
     2  N   -0.239599
     3  C    0.347985
     4  C    0.035140
     5  C    0.122771
     6  C    0.104984
     7  C    0.380451
     8  C    0.051109
     9  C    0.098992
    10  C    0.083566
    11  C    0.013575
 Electronic spatial extent (au):  <R**2>=           1510.6103
 Charge=              1.0000 electrons
 Dipole moment (field-independent basis, Debye):
    X=             -2.4849    Y=              0.5625    Z=              1.4159  Tot=              2.9148
 Quadrupole moment (field-independent basis, Debye-Ang):
   XX=            -27.8584   YY=            -41.8082   ZZ=            -62.7923
   XY=              0.6858   XZ=             -3.4452   YZ=             -3.3382
 Traceless Quadrupole moment (field-independent basis, Debye-Ang):
   XX=             16.2946   YY=              2.3448   ZZ=            -18.6393
   XY=              0.6858   XZ=             -3.4452   YZ=             -3.3382
 Octapole moment (field-independent basis, Debye-Ang**2):
  XXX=            -19.5619  YYY=              2.5810  ZZZ=              1.5126  XYY=            -10.3736
  XXY=            -10.3875  XXZ=              8.3639  XZZ=             -8.9436  YZZ=             -7.6431
  YYZ=              8.1255  XYZ=              8.5318
 Hexadecapole moment (field-independent basis, Debye-Ang**3):
 XXXX=           -867.6442 YYYY=           -561.1820 ZZZZ=            -62.3225 XXXY=             20.7631
 XXXZ=            -18.8660 YYYX=             14.0870 YYYZ=            -17.9441 ZZZX=             -3.8995
 ZZZY=             -3.7763 XXYY=           -227.9568 XXZZ=           -220.8257 YYZZ=           -127.8223
 XXYZ=            -19.1658 YYXZ=            -18.8828 ZZXY=             14.8828
 N-N= 5.713805323435D+02 E-N=-2.237775213398D+03  KE= 4.728449282012D+02
 No NMR shielding tensors so no spin-rotation constants.
 Leave Link  601 at Mon Oct 14 11:06:00 2019, MaxMem= 10737418240 cpu:               2.2 elap:               0.1
 (Enter /apps/cent7/gaussian/g16-A.03/g16-haswell/g16/l701.exe)
 ... and contract with generalized density number  0.
 Compute integral first derivatives.
 Leave Link  701 at Mon Oct 14 11:06:01 2019, MaxMem= 10737418240 cpu:               2.6 elap:               0.1
 (Enter /apps/cent7/gaussian/g16-A.03/g16-haswell/g16/l702.exe)
 L702 exits ... SP integral derivatives will be done elsewhere.
 Leave Link  702 at Mon Oct 14 11:06:01 2019, MaxMem= 10737418240 cpu:               1.1 elap:               0.1
 (Enter /apps/cent7/gaussian/g16-A.03/g16-haswell/g16/l703.exe)
 Integral derivatives from FoFJK, PRISM(SPDF).
 Compute integral first derivatives, UseDBF=F ICtDFT=           0.
 Calling FoFJK, ICntrl=      2127 FMM=F ISym2X=0 I1Cent= 0 IOpClX= 0 NMat=1 NMatS=1 NMatT=0.
 FoFJK:  IHMeth= 1 ICntrl=    2127 DoSepK=F KAlg= 0 I1Cent=           0 FoldK=F
 IRaf=         0 NMat=       1 IRICut=       1 DoRegI=T DoRafI=F ISym2E= 0 IDoP0=0 IntGTp=1.
 FoFCou: FMM=F IPFlag=           0 FMFlag=      100000 FMFlg1=         800
         NFxFlg=           0 DoJE=F BraDBF=F KetDBF=F FulRan=T
         wScrn=  0.000000 ICntrl=      2127 IOpCl=  0 I1Cent=           0 NGrid=           0
         NMat0=    1 NMatS0=      1 NMatT0=    0 NMatD0=    1 NMtDS0=    0 NMtDT0=    0
 Symmetry not used in FoFCou.
 Leave Link  703 at Mon Oct 14 11:06:02 2019, MaxMem= 10737418240 cpu:              23.4 elap:               1.0
 (Enter /apps/cent7/gaussian/g16-A.03/g16-haswell/g16/l716.exe)
 Dipole        =-9.77642944D-01 2.21303437D-01 5.57061073D-01
 ***** Axes restored to original set *****
 -------------------------------------------------------------------
 Center     Atomic                   Forces (Hartrees/Bohr)
 Number     Number              X              Y              Z
 -------------------------------------------------------------------
      1        8           0.055840098    0.017413292   -0.018480526
      2        7          -0.068743833   -0.036853608    0.007552119
      3        6          -0.014189447    0.005217952   -0.002033929
      4        6          -0.001359772    0.012423030    0.000442928
      5        6           0.007326666   -0.014817078   -0.000056119
      6        6          -0.011248710   -0.011902338   -0.001433807
      7        6           0.009794136    0.032544649   -0.000160626
      8        6           0.006054773    0.010929597    0.000430129
      9        6           0.008978620   -0.019711054    0.000024345
     10        6          -0.018694913   -0.015512836   -0.000002907
     11        6           0.012018041    0.027504887    0.000131435
     12        1           0.002448046    0.006791840   -0.001003531
     13        1           0.005115784    0.002505410    0.000049264
     14        1           0.002989286    0.001007217    0.000032031
     15        1          -0.004273336   -0.001836351   -0.000247444
     16        1          -0.000436112   -0.004081231   -0.000013324
     17        1           0.000888068   -0.003418337   -0.000032669
     18        1           0.003514556   -0.002519225   -0.000105642
     19        1           0.003978050   -0.005685816    0.014908273
 -------------------------------------------------------------------
 Cartesian Forces:  Max     0.068743833 RMS     0.015973500
 Leave Link  716 at Mon Oct 14 11:06:02 2019, MaxMem= 10737418240 cpu:               0.5 elap:               0.0
 (Enter /apps/cent7/gaussian/g16-A.03/g16-haswell/g16/l103.exe)

 GradGradGradGradGradGradGradGradGradGradGradGradGradGradGradGradGradGrad
 Berny optimization.
 FormGI is forming the generalized inverse of G from B-inverse, IUseBI=4.
 Internal  Forces:  Max     0.059108444 RMS     0.008376654
 Search for a local minimum.
 Step number   1 out of a maximum of  107
 All quantities printed in internal units (Hartrees-Bohrs-Radians)
 RMS Force = .83767D-02 SwitMx=.10000D-02 MixMth= 1
 Mixed Optimization -- RFO/linear search
 Second derivative matrix not updated -- first step.
 ITU=  0
     Eigenvalues ---    0.01852   0.01885   0.01909   0.01952   0.01955
     Eigenvalues ---    0.01956   0.01985   0.02012   0.02014   0.02021
     Eigenvalues ---    0.02028   0.02038   0.02107   0.02138   0.02187
     Eigenvalues ---    0.02485   0.16000   0.16000   0.16000   0.16000
     Eigenvalues ---    0.16000   0.16000   0.16000   0.16000   0.22000
     Eigenvalues ---    0.22085   0.22574   0.23536   0.24500   0.24931
     Eigenvalues ---    0.25000   0.34807   0.34810   0.34810   0.34811
     Eigenvalues ---    0.34812   0.34813   0.34824   0.37157   0.40077
     Eigenvalues ---    0.41744   0.42349   0.43424   0.43902   0.44179
     Eigenvalues ---    0.44667   0.44783   0.49420   0.51600   0.55473
     Eigenvalues ---    0.64475
 RFO step:  Lambda=-1.53472519D-02 EMin= 1.85232673D-02
 Linear search not attempted -- first point.
 Iteration  1 RMS(Cart)=  0.03810963 RMS(Int)=  0.00099984
 Iteration  2 RMS(Cart)=  0.00162248 RMS(Int)=  0.00038758
 Iteration  3 RMS(Cart)=  0.00000292 RMS(Int)=  0.00038757
 Iteration  4 RMS(Cart)=  0.00000000 RMS(Int)=  0.00038757
 ITry= 1 IFail=0 DXMaxC= 2.24D-01 DCOld= 1.00D+10 DXMaxT= 3.00D-01 DXLimC= 3.00D+00 Rises=F
 Variable       Old X    -DE/DX   Delta X   Delta X   Delta X     New X
                                 (Linear)    (Quad)   (Total)
    R1        2.47566   0.05911   0.00000   0.08955   0.08955   2.56520
    R2        1.81414   0.01617   0.00000   0.02837   0.02837   1.84251
    R3        2.57217  -0.01297   0.00000  -0.02471  -0.02466   2.54751
    R4        2.59107   0.00407   0.00000   0.00885   0.00893   2.60000
    R5        2.65364  -0.01111   0.00000  -0.02612  -0.02616   2.62749
    R6        2.05982  -0.00445   0.00000  -0.01225  -0.01225   2.04757
    R7        2.65198  -0.01372   0.00000  -0.03067  -0.03075   2.62123
    R8        2.05984  -0.00471   0.00000  -0.01295  -0.01295   2.04689
    R9        2.66806   0.00040   0.00000   0.00187   0.00183   2.66989
   R10        2.05984  -0.00300   0.00000  -0.00824  -0.00824   2.05160
   R11        2.69745   0.00254   0.00000   0.00978   0.00982   2.70727
   R12        2.67101   0.00077   0.00000   0.00240   0.00240   2.67341
   R13        2.67475  -0.00959   0.00000  -0.02076  -0.02075   2.65400
   R14        2.65405  -0.01927   0.00000  -0.04218  -0.04218   2.61187
   R15        2.05980  -0.00427   0.00000  -0.01176  -0.01176   2.04804
   R16        2.65443   0.00779   0.00000   0.01543   0.01542   2.66985
   R17        2.05989  -0.00373   0.00000  -0.01026  -0.01026   2.04963
   R18        2.65822  -0.02325   0.00000  -0.05117  -0.05118   2.60704
   R19        2.05983  -0.00342   0.00000  -0.00941  -0.00941   2.05042
   R20        2.05962  -0.00357   0.00000  -0.00983  -0.00983   2.04979
    A1        1.91063  -0.00215   0.00000  -0.01224  -0.01224   1.89839
    A2        2.03663   0.01642   0.00000   0.06132   0.06076   2.09738
    A3        2.11858  -0.02082   0.00000  -0.07900  -0.07937   2.03921
    A4        2.12798   0.00440   0.00000   0.01768   0.01747   2.14545
    A5        2.10446   0.00212   0.00000   0.00354   0.00359   2.10805
    A6        2.06191  -0.00692   0.00000  -0.03516  -0.03519   2.02672
    A7        2.11681   0.00479   0.00000   0.03162   0.03157   2.14838
    A8        2.07980   0.00159   0.00000   0.00059   0.00048   2.08027
    A9        2.10225  -0.00410   0.00000  -0.01914  -0.01911   2.08314
   A10        2.10114   0.00251   0.00000   0.01856   0.01858   2.11971
   A11        2.09670   0.00099   0.00000   0.00440   0.00430   2.10100
   A12        2.08790   0.00052   0.00000   0.00361   0.00364   2.09155
   A13        2.09858  -0.00151   0.00000  -0.00800  -0.00796   2.09062
   A14        2.07072   0.00029   0.00000   0.00497   0.00498   2.07570
   A15        2.11728   0.00765   0.00000   0.02319   0.02316   2.14044
   A16        2.09519  -0.00794   0.00000  -0.02815  -0.02815   2.06704
   A17        2.08671  -0.00939   0.00000  -0.03117  -0.03103   2.05568
   A18        2.12467  -0.00065   0.00000  -0.00832  -0.00843   2.11624
   A19        2.07181   0.01004   0.00000   0.03949   0.03944   2.11125
   A20        2.10982  -0.00926   0.00000  -0.03785  -0.03782   2.07200
   A21        2.09352   0.00274   0.00000   0.00815   0.00813   2.10165
   A22        2.07985   0.00652   0.00000   0.02970   0.02969   2.10953
   A23        2.09536   0.00576   0.00000   0.02181   0.02183   2.11718
   A24        2.09380  -0.00465   0.00000  -0.02100  -0.02101   2.07279
   A25        2.09403  -0.00111   0.00000  -0.00081  -0.00082   2.09321
   A26        2.09737   0.00157   0.00000   0.00399   0.00399   2.10136
   A27        2.09170   0.00012   0.00000   0.00316   0.00316   2.09487
   A28        2.09411  -0.00169   0.00000  -0.00716  -0.00716   2.08695
   A29        2.09683  -0.00016   0.00000   0.00070   0.00070   2.09753
   A30        2.09733  -0.00243   0.00000  -0.01465  -0.01466   2.08268
   A31        2.08902   0.00259   0.00000   0.01395   0.01395   2.10298
    D1       -1.04720  -0.00327   0.00000  -0.08317  -0.08280  -1.13000
    D2        2.09440  -0.00139   0.00000  -0.03260  -0.03296   2.06143
    D3        3.14159   0.00105   0.00000   0.02823   0.03004  -3.11155
    D4       -0.00000   0.00076   0.00000   0.02006   0.02177   0.02177
    D5        0.00000  -0.00084   0.00000  -0.02264  -0.02295  -0.02295
    D6        3.14159  -0.00114   0.00000  -0.03080  -0.03122   3.11037
    D7        3.14159  -0.00153   0.00000  -0.04178  -0.03998   3.10161
    D8        0.00000  -0.00132   0.00000  -0.03538  -0.03388  -0.03388
    D9       -0.00000   0.00045   0.00000   0.01145   0.01135   0.01135
   D10        3.14159   0.00066   0.00000   0.01785   0.01746  -3.12413
   D11        0.00000   0.00061   0.00000   0.01669   0.01695   0.01695
   D12        3.14159   0.00019   0.00000   0.00507   0.00514  -3.13645
   D13        3.14159   0.00091   0.00000   0.02512   0.02582  -3.11578
   D14        0.00000   0.00049   0.00000   0.01350   0.01400   0.01400
   D15       -0.00000  -0.00000   0.00000  -0.00016  -0.00032  -0.00032
   D16        3.14159  -0.00025   0.00000  -0.00698  -0.00718   3.13441
   D17        3.14159   0.00042   0.00000   0.01145   0.01175  -3.12985
   D18        0.00000   0.00017   0.00000   0.00463   0.00489   0.00489
   D19       -0.00000  -0.00037   0.00000  -0.01048  -0.01057  -0.01057
   D20        3.14159  -0.00027   0.00000  -0.00733  -0.00715   3.13444
   D21        3.14159  -0.00012   0.00000  -0.00361  -0.00371   3.13788
   D22       -0.00000  -0.00002   0.00000  -0.00047  -0.00030  -0.00030
   D23        0.00000   0.00016   0.00000   0.00517   0.00537   0.00537
   D24        3.14159  -0.00004   0.00000  -0.00105  -0.00071   3.14088
   D25        3.14159   0.00006   0.00000   0.00206   0.00210  -3.13949
   D26       -0.00000  -0.00015   0.00000  -0.00415  -0.00398  -0.00398
   D27        3.14159  -0.00001   0.00000  -0.00049  -0.00083   3.14076
   D28       -0.00000  -0.00010   0.00000  -0.00290  -0.00312  -0.00312
   D29        0.00000   0.00009   0.00000   0.00270   0.00257   0.00257
   D30        3.14159   0.00001   0.00000   0.00029   0.00028  -3.14132
   D31        3.14159  -0.00010   0.00000  -0.00316  -0.00326   3.13833
   D32        0.00000   0.00001   0.00000  -0.00002  -0.00004  -0.00004
   D33       -0.00000   0.00011   0.00000   0.00319   0.00304   0.00304
   D34        3.14159   0.00022   0.00000   0.00634   0.00626  -3.13533
   D35        0.00000  -0.00003   0.00000  -0.00074  -0.00067  -0.00067
   D36        3.14159   0.00002   0.00000   0.00059   0.00066  -3.14093
   D37        3.14159  -0.00013   0.00000  -0.00386  -0.00391   3.13768
   D38       -0.00000  -0.00009   0.00000  -0.00253  -0.00258  -0.00258
   D39       -0.00000  -0.00003   0.00000  -0.00079  -0.00072  -0.00072
   D40        3.14159   0.00003   0.00000   0.00084   0.00083  -3.14077
   D41        3.14159  -0.00007   0.00000  -0.00212  -0.00206   3.13953
   D42        0.00000  -0.00002   0.00000  -0.00049  -0.00052  -0.00052
   D43       -0.00000  -0.00001   0.00000  -0.00020  -0.00028  -0.00028
   D44        3.14159   0.00008   0.00000   0.00220   0.00203  -3.13956
   D45        3.14159  -0.00006   0.00000  -0.00184  -0.00182   3.13977
   D46        0.00000   0.00002   0.00000   0.00056   0.00050   0.00050
         Item               Value     Threshold  Converged?
 Maximum Force            0.059108     0.000450     NO 
 RMS     Force            0.008377     0.000300     NO 
 Maximum Displacement     0.223994     0.001800     NO 
 RMS     Displacement     0.038763     0.001200     NO 
 Predicted change in Energy=-8.087546D-03
 Lowest energy point so far.  Saving SCF results.
 GradGradGradGradGradGradGradGradGradGradGradGradGradGradGradGradGradGrad

 Leave Link  103 at Mon Oct 14 11:06:02 2019, MaxMem= 10737418240 cpu:               1.1 elap:               0.1
 (Enter /apps/cent7/gaussian/g16-A.03/g16-haswell/g16/l202.exe)
                          Input orientation:                          
 ---------------------------------------------------------------------
 Center     Atomic      Atomic             Coordinates (Angstroms)
 Number     Number       Type             X           Y           Z
 ---------------------------------------------------------------------
      1          8           0        1.314248   -0.014585   -0.022510
      2          7           0       -0.042610   -0.021455    0.016860
      3          6           0       -0.715039   -1.189719   -0.001136
      4          6           0       -2.105282   -1.210695    0.002844
      5          6           0       -2.799984   -0.010108    0.005139
      6          6           0       -2.102845    1.218765    0.003843
      7          6           0       -0.670339    1.202857    0.013378
      8          6           0        0.065634    2.399013    0.011636
      9          6           0       -0.618731    3.599807    0.004181
     10          6           0       -2.030972    3.639867   -0.002443
     11          6           0       -2.762541    2.470225   -0.002452
     12          1           0       -0.109877   -2.088144   -0.026530
     13          1           0       -2.621999   -2.162618   -0.007066
     14          1           0       -3.885631   -0.014232    0.001490
     15          1           0        1.149178    2.376555    0.013053
     16          1           0       -0.051085    4.524022    0.002200
     17          1           0       -2.547057    4.594287   -0.009017
     18          1           0       -3.846833    2.499226   -0.009434
     19          1           0        1.653799   -0.433523    0.789799
 ---------------------------------------------------------------------
                    Distance matrix (angstroms):
                    1          2          3          4          5
     1  O    0.000000
     2  N    1.357446   0.000000
     3  C    2.345080   1.348082   0.000000
     4  C    3.622776   2.380988   1.390406   0.000000
     5  C    4.114327   2.757422   2.395520   1.387093   0.000000
     6  C    3.632955   2.404762   2.779716   2.429462   1.412846
     7  C    2.328527   1.375862   2.393038   2.807919   2.450865
     8  C    2.717656   2.422893   3.672684   4.212238   3.743751
     9  C    4.098896   3.666826   4.790497   5.034955   4.217743
    10  C    4.954383   4.166441   5.005655   4.851134   3.730114
    11  C    4.774399   3.688748   4.193740   3.739143   2.480627
    12  H    2.515511   2.068239   1.083528   2.180004   3.399398
    13  H    4.484231   3.352372   2.140809   1.083168   2.159891
    14  H    5.199934   3.843058   3.381483   2.145034   1.085661
    15  H    2.397094   2.677839   4.024154   4.843550   4.614337
    16  H    4.739588   4.545508   5.752189   6.091528   5.302338
    17  H    6.012616   5.251476   6.067213   5.821780   4.611358
    18  H    5.740747   4.563621   4.839062   4.098374   2.718982
    19  H    0.975013   1.909198   2.609369   3.918416   4.542153
                    6          7          8          9         10
     6  C    0.000000
     7  C    1.432625   0.000000
     8  C    2.468875   1.404439   0.000000
     9  C    2.805700   2.397523   1.382142   0.000000
    10  C    2.422176   2.791162   2.436324   1.412825   0.000000
    11  C    1.414705   2.446176   2.829106   2.423204   1.379585
    12  H    3.861151   3.338622   4.490750   5.710749   6.041630
    13  H    3.421022   3.890478   5.294544   6.100717   5.832509
    14  H    2.167629   3.437957   4.629941   4.871747   4.097830
    15  H    3.451987   2.165227   1.083778   2.149867   3.421923
    16  H    3.890301   3.378422   2.128233   1.084620   2.168342
    17  H    3.404650   3.876127   3.412595   2.169701   1.085037
    18  H    2.163621   3.430919   3.913807   3.410587   2.144402
    19  H    4.178535   2.946556   3.339321   4.695672   5.549567
                   11         12         13         14         15
    11  C    0.000000
    12  H    5.274081   0.000000
    13  H    4.634977   2.513301   0.000000
    14  H    2.726513   4.307924   2.492469   0.000000
    15  H    3.912871   4.639000   5.901379   5.573625   0.000000
    16  H    3.401485   6.612490   7.163857   5.941338   2.460156
    17  H    2.134975   7.113018   6.757321   4.798994   4.310566
    18  H    1.084703   5.916849   4.820064   2.513782   4.997568
    19  H    5.344480   2.552395   4.680514   5.610929   2.958802
                   16         17         18         19
    16  H    0.000000
    17  H    2.496986   0.000000
    18  H    4.302051   2.465502   0.000000
    19  H    5.301339   6.600316   6.284644   0.000000
 Stoichiometry    C9H8NO(1+)
 Framework group  C1[X(C9H8NO)]
 Deg. of freedom    51
 Full point group                 C1      NOp   1
 RotChk:  IX=0 Diff= 1.70D-02
 Largest Abelian subgroup         C1      NOp   1
 Largest concise Abelian subgroup C1      NOp   1
                         Standard orientation:                         
 ---------------------------------------------------------------------
 Center     Atomic      Atomic             Coordinates (Angstroms)
 Number     Number       Type             X           Y           Z
 ---------------------------------------------------------------------
      1          8           0       -1.625637   -2.050066   -0.067205
      2          7           0       -1.301409   -0.733116   -0.010841
      3          6           0       -2.270132    0.204294   -0.023727
      4          6           0       -1.951230    1.557466   -0.002371
      5          6           0       -0.617444    1.938035    0.012052
      6          6           0        0.404136    0.962092    0.005509
      7          6           0        0.039074   -0.423214   -0.002967
      8          6           0        1.019453   -1.428823   -0.010536
      9          6           0        2.350973   -1.058217   -0.005991
     10          6           0        2.734495    0.301511    0.005210
     11          6           0        1.778764    1.296397    0.011048
     12          1           0       -3.288911   -0.162938   -0.059264
     13          1           0       -2.748203    2.290985   -0.008508
     14          1           0       -0.356487    2.991820    0.022006
     15          1           0        0.733244   -2.474054   -0.022771
     16          1           0        3.108717   -1.834221   -0.012462
     17          1           0        3.786024    0.569065    0.007824
     18          1           0        2.071533    2.340821    0.017747
     19          1           0       -2.119492   -2.286382    0.739587
 ---------------------------------------------------------------------
 Rotational constants (GHZ):           1.9627527           1.1500552           0.7264643
 Leave Link  202 at Mon Oct 14 11:06:02 2019, MaxMem= 10737418240 cpu:               0.3 elap:               0.0
 (Enter /apps/cent7/gaussian/g16-A.03/g16-haswell/g16/l301.exe)
 Standard basis: 6-31G(d) (6D, 7F)
 Ernie: Thresh=  0.10000D-02 Tol=  0.10000D-05 Strict=F.
 There are   181 symmetry adapted cartesian basis functions of A   symmetry.
 There are   181 symmetry adapted basis functions of A   symmetry.
   181 basis functions,   340 primitive gaussians,   181 cartesian basis functions
    38 alpha electrons       38 beta electrons
       nuclear repulsion energy       572.8798898218 Hartrees.
 IExCor=  402 DFT=T Ex+Corr=B3LYP ExCW=0 ScaHFX=  0.200000
 ScaDFX=  0.800000  0.720000  1.000000  0.810000 ScalE2=  1.000000  1.000000
 IRadAn=      5 IRanWt=     -1 IRanGd=            0 ICorTp=0 IEmpDi=  4
 NAtoms=   19 NActive=   19 NUniq=   19 SFac= 1.00D+00 NAtFMM=   60 NAOKFM=F Big=F
 Integral buffers will be    131072 words long.
 Raffenetti 2 integral format.
 Two-electron integral symmetry is turned on.
 Leave Link  301 at Mon Oct 14 11:06:02 2019, MaxMem= 10737418240 cpu:               1.3 elap:               0.1
 (Enter /apps/cent7/gaussian/g16-A.03/g16-haswell/g16/l302.exe)
 NPDir=0 NMtPBC=     1 NCelOv=     1 NCel=       1 NClECP=     1 NCelD=      1
         NCelK=      1 NCelE2=     1 NClLst=     1 CellRange=     0.0.
 One-electron integrals computed using PRISM.
 One-electron integral symmetry used in STVInt
 NBasis=   181 RedAO= T EigKep=  3.82D-04  NBF=   181
 NBsUse=   181 1.00D-06 EigRej= -1.00D+00 NBFU=   181
 Precomputing XC quadrature grid using
 IXCGrd= 4 IRadAn=           5 IRanWt=          -1 IRanGd=           0 AccXCQ= 0.00D+00.
 Generated NRdTot=       0 NPtTot=           0 NUsed=           0 NTot=          32
 NSgBfM=   181   181   181   181   181 MxSgAt=    19 MxSgA2=    19.
 Leave Link  302 at Mon Oct 14 11:06:02 2019, MaxMem= 10737418240 cpu:               3.2 elap:               0.2
 (Enter /apps/cent7/gaussian/g16-A.03/g16-haswell/g16/l303.exe)
 DipDrv:  MaxL=1.
 Leave Link  303 at Mon Oct 14 11:06:02 2019, MaxMem= 10737418240 cpu:               1.1 elap:               0.1
 (Enter /apps/cent7/gaussian/g16-A.03/g16-haswell/g16/l401.exe)
 Initial guess from the checkpoint file:  "4_p.chk"
 B after Tr=     0.000000   -0.000000   -0.000000
         Rot=    0.999983   -0.000394   -0.000184   -0.005729 Ang=  -0.66 deg.
 Guess basis will be translated and rotated to current coordinates.
 JPrj=2 DoOrth=T DoCkMO=T.
 Generating alternative initial guess.
 ExpMin= 1.61D-01 ExpMax= 5.48D+03 ExpMxC= 8.25D+02 IAcc=2 IRadAn=         4 AccDes= 0.00D+00
 Harris functional with IExCor=  402 and IRadAn=       4 diagonalized for initial guess.
 HarFok:  IExCor=  402 AccDes= 0.00D+00 IRadAn=         4 IDoV= 1 UseB2=F ITyADJ=14
 ICtDFT=  3500011 ScaDFX=  1.000000  1.000000  1.000000  1.000000
 FoFCou: FMM=F IPFlag=           0 FMFlag=      100000 FMFlg1=           0
         NFxFlg=           0 DoJE=T BraDBF=F KetDBF=T FulRan=T
         wScrn=  0.000000 ICntrl=       500 IOpCl=  0 I1Cent=   200000004 NGrid=           0
         NMat0=    1 NMatS0=      1 NMatT0=    0 NMatD0=    1 NMtDS0=    0 NMtDT0=    0
 Petite list used in FoFCou.
 Harris En= -477.486045126771    
 Leave Link  401 at Mon Oct 14 11:06:03 2019, MaxMem= 10737418240 cpu:               6.6 elap:               0.3
 (Enter /apps/cent7/gaussian/g16-A.03/g16-haswell/g16/l502.exe)
 Integral symmetry usage will be decided dynamically.
 Closed shell SCF:
 Using DIIS extrapolation, IDIIS=  1040.
 NGot= 10737418240 LenX= 10737346324 LenY= 10737313122
 Requested convergence on RMS density matrix=1.00D-08 within 128 cycles.
 Requested convergence on MAX density matrix=1.00D-06.
 Requested convergence on             energy=1.00D-06.
 No special actions if energy rises.
 Fock matrices will be formed incrementally for  20 cycles.
 Integral accuracy reduced to 1.0D-05 until final iterations.

 Cycle   1  Pass 0  IDiag  1:
 FoFJK:  IHMeth= 1 ICntrl=       0 DoSepK=F KAlg= 0 I1Cent=           0 FoldK=F
 IRaf= 930000000 NMat=       1 IRICut=       1 DoRegI=T DoRafI=F ISym2E= 0 IDoP0=0 IntGTp=1.
 FoFCou: FMM=F IPFlag=           0 FMFlag=      100000 FMFlg1=           0
         NFxFlg=           0 DoJE=F BraDBF=F KetDBF=F FulRan=T
         wScrn=  0.000000 ICntrl=         0 IOpCl=  0 I1Cent=           0 NGrid=           0
         NMat0=    1 NMatS0=      1 NMatT0=    0 NMatD0=    1 NMtDS0=    0 NMtDT0=    0
 Symmetry not used in FoFCou.
 E= -477.459861487265    
 DIIS: error= 2.59D-03 at cycle   1 NSaved=   1.
 NSaved= 1 IEnMin= 1 EnMin= -477.459861487265     IErMin= 1 ErrMin= 2.59D-03
 ErrMax= 2.59D-03  0.00D+00 EMaxC= 1.00D-01 BMatC= 3.42D-03 BMatP= 3.42D-03
 IDIUse=3 WtCom= 9.74D-01 WtEn= 2.59D-02
 Coeff-Com:  0.100D+01
 Coeff-En:   0.100D+01
 Coeff:      0.100D+01
 Gap=     1.848 Goal=   None    Shift=    0.000
 GapD=    1.848 DampG=2.000 DampE=1.000 DampFc=2.0000 IDamp=-1.
 RMSDP=6.70D-04 MaxDP=1.62D-02              OVMax= 1.86D-02

 Cycle   2  Pass 0  IDiag  1:
 RMSU=  6.70D-04    CP:  1.00D+00
 E= -477.465021556695     Delta-E=       -0.005160069431 Rises=F Damp=F
 DIIS: error= 9.12D-04 at cycle   2 NSaved=   2.
 NSaved= 2 IEnMin= 2 EnMin= -477.465021556695     IErMin= 2 ErrMin= 9.12D-04
 ErrMax= 9.12D-04  0.00D+00 EMaxC= 1.00D-01 BMatC= 4.31D-04 BMatP= 3.42D-03
 IDIUse=3 WtCom= 9.91D-01 WtEn= 9.12D-03
 Coeff-Com:  0.139D+00 0.861D+00
 Coeff-En:   0.000D+00 0.100D+01
 Coeff:      0.138D+00 0.862D+00
 Gap=     0.152 Goal=   None    Shift=    0.000
 RMSDP=2.16D-04 MaxDP=7.31D-03 DE=-5.16D-03 OVMax= 1.01D-02

 Cycle   3  Pass 0  IDiag  1:
 RMSU=  2.16D-04    CP:  1.00D+00  1.01D+00
 E= -477.464913981318     Delta-E=        0.000107575377 Rises=F Damp=F
 DIIS: error= 1.15D-03 at cycle   3 NSaved=   3.
 NSaved= 3 IEnMin= 2 EnMin= -477.465021556695     IErMin= 2 ErrMin= 9.12D-04
 ErrMax= 1.15D-03  0.00D+00 EMaxC= 1.00D-01 BMatC= 5.64D-04 BMatP= 4.31D-04
 IDIUse=3 WtCom= 2.28D-01 WtEn= 7.72D-01
 Coeff-Com: -0.291D-01 0.542D+00 0.487D+00
 Coeff-En:   0.000D+00 0.554D+00 0.446D+00
 Coeff:     -0.664D-02 0.551D+00 0.455D+00
 Gap=     0.153 Goal=   None    Shift=    0.000
 RMSDP=1.33D-04 MaxDP=4.58D-03 DE= 1.08D-04 OVMax= 6.94D-03

 Cycle   4  Pass 0  IDiag  1:
 RMSU=  5.33D-05    CP:  1.00D+00  1.04D+00  4.49D-01
 E= -477.465401447415     Delta-E=       -0.000487466097 Rises=F Damp=F
 DIIS: error= 2.17D-04 at cycle   4 NSaved=   4.
 NSaved= 4 IEnMin= 4 EnMin= -477.465401447415     IErMin= 4 ErrMin= 2.17D-04
 ErrMax= 2.17D-04  0.00D+00 EMaxC= 1.00D-01 BMatC= 1.47D-05 BMatP= 4.31D-04
 IDIUse=3 WtCom= 9.98D-01 WtEn= 2.17D-03
 Coeff-Com: -0.190D-01 0.246D+00 0.242D+00 0.531D+00
 Coeff-En:   0.000D+00 0.000D+00 0.000D+00 0.100D+01
 Coeff:     -0.190D-01 0.246D+00 0.241D+00 0.532D+00
 Gap=     0.153 Goal=   None    Shift=    0.000
 RMSDP=3.15D-05 MaxDP=1.18D-03 DE=-4.87D-04 OVMax= 2.02D-03

 Cycle   5  Pass 0  IDiag  1:
 RMSU=  2.36D-05    CP:  1.00D+00  1.05D+00  4.76D-01  6.35D-01
 E= -477.465413599518     Delta-E=       -0.000012152103 Rises=F Damp=F
 DIIS: error= 1.12D-04 at cycle   5 NSaved=   5.
 NSaved= 5 IEnMin= 5 EnMin= -477.465413599518     IErMin= 5 ErrMin= 1.12D-04
 ErrMax= 1.12D-04  0.00D+00 EMaxC= 1.00D-01 BMatC= 3.69D-06 BMatP= 1.47D-05
 IDIUse=3 WtCom= 9.99D-01 WtEn= 1.12D-03
 Coeff-Com: -0.705D-02 0.623D-01 0.741D-01 0.340D+00 0.531D+00
 Coeff-En:   0.000D+00 0.000D+00 0.000D+00 0.195D+00 0.805D+00
 Coeff:     -0.705D-02 0.622D-01 0.740D-01 0.339D+00 0.531D+00
 Gap=     0.153 Goal=   None    Shift=    0.000
 RMSDP=1.11D-05 MaxDP=3.85D-04 DE=-1.22D-05 OVMax= 8.73D-04

 Cycle   6  Pass 0  IDiag  1:
 RMSU=  7.17D-06    CP:  1.00D+00  1.05D+00  4.79D-01  7.14D-01  6.92D-01
 E= -477.465416872386     Delta-E=       -0.000003272868 Rises=F Damp=F
 DIIS: error= 3.87D-05 at cycle   6 NSaved=   6.
 NSaved= 6 IEnMin= 6 EnMin= -477.465416872386     IErMin= 6 ErrMin= 3.87D-05
 ErrMax= 3.87D-05  0.00D+00 EMaxC= 1.00D-01 BMatC= 2.58D-07 BMatP= 3.69D-06
 IDIUse=1 WtCom= 1.00D+00 WtEn= 0.00D+00
 Coeff-Com: -0.193D-02 0.895D-02 0.169D-01 0.137D+00 0.287D+00 0.552D+00
 Coeff:     -0.193D-02 0.895D-02 0.169D-01 0.137D+00 0.287D+00 0.552D+00
 Gap=     0.153 Goal=   None    Shift=    0.000
 RMSDP=4.03D-06 MaxDP=1.39D-04 DE=-3.27D-06 OVMax= 3.37D-04

 Initial convergence to 1.0D-05 achieved.  Increase integral accuracy.
 Cycle   7  Pass 1  IDiag  1:
 E= -477.465390503225     Delta-E=        0.000026369160 Rises=F Damp=F
 DIIS: error= 2.63D-05 at cycle   1 NSaved=   1.
 NSaved= 1 IEnMin= 1 EnMin= -477.465390503225     IErMin= 1 ErrMin= 2.63D-05
 ErrMax= 2.63D-05  0.00D+00 EMaxC= 1.00D-01 BMatC= 1.01D-07 BMatP= 1.01D-07
 IDIUse=1 WtCom= 1.00D+00 WtEn= 0.00D+00
 Coeff-Com:  0.100D+01
 Coeff:      0.100D+01
 Gap=     0.153 Goal=   None    Shift=    0.000
 RMSDP=4.03D-06 MaxDP=1.39D-04 DE= 2.64D-05 OVMax= 3.36D-04

 Cycle   8  Pass 1  IDiag  1:
 RMSU=  9.95D-06    CP:  1.00D+00
 E= -477.465390374346     Delta-E=        0.000000128879 Rises=F Damp=F
 DIIS: error= 4.05D-05 at cycle   2 NSaved=   2.
 NSaved= 2 IEnMin= 1 EnMin= -477.465390503225     IErMin= 1 ErrMin= 2.63D-05
 ErrMax= 4.05D-05  0.00D+00 EMaxC= 1.00D-01 BMatC= 1.79D-07 BMatP= 1.01D-07
 IDIUse=1 WtCom= 1.00D+00 WtEn= 0.00D+00
 Coeff-Com:  0.588D+00 0.412D+00
 Coeff:      0.588D+00 0.412D+00
 Gap=     0.153 Goal=   None    Shift=    0.000
 RMSDP=3.35D-06 MaxDP=9.54D-05 DE= 1.29D-07 OVMax= 2.94D-04

 Cycle   9  Pass 1  IDiag  1:
 RMSU=  3.09D-06    CP:  1.00D+00  8.72D-01
 E= -477.465390567976     Delta-E=       -0.000000193631 Rises=F Damp=F
 DIIS: error= 1.30D-05 at cycle   3 NSaved=   3.
 NSaved= 3 IEnMin= 3 EnMin= -477.465390567976     IErMin= 3 ErrMin= 1.30D-05
 ErrMax= 1.30D-05  0.00D+00 EMaxC= 1.00D-01 BMatC= 1.76D-08 BMatP= 1.01D-07
 IDIUse=1 WtCom= 1.00D+00 WtEn= 0.00D+00
 Coeff-Com:  0.470D-01 0.237D+00 0.716D+00
 Coeff:      0.470D-01 0.237D+00 0.716D+00
 Gap=     0.153 Goal=   None    Shift=    0.000
 RMSDP=8.93D-07 MaxDP=3.44D-05 DE=-1.94D-07 OVMax= 7.76D-05

[...]
 602,0.03226175,0.00041590,-0.18929082,0.12887421,0.00193449,0.75201896
 ,-0.00102365,-0.00186372,0.00013784,-0.00910232,-0.05820886,-0.0018831
 3,0.07384886,0.03580720,0.00142796,0.07086605,-0.31575182,-0.00585832,
 -0.03320339,0.68095672,0.00028127,0.00002568,-0.00119854,-0.00030624,-
 0.00086363,-0.00319316,0.00093727,0.00085882,0.00454565,0.00118757,-0.
 00523909,-0.06103747,0.00171525,0.00937514,0.14887458,0.00445768,0.000
 11555,0.00006833,-0.02429097,0.05204714,0.00021230,-0.02212062,-0.0194
 7960,-0.00046123,0.03959034,0.00077416,0.00042864,-0.18210125,-0.08187
 488,-0.00207858,0.64117006,0.00444266,-0.00520670,0.00078960,0.0359147
 6,0.03047584,0.00018607,-0.03074173,-0.01893811,-0.00039056,0.02552875
 ,-0.05926989,-0.00085801,-0.10476844,-0.23896897,-0.00277962,0.0081600
 3,0.70810563,-0.00036074,0.00075612,0.00607541,-0.00086092,0.00162701,
 -0.00074520,-0.00055232,-0.00048577,-0.00380363,0.00058703,-0.00097248
 ,0.00701734,-0.00201207,-0.00217003,-0.06420767,0.00122170,0.00454678,
 0.15189583,-0.03897086,0.03306894,-0.00202941,-0.15409024,0.02944632,-
 0.00062126,0.04517127,0.00945778,0.00019933,-0.02582046,0.01320480,0.0
 0012872,-0.02029672,-0.04371593,-0.00042807,-0.25708666,-0.00345010,-0
 .00022120,0.66647518,0.00580584,0.00485568,-0.00189090,0.05903090,-0.2
 3431383,-0.00019156,-0.02175933,-0.07073551,0.00064170,0.03221069,-0.0
 0773506,0.00022714,-0.03231672,0.02856017,0.00033081,-0.00315638,-0.13
 131185,-0.00145029,0.04684878,0.68803909,0.00253001,-0.00177434,0.0005
 1338,-0.00082756,0.00388719,-0.05439732,-0.00129524,-0.00221743,0.0036
 2557,0.00085928,-0.00081745,-0.00288404,-0.00037368,0.00038133,0.00134
 969,0.00036401,-0.00024566,-0.06777586,-0.00110931,-0.00179459,0.15174
 170,0.00218197,-0.00129568,0.00023470,0.02223239,0.01431243,0.00043668
 ,-0.00330366,0.00611798,-0.00009488,-0.00136211,0.00003059,-0.00009427
 ,-0.00657659,0.00165593,-0.00001142,-0.02094616,-0.02411104,0.00002070
 ,-0.19727367,-0.11793307,0.00145469,0.76559142,-0.00557846,-0.00291575
 ,-0.00053568,-0.00004061,-0.07681111,0.00092550,0.01077407,0.01329784,
 -0.00011397,-0.00817721,-0.00231492,-0.00020364,0.00226618,-0.00057527
 ,-0.00002093,-0.04354073,0.02424660,0.00081623,-0.07805279,-0.21392663
 ,0.00094769,-0.03798481,0.67584510,0.00027473,0.00038528,-0.00156927,-
 0.00023689,-0.00030191,0.00147684,0.00002931,-0.00006695,0.00416768,-0
 .00011664,0.00004912,-0.00141257,0.00007145,-0.00018869,0.00472602,-0.
 00011011,0.00074432,0.00881853,0.00308339,0.00253819,-0.06097322,-0.01
 355420,-0.00168749,0.12593000,-0.00046271,0.00197591,-0.00019613,-0.00
 008237,-0.02865134,0.00033290,0.00849729,0.01039668,-0.00005230,-0.009
 08490,0.00115236,-0.00007463,-0.00172710,-0.00684803,-0.00025663,-0.02
 419403,0.02471845,0.00052353,0.04610777,0.03222521,-0.00027992,-0.1921
 1765,0.07533234,0.00172689,0.66760141,0.00066995,0.00103963,0.00025751
 ,-0.00851487,0.01569151,0.00004280,-0.00633079,-0.00880459,0.00000268,
 0.00746360,-0.00152781,0.00010090,0.00137735,0.00517743,0.00018134,0.0
 1533834,-0.01628116,-0.00025586,-0.01024705,-0.06867753,0.00017910,0.1
 3729234,-0.31933477,-0.00062335,0.01785372,0.75638173,0.00011779,0.000
 11384,0.00032515,0.00021057,0.00039040,0.00613329,-0.00015958,0.000000
 03,0.00059742,0.00010091,-0.00006747,0.00025776,0.00003991,0.00016629,
 -0.00059405,0.00007100,-0.00028078,-0.00685795,-0.00033101,0.00013828,
 0.00248632,0.00090128,0.00017199,-0.05918561,-0.00791113,-0.00386867,0
 .14236536,0.00087574,0.00060033,0.00014089,-0.00260262,0.02227932,0.00
 043758,-0.01499152,-0.01297910,-0.00020247,0.01730999,-0.00656238,0.00
 008633,-0.00011059,0.02322306,0.00051801,0.03764116,-0.03213971,-0.000
 58801,-0.02879308,-0.03348511,-0.00007609,-0.02303788,0.06769361,0.000
 28310,-0.30160730,-0.02407908,0.00346627,0.66297280,0.00008363,-0.0001
 7220,0.00009690,-0.00125290,0.00845744,-0.00007418,-0.00527758,-0.0047
 4089,0.00001061,0.00595601,-0.00324399,-0.00000915,0.00594112,0.006387
 44,0.00024184,0.00127299,-0.05757293,-0.00042875,-0.01769553,-0.017758
 23,0.00009268,0.03237540,0.02945953,-0.00071411,0.03927069,-0.13169818
 ,0.00012636,-0.01119937,0.77247028,0.00011344,-0.00002523,-0.00064106,
 0.00002163,-0.00024981,-0.00067310,0.00015327,0.00015399,0.00038308,-0
 .00017459,0.00006877,-0.00047938,-0.00006267,-0.00030066,0.00590344,-0
 .00006368,0.00009797,0.00651964,-0.00000216,0.00033705,-0.00625570,0.0
 0013165,-0.00082749,0.00724296,0.00276180,0.00063881,-0.06467459,-0.00
 463063,0.00078821,0.13644188,-0.00163518,0.00234491,-0.00022852,-0.005
 41943,-0.00265044,0.00017682,-0.00275746,-0.00174069,-0.00004648,-0.00
 026951,-0.00629904,-0.00010468,0.01627214,-0.01147647,-0.00003763,-0.1
 6737224,0.09791288,0.00078190,-0.01937303,0.03207837,0.00010553,-0.000
 10287,-0.00322609,-0.00022209,-0.03388096,-0.02764193,0.00039684,-0.20
 450000,-0.14476702,0.00037748,0.75638456,-0.00161845,0.00042147,-0.000
 22738,-0.00186681,-0.01868043,-0.00057745,0.01866627,0.01141947,0.0003
 1951,-0.02507402,0.01126828,-0.00012004,0.00801880,-0.06582543,-0.0009
 1044,0.06966663,-0.23109203,-0.00061417,0.04750251,0.03013705,0.000083
 89,-0.00303719,-0.05189207,-0.00017342,-0.06405496,0.03499839,0.000357
 28,-0.08761838,-0.32014167,0.00002818,0.04495661,0.67621793,-0.0000598
 1,-0.00003085,-0.00008045,0.00003468,-0.00043324,0.00549103,0.00018243
 ,0.00017345,-0.00073177,-0.00016438,-0.00003201,0.00633463,0.00001194,
 -0.00066904,0.00364585,0.00096542,-0.00095601,-0.06532470,-0.00021713,
 0.00023239,0.00531854,-0.00002348,-0.00014228,-0.00415374,0.00028764,0
 .00014726,0.00664117,0.00018720,0.00016215,-0.06115549,-0.00220105,0.0
 0162407,0.13612007,0.00172096,-0.00064661,-0.00017344,0.01142375,-0.02
 063127,-0.00021885,-0.16031053,0.14867349,0.00281609,-0.00700356,0.023
 01968,0.00050190,-0.00530731,-0.00089683,-0.00012048,-0.00048560,-0.00
 078034,-0.00002957,-0.00262626,-0.00259972,-0.00005191,0.00091066,-0.0
 0059045,0.00000198,-0.00002582,-0.00031268,0.00001781,-0.00025967,-0.0
 0007494,0.00000275,0.00001083,0.00030971,0.00000847,0.16128474,0.00260
 934,0.00270131,-0.00018416,0.01535842,-0.02972698,-0.00064068,0.136378
 13,-0.25608091,-0.00523709,-0.00230199,0.00876329,-0.00000314,-0.00179
 541,0.00016251,-0.00026538,0.00028140,0.00034553,0.00003768,-0.0047995
 6,0.00020448,-0.00033256,0.00100199,-0.00087438,-0.00007507,-0.0007562
 0,-0.00006402,0.00004553,0.00022042,0.00018513,-0.00000865,0.00013485,
 -0.00007236,0.00002024,-0.14587895,0.27413588,0.00014472,0.00074034,-0
 .00485836,0.00138264,-0.00089745,0.00422062,0.00268618,-0.00576509,-0.
 03886065,-0.00004812,0.00040917,0.00638761,-0.00027023,-0.00001805,0.0
 0645856,-0.00006254,-0.00008565,-0.00103084,-0.00034171,0.00000814,0.0
 0534343,0.00012567,0.00001156,0.00179722,-0.00003159,-0.00004878,-0.00
 051330,-0.00005518,0.00000184,0.00023352,0.00000205,0.00006424,-0.0006
 7547,-0.00260166,0.00642938,0.02574071,-0.00127520,-0.00117931,-0.0003
 6853,-0.00453579,0.00232324,0.00005715,-0.01124495,-0.02924121,-0.0007
 6723,-0.12845403,-0.12476074,-0.00364186,0.01383283,0.01625879,0.00045
 394,-0.00205272,0.00312108,-0.00000933,-0.00058681,0.00081567,-0.00001
 713,0.00010559,-0.00004081,0.00001566,-0.00006628,-0.00000699,0.000004
 14,-0.00006788,0.00027537,0.00000381,0.00090052,0.00033050,-0.00000846
 ,0.00082365,0.00015805,0.00003552,0.13194112,0.00066938,0.00035773,0.0
 0005380,0.00165202,0.00160185,-0.00015347,0.00210535,0.00548271,0.0001
 5626,-0.12634409,-0.28647974,-0.00693876,-0.01360805,-0.01793040,-0.00
 059726,0.00376265,-0.00203214,-0.00023123,0.00054204,-0.00041536,0.000
 01872,-0.00011997,0.00040679,0.00001205,0.00028354,-0.00008183,-0.0000
 0310,0.00012362,-0.00044470,0.00001701,-0.00103527,-0.00021335,0.00000
 487,-0.00009845,0.00047657,0.00008534,0.13227245,0.29833020,-0.0003842
 0,-0.00007907,0.00116438,0.00000818,0.00024663,0.00593060,-0.00031825,
 -0.00027840,0.00014652,-0.00356893,-0.00709139,-0.03571627,-0.00028347
 ,-0.00029391,0.00311088,0.00015637,-0.00023326,0.00775520,0.00010147,-
 0.00013626,-0.00032922,-0.00000399,0.00006338,-0.00055508,0.00004869,-
 0.00003341,0.00007853,-0.00005373,-0.00004499,-0.00065137,-0.00004720,
 0.00007523,0.00009945,0.00000440,0.00014185,-0.00328501,0.00399075,0.0
 0749226,0.02618521,0.00002856,0.00003128,-0.00001189,0.00082315,-0.000
 22040,0.00008000,-0.00014099,0.00213403,-0.00000552,-0.00856466,-0.001
 40080,-0.00012732,-0.34842503,0.00380391,-0.00153440,-0.01059125,0.000
 92613,-0.00005478,0.00038696,-0.00169127,-0.00010346,-0.00062287,0.000
 27756,0.00001924,-0.00008069,0.00014198,-0.00000532,0.00017368,-0.0000
 7275,-0.00000034,0.00105758,0.00148710,0.00002616,-0.00032989,-0.00027
 629,-0.00001145,0.00075726,-0.00014213,0.00001905,0.36515604,0.0000470
 6,0.00035182,0.00003649,-0.00016292,-0.00145873,-0.00005193,0.00284988
 ,-0.00487566,-0.00027564,0.02882886,0.00439980,0.00013289,0.00294998,-
 0.06128159,-0.00028542,-0.02817631,0.00434654,-0.00023741,-0.00152343,
 -0.00459827,-0.00014923,-0.00142303,0.00037762,0.00003747,-0.00031807,
 0.00034568,-0.00000043,0.00070864,0.00023426,0.00000003,-0.00124748,0.
 00135126,0.00006045,0.00124514,0.00035743,0.00006012,-0.00031960,0.001
 05737,0.00012146,-0.00412077,0.06035032,0.00018160,0.00010522,-0.00148
 776,0.00010295,-0.00014115,0.00000632,-0.00000297,-0.00031631,0.008573
 68,0.00044253,-0.00004724,0.00692307,-0.00164634,-0.00037390,-0.045030
 02,-0.00050195,0.00005277,0.00614722,-0.00007513,-0.00004842,0.0062268
 4,-0.00000041,0.00002942,-0.00054409,0.00002192,-0.00001596,-0.0000607
 7,-0.00002184,0.00000101,0.00001712,0.00001313,0.00007695,-0.00348917,
 0.00004744,0.00003733,-0.00084210,0.00003974,0.00013228,-0.00425062,0.
 00171111,0.00056937,0.02715857,0.00070838,0.00369806,-0.00019785,-0.00
 195495,0.00126421,-0.00007454,-0.00052388,-0.00051463,0.00000620,0.000
 35700,-0.00015139,0.00000667,-0.00057725,0.00062857,0.00002060,0.00099
 514,-0.00244422,0.00024712,-0.01104537,-0.00000252,0.00065864,-0.35329
 816,0.00680953,0.00896480,-0.00882911,-0.00052932,0.00043129,0.0007548
 6,0.00209731,0.00029301,0.00055050,0.00024987,-0.00001592,0.00001875,-
 0.00003943,-0.00000434,0.00001753,-0.00001559,-0.00000345,-0.00002097,
 -0.00014992,-0.00001645,0.37196680,0.00165801,-0.00124487,0.00044100,-
 0.00119209,0.00212187,-0.00013201,-0.00064675,-0.00058329,-0.00008317,
 0.00066587,-0.00017595,0.00004227,-0.00155637,0.00108032,-0.00003004,-
 0.00074891,-0.00502869,-0.00012580,-0.02757190,0.00472030,0.00072371,0
 .00769496,-0.05834222,0.00017741,0.02931017,0.00411387,-0.00074261,0.0
 0145780,-0.00485484,0.00011332,-0.00009253,-0.00075793,0.00002459,-0.0
 0000040,-0.00003668,-0.00001452,0.00007385,-0.00003318,0.00000598,-0.0
 0016787,-0.00036673,0.00002051,-0.01042320,0.05930478,-0.00022828,-0.0
 0046070,-0.00095136,0.00015912,0.00009284,-0.00244228,-0.00003808,-0.0
 0010970,-0.00011675,0.00003850,0.00000485,-0.00024225,0.00000806,0.000
 00595,0.00060557,0.00003134,-0.00017768,0.00444957,-0.00014279,-0.0003
 4175,0.00295652,0.01099323,0.00026464,-0.03553169,-0.00033232,-0.00000
 018,0.00376843,-0.00004739,0.00019941,0.00786336,0.00001383,0.00017295
 ,-0.00047296,-0.00000269,-0.00000193,0.00016003,-0.00000213,-0.0000014
 1,0.00002288,-0.00000652,0.00000262,0.00012169,-0.01014147,-0.00080400
 ,0.02543021,0.00001369,-0.00005460,-0.00002346,0.00100822,0.00061676,0
 .00003440,-0.00012439,0.00031307,-0.00001830,-0.00019834,0.00002919,0.
 00000810,0.00004575,-0.00029022,-0.00002941,-0.00045296,0.00116083,0.0
 0002907,-0.00142820,0.00345677,0.00007438,0.01223369,0.01544416,-0.000
 20871,-0.13972575,-0.12896556,0.00257925,-0.01123150,-0.02766267,0.000
 47600,-0.00572345,0.00131492,0.00013351,0.00005983,0.00007706,0.000002
 95,0.00001081,-0.00001101,0.00000105,0.00002994,0.00005246,0.00000243,
 0.00089452,-0.00020185,-0.00011434,0.14403936,-0.00000807,0.00001813,0
 .00005246,-0.00129269,-0.00083179,-0.00006094,0.00064290,-0.00011862,0
 .00001546,-0.00016593,0.00022593,0.00000234,-0.00010656,-0.00022656,-0
 .00000294,0.00072953,0.00023058,-0.00002559,0.00314431,-0.00282202,0.0
 0011709,-0.01459433,-0.01847992,0.00041315,-0.12825366,-0.27025075,0.0
 0373323,0.00283148,0.00652538,-0.00005260,0.00126728,0.00092128,0.0000
 6605,-0.00006847,-0.00007358,-0.00000729,-0.00001231,-0.00000117,0.000
 00115,-0.00001310,-0.00002154,-0.00000153,-0.00012931,0.00103477,-0.00
 001465,0.13595196,0.28300255,-0.00006472,-0.00008987,0.00044345,-0.000
 01012,0.00002205,0.00051663,-0.00000505,-0.00005655,-0.00077900,0.0000
 6006,-0.00001227,0.00039650,0.00001159,0.00006969,-0.00085008,0.000017
 61,-0.00013584,-0.00053488,0.00001147,-0.00003655,0.00834533,0.0000989
 0,0.00024142,0.00534857,0.00291125,0.00367794,-0.04255751,-0.00008531,
 0.00033069,0.00537587,0.00017044,0.00009091,0.00550410,-0.00000705,0.0
 0000513,-0.00031696,-0.00000145,-0.00000283,0.00007800,0.00000114,-0.0
 0000028,0.00000693,-0.00023644,-0.00003715,-0.00480033,-0.00286565,-0.
 00415435,0.02707607,0.00011980,0.00019947,0.00001412,-0.00004010,0.000
 35370,-0.00001096,-0.00018298,-0.00012838,0.00000292,-0.00006950,-0.00
 026452,-0.00000982,0.00079814,-0.00056880,0.00000335,-0.00190893,-0.00
 326108,0.00003546,-0.00075071,-0.00124238,0.00000327,-0.00547387,-0.00
 105615,0.00019255,-0.01028954,0.02901694,0.00004674,-0.12173463,0.1185
 3972,0.00065332,0.01266430,-0.01757788,-0.00003583,0.00001143,0.000016
 38,0.00000097,0.00005627,-0.00007998,-0.00000317,0.00000814,0.00001201
 ,0.00000154,-0.00040345,0.00134028,-0.00005462,0.00107093,-0.00015352,
 -0.00005741,0.12526994,0.00007296,0.00000540,0.00001138,0.00009553,0.0
 0027538,0.00001360,-0.00032750,-0.00008439,-0.00000477,-0.00004323,-0.
 00045520,-0.00001121,0.00092762,-0.00034291,0.00000781,-0.00344910,-0.
 00225566,-0.00001236,-0.00071003,0.00010197,-0.00000127,-0.00089746,0.
 00119756,0.00002883,-0.00187489,0.00470275,0.00001220,0.11831598,-0.28
 867378,-0.00092050,0.01308009,-0.01847160,-0.00007176,0.00000752,0.000
 00085,-0.00000042,0.00007367,-0.00007310,-0.00000316,0.00000068,-0.000
 00767,0.00000168,-0.00020266,0.00016247,-0.00000505,0.00013551,0.00065
 555,-0.00000725,-0.12527836,0.30229282,-0.00002373,0.00001223,-0.00005
 675,-0.00001107,0.00000126,-0.00103689,-0.00000908,-0.00000442,0.00012
 667,0.00000321,0.00001426,-0.00084815,-0.00001172,0.00002028,0.0000390
 0,-0.00004155,0.00001595,0.00893925,0.00006447,0.00002614,0.00017971,0
 .00015279,0.00002569,0.00526699,0.00015109,-0.00023191,0.00379674,0.00
 066192,-0.00079710,-0.04072829,-0.00009821,-0.00001414,0.00454618,-0.0
 0000118,-0.00000474,0.00012171,0.00000028,-0.00000267,0.00006782,-0.00
 000060,-0.00000551,0.00022176,0.00000932,-0.00000899,0.00005493,-0.000
 06479,-0.00004360,-0.00291795,-0.00077809,0.00096969,0.02699179,-0.000
 06040,0.00015398,-0.00004366,-0.00029572,-0.00068343,0.00003112,0.0000
 0087,0.00000329,-0.00000815,0.00013968,0.00007791,0.00000170,0.0007919
 8,-0.00141160,-0.00004872,-0.00980175,-0.00046252,0.00004480,0.0010116
 3,0.00217907,-0.00001898,0.00045883,-0.00037178,0.00001843,0.00009456,
 -0.00267495,0.00000299,-0.01086266,0.00214795,0.00004870,-0.34669780,0
 .00852608,0.00085242,0.00003268,0.00001130,0.00000307,-0.00000756,0.00
 001741,0.00000111,0.00036570,0.00074593,0.00002060,-0.00005321,0.00001
 128,-0.00000949,-0.00055685,0.00026526,0.00000928,0.00084496,0.0000749
 5,-0.00000918,0.36459551,0.00049484,-0.00046498,0.00009140,0.00129532,
 0.00050658,-0.00004925,0.00038060,0.00033337,0.00001523,-0.00055003,0.
 00026393,0.00000245,0.00141860,0.00154621,0.00003748,0.02912831,0.0012
 0207,-0.00005838,0.00043337,-0.00505556,-0.00001218,0.00010353,-0.0004
 9113,-0.00001296,-0.00193205,-0.00493819,-0.00000351,-0.02875852,0.005
 83657,0.00008237,0.00850357,-0.06011141,-0.00022215,-0.00004196,-0.000
 00900,0.00000036,-0.00002196,-0.00000358,-0.00000307,-0.00068658,-0.00
 053155,-0.00001517,0.00000396,0.00019154,0.00000214,-0.00138867,0.0002
 4436,0.00003261,0.00023003,0.00098454,0.00001049,-0.00862698,0.0605538
 9,-0.00009920,0.00005609,0.00041763,-0.00002260,-0.00000520,0.00046960
 ,0.00003231,0.00002190,0.00003207,-0.00004536,0.00002339,0.00002782,0.
 00005788,0.00001088,-0.00319257,-0.00008082,0.00021229,0.00279395,0.00
 021097,-0.00001251,0.00446216,0.00000468,-0.00008866,-0.00054797,0.000
 00656,-0.00002499,0.00818518,0.00011917,0.00016916,0.00520985,0.000755
 18,-0.00045949,-0.03762725,-0.00000003,0.00000004,0.00001188,-0.000000
 24,-0.00000259,0.00010760,-0.00000307,-0.00001327,0.00034293,-0.000041
 63,-0.00001862,-0.00106569,-0.00003738,0.00000670,-0.00033816,-0.00002
 911,0.00000612,-0.00478637,-0.00093382,0.00016720,0.02547735,-0.073628
 00,-0.00457659,-0.08189975,-0.03714393,-0.00498252,-0.04362199,-0.0024
 6488,0.00148839,-0.00230154,-0.00024699,-0.00098940,0.00186863,0.00028
 721,0.00012694,-0.00026566,-0.00044924,0.00027363,0.00119764,-0.001010
 73,-0.00046479,-0.00189652,0.00040092,0.00006246,-0.00023290,-0.000126
 83,0.00014900,0.00002024,0.00007108,0.00004260,-0.00010279,-0.00010853
 ,-0.00018130,0.00003618,0.00005136,-0.00039950,-0.00095696,-0.00015436
 ,0.00002608,0.00033531,-0.00001066,0.00000157,-0.00031990,0.00044288,0
 .00038968,-0.00012398,0.00003469,-0.00003476,0.00004146,0.00000981,-0.
 00000128,0.00000614,-0.00000046,0.00001460,0.00010650,0.11404666,-0.01
 022133,-0.00149496,-0.04252886,0.00166679,-0.00378312,0.00346766,-0.00
 428972,0.00002965,-0.00086185,0.00102584,-0.00155388,0.00124131,0.0002
 2208,0.00129752,-0.00006419,-0.00085080,-0.00099466,-0.00071571,0.0041
 1747,0.00073111,0.00091331,0.00081141,0.00112714,-0.00054186,0.0001701
 4,-0.00079214,-0.00028885,-0.00063260,-0.00025460,0.00005924,-0.000101
 59,0.00052315,0.00004183,-0.00063447,-0.00039506,-0.00097323,-0.000119
 74,-0.00000467,0.00004898,-0.00001070,-0.00003036,-0.00006684,-0.00014
 929,-0.00130552,0.00117167,0.00002190,-0.00003259,0.00006250,-0.000097
 48,-0.00001500,0.00001709,0.00001687,-0.00005766,-0.00004846,0.0090552
 1,0.00700566,-0.14380234,-0.04049016,-0.43706261,0.01183792,0.00100307
 ,0.01332266,0.00181477,-0.00150884,0.00027390,0.00041390,0.00048032,-0
 .00011626,0.00019260,0.00016036,0.00004435,-0.00013625,-0.00050269,-0.
 00013123,0.00171935,0.00142298,0.00006619,-0.00077233,0.00012263,-0.00
 030158,0.00036236,-0.00012519,-0.00019158,-0.00013982,-0.00015260,0.00
 006827,0.00019266,0.00020333,0.00000999,-0.00019398,0.00003623,-0.0000
 9259,0.00021539,-0.00003925,0.00004049,0.00000797,-0.00000177,-0.00004
 160,0.00009444,0.00044813,0.00019013,0.00002091,-0.00004415,0.00000341
 ,0.00002477,-0.00001357,0.00002186,0.00003778,-0.00006507,0.00001997,0
 .12810990,0.03906624,0.42387621\\0.00002436,-0.00000071,0.00001326,-0.
 00006635,0.00013142,-0.00001777,-0.00004429,-0.00004225,0.00000646,0.0
 0004815,-0.00001027,-0.00000402,-0.00000475,0.00002424,-0.00000182,-0.
 00007563,0.00004405,0.00000201,0.00011339,-0.00015581,0.00000857,-0.00
 002168,0.00003323,-0.00000402,-0.00001160,0.00000141,0.00000488,0.0000
 3404,0.00002378,-0.00000371,0.00000592,-0.00005755,0.00000104,-0.00000
 032,0.00000272,0.00000190,-0.00000759,0.00000704,-0.00000213,0.0000013
 6,-0.00000764,0.00000470,0.00000180,0.00001005,-0.00000217,0.00000946,
 -0.00000775,-0.00000217,-0.00000836,-0.00000669,0.00000151,0.00000248,
 0.00000802,0.00000189,-0.00000039,0.00000269,-0.00000843\\\@


 IF NO USE IS MADE OF THE LABOR OF PAST AGES,
 THE WORLD MUST REMAIN ALWAYS IN THE INFANCY OF KNOWLEDGE.

                          -- CICERO
 Job cpu time:       0 days  0 hours 12 minutes  9.8 seconds.
 Elapsed time:       0 days  0 hours  0 minutes 31.0 seconds.
 File lengths (MBytes):  RWF=     79 Int=      0 D2E=      0 Chk=      4 Scr=      1
 Normal termination of Gaussian 16 at Mon Oct 14 11:07:14 2019.
real 79.15
user 1778.81
sys 13.91
Machine:
brown-a218
brown-a218
brown-a218
brown-a218
brown-a218
brown-a218
brown-a218
brown-a218
brown-a218
brown-a218
brown-a218
brown-a218
brown-a218
brown-a218
brown-a218
brown-a218
brown-a218
brown-a218
brown-a218
brown-a218
brown-a218
brown-a218
brown-a218
brown-a218
