Title Card Required                                                     
Freq      RB3LYP                                                      6-31G(d)            
Number of atoms                            I               19
Info1-9                                    I   N=           9
          48          48        1002           0           0         100
           6          18        -502
Full Title                                 C   N=           2
Title Card Required     
Route                                      C   N=           6
#P opt freq b3lyp/6-31g(d) geom=connectivity temperature=0.0
01          
Charge                                     I                0
Multiplicity                               I                1
Number of electrons                        I               62
Number of alpha electrons                  I               31
Number of beta electrons                   I               31
Number of basis functions                  I              142
Number of independent functions            I              142
Number of point charges in /Mol/           I                0
Number of translation vectors              I                0
Atomic numbers                             I   N=          19
           6           6           6           6           6           6
           7           8           1           1           1           1
           1           1           1           1           1           1
           1
Nuclear charges                            R   N=          19
  6.00000000E+00  6.00000000E+00  6.00000000E+00  6.00000000E+00  6.00000000E+00
  6.00000000E+00  7.00000000E+00  8.00000000E+00  1.00000000E+00  1.00000000E+00
  1.00000000E+00  1.00000000E+00  1.00000000E+00  1.00000000E+00  1.00000000E+00
  1.00000000E+00  1.00000000E+00  1.00000000E+00  1.00000000E+00
Current cartesian coordinates              R   N=          57
 -2.00242462E+00 -1.26951236E+00  2.64983293E+00 -9.62602552E-01 -8.53504956E-01
 -2.35447750E-02 -3.06932137E+00 -9.29877419E-01 -1.99256579E+00  1.33554950E+00
 -2.53362492E+00 -6.54924096E-01  3.69550159E+00 -9.18142862E-01 -1.19926042E-02
  2.67328339E+00  1.71434709E+00 -4.68509221E-02  2.01939581E-01  1.79159512E+00
 -5.15920435E-02 -1.23747947E+00  3.70035772E+00  1.68688281E-02 -3.01760327E+00
 -3.07056145E+00  2.74814029E+00 -4.79669817E-01 -1.30407690E+00  4.05304444E+00
 -3.30508677E+00  2.59571793E-01  3.13675734E+00 -3.98052964E+00 -2.78857702E+00
 -1.97948556E+00 -4.47984169E+00  5.19395847E-01 -1.57565392E+00 -2.32199183E+00
 -5.82762807E-01 -3.89146225E+00  1.29143607E+00 -4.32002728E+00  3.84469158E-01
  1.33322691E+00 -2.98595660E+00 -2.67417691E+00  4.48185223E+00 -1.40143038E+00
  1.85243437E+00  5.22690787E+00 -1.19895227E+00 -1.37980457E+00  3.71764301E+00
  3.47124196E+00  3.22028150E-02
Number of symbols in /Mol/                 I                0
Force Field                                I                0
Atom Types                                 C   N=          19
                                                            
                                                            
                                                            
                                                
Int Atom Types                             I   N=          19
           0           0           0           0           0           0
           0           0           0           0           0           0
           0           0           0           0           0           0
           0
MM charges                                 R   N=          19
  0.00000000E+00  0.00000000E+00  0.00000000E+00  0.00000000E+00  0.00000000E+00
  0.00000000E+00  0.00000000E+00  0.00000000E+00  0.00000000E+00  0.00000000E+00
  0.00000000E+00  0.00000000E+00  0.00000000E+00  0.00000000E+00  0.00000000E+00
  0.00000000E+00  0.00000000E+00  0.00000000E+00  0.00000000E+00
Integer atomic weights                     I   N=          19
          12          12          12          12          12          12
          14          16           1           1           1           1
           1           1           1           1           1           1
           1
Real atomic weights                        R   N=          19
  1.20000000E+01  1.20000000E+01  1.20000000E+01  1.20000000E+01  1.20000000E+01
  1.20000000E+01  1.40030740E+01  1.59949146E+01  1.00782504E+00  1.00782504E+00
  1.00782504E+00  1.00782504E+00  1.00782504E+00  1.00782504E+00  1.00782504E+00
  1.00782504E+00  1.00782504E+00  1.00782504E+00  1.00782504E+00
Atom fragment info                         I   N=          19
           0           0           0           0           0           0
           0           0           0           0           0           0
           0           0           0           0           0           0
           0
Atom residue num                           I   N=          19
           0           0           0           0           0           0
           0           0           0           0           0           0
           0           0           0           0           0           0
           0
Nuclear spins                              I   N=          19
           0           0           0           0           0           0
           2           0           1           1           1           1
           1           1           1           1           1           1
           1
Nuclear ZEff                               R   N=          19
 -3.60000000E+00 -3.60000000E+00 -3.60000000E+00 -3.60000000E+00 -3.60000000E+00
 -3.60000000E+00 -4.55000000E+00 -5.60000000E+00 -1.00000000E+00 -1.00000000E+00
 -1.00000000E+00 -1.00000000E+00 -1.00000000E+00 -1.00000000E+00 -1.00000000E+00
 -1.00000000E+00 -1.00000000E+00 -1.00000000E+00 -1.00000000E+00
Nuclear ZNuc                               R   N=          19
  6.00000000E+00  6.00000000E+00  6.00000000E+00  6.00000000E+00  6.00000000E+00
  6.00000000E+00  7.00000000E+00  8.00000000E+00  1.00000000E+00  1.00000000E+00
  1.00000000E+00  1.00000000E+00  1.00000000E+00  1.00000000E+00  1.00000000E+00
  1.00000000E+00  1.00000000E+00  1.00000000E+00  1.00000000E+00
Nuclear QMom                               R   N=          19
  0.00000000E+00  0.00000000E+00  0.00000000E+00  0.00000000E+00  0.00000000E+00
  0.00000000E+00  2.04400000E+00  0.00000000E+00  0.00000000E+00  0.00000000E+00
  0.00000000E+00  0.00000000E+00  0.00000000E+00  0.00000000E+00  0.00000000E+00
  0.00000000E+00  0.00000000E+00  0.00000000E+00  0.00000000E+00
Nuclear GFac                               R   N=          19
  0.00000000E+00  0.00000000E+00  0.00000000E+00  0.00000000E+00  0.00000000E+00
  0.00000000E+00  4.03761000E-01  0.00000000E+00  2.79284600E+00  2.79284600E+00
  2.79284600E+00  2.79284600E+00  2.79284600E+00  2.79284600E+00  2.79284600E+00
  2.79284600E+00  2.79284600E+00  2.79284600E+00  2.79284600E+00
MicOpt                                     I   N=          19
          -1          -1          -1          -1          -1          -1
          -1          -1          -1          -1          -1          -1
          -1          -1          -1          -1          -1          -1
          -1
Number of residues                         I                0
Number of secondary structures             I                0
Redundant internal dimensions              I   N=           4
         107          19          36          52
Redundant internal coordinate indices      I   N=         428
           1           2           0           0           1           9
           0           0           1          10           0           0
           1          11           0           0           2           3
           0           0           2           4           0           0
           2           7           0           0           3          12
           0           0           3          13           0           0
           3          14           0           0           4           5
           0           0           4          15           0           0
           4          16           0           0           5           6
           0           0           5          17           0           0
           5          18           0           0           6           7
           0           0           6          19           0           0
           7           8           0           0           2           1
           9           0           2           1          10           0
           2           1          11           0           9           1
          10           0           9           1          11           0
          10           1          11           0           1           2
           3           0           1           2           4           0
           1           2           7           0           3           2
           4           0           3           2           7           0
           4           2           7           0           2           3
          12           0           2           3          13           0
           2           3          14           0          12           3
          13           0          12           3          14           0
          13           3          14           0           2           4
           5           0           2           4          15           0
           2           4          16           0           5           4
          15           0           5           4          16           0
          15           4          16           0           4           5
           6           0           4           5          17           0
           4           5          18           0           6           5
          17           0           6           5          18           0
          17           5          18           0           5           6
           7           0           5           6          19           0
           7           6          19           0           2           7
           6           0           2           7           8           0
           6           7           8           0           9           1
           2           3           9           1           2           4
           9           1           2           7          10           1
           2           3          10           1           2           4
          10           1           2           7          11           1
           2           3          11           1           2           4
          11           1           2           7           1           2
           3          12           1           2           3          13
           1           2           3          14           4           2
           3          12           4           2           3          13
           4           2           3          14           7           2
           3          12           7           2           3          13
           7           2           3          14           1           2
           4           5           1           2           4          15
           1           2           4          16           3           2
           4           5           3           2           4          15
           3           2           4          16           7           2
           4           5           7           2           4          15
           7           2           4          16           1           2
           7           6           1           2           7           8
           3           2           7           6           3           2
           7           8           4           2           7           6
           4           2           7           8           2           4
           5           6           2           4           5          17
           2           4           5          18          15           4
           5           6          15           4           5          17
          15           4           5          18          16           4
           5           6          16           4           5          17
          16           4           5          18           4           5
           6           7           4           5           6          19
          17           5           6           7          17           5
           6          19          18           5           6           7
          18           5           6          19           5           6
           7           2           5           6           7           8
          19           6           7           2          19           6
           7           8
Redundant internal coordinates             R   N=         107
  2.89848934E+00  2.06978981E+00  2.07098513E+00  2.06691132E+00  2.88463875E+00
  2.91598110E+00  2.89024211E+00  2.07008111E+00  2.06489130E+00  2.06997530E+00
  2.93129954E+00  2.06724883E+00  2.06929729E+00  2.82420759E+00  2.08038509E+00
  2.07243063E+00  2.47255535E+00  2.04538898E+00  2.39164980E+00  1.92266604E+00
  1.94287350E+00  1.91474117E+00  1.89012765E+00  1.90014735E+00  1.89244907E+00
  1.94311311E+00  1.98203773E+00  1.85964560E+00  1.99602971E+00  1.88795624E+00
  1.77997200E+00  1.91870518E+00  1.92035277E+00  1.93698934E+00  1.90522941E+00
  1.89155111E+00  1.89034985E+00  1.84364696E+00  1.95219170E+00  1.91383501E+00
  1.96399405E+00  1.91282791E+00  1.87728408E+00  1.79219614E+00  1.95287151E+00
  1.95570818E+00  1.94379428E+00  1.96666783E+00  1.85532607E+00  1.97242327E+00
  2.23363860E+00  2.07553704E+00  1.95423716E+00  2.08016398E+00  2.24776922E+00
  9.97619560E-01 -1.28534035E+00  3.05242103E+00  3.09463463E+00  8.11674712E-01
 -1.13374921E+00 -1.09386727E+00  2.90635812E+00  9.60934200E-01 -1.07494250E+00
  1.02387569E+00  3.11584637E+00  1.20076064E+00 -2.98360648E+00 -8.91635800E-01
 -3.11255017E+00 -1.01373199E+00  1.07823870E+00 -1.63643567E+00  5.05848346E-01
  2.58691474E+00  2.39032498E+00 -1.75057630E+00  3.30490095E-01  3.57100739E-01
  2.49938476E+00 -1.70273415E+00  1.85089193E+00 -1.24649972E+00 -2.34140853E+00
  8.44385131E-01 -2.31303611E-01  2.95449005E+00 -3.61352284E-01  1.72497742E+00
 -2.47625329E+00 -2.49608756E+00 -4.09757854E-01  1.67219674E+00  1.69915691E+00
 -2.49769869E+00 -4.15744092E-01  2.32788257E-01 -2.97066976E+00 -1.85984760E+00
  1.21987969E+00  2.34017123E+00 -8.63286784E-01 -1.35794496E-03  3.09072299E+00
 -3.08724482E+00  4.83611365E-03
ZRed-IntVec                                I   N=         107
           0           0           0           0           0           0
           0           0           0           0           0           0
           0           0           0           0           0           0
           0           0           0           0           0           0
           0           0           0           0           0           0
           0           0           0           0           0           0
           0           0           0           0           0           0
           0           0           0           0           0           0
           0           0           0           0           0           0
           0           0           0           0           0           0
           0           0           0           0           0           0
           0           0           0           0           0           0
           0           0           0           0           0           0
           0           0           0           0           0           0
           0           0           0           0           0           0
           0           0           0           0           0           0
           0           0           0           0           0           0
           0           0           0           0           0
ZRed-FPVec                                 R   N=         107
  0.00000000E+00  0.00000000E+00  0.00000000E+00  0.00000000E+00  0.00000000E+00
  0.00000000E+00  0.00000000E+00  0.00000000E+00  0.00000000E+00  0.00000000E+00
  0.00000000E+00  0.00000000E+00  0.00000000E+00  0.00000000E+00  0.00000000E+00
  0.00000000E+00  0.00000000E+00  0.00000000E+00  0.00000000E+00  0.00000000E+00
  0.00000000E+00  0.00000000E+00  0.00000000E+00  0.00000000E+00  0.00000000E+00
  0.00000000E+00  0.00000000E+00  0.00000000E+00  0.00000000E+00  0.00000000E+00
  0.00000000E+00  0.00000000E+00  0.00000000E+00  0.00000000E+00  0.00000000E+00
  0.00000000E+00  0.00000000E+00  0.00000000E+00  0.00000000E+00  0.00000000E+00
  0.00000000E+00  0.00000000E+00  0.00000000E+00  0.00000000E+00  0.00000000E+00
  0.00000000E+00  0.00000000E+00  0.00000000E+00  0.00000000E+00  0.00000000E+00
  0.00000000E+00  0.00000000E+00  0.00000000E+00  0.00000000E+00  0.00000000E+00
  0.00000000E+00  0.00000000E+00  0.00000000E+00  0.00000000E+00  0.00000000E+00
  0.00000000E+00  0.00000000E+00  0.00000000E+00  0.00000000E+00  0.00000000E+00
  0.00000000E+00  0.00000000E+00  0.00000000E+00  0.00000000E+00  0.00000000E+00
  0.00000000E+00  0.00000000E+00  0.00000000E+00  0.00000000E+00  0.00000000E+00
  0.00000000E+00  0.00000000E+00  0.00000000E+00  0.00000000E+00  0.00000000E+00
  0.00000000E+00  0.00000000E+00  0.00000000E+00  0.00000000E+00  0.00000000E+00
  0.00000000E+00  0.00000000E+00  0.00000000E+00  0.00000000E+00  0.00000000E+00
  0.00000000E+00  0.00000000E+00  0.00000000E+00  0.00000000E+00  0.00000000E+00
  0.00000000E+00  0.00000000E+00  0.00000000E+00  0.00000000E+00  0.00000000E+00
  0.00000000E+00  0.00000000E+00  0.00000000E+00  0.00000000E+00  0.00000000E+00
  0.00000000E+00  0.00000000E+00
ZRed-Constraint1                           R   N=         107
  2.89848934E+00  2.06978981E+00  2.07098513E+00  2.06691132E+00  2.88463875E+00
  2.91598110E+00  2.89024211E+00  2.07008111E+00  2.06489130E+00  2.06997530E+00
  2.93129954E+00  2.06724883E+00  2.06929729E+00  2.82420759E+00  2.08038509E+00
  2.07243063E+00  2.47255535E+00  2.04538898E+00  2.39164980E+00  1.92266604E+00
  1.94287350E+00  1.91474117E+00  1.89012765E+00  1.90014735E+00  1.89244907E+00
  1.94311311E+00  1.98203773E+00  1.85964560E+00  1.99602971E+00  1.88795624E+00
  1.77997200E+00  1.91870518E+00  1.92035277E+00  1.93698934E+00  1.90522941E+00
  1.89155111E+00  1.89034985E+00  1.84364696E+00  1.95219170E+00  1.91383501E+00
  1.96399405E+00  1.91282791E+00  1.87728408E+00  1.79219614E+00  1.95287151E+00
  1.95570818E+00  1.94379428E+00  1.96666783E+00  1.85532607E+00  1.97242327E+00
  2.23363860E+00  2.07553704E+00  1.95423716E+00  2.08016398E+00  2.24776922E+00
  9.97619560E-01 -1.28534035E+00  3.05242103E+00  3.09463463E+00  8.11674712E-01
 -1.13374921E+00 -1.09386727E+00  2.90635812E+00  9.60934200E-01 -1.07494250E+00
  1.02387569E+00  3.11584637E+00  1.20076064E+00 -2.98360648E+00 -8.91635800E-01
 -3.11255017E+00 -1.01373199E+00  1.07823870E+00 -1.63643567E+00  5.05848346E-01
  2.58691474E+00  2.39032498E+00 -1.75057630E+00  3.30490095E-01  3.57100739E-01
  2.49938476E+00 -1.70273415E+00  1.85089193E+00 -1.24649972E+00 -2.34140853E+00
  8.44385131E-01 -2.31303611E-01  2.95449005E+00 -3.61352284E-01  1.72497742E+00
 -2.47625329E+00 -2.49608756E+00 -4.09757854E-01  1.67219674E+00  1.69915691E+00
 -2.49769869E+00 -4.15744092E-01  2.32788257E-01 -2.97066976E+00 -1.85984760E+00
  1.21987969E+00  2.34017123E+00 -8.63286784E-01 -1.35794496E-03  3.09072299E+00
 -3.08724482E+00  4.83611365E-03
ZRed-Constraint2                           R   N=         107
  2.95175833E+00  2.05990764E+00  2.05974684E+00  2.05987085E+00  2.95147235E+00
  2.95844857E+00  2.64690198E+00  2.05977004E+00  2.05977562E+00  2.05982877E+00
  2.91105705E+00  2.05988193E+00  2.05975622E+00  2.69672340E+00  2.05984034E+00
  2.05991648E+00  2.41689820E+00  2.05978592E+00  2.41163194E+00  1.91065062E+00
  1.91074490E+00  1.91068953E+00  1.91060679E+00  1.91051819E+00  1.91058937E+00
  1.92175252E+00  1.94299757E+00  1.92009220E+00  1.95117318E+00  1.93298079E+00
  1.79146179E+00  1.91064959E+00  1.91067884E+00  1.91072338E+00  1.91054715E+00
  1.91056099E+00  1.91063946E+00  1.83056759E+00  1.88479363E+00  1.88485300E+00
  1.87605097E+00  1.87611609E+00  2.09453473E+00  1.79616034E+00  1.90715084E+00
  1.90700151E+00  1.86760097E+00  1.86749578E+00  2.09439569E+00  1.99133434E+00
  2.23009025E+00  2.06176072E+00  2.01382748E+00  2.15704989E+00  2.11228756E+00
  4.14790255E-01 -1.75930383E+00  2.54999475E+00  2.50923200E+00  3.35137912E-01
 -1.63874881E+00 -1.67950906E+00  2.42958216E+00  4.55695434E-01 -4.34453946E-01
  1.65987366E+00 -2.52882578E+00  1.73492791E+00 -2.45392979E+00 -3.59443923E-01
 -2.56203032E+00 -4.67702711E-01  1.62678315E+00 -2.00582963E+00 -8.99781718E-03
  2.28042358E+00  2.11990692E+00 -2.16644657E+00  1.22974829E-01  4.75795531E-02
  2.04441137E+00 -1.94935254E+00  2.03571779E+00 -1.09906399E+00 -2.11891818E+00
  1.02948534E+00 -3.38651184E-02  3.11453840E+00 -4.55889360E-02  1.93456870E+00
 -2.02556744E+00 -2.04853393E+00 -6.83762978E-02  2.25467287E+00  1.95745204E+00
 -2.34557563E+00 -2.25264654E-02  2.86977023E-02 -3.11294794E+00 -1.98018693E+00
  1.16135274E+00  2.03737364E+00 -1.10427200E+00  3.87417819E-03  3.13884610E+00
 -3.13767098E+00 -2.69906522E-03
SymInf integers                            I   N=          26
           1           1           1           1           1           0
           0           0           0           0           0           0
           0           0           0           0           0           0
           0           0           0           0           0           0
           0           0
RotTr to input orientation                 R   N=          12
 -5.49357195E-01  8.29854232E-01 -9.77170699E-02  8.22689764E-01  5.57634188E-01
  1.10569727E-01  1.46247135E-01 -1.96485584E-02 -9.89052936E-01 -1.24546420E+00
 -9.85244794E-01  4.28575417E-02
Number of contracted shells                I               54
Number of primitive shells                 I              132
Pure/Cartesian d shells                    I                1
Pure/Cartesian f shells                    I                0
Highest angular momentum                   I                2
Largest degree of contraction              I                6
Shell types                                I   N=          54
           0          -1          -1           2           0          -1
          -1           2           0          -1          -1           2
           0          -1          -1           2           0          -1
          -1           2           0          -1          -1           2
           0          -1          -1           2           0          -1
          -1           2           0           0           0           0
           0           0           0           0           0           0
           0           0           0           0           0           0
           0           0           0           0           0           0
Number of primitives per shell             I   N=          54
           6           3           1           1           6           3
           1           1           6           3           1           1
           6           3           1           1           6           3
           1           1           6           3           1           1
           6           3           1           1           6           3
           1           1           3           1           3           1
           3           1           3           1           3           1
           3           1           3           1           3           1
           3           1           3           1           3           1
Shell to atom map                          I   N=          54
           1           1           1           1           2           2
           2           2           3           3           3           3
           4           4           4           4           5           5
           5           5           6           6           6           6
           7           7           7           7           8           8
           8           8           9           9          10          10
          11          11          12          12          13          13
          14          14          15          15          16          16
          17          17          18          18          19          19
Primitive exponents                        R   N=         132
  3.04752488E+03  4.57369518E+02  1.03948685E+02  2.92101553E+01  9.28666296E+00
  3.16392696E+00  7.86827235E+00  1.88128854E+00  5.44249258E-01  1.68714478E-01
  8.00000000E-01  3.04752488E+03  4.57369518E+02  1.03948685E+02  2.92101553E+01
  9.28666296E+00  3.16392696E+00  7.86827235E+00  1.88128854E+00  5.44249258E-01
  1.68714478E-01  8.00000000E-01  3.04752488E+03  4.57369518E+02  1.03948685E+02
  2.92101553E+01  9.28666296E+00  3.16392696E+00  7.86827235E+00  1.88128854E+00
  5.44249258E-01  1.68714478E-01  8.00000000E-01  3.04752488E+03  4.57369518E+02
  1.03948685E+02  2.92101553E+01  9.28666296E+00  3.16392696E+00  7.86827235E+00
  1.88128854E+00  5.44249258E-01  1.68714478E-01  8.00000000E-01  3.04752488E+03
  4.57369518E+02  1.03948685E+02  2.92101553E+01  9.28666296E+00  3.16392696E+00
  7.86827235E+00  1.88128854E+00  5.44249258E-01  1.68714478E-01  8.00000000E-01
  3.04752488E+03  4.57369518E+02  1.03948685E+02  2.92101553E+01  9.28666296E+00
  3.16392696E+00  7.86827235E+00  1.88128854E+00  5.44249258E-01  1.68714478E-01
  8.00000000E-01  4.17351146E+03  6.27457911E+02  1.42902093E+02  4.02343293E+01
  1.28202129E+01  4.39043701E+00  1.16263619E+01  2.71627981E+00  7.72218397E-01
  2.12031498E-01  8.00000000E-01  5.48467166E+03  8.25234946E+02  1.88046958E+02
  5.29645000E+01  1.68975704E+01  5.79963534E+00  1.55396162E+01  3.59993359E+00
  1.01376175E+00  2.70005823E-01  8.00000000E-01  1.87311370E+01  2.82539436E+00
  6.40121692E-01  1.61277759E-01  1.87311370E+01  2.82539436E+00  6.40121692E-01
  1.61277759E-01  1.87311370E+01  2.82539436E+00  6.40121692E-01  1.61277759E-01
  1.87311370E+01  2.82539436E+00  6.40121692E-01  1.61277759E-01  1.87311370E+01
  2.82539436E+00  6.40121692E-01  1.61277759E-01  1.87311370E+01  2.82539436E+00
  6.40121692E-01  1.61277759E-01  1.87311370E+01  2.82539436E+00  6.40121692E-01
  1.61277759E-01  1.87311370E+01  2.82539436E+00  6.40121692E-01  1.61277759E-01
  1.87311370E+01  2.82539436E+00  6.40121692E-01  1.61277759E-01  1.87311370E+01
  2.82539436E+00  6.40121692E-01  1.61277759E-01  1.87311370E+01  2.82539436E+00
  6.40121692E-01  1.61277759E-01
Contraction coefficients                   R   N=         132
  1.83473713E-03  1.40373228E-02  6.88426223E-02  2.32184443E-01  4.67941348E-01
  3.62311985E-01 -1.19332420E-01 -1.60854152E-01  1.14345644E+00  1.00000000E+00
  1.00000000E+00  1.83473713E-03  1.40373228E-02  6.88426223E-02  2.32184443E-01
  4.67941348E-01  3.62311985E-01 -1.19332420E-01 -1.60854152E-01  1.14345644E+00
  1.00000000E+00  1.00000000E+00  1.83473713E-03  1.40373228E-02  6.88426223E-02
  2.32184443E-01  4.67941348E-01  3.62311985E-01 -1.19332420E-01 -1.60854152E-01
  1.14345644E+00  1.00000000E+00  1.00000000E+00  1.83473713E-03  1.40373228E-02
  6.88426223E-02  2.32184443E-01  4.67941348E-01  3.62311985E-01 -1.19332420E-01
 -1.60854152E-01  1.14345644E+00  1.00000000E+00  1.00000000E+00  1.83473713E-03
  1.40373228E-02  6.88426223E-02  2.32184443E-01  4.67941348E-01  3.62311985E-01
 -1.19332420E-01 -1.60854152E-01  1.14345644E+00  1.00000000E+00  1.00000000E+00
  1.83473713E-03  1.40373228E-02  6.88426223E-02  2.32184443E-01  4.67941348E-01
  3.62311985E-01 -1.19332420E-01 -1.60854152E-01  1.14345644E+00  1.00000000E+00
  1.00000000E+00  1.83477216E-03  1.39946270E-02  6.85865518E-02  2.32240873E-01
  4.69069948E-01  3.60455199E-01 -1.14961182E-01 -1.69117479E-01  1.14585195E+00
  1.00000000E+00  1.00000000E+00  1.83107443E-03  1.39501722E-02  6.84450781E-02
  2.32714336E-01  4.70192898E-01  3.58520853E-01 -1.10777550E-01 -1.48026263E-01
  1.13076702E+00  1.00000000E+00  1.00000000E+00  3.34946043E-02  2.34726953E-01
  8.13757326E-01  1.00000000E+00  3.34946043E-02  2.34726953E-01  8.13757326E-01
  1.00000000E+00  3.34946043E-02  2.34726953E-01  8.13757326E-01  1.00000000E+00
  3.34946043E-02  2.34726953E-01  8.13757326E-01  1.00000000E+00  3.34946043E-02
  2.34726953E-01  8.13757326E-01  1.00000000E+00  3.34946043E-02  2.34726953E-01
  8.13757326E-01  1.00000000E+00  3.34946043E-02  2.34726953E-01  8.13757326E-01
  1.00000000E+00  3.34946043E-02  2.34726953E-01  8.13757326E-01  1.00000000E+00
  3.34946043E-02  2.34726953E-01  8.13757326E-01  1.00000000E+00  3.34946043E-02
  2.34726953E-01  8.13757326E-01  1.00000000E+00  3.34946043E-02  2.34726953E-01
  8.13757326E-01  1.00000000E+00
P(S=P) Contraction coefficients            R   N=         132
  0.00000000E+00  0.00000000E+00  0.00000000E+00  0.00000000E+00  0.00000000E+00
  0.00000000E+00  6.89990666E-02  3.16423961E-01  7.44308291E-01  1.00000000E+00
  0.00000000E+00  0.00000000E+00  0.00000000E+00  0.00000000E+00  0.00000000E+00
  0.00000000E+00  0.00000000E+00  6.89990666E-02  3.16423961E-01  7.44308291E-01
  1.00000000E+00  0.00000000E+00  0.00000000E+00  0.00000000E+00  0.00000000E+00
  0.00000000E+00  0.00000000E+00  0.00000000E+00  6.89990666E-02  3.16423961E-01
  7.44308291E-01  1.00000000E+00  0.00000000E+00  0.00000000E+00  0.00000000E+00
  0.00000000E+00  0.00000000E+00  0.00000000E+00  0.00000000E+00  6.89990666E-02
  3.16423961E-01  7.44308291E-01  1.00000000E+00  0.00000000E+00  0.00000000E+00
  0.00000000E+00  0.00000000E+00  0.00000000E+00  0.00000000E+00  0.00000000E+00
  6.89990666E-02  3.16423961E-01  7.44308291E-01  1.00000000E+00  0.00000000E+00
  0.00000000E+00  0.00000000E+00  0.00000000E+00  0.00000000E+00  0.00000000E+00
  0.00000000E+00  6.89990666E-02  3.16423961E-01  7.44308291E-01  1.00000000E+00