 Entering Gaussian System, Link 0=/apps/cent7/gaussian/g16-A.03/g16-haswell/g16/g16
 Initial command:
 /apps/cent7/gaussian/g16-A.03/g16-haswell/g16/l1.exe "/scratch/brown/finej/gaussian/Gau-118774.inp" -scrdir="/scratch/brown/finej/gaussian/"
 Entering Link 1 = /apps/cent7/gaussian/g16-A.03/g16-haswell/g16/l1.exe PID=    118778.
  
 Copyright (c) 1988,1990,1992,1993,1995,1998,2003,2009,2016,
            Gaussian, Inc.  All Rights Reserved.
  
 This is part of the Gaussian(R) 16 program.  It is based on
 the Gaussian(R) 09 system (copyright 2009, Gaussian, Inc.),
 the Gaussian(R) 03 system (copyright 2003, Gaussian, Inc.),
 the Gaussian(R) 98 system (copyright 1998, Gaussian, Inc.),
 the Gaussian(R) 94 system (copyright 1995, Gaussian, Inc.),
 the Gaussian 92(TM) system (copyright 1992, Gaussian, Inc.),
 the Gaussian 90(TM) system (copyright 1990, Gaussian, Inc.),
 the Gaussian 88(TM) system (copyright 1988, Gaussian, Inc.),
 the Gaussian 86(TM) system (copyright 1986, Carnegie Mellon
 University), and the Gaussian 82(TM) system (copyright 1983,
 Carnegie Mellon University). Gaussian is a federally registered
 trademark of Gaussian, Inc.
  
 This software contains proprietary and confidential information,
 including trade secrets, belonging to Gaussian, Inc.
  
 This software is provided under written license and may be
 used, copied, transmitted, or stored only in accord with that
 written license.
  
 The following legend is applicable only to US Government
 contracts under FAR:
  
                    RESTRICTED RIGHTS LEGEND
  
 Use, reproduction and disclosure by the US Government is
 subject to restrictions as set forth in subparagraphs (a)
 and (c) of the Commercial Computer Software - Restricted
 Rights clause in FAR 52.227-19.
  
 Gaussian, Inc.
 340 Quinnipiac St., Bldg. 40, Wallingford CT 06492
  
  
 ---------------------------------------------------------------
 Warning -- This program may not be used in any manner that
 competes with the business of Gaussian, Inc. or will provide
 assistance to any competitor of Gaussian, Inc.  The licensee
 of this program is prohibited from giving any competitor of
 Gaussian, Inc. access to this program.  By using this program,
 the user acknowledges that Gaussian, Inc. is engaged in the
 business of creating and licensing software in the field of
 computational chemistry and represents and warrants to the
 licensee that it is not a competitor of Gaussian, Inc. and that
 it will not use this program in any manner prohibited above.
 ---------------------------------------------------------------
  

 Cite this work as:
 Gaussian 16, Revision A.03,
 M. J. Frisch, G. W. Trucks, H. B. Schlegel, G. E. Scuseria, 
 M. A. Robb, J. R. Cheeseman, G. Scalmani, V. Barone, 
 G. A. Petersson, H. Nakatsuji, X. Li, M. Caricato, A. V. Marenich, 
 J. Bloino, B. G. Janesko, R. Gomperts, B. Mennucci, H. P. Hratchian, 
 J. V. Ortiz, A. F. Izmaylov, J. L. Sonnenberg, D. Williams-Young, 
 F. Ding, F. Lipparini, F. Egidi, J. Goings, B. Peng, A. Petrone, 
 T. Henderson, D. Ranasinghe, V. G. Zakrzewski, J. Gao, N. Rega, 
 G. Zheng, W. Liang, M. Hada, M. Ehara, K. Toyota, R. Fukuda, 
 J. Hasegawa, M. Ishida, T. Nakajima, Y. Honda, O. Kitao, H. Nakai, 
 T. Vreven, K. Throssell, J. A. Montgomery, Jr., J. E. Peralta, 
 F. Ogliaro, M. J. Bearpark, J. J. Heyd, E. N. Brothers, K. N. Kudin, 
 V. N. Staroverov, T. A. Keith, R. Kobayashi, J. Normand, 
 K. Raghavachari, A. P. Rendell, J. C. Burant, S. S. Iyengar, 
 J. Tomasi, M. Cossi, J. M. Millam, M. Klene, C. Adamo, R. Cammi, 
 J. W. Ochterski, R. L. Martin, K. Morokuma, O. Farkas, 
 J. B. Foresman, and D. J. Fox, Gaussian, Inc., Wallingford CT, 2016.
 
 ******************************************
 Gaussian 16:  ES64L-G16RevA.03 25-Dec-2016
                14-Oct-2019 
 ******************************************
 %chk=5.chk
 %nprocshared=24
 Will use up to   24 processors via shared memory.
 %mem=80GB
 --------------------------------------------------------------
 #P opt freq b3lyp/6-31g(d) geom=connectivity temperature=0.001
 --------------------------------------------------------------
 1/18=20,19=15,26=3,38=1,57=2,112=-1000/1,3;
 2/9=110,12=2,17=6,18=5,40=1/2;
 3/5=1,6=6,7=1,11=2,25=1,30=1,71=1,74=-5/1,2,3;
 4//1;
 5/5=2,38=5/2;
 6/7=2,8=2,9=2,10=2,28=1/1;
 7//1,2,3,16;
 1/18=20,19=15,26=3/3(2);
 2/9=110/2;
 99//99;
 2/9=110/2;
 3/5=1,6=6,7=1,11=2,25=1,30=1,71=1,74=-5/1,2,3;
 4/5=5,16=3,69=1/1;
 5/5=2,38=5/2;
 7//1,2,3,16;
 1/18=20,19=15,26=3/3(-5);
 2/9=110/2;
 6/7=2,8=2,9=2,10=2,19=2,28=1/1;
 99/9=1/99;
 Leave Link    1 at Mon Oct 14 02:15:32 2019, MaxMem= 10737418240 cpu:               1.9 elap:               0.1
 (Enter /apps/cent7/gaussian/g16-A.03/g16-haswell/g16/l101.exe)
 -------------------
 Title Card Required
 -------------------
 Symbolic Z-matrix:
 Charge =  0 Multiplicity = 1
 C                    -0.4364   -1.9519   -1.3354 
 C                    -0.7338   -1.1583   -0.0233 
 C                    -0.4103   -2.0416    1.2235 
 C                    -2.2086   -0.6337    0.0029 
 C                    -2.0832    0.9013   -0.03 
 C                    -0.6712    1.1065   -0.0054 
 N                     0.0134    0.0262    0.0003 
 O                     1.2891    0.056     0.0187 
 H                    -0.4826   -3.0217   -1.1314 
 H                    -1.1774   -1.694    -2.092 
 H                     0.5585   -1.694    -1.6985 
 H                    -0.481    -3.0946    0.951 
 H                     0.5994   -1.8234    1.5713 
 H                    -1.1235   -1.8234    2.0184 
 H                    -2.6924   -0.9428   -0.9237 
 H                    -2.6459   -0.9062    0.9634 
 H                    -2.4424    1.2711   -0.9904 
 H                    -2.4815    1.3146    0.8967 
 H                    -0.1345    2.0551    0.0085 
 
 ITRead=  0  0  0  0  0  0  0  0  0  0  0  0  0  0  0  0  0  0  0
 MicOpt= -1 -1 -1 -1 -1 -1 -1 -1 -1 -1 -1 -1 -1 -1 -1 -1 -1 -1 -1
 NAtoms=     19 NQM=       19 NQMF=       0 NMMI=      0 NMMIF=      0
                NMic=       0 NMicF=      0.
                    Isotopes and Nuclear Properties:
 (Nuclear quadrupole moments (NQMom) in fm**2, nuclear magnetic moments (NMagM)
  in nuclear magnetons)

  Atom         1           2           3           4           5           6           7           8           9          10
 IAtWgt=          12          12          12          12          12          12          14          16           1           1
 AtmWgt=  12.0000000  12.0000000  12.0000000  12.0000000  12.0000000  12.0000000  14.0030740  15.9949146   1.0078250   1.0078250
 NucSpn=           0           0           0           0           0           0           2           0           1           1
 AtZEff=  -0.0000000  -0.0000000  -0.0000000  -0.0000000  -0.0000000  -0.0000000  -0.0000000  -0.0000000  -0.0000000  -0.0000000
 NQMom=    0.0000000   0.0000000   0.0000000   0.0000000   0.0000000   0.0000000   2.0440000   0.0000000   0.0000000   0.0000000
 NMagM=    0.0000000   0.0000000   0.0000000   0.0000000   0.0000000   0.0000000   0.4037610   0.0000000   2.7928460   2.7928460
 AtZNuc=   6.0000000   6.0000000   6.0000000   6.0000000   6.0000000   6.0000000   7.0000000   8.0000000   1.0000000   1.0000000

  Atom        11          12          13          14          15          16          17          18          19
 IAtWgt=           1           1           1           1           1           1           1           1           1
 AtmWgt=   1.0078250   1.0078250   1.0078250   1.0078250   1.0078250   1.0078250   1.0078250   1.0078250   1.0078250
 NucSpn=           1           1           1           1           1           1           1           1           1
 AtZEff=  -0.0000000  -0.0000000  -0.0000000  -0.0000000  -0.0000000  -0.0000000  -0.0000000  -0.0000000  -0.0000000
 NQMom=    0.0000000   0.0000000   0.0000000   0.0000000   0.0000000   0.0000000   0.0000000   0.0000000   0.0000000
 NMagM=    2.7928460   2.7928460   2.7928460   2.7928460   2.7928460   2.7928460   2.7928460   2.7928460   2.7928460
 AtZNuc=   1.0000000   1.0000000   1.0000000   1.0000000   1.0000000   1.0000000   1.0000000   1.0000000   1.0000000
 Leave Link  101 at Mon Oct 14 02:15:32 2019, MaxMem= 10737418240 cpu:               8.4 elap:               0.4
 (Enter /apps/cent7/gaussian/g16-A.03/g16-haswell/g16/l103.exe)

 GradGradGradGradGradGradGradGradGradGradGradGradGradGradGradGradGradGrad
 Berny optimization.
 Initialization pass.
                           ----------------------------
                           !    Initial Parameters    !
                           ! (Angstroms and Degrees)  !
 --------------------------                            --------------------------
 ! Name  Definition              Value          Derivative Info.                !
 --------------------------------------------------------------------------------
 ! R1    R(1,2)                  1.562          estimate D2E/DX2                !
 ! R2    R(1,9)                  1.0901         estimate D2E/DX2                !
 ! R3    R(1,10)                 1.09           estimate D2E/DX2                !
 ! R4    R(1,11)                 1.09           estimate D2E/DX2                !
 ! R5    R(2,3)                  1.5619         estimate D2E/DX2                !
 ! R6    R(2,4)                  1.5655         estimate D2E/DX2                !
 ! R7    R(2,7)                  1.4007         estimate D2E/DX2                !
 ! R8    R(3,12)                 1.09           estimate D2E/DX2                !
 ! R9    R(3,13)                 1.09           estimate D2E/DX2                !
 ! R10   R(3,14)                 1.09           estimate D2E/DX2                !
 ! R11   R(4,5)                  1.5405         estimate D2E/DX2                !
 ! R12   R(4,15)                 1.09           estimate D2E/DX2                !
 ! R13   R(4,16)                 1.09           estimate D2E/DX2                !
 ! R14   R(5,6)                  1.427          estimate D2E/DX2                !
 ! R15   R(5,17)                 1.09           estimate D2E/DX2                !
 ! R16   R(5,18)                 1.0901         estimate D2E/DX2                !
 ! R17   R(6,7)                  1.279          estimate D2E/DX2                !
 ! R18   R(6,19)                 1.09           estimate D2E/DX2                !
 ! R19   R(7,8)                  1.2762         estimate D2E/DX2                !
 ! A1    A(2,1,9)              109.4722         estimate D2E/DX2                !
 ! A2    A(2,1,10)             109.4776         estimate D2E/DX2                !
 ! A3    A(2,1,11)             109.4744         estimate D2E/DX2                !
 ! A4    A(9,1,10)             109.4697         estimate D2E/DX2                !
 ! A5    A(9,1,11)             109.4646         estimate D2E/DX2                !
 ! A6    A(10,1,11)            109.4687         estimate D2E/DX2                !
 ! A7    A(1,2,3)              110.1083         estimate D2E/DX2                !
 ! A8    A(1,2,4)              111.3256         estimate D2E/DX2                !
 ! A9    A(1,2,7)              110.0132         estimate D2E/DX2                !
 ! A10   A(3,2,4)              111.794          estimate D2E/DX2                !
 ! A11   A(3,2,7)              110.7516         estimate D2E/DX2                !
 ! A12   A(4,2,7)              102.6432         estimate D2E/DX2                !
 ! A13   A(2,3,12)             109.4722         estimate D2E/DX2                !
 ! A14   A(2,3,13)             109.4738         estimate D2E/DX2                !
 ! A15   A(2,3,14)             109.4764         estimate D2E/DX2                !
 ! A16   A(12,3,13)            109.4663         estimate D2E/DX2                !
 ! A17   A(12,3,14)            109.4671         estimate D2E/DX2                !
 ! A18   A(13,3,14)            109.4716         estimate D2E/DX2                !
 ! A19   A(2,4,5)              104.8838         estimate D2E/DX2                !
 ! A20   A(2,4,15)             107.9907         estimate D2E/DX2                !
 ! A21   A(2,4,16)             107.9941         estimate D2E/DX2                !
 ! A22   A(5,4,15)             107.4898         estimate D2E/DX2                !
 ! A23   A(5,4,16)             107.4935         estimate D2E/DX2                !
 ! A24   A(15,4,16)            120.008          estimate D2E/DX2                !
 ! A25   A(4,5,6)              102.9124         estimate D2E/DX2                !
 ! A26   A(4,5,17)             109.2717         estimate D2E/DX2                !
 ! A27   A(4,5,18)             109.2631         estimate D2E/DX2                !
 ! A28   A(6,5,17)             107.0057         estimate D2E/DX2                !
 ! A29   A(6,5,18)             106.9996         estimate D2E/DX2                !
 ! A30   A(17,5,18)            120.0            estimate D2E/DX2                !
 ! A31   A(5,6,7)              114.0951         estimate D2E/DX2                !
 ! A32   A(5,6,19)             127.7748         estimate D2E/DX2                !
 ! A33   A(7,6,19)             118.1302         estimate D2E/DX2                !
 ! A34   A(2,7,6)              115.3838         estimate D2E/DX2                !
 ! A35   A(2,7,8)              123.5899         estimate D2E/DX2                !
 ! A36   A(6,7,8)              121.0252         estimate D2E/DX2                !
 ! D1    D(9,1,2,3)             23.7657         estimate D2E/DX2                !
 ! D2    D(9,1,2,4)           -100.8007         estimate D2E/DX2                !
 ! D3    D(9,1,2,7)            146.1039         estimate D2E/DX2                !
 ! D4    D(10,1,2,3)           143.7684         estimate D2E/DX2                !
 ! D5    D(10,1,2,4)            19.202          estimate D2E/DX2                !
 ! D6    D(10,1,2,7)           -93.8934         estimate D2E/DX2                !
 ! D7    D(11,1,2,3)           -96.2288         estimate D2E/DX2                !
 ! D8    D(11,1,2,4)           139.2048         estimate D2E/DX2                !
 ! D9    D(11,1,2,7)            26.1094         estimate D2E/DX2                !
 ! D10   D(1,2,3,12)           -24.8924         estimate D2E/DX2                !
 ! D11   D(1,2,3,13)            95.1038         estimate D2E/DX2                !
 ! D12   D(1,2,3,14)          -144.891          estimate D2E/DX2                !
 ! D13   D(4,2,3,12)            99.404          estimate D2E/DX2                !
 ! D14   D(4,2,3,13)          -140.5998         estimate D2E/DX2                !
 ! D15   D(4,2,3,14)           -20.5946         estimate D2E/DX2                !
 ! D16   D(7,2,3,12)          -146.7935         estimate D2E/DX2                !
 ! D17   D(7,2,3,13)           -26.7974         estimate D2E/DX2                !
 ! D18   D(7,2,3,14)            93.2078         estimate D2E/DX2                !
 ! D19   D(1,2,4,5)           -114.9256         estimate D2E/DX2                !
 ! D20   D(1,2,4,15)            -0.5155         estimate D2E/DX2                !
 ! D21   D(1,2,4,16)           130.6586         estimate D2E/DX2                !
 ! D22   D(3,2,4,5)            121.4617         estimate D2E/DX2                !
 ! D23   D(3,2,4,15)          -124.1282         estimate D2E/DX2                !
 ! D24   D(3,2,4,16)             7.0459         estimate D2E/DX2                !
 ! D25   D(7,2,4,5)              2.7261         estimate D2E/DX2                !
 ! D26   D(7,2,4,15)           117.1361         estimate D2E/DX2                !
 ! D27   D(7,2,4,16)          -111.6897         estimate D2E/DX2                !
 ! D28   D(1,2,7,6)            116.638          estimate D2E/DX2                !
 ! D29   D(1,2,7,8)            -62.9717         estimate D2E/DX2                !
 ! D30   D(3,2,7,6)           -121.4051         estimate D2E/DX2                !
 ! D31   D(3,2,7,8)             58.9852         estimate D2E/DX2                !
 ! D32   D(4,2,7,6)             -1.9403         estimate D2E/DX2                !
 ! D33   D(4,2,7,8)            178.4499         estimate D2E/DX2                !
 ! D34   D(2,4,5,6)             -2.6121         estimate D2E/DX2                !
 ! D35   D(2,4,5,17)           110.8426         estimate D2E/DX2                !
 ! D36   D(2,4,5,18)          -116.0565         estimate D2E/DX2                !
 ! D37   D(15,4,5,6)          -117.3723         estimate D2E/DX2                !
 ! D38   D(15,4,5,17)           -3.9177         estimate D2E/DX2                !
 ! D39   D(15,4,5,18)          129.1832         estimate D2E/DX2                !
 ! D40   D(16,4,5,6)           112.1537         estimate D2E/DX2                !
 ! D41   D(16,4,5,17)         -134.3916         estimate D2E/DX2                !
 ! D42   D(16,4,5,18)           -1.2907         estimate D2E/DX2                !
 ! D43   D(4,5,6,7)              1.6443         estimate D2E/DX2                !
 ! D44   D(4,5,6,19)          -178.3588         estimate D2E/DX2                !
 ! D45   D(17,5,6,7)          -113.4564         estimate D2E/DX2                !
 ! D46   D(17,5,6,19)           66.5406         estimate D2E/DX2                !
 ! D47   D(18,5,6,7)           116.7329         estimate D2E/DX2                !
 ! D48   D(18,5,6,19)          -63.2701         estimate D2E/DX2                !
 ! D49   D(5,6,7,2)              0.222          estimate D2E/DX2                !
 ! D50   D(5,6,7,8)            179.8426         estimate D2E/DX2                !
 ! D51   D(19,6,7,2)          -179.7753         estimate D2E/DX2                !
 ! D52   D(19,6,7,8)            -0.1546         estimate D2E/DX2                !
 --------------------------------------------------------------------------------
 Trust Radius=3.00D-01 FncErr=1.00D-07 GrdErr=1.00D-06 EigMax=2.50D+02 EigMin=1.00D-04
 Number of steps in this run=    114 maximum allowed number of steps=    114.
 GradGradGradGradGradGradGradGradGradGradGradGradGradGradGradGradGradGrad

 Leave Link  103 at Mon Oct 14 02:15:32 2019, MaxMem= 10737418240 cpu:               0.4 elap:               0.1
 (Enter /apps/cent7/gaussian/g16-A.03/g16-haswell/g16/l202.exe)
                          Input orientation:                          
 ---------------------------------------------------------------------
 Center     Atomic      Atomic             Coordinates (Angstroms)
 Number     Number       Type             X           Y           Z
 ---------------------------------------------------------------------
      1          6           0       -0.436400   -1.951900   -1.335400
      2          6           0       -0.733800   -1.158300   -0.023300
      3          6           0       -0.410300   -2.041600    1.223500
      4          6           0       -2.208600   -0.633700    0.002900
      5          6           0       -2.083200    0.901300   -0.030000
      6          6           0       -0.671200    1.106500   -0.005400
      7          7           0        0.013400    0.026200    0.000300
      8          8           0        1.289100    0.056000    0.018700
      9          1           0       -0.482600   -3.021700   -1.131400
     10          1           0       -1.177400   -1.694000   -2.092000
     11          1           0        0.558500   -1.694000   -1.698500
     12          1           0       -0.481000   -3.094600    0.951000
     13          1           0        0.599400   -1.823400    1.571300
     14          1           0       -1.123500   -1.823400    2.018400
     15          1           0       -2.692400   -0.942800   -0.923700
     16          1           0       -2.645900   -0.906200    0.963400
     17          1           0       -2.442400    1.271100   -0.990400
     18          1           0       -2.481500    1.314600    0.896700
     19          1           0       -0.134500    2.055100    0.008500
 ---------------------------------------------------------------------
                    Distance matrix (angstroms):
                    1          2          3          4          5
     1  C    0.000000
     2  C    1.562003   0.000000
     3  C    2.560605   1.561852   0.000000
     4  C    2.582516   1.565544   2.589581   0.000000
     5  C    3.543553   2.462291   3.609781   1.540465   0.000000
     6  C    3.343328   2.265736   3.389513   2.322060   1.427045
     7  N    2.428846   1.400680   2.439577   2.317921   2.272102
     8  O    2.973651   2.359748   2.956253   3.565086   3.476969
     9  H    1.090056   2.182486   2.551740   3.157255   4.377777
    10  H    1.089971   2.182493   3.420791   2.564413   3.436262
    11  H    1.090037   2.182501   3.097981   3.416993   4.061780
    12  H    2.556438   2.182298   1.089983   3.152701   4.415498
    13  H    3.088414   2.182322   1.089986   3.429304   4.145418
    14  H    3.425871   2.182376   1.090014   2.579742   3.541321
    15  H    2.505457   2.166397   3.320513   1.090043   2.137880
    16  H    3.355572   2.166393   2.520852   1.089976   2.137880
    17  H    3.811927   3.123553   4.472669   2.160919   1.090021
    18  H    4.453620   3.164821   3.957366   2.160839   1.090061
    19  H    4.237129   3.268962   4.281967   3.395816   2.264988
                    6          7          8          9         10
     6  C    0.000000
     7  N    1.278967   0.000000
     8  O    2.224164   1.276181   0.000000
     9  H    4.283163   3.288838   3.732812   0.000000
    10  H    3.528872   2.958853   3.687977   1.779968   0.000000
    11  H    3.495933   2.478335   2.558330   1.779966   1.779941
    12  H    4.312785   3.299645   3.732120   2.083676   3.421477
    13  H    3.561562   2.496489   2.533456   3.148211   4.073516
    14  H    3.589520   2.964168   3.653982   3.430440   4.112790
    15  H    3.021284   3.018955   4.211658   3.041082   2.055347
    16  H    2.981438   2.978054   4.159629   3.680135   3.480315
    17  H    2.033339   2.926126   4.052017   4.721105   3.406694
    18  H    2.033292   2.947547   4.070919   5.187706   4.436742
    19  H    1.089992   2.034300   2.454209   5.214829   4.422159
                   11         12         13         14         15
    11  H    0.000000
    12  H    3.172080   0.000000
    13  H    3.272615   1.779884   0.000000
    14  H    4.081815   1.779915   1.779967   0.000000
    15  H    3.425342   3.610406   4.223320   3.448602   0.000000
    16  H    4.239637   3.078318   3.426773   2.066877   1.888028
    17  H    4.277689   5.164829   5.038927   4.513126   2.228969
    18  H    5.002833   4.842106   4.449053   3.598530   2.907609
    19  H    4.177302   5.246692   4.245435   4.478904   4.049599
                   16         17         18         19
    16  H    0.000000
    17  H    2.932470   0.000000
    18  H    2.227875   1.888006   0.000000
    19  H    3.998532   2.634172   2.616419   0.000000
 Stoichiometry    C6H11NO
 Framework group  C1[X(C6H11NO)]
 Deg. of freedom    51
 Full point group                 C1      NOp   1
 Largest Abelian subgroup         C1      NOp   1
 Largest concise Abelian subgroup C1      NOp   1
                         Standard orientation:                         
 ---------------------------------------------------------------------
 Center     Atomic      Atomic             Coordinates (Angstroms)
 Number     Number       Type             X           Y           Z
 ---------------------------------------------------------------------
      1          6           0       -1.378946   -0.461275    1.307935
      2          6           0       -0.538496   -0.344574   -0.003507
      3          6           0       -1.475277   -0.425578   -1.250608
      4          6           0        0.591297   -1.427141   -0.053916
      5          6           0        1.907426   -0.628000   -0.006879
      6          6           0        1.458113    0.726458   -0.002877
      7          7           0        0.185566    0.854443   -0.003738
      8          8           0       -0.359465    2.008366    0.002512
      9          1           0       -2.314980   -0.977688    1.094909
     10          1           0       -0.815032   -1.023557    2.052164
     11          1           0       -1.593570    0.536036    1.691974
     12          1           0       -2.384486   -0.966148   -0.987576
     13          1           0       -1.733259    0.581776   -1.577339
     14          1           0       -0.962007   -0.948933   -2.057321
     15          1           0        0.533367   -2.017071    0.860862
     16          1           0        0.541972   -1.920352   -1.024667
     17          1           0        2.400646   -0.803088    0.949271
     18          1           0        2.453777   -0.779785   -0.937843
     19          1           0        2.065626    1.631443    0.000756
 ---------------------------------------------------------------------
 Rotational constants (GHZ):           2.6435649           2.2710514           1.7093689
 Leave Link  202 at Mon Oct 14 02:15:32 2019, MaxMem= 10737418240 cpu:               0.6 elap:               0.0
 (Enter /apps/cent7/gaussian/g16-A.03/g16-haswell/g16/l301.exe)
 Standard basis: 6-31G(d) (6D, 7F)
 Ernie: Thresh=  0.10000D-02 Tol=  0.10000D-05 Strict=F.
 There are   142 symmetry adapted cartesian basis functions of A   symmetry.
 There are   142 symmetry adapted basis functions of A   symmetry.
   142 basis functions,   268 primitive gaussians,   142 cartesian basis functions
    31 alpha electrons       31 beta electrons
       nuclear repulsion energy       408.0743848005 Hartrees.
 IExCor=  402 DFT=T Ex+Corr=B3LYP ExCW=0 ScaHFX=  0.200000
 ScaDFX=  0.800000  0.720000  1.000000  0.810000 ScalE2=  1.000000  1.000000
 IRadAn=      5 IRanWt=     -1 IRanGd=            0 ICorTp=0 IEmpDi=  4
 NAtoms=   19 NActive=   19 NUniq=   19 SFac= 1.00D+00 NAtFMM=   60 NAOKFM=F Big=F
 Integral buffers will be    131072 words long.
 Raffenetti 2 integral format.
 Two-electron integral symmetry is turned on.
 Leave Link  301 at Mon Oct 14 02:15:32 2019, MaxMem= 10737418240 cpu:               2.2 elap:               0.1
 (Enter /apps/cent7/gaussian/g16-A.03/g16-haswell/g16/l302.exe)
 NPDir=0 NMtPBC=     1 NCelOv=     1 NCel=       1 NClECP=     1 NCelD=      1
         NCelK=      1 NCelE2=     1 NClLst=     1 CellRange=     0.0.
 One-electron integrals computed using PRISM.
 One-electron integral symmetry used in STVInt
 NBasis=   142 RedAO= T EigKep=  1.79D-03  NBF=   142
 NBsUse=   142 1.00D-06 EigRej= -1.00D+00 NBFU=   142
 Precomputing XC quadrature grid using
 IXCGrd= 4 IRadAn=           5 IRanWt=          -1 IRanGd=           0 AccXCQ= 0.00D+00.
 Generated NRdTot=       0 NPtTot=           0 NUsed=           0 NTot=          32
 NSgBfM=   142   142   142   142   142 MxSgAt=    19 MxSgA2=    19.
 Leave Link  302 at Mon Oct 14 02:15:32 2019, MaxMem= 10737418240 cpu:               4.1 elap:               0.2
 (Enter /apps/cent7/gaussian/g16-A.03/g16-haswell/g16/l303.exe)
 DipDrv:  MaxL=1.
 Leave Link  303 at Mon Oct 14 02:15:33 2019, MaxMem= 10737418240 cpu:               1.3 elap:               0.1
 (Enter /apps/cent7/gaussian/g16-A.03/g16-haswell/g16/l401.exe)
 ExpMin= 1.61D-01 ExpMax= 5.48D+03 ExpMxC= 8.25D+02 IAcc=3 IRadAn=         5 AccDes= 0.00D+00
 Harris functional with IExCor=  402 and IRadAn=       5 diagonalized for initial guess.
 HarFok:  IExCor=  402 AccDes= 0.00D+00 IRadAn=         5 IDoV= 1 UseB2=F ITyADJ=14
 ICtDFT=  3500011 ScaDFX=  1.000000  1.000000  1.000000  1.000000
 FoFCou: FMM=F IPFlag=           0 FMFlag=      100000 FMFlg1=           0
         NFxFlg=           0 DoJE=T BraDBF=F KetDBF=T FulRan=T
         wScrn=  0.000000 ICntrl=       500 IOpCl=  0 I1Cent=   200000004 NGrid=           0
         NMat0=    1 NMatS0=      1 NMatT0=    0 NMatD0=    1 NMtDS0=    0 NMtDT0=    0
 Petite list used in FoFCou.
 Harris En= -365.191141342969    
 JPrj=0 DoOrth=F DoCkMO=F.
 Leave Link  401 at Mon Oct 14 02:15:33 2019, MaxMem= 10737418240 cpu:               7.7 elap:               0.4
 (Enter /apps/cent7/gaussian/g16-A.03/g16-haswell/g16/l502.exe)
 Integral symmetry usage will be decided dynamically.
 Closed shell SCF:
 Using DIIS extrapolation, IDIIS=  1040.
 NGot= 10737418240 LenX= 10737372695 LenY= 10737352090
 Requested convergence on RMS density matrix=1.00D-08 within 128 cycles.
 Requested convergence on MAX density matrix=1.00D-06.
 Requested convergence on             energy=1.00D-06.
 No special actions if energy rises.
 Fock matrices will be formed incrementally for  20 cycles.
 Integral accuracy reduced to 1.0D-05 until final iterations.

 Cycle   1  Pass 0  IDiag  1:
 FoFJK:  IHMeth= 1 ICntrl=       0 DoSepK=F KAlg= 0 I1Cent=           0 FoldK=F
 IRaf= 990000000 NMat=       1 IRICut=       1 DoRegI=T DoRafI=F ISym2E= 0 IDoP0=0 IntGTp=1.
 FoFCou: FMM=F IPFlag=           0 FMFlag=      100000 FMFlg1=           0
         NFxFlg=           0 DoJE=F BraDBF=F KetDBF=F FulRan=T
         wScrn=  0.000000 ICntrl=         0 IOpCl=  0 I1Cent=           0 NGrid=           0
         NMat0=    1 NMatS0=      1 NMatT0=    0 NMatD0=    1 NMtDS0=    0 NMtDT0=    0
 Symmetry not used in FoFCou.
 E= -364.877840515506    
 DIIS: error= 4.56D-02 at cycle   1 NSaved=   1.
 NSaved= 1 IEnMin= 1 EnMin= -364.877840515506     IErMin= 1 ErrMin= 4.56D-02
 ErrMax= 4.56D-02  0.00D+00 EMaxC= 1.00D-01 BMatC= 2.77D-01 BMatP= 2.77D-01
 IDIUse=3 WtCom= 5.44D-01 WtEn= 4.56D-01
 Coeff-Com:  0.100D+01
 Coeff-En:   0.100D+01
 Coeff:      0.100D+01
 Gap=     0.138 Goal=   None    Shift=    0.000
 GapD=    0.138 DampG=1.000 DampE=0.500 DampFc=0.5000 IDamp=-1.
 Damping current iteration by 5.00D-01
 RMSDP=8.38D-03 MaxDP=2.07D-01              OVMax= 2.97D-01

 Cycle   2  Pass 0  IDiag  1:
 RMSU=  4.17D-03    CP:  9.85D-01
 E= -364.971401925079     Delta-E=       -0.093561409573 Rises=F Damp=T
 DIIS: error= 1.38D-02 at cycle   2 NSaved=   2.
 NSaved= 2 IEnMin= 2 EnMin= -364.971401925079     IErMin= 2 ErrMin= 1.38D-02
 ErrMax= 1.38D-02  0.00D+00 EMaxC= 1.00D-01 BMatC= 3.43D-02 BMatP= 2.77D-01
 IDIUse=3 WtCom= 8.62D-01 WtEn= 1.38D-01
 Coeff-Com:  0.173D+00 0.827D+00
 Coeff-En:   0.255D+00 0.745D+00
 Coeff:      0.184D+00 0.816D+00
 Gap=     0.249 Goal=   None    Shift=    0.000
 RMSDP=2.73D-03 MaxDP=8.06D-02 DE=-9.36D-02 OVMax= 2.72D-01

 Cycle   3  Pass 0  IDiag  1:
 RMSU=  2.49D-03    CP:  9.76D-01  7.36D-01
 E= -365.093398717978     Delta-E=       -0.121996792900 Rises=F Damp=F
 DIIS: error= 2.58D-02 at cycle   3 NSaved=   3.
 NSaved= 3 IEnMin= 3 EnMin= -365.093398717978     IErMin= 2 ErrMin= 1.38D-02
 ErrMax= 2.58D-02  0.00D+00 EMaxC= 1.00D-01 BMatC= 5.45D-02 BMatP= 3.43D-02
 IDIUse=2 WtCom= 0.00D+00 WtEn= 1.00D+00
 Coeff-En:   0.000D+00 0.000D+00 0.100D+01
 Coeff:      0.000D+00 0.000D+00 0.100D+01
 Gap=     0.137 Goal=   None    Shift=    0.000
 RMSDP=6.72D-03 MaxDP=2.35D-01 DE=-1.22D-01 OVMax= 5.09D-01

 Cycle   4  Pass 0  IDiag  1:
 RMSU=  2.78D-03    CP:  9.88D-01  1.40D+00 -1.19D+00
 E= -364.644222065634     Delta-E=        0.449176652344 Rises=F Damp=F
 DIIS: error= 6.80D-02 at cycle   4 NSaved=   4.
 NSaved= 4 IEnMin= 3 EnMin= -365.093398717978     IErMin= 2 ErrMin= 1.38D-02
 ErrMax= 6.80D-02  0.00D+00 EMaxC= 1.00D-01 BMatC= 5.54D-01 BMatP= 3.43D-02
 IDIUse=2 WtCom= 0.00D+00 WtEn= 1.00D+00
 Coeff-En:   0.000D+00 0.000D+00 0.854D+00 0.146D+00
 Coeff:      0.000D+00 0.000D+00 0.854D+00 0.146D+00
 Gap=     0.163 Goal=   None    Shift=    0.000
 RMSDP=3.81D-03 MaxDP=1.30D-01 DE= 4.49D-01 OVMax= 2.92D-01

 Cycle   5  Pass 0  IDiag  1:
 RMSU=  8.25D-04    CP:  9.86D-01  9.66D-01 -8.79D-02  3.70D-01
 E= -365.095183452729     Delta-E=       -0.450961387095 Rises=F Damp=F
 DIIS: error= 2.52D-02 at cycle   5 NSaved=   5.
 NSaved= 5 IEnMin= 5 EnMin= -365.095183452729     IErMin= 2 ErrMin= 1.38D-02
 ErrMax= 2.52D-02  0.00D+00 EMaxC= 1.00D-01 BMatC= 5.35D-02 BMatP= 3.43D-02
 IDIUse=2 WtCom= 0.00D+00 WtEn= 1.00D+00
 Coeff-En:   0.000D+00 0.000D+00 0.493D+00 0.000D+00 0.507D+00
 Coeff:      0.000D+00 0.000D+00 0.493D+00 0.000D+00 0.507D+00
 Gap=     0.192 Goal=   None    Shift=    0.000
 RMSDP=1.70D-03 MaxDP=6.02D-02 DE=-4.51D-01 OVMax= 1.34D-01

 Cycle   6  Pass 0  IDiag  1:
 RMSU=  1.97D-04    CP:  9.82D-01  8.11D-01  4.74D-01  1.43D-01  6.56D-01
 E= -365.141866511465     Delta-E=       -0.046683058736 Rises=F Damp=F
 DIIS: error= 1.92D-03 at cycle   6 NSaved=   6.
 NSaved= 6 IEnMin= 6 EnMin= -365.141866511465     IErMin= 6 ErrMin= 1.92D-03
 ErrMax= 1.92D-03  0.00D+00 EMaxC= 1.00D-01 BMatC= 5.84D-04 BMatP= 3.43D-02
 IDIUse=3 WtCom= 9.81D-01 WtEn= 1.92D-02
 Coeff-Com: -0.762D-02 0.250D-01 0.202D+00-0.610D-01 0.403D+00 0.438D+00
 Coeff-En:   0.000D+00 0.000D+00 0.000D+00 0.000D+00 0.000D+00 0.100D+01
 Coeff:     -0.747D-02 0.245D-01 0.199D+00-0.599D-01 0.396D+00 0.449D+00
 Gap=     0.196 Goal=   None    Shift=    0.000
 RMSDP=2.73D-04 MaxDP=7.86D-03 DE=-4.67D-02 OVMax= 2.03D-02

 Cycle   7  Pass 0  IDiag  1:
 RMSU=  1.05D-04    CP:  9.82D-01  8.48D-01  4.21D-01  1.62D-01  7.08D-01
                    CP:  3.23D-01
 E= -365.142309929973     Delta-E=       -0.000443418508 Rises=F Damp=F
 DIIS: error= 9.93D-04 at cycle   7 NSaved=   7.
 NSaved= 7 IEnMin= 7 EnMin= -365.142309929973     IErMin= 7 ErrMin= 9.93D-04
 ErrMax= 9.93D-04  0.00D+00 EMaxC= 1.00D-01 BMatC= 1.22D-04 BMatP= 5.84D-04
 IDIUse=3 WtCom= 9.90D-01 WtEn= 9.93D-03
 Coeff-Com: -0.286D-02 0.579D-03 0.168D-01-0.580D-02 0.299D-01 0.300D+00
 Coeff-Com:  0.662D+00
 Coeff-En:   0.000D+00 0.000D+00 0.000D+00 0.000D+00 0.000D+00 0.233D+00
 Coeff-En:   0.767D+00
 Coeff:     -0.284D-02 0.573D-03 0.166D-01-0.574D-02 0.296D-01 0.299D+00
 Coeff:      0.663D+00
 Gap=     0.196 Goal=   None    Shift=    0.000
 RMSDP=8.85D-05 MaxDP=2.91D-03 DE=-4.43D-04 OVMax= 7.18D-03

 Cycle   8  Pass 0  IDiag  1:
 RMSU=  2.01D-05    CP:  9.82D-01  8.38D-01  4.41D-01  1.57D-01  6.97D-01
                    CP:  5.63D-01  6.98D-01
 E= -365.142432960303     Delta-E=       -0.000123030330 Rises=F Damp=F
 DIIS: error= 4.45D-05 at cycle   8 NSaved=   8.
 NSaved= 8 IEnMin= 8 EnMin= -365.142432960303     IErMin= 8 ErrMin= 4.45D-05
 ErrMax= 4.45D-05  0.00D+00 EMaxC= 1.00D-01 BMatC= 6.66D-07 BMatP= 1.22D-04
 IDIUse=1 WtCom= 1.00D+00 WtEn= 0.00D+00
 Coeff-Com: -0.661D-03 0.569D-04-0.107D-02 0.888D-04-0.438D-02 0.900D-01
 Coeff-Com:  0.233D+00 0.683D+00
 Coeff:     -0.661D-03 0.569D-04-0.107D-02 0.888D-04-0.438D-02 0.900D-01
 Coeff:      0.233D+00 0.683D+00
 Gap=     0.196 Goal=   None    Shift=    0.000
 RMSDP=8.67D-06 MaxDP=2.34D-04 DE=-1.23D-04 OVMax= 2.62D-04

 Initial convergence to 1.0D-05 achieved.  Increase integral accuracy.
 Cycle   9  Pass 1  IDiag  1:
 E= -365.142476260216     Delta-E=       -0.000043299912 Rises=F Damp=F
 DIIS: error= 3.03D-05 at cycle   1 NSaved=   1.
 NSaved= 1 IEnMin= 1 EnMin= -365.142476260216     IErMin= 1 ErrMin= 3.03D-05
 ErrMax= 3.03D-05  0.00D+00 EMaxC= 1.00D-01 BMatC= 1.86D-07 BMatP= 1.86D-07
 IDIUse=1 WtCom= 1.00D+00 WtEn= 0.00D+00
 Coeff-Com:  0.100D+01
 Coeff:      0.100D+01
 Gap=     0.196 Goal=   None    Shift=    0.000
 RMSDP=8.67D-06 MaxDP=2.34D-04 DE=-4.33D-05 OVMax= 3.83D-04

 Cycle  10  Pass 1  IDiag  1:
 RMSU=  9.36D-06    CP:  1.00D+00
 E= -365.142475941013     Delta-E=        0.000000319203 Rises=F Damp=F
 DIIS: error= 6.47D-05 at cycle   2 NSaved=   2.
 NSaved= 2 IEnMin= 1 EnMin= -365.142476260216     IErMin= 1 ErrMin= 3.03D-05
 ErrMax= 6.47D-05  0.00D+00 EMaxC= 1.00D-01 BMatC= 5.59D-07 BMatP= 1.86D-07
 IDIUse=1 WtCom= 1.00D+00 WtEn= 0.00D+00
 Coeff-Com:  0.640D+00 0.360D+00
 Coeff:      0.640D+00 0.360D+00
 Gap=     0.196 Goal=   None    Shift=    0.000
 RMSDP=6.35D-06 MaxDP=2.06D-04 DE= 3.19D-07 OVMax= 4.09D-04

 Cycle  11  Pass 1  IDiag  1:
 RMSU=  2.66D-06    CP:  1.00D+00  3.87D-01
 E= -365.142476391016     Delta-E=       -0.000000450004 Rises=F Damp=F
 DIIS: error= 2.18D-05 at cycle   3 NSaved=   3.
 NSaved= 3 IEnMin= 3 EnMin= -365.142476391016     IErMin= 3 ErrMin= 2.18D-05
 ErrMax= 2.18D-05  0.00D+00 EMaxC= 1.00D-01 BMatC= 4.31D-08 BMatP= 1.86D-07
 IDIUse=1 WtCom= 1.00D+00 WtEn= 0.00D+00
 Coeff-Com:  0.373D+00 0.253D+00 0.374D+00
 Coeff:      0.373D+00 0.253D+00 0.374D+00
 Gap=     0.196 Goal=   None    Shift=    0.000
 RMSDP=1.54D-06 MaxDP=5.20D-05 DE=-4.50D-07 OVMax= 1.17D-04

 Cycle  12  Pass 1  IDiag  1:
 RMSU=  8.69D-07    CP:  1.00D+00  4.43D-01  5.63D-01
 E= -365.142476428498     Delta-E=       -0.000000037481 Rises=F Damp=F
 DIIS: error= 1.55D-06 at cycle   4 NSaved=   4.
 NSaved= 4 IEnMin= 4 EnMin= -365.142476428498     IErMin= 4 ErrMin= 1.55D-06
 ErrMax= 1.55D-06  0.00D+00 EMaxC= 1.00D-01 BMatC= 6.06D-10 BMatP= 4.31D-08
 IDIUse=1 WtCom= 1.00D+00 WtEn= 0.00D+00
 Coeff-Com:  0.353D-01 0.395D-01 0.118D+00 0.807D+00
 Coeff:      0.353D-01 0.395D-01 0.118D+00 0.807D+00
 Gap=     0.196 Goal=   None    Shift=    0.000
 RMSDP=3.44D-07 MaxDP=9.75D-06 DE=-3.75D-08 OVMax= 2.14D-05

 Cycle  13  Pass 1  IDiag  1:
 RMSU=  2.47D-07    CP:  1.00D+00  4.47D-01  6.38D-01  8.52D-01
 E= -365.142476428780     Delta-E=       -0.000000000283 Rises=F Damp=F
 DIIS: error= 1.49D-06 at cycle   5 NSaved=   5.
 NSaved= 5 IEnMin= 5 EnMin= -365.142476428780     IErMin= 5 ErrMin= 1.49D-06
 ErrMax= 1.49D-06  0.00D+00 EMaxC= 1.00D-01 BMatC= 4.04D-10 BMatP= 6.06D-10
 IDIUse=1 WtCom= 1.00D+00 WtEn= 0.00D+00
 Coeff-Com: -0.240D-02 0.959D-02 0.429D-01 0.524D+00 0.426D+00
 Coeff:     -0.240D-02 0.959D-02 0.429D-01 0.524D+00 0.426D+00
 Gap=     0.196 Goal=   None    Shift=    0.000
 RMSDP=1.38D-07 MaxDP=5.45D-06 DE=-2.83D-10 OVMax= 6.20D-06

 Cycle  14  Pass 1  IDiag  1:
 RMSU=  4.91D-08    CP:  1.00D+00  4.49D-01  6.25D-01  9.08D-01  5.46D-01
 E= -365.142476429145     Delta-E=       -0.000000000364 Rises=F Damp=F
 DIIS: error= 3.70D-07 at cycle   6 NSaved=   6.
 NSaved= 6 IEnMin= 6 EnMin= -365.142476429145     IErMin= 6 ErrMin= 3.70D-07
 ErrMax= 3.70D-07  0.00D+00 EMaxC= 1.00D-01 BMatC= 1.62D-11 BMatP= 4.04D-10
 IDIUse=1 WtCom= 1.00D+00 WtEn= 0.00D+00
 Coeff-Com: -0.565D-02 0.950D-03 0.313D-02 0.178D+00 0.197D+00 0.626D+00
 Coeff:     -0.565D-02 0.950D-03 0.313D-02 0.178D+00 0.197D+00 0.626D+00
 Gap=     0.196 Goal=   None    Shift=    0.000
 RMSDP=2.66D-08 MaxDP=6.93D-07 DE=-3.64D-10 OVMax= 5.57D-07

 Cycle  15  Pass 1  IDiag  1:
 RMSU=  2.10D-08    CP:  1.00D+00  4.50D-01  6.24D-01  9.19D-01  5.41D-01
                    CP:  8.49D-01
 E= -365.142476429154     Delta-E=       -0.000000000009 Rises=F Damp=F
 DIIS: error= 7.90D-08 at cycle   7 NSaved=   7.
 NSaved= 7 IEnMin= 7 EnMin= -365.142476429154     IErMin= 7 ErrMin= 7.90D-08
 ErrMax= 7.90D-08  0.00D+00 EMaxC= 1.00D-01 BMatC= 1.63D-12 BMatP= 1.62D-11
 IDIUse=1 WtCom= 1.00D+00 WtEn= 0.00D+00
 Coeff-Com: -0.235D-02-0.265D-04-0.407D-02 0.377D-01 0.549D-01 0.284D+00
 Coeff-Com:  0.630D+00
 Coeff:     -0.235D-02-0.265D-04-0.407D-02 0.377D-01 0.549D-01 0.284D+00
 Coeff:      0.630D+00
 Gap=     0.196 Goal=   None    Shift=    0.000
 RMSDP=8.93D-09 MaxDP=2.41D-07 DE=-9.44D-12 OVMax= 3.41D-07

 SCF Done:  E(RB3LYP) =  -365.142476429     A.U. after   15 cycles
            NFock= 15  Conv=0.89D-08     -V/T= 2.0079
 KE= 3.622633231786D+02 PE=-1.665148573882D+03 EE= 5.296683894736D+02
 Leave Link  502 at Mon Oct 14 02:15:36 2019, MaxMem= 10737418240 cpu:              75.2 elap:               3.2
 (Enter /apps/cent7/gaussian/g16-A.03/g16-haswell/g16/l601.exe)
 Copying SCF densities to generalized density rwf, IOpCl= 0 IROHF=0.

 **********************************************************************

            Population analysis using the SCF density.

 **********************************************************************

 Orbital symmetries:
       Occupied  (A) (A) (A) (A) (A) (A) (A) (A) (A) (A) (A) (A)
                 (A) (A) (A) (A) (A) (A) (A) (A) (A) (A) (A) (A)
                 (A) (A) (A) (A) (A) (A) (A)
       Virtual   (A) (A) (A) (A) (A) (A) (A) (A) (A) (A) (A) (A)
                 (A) (A) (A) (A) (A) (A) (A) (A) (A) (A) (A) (A)
                 (A) (A) (A) (A) (A) (A) (A) (A) (A) (A) (A) (A)
                 (A) (A) (A) (A) (A) (A) (A) (A) (A) (A) (A) (A)
                 (A) (A) (A) (A) (A) (A) (A) (A) (A) (A) (A) (A)
                 (A) (A) (A) (A) (A) (A) (A) (A) (A) (A) (A) (A)
                 (A) (A) (A) (A) (A) (A) (A) (A) (A) (A) (A) (A)
                 (A) (A) (A) (A) (A) (A) (A) (A) (A) (A) (A) (A)
                 (A) (A) (A) (A) (A) (A) (A) (A) (A) (A) (A) (A)
                 (A) (A) (A)
 The electronic state is 1-A.
 Alpha  occ. eigenvalues --  -19.09247 -14.44933 -10.23625 -10.20804 -10.19844
 Alpha  occ. eigenvalues --  -10.19762 -10.18149 -10.18087  -1.09521  -0.90373
 Alpha  occ. eigenvalues --   -0.80139  -0.75714  -0.69677  -0.67666  -0.62675
 Alpha  occ. eigenvalues --   -0.52744  -0.51256  -0.49041  -0.45947  -0.45109
 Alpha  occ. eigenvalues --   -0.43173  -0.42591  -0.40659  -0.38306  -0.37792
 Alpha  occ. eigenvalues --   -0.36734  -0.36295  -0.32925  -0.32795  -0.22412
 Alpha  occ. eigenvalues --   -0.19852
 Alpha virt. eigenvalues --   -0.00222   0.05654   0.10300   0.11052   0.12595
 Alpha virt. eigenvalues --    0.12761   0.15573   0.16353   0.16769   0.18339
 Alpha virt. eigenvalues --    0.19051   0.19658   0.20178   0.24220   0.24245
 Alpha virt. eigenvalues --    0.27764   0.28386   0.32041   0.33764   0.38734
 Alpha virt. eigenvalues --    0.49396   0.49961   0.50870   0.54117   0.57420
 Alpha virt. eigenvalues --    0.58657   0.59772   0.61292   0.62398   0.63177
 Alpha virt. eigenvalues --    0.65605   0.68067   0.70571   0.71184   0.75640
 Alpha virt. eigenvalues --    0.78136   0.79378   0.82172   0.84311   0.85176
 Alpha virt. eigenvalues --    0.85434   0.85823   0.87597   0.90269   0.91115
 Alpha virt. eigenvalues --    0.91592   0.92574   0.93950   0.95412   0.97511
 Alpha virt. eigenvalues --    0.97934   1.01669   1.03351   1.10029   1.10915
 Alpha virt. eigenvalues --    1.12533   1.19931   1.27137   1.29419   1.39083
 Alpha virt. eigenvalues --    1.39381   1.51548   1.52009   1.62046   1.67144
 Alpha virt. eigenvalues --    1.70854   1.73223   1.76968   1.81565   1.82594
 Alpha virt. eigenvalues --    1.85816   1.88481   1.91818   1.93677   1.94163
 Alpha virt. eigenvalues --    2.00724   2.01565   2.03030   2.06507   2.09377
 Alpha virt. eigenvalues --    2.12040   2.13142   2.14350   2.21279   2.23024
 Alpha virt. eigenvalues --    2.28112   2.28346   2.32611   2.32982   2.36248
 Alpha virt. eigenvalues --    2.42253   2.47466   2.49059   2.55688   2.60904
 Alpha virt. eigenvalues --    2.61669   2.64010   2.70416   2.74796   2.78247
 Alpha virt. eigenvalues --    2.92621   3.07778   3.20546   3.81842   4.02244
 Alpha virt. eigenvalues --    4.15951   4.19539   4.29774   4.35854   4.53175
 Alpha virt. eigenvalues --    4.77632
          Condensed to atoms (all electrons):
               1          2          3          4          5          6
     1  C    5.202945   0.358423  -0.064603  -0.049209   0.002958   0.000226
     2  C    0.358423   4.838297   0.361680   0.344058  -0.049618  -0.077100
     3  C   -0.064603   0.361680   5.200455  -0.050363   0.003841   0.000706
     4  C   -0.049209   0.344058  -0.050363   5.195715   0.337345  -0.064131
     5  C    0.002958  -0.049618   0.003841   0.337345   5.130002   0.322342
     6  C    0.000226  -0.077100   0.000706  -0.064131   0.322342   5.047048
     7  N   -0.056009   0.301404  -0.053644  -0.054747  -0.040870   0.506936
     8  O   -0.008076  -0.055249  -0.008400   0.005436   0.007867  -0.075518
     9  H    0.368285  -0.026445  -0.010361   0.001643  -0.000041  -0.000288
    10  H    0.364798  -0.034840   0.005151  -0.010731   0.000212   0.001479
    11  H    0.362484  -0.037534   0.000892   0.005200  -0.000759   0.000326
    12  H   -0.010636  -0.026811   0.368650   0.001742  -0.000050  -0.000285
    13  H    0.000890  -0.037126   0.361668   0.005056  -0.000677   0.000503
    14  H    0.005255  -0.034267   0.364229  -0.010479   0.000168   0.001336
    15  H   -0.008927  -0.033438   0.003785   0.365371  -0.030433   0.002530
    16  H    0.004388  -0.032540  -0.009581   0.365130  -0.030827   0.002683
    17  H    0.001338   0.001253  -0.000440  -0.030555   0.362743  -0.045409
    18  H   -0.000438   0.002418   0.000909  -0.031012   0.366248  -0.045921
    19  H   -0.000255   0.007229  -0.000256   0.004915  -0.045419   0.368897
               7          8          9         10         11         12
     1  C   -0.056009  -0.008076   0.368285   0.364798   0.362484  -0.010636
     2  C    0.301404  -0.055249  -0.026445  -0.034840  -0.037534  -0.026811
     3  C   -0.053644  -0.008400  -0.010361   0.005151   0.000892   0.368650
     4  C   -0.054747   0.005436   0.001643  -0.010731   0.005200   0.001742
     5  C   -0.040870   0.007867  -0.000041   0.000212  -0.000759  -0.000050
     6  C    0.506936  -0.075518  -0.000288   0.001479   0.000326  -0.000285
     7  N    6.136400   0.203467   0.003466   0.001124  -0.008274   0.003390
     8  O    0.203467   8.441961  -0.000008   0.000115   0.017658   0.000047
     9  H    0.003466  -0.000008   0.555041  -0.029409  -0.023059   0.006776
    10  H    0.001124   0.000115  -0.029409   0.575831  -0.023341   0.000228
    11  H   -0.008274   0.017658  -0.023059  -0.023341   0.514896   0.000181
    12  H    0.003390   0.000047   0.006776   0.000228   0.000181   0.556242
    13  H   -0.008409   0.019120   0.000186  -0.000099   0.000322  -0.022997
    14  H    0.001089   0.000094   0.000220  -0.000270  -0.000099  -0.029445
    15  H    0.002232  -0.000097   0.000416   0.007132   0.000337  -0.000266
    16  H    0.001758  -0.000108  -0.000271   0.000262  -0.000162   0.000328
    17  H   -0.000893   0.000011  -0.000010  -0.000187   0.000086   0.000003
    18  H   -0.000202  -0.000001   0.000004  -0.000004   0.000003  -0.000003
    19  H   -0.037382   0.001994   0.000006   0.000000  -0.000038   0.000005
              13         14         15         16         17         18
     1  C    0.000890   0.005255  -0.008927   0.004388   0.001338  -0.000438
     2  C   -0.037126  -0.034267  -0.033438  -0.032540   0.001253   0.002418
     3  C    0.361668   0.364229   0.003785  -0.009581  -0.000440   0.000909
     4  C    0.005056  -0.010479   0.365371   0.365130  -0.030555  -0.031012
     5  C   -0.000677   0.000168  -0.030433  -0.030827   0.362743   0.366248
     6  C    0.000503   0.001336   0.002530   0.002683  -0.045409  -0.045921
     7  N   -0.008409   0.001089   0.002232   0.001758  -0.000893  -0.000202
     8  O    0.019120   0.000094  -0.000097  -0.000108   0.000011  -0.000001
     9  H    0.000186   0.000220   0.000416  -0.000271  -0.000010   0.000004
    10  H   -0.000099  -0.000270   0.007132   0.000262  -0.000187  -0.000004
    11  H    0.000322  -0.000099   0.000337  -0.000162   0.000086   0.000003
    12  H   -0.022997  -0.029445  -0.000266   0.000328   0.000003  -0.000003
    13  H    0.512357  -0.023194  -0.000161   0.000300   0.000003   0.000061
    14  H   -0.023194   0.574524   0.000245   0.007948   0.000003  -0.000209
    15  H   -0.000161   0.000245   0.558987  -0.018510  -0.009446   0.002616
    16  H    0.000300   0.007948  -0.018510   0.558338   0.003192  -0.010080
    17  H    0.000003   0.000003  -0.009446   0.003192   0.584805  -0.029423
    18  H    0.000061  -0.000209   0.002616  -0.010080  -0.029423   0.581894
    19  H   -0.000031   0.000000  -0.000158  -0.000159   0.000464   0.000211
              19
     1  C   -0.000255
     2  C    0.007229
     3  C   -0.000256
     4  C    0.004915
     5  C   -0.045419
     6  C    0.368897
     7  N   -0.037382
     8  O    0.001994
     9  H    0.000006
    10  H    0.000000
    11  H   -0.000038
    12  H    0.000005
    13  H   -0.000031
    14  H    0.000000
    15  H   -0.000158
    16  H   -0.000159
    17  H    0.000464
    18  H    0.000211
    19  H    0.535435
 Mulliken charges:
               1
     1  C   -0.473836
     2  C    0.230206
     3  C   -0.474318
     4  C   -0.330386
     5  C   -0.335032
     6  C    0.053639
     7  N    0.099163
     8  O   -0.550315
     9  H    0.153850
    10  H    0.142547
    11  H    0.190880
    12  H    0.152899
    13  H    0.192226
    14  H    0.142852
    15  H    0.157783
    16  H    0.157911
    17  H    0.162461
    18  H    0.162929
    19  H    0.164539
 Sum of Mulliken charges =  -0.00000
 Mulliken charges with hydrogens summed into heavy atoms:
               1
     1  C    0.013441
     2  C    0.230206
     3  C    0.013660
     4  C   -0.014691
     5  C   -0.009642
     6  C    0.218179
     7  N    0.099163
     8  O   -0.550315
 Electronic spatial extent (au):  <R**2>=            870.2445
 Charge=             -0.0000 electrons
 Dipole moment (field-independent basis, Debye):
    X=              1.3950    Y=             -3.5505    Z=             -0.0057  Tot=              3.8148
 Quadrupole moment (field-independent basis, Debye-Ang):
   XX=            -45.8389   YY=            -56.4661   ZZ=            -47.4153
   XY=              2.8680   XZ=             -0.0434   YZ=             -0.0525
 Traceless Quadrupole moment (field-independent basis, Debye-Ang):
   XX=              4.0679   YY=             -6.5593   ZZ=              2.4914
   XY=              2.8680   XZ=             -0.0434   YZ=             -0.0525
 Octapole moment (field-independent basis, Debye-Ang**2):
  XXX=              0.3927  YYY=             -6.6292  ZZZ=             -0.2283  XYY=              5.0491
  XXY=              4.6046  XXZ=             -0.1061  XZZ=              1.5377  YZZ=              0.8719
  YYZ=              0.1981  XYZ=              0.0468
 Hexadecapole moment (field-independent basis, Debye-Ang**3):
 XXXX=           -516.9544 YYYY=           -421.4273 ZZZZ=           -235.0143 XXXY=             11.5531
 XXXZ=             -0.7887 YYYX=              9.9864 YYYZ=             -0.7509 ZZZX=             -0.1081
 ZZZY=              0.6563 XXYY=           -146.6464 XXZZ=           -125.4198 YYZZ=            -99.0843
 XXYZ=             -0.2394 YYXZ=              0.1561 ZZXY=             -5.9905
 N-N= 4.080743848005D+02 E-N=-1.665148584614D+03  KE= 3.622633231786D+02
 No NMR shielding tensors so no spin-rotation constants.
 Leave Link  601 at Mon Oct 14 02:15:36 2019, MaxMem= 10737418240 cpu:               3.1 elap:               0.2
 (Enter /apps/cent7/gaussian/g16-A.03/g16-haswell/g16/l701.exe)
 ... and contract with generalized density number  0.
 Compute integral first derivatives.
 Leave Link  701 at Mon Oct 14 02:15:37 2019, MaxMem= 10737418240 cpu:               3.6 elap:               0.2
 (Enter /apps/cent7/gaussian/g16-A.03/g16-haswell/g16/l702.exe)
 L702 exits ... SP integral derivatives will be done elsewhere.
 Leave Link  702 at Mon Oct 14 02:15:37 2019, MaxMem= 10737418240 cpu:               0.5 elap:               0.0
 (Enter /apps/cent7/gaussian/g16-A.03/g16-haswell/g16/l703.exe)
 Integral derivatives from FoFJK, PRISM(SPDF).
 Compute integral first derivatives, UseDBF=F ICtDFT=           0.
 Calling FoFJK, ICntrl=      2127 FMM=F ISym2X=0 I1Cent= 0 IOpClX= 0 NMat=1 NMatS=1 NMatT=0.
 FoFJK:  IHMeth= 1 ICntrl=    2127 DoSepK=F KAlg= 0 I1Cent=           0 FoldK=F
 IRaf=         0 NMat=       1 IRICut=       1 DoRegI=T DoRafI=F ISym2E= 0 IDoP0=0 IntGTp=1.
 FoFCou: FMM=F IPFlag=           0 FMFlag=      100000 FMFlg1=         800
         NFxFlg=           0 DoJE=F BraDBF=F KetDBF=F FulRan=T
         wScrn=  0.000000 ICntrl=      2127 IOpCl=  0 I1Cent=           0 NGrid=           0
         NMat0=    1 NMatS0=      1 NMatT0=    0 NMatD0=    1 NMtDS0=    0 NMtDT0=    0
 Symmetry not used in FoFCou.
 Leave Link  703 at Mon Oct 14 02:15:38 2019, MaxMem= 10737418240 cpu:              18.0 elap:               0.8
 (Enter /apps/cent7/gaussian/g16-A.03/g16-haswell/g16/l716.exe)
 Dipole        = 5.48831729D-01-1.39689314D+00-2.24158592D-03
 ***** Axes restored to original set *****
 -------------------------------------------------------------------
 Center     Atomic                   Forces (Hartrees/Bohr)
 Number     Number              X              Y              Z
 -------------------------------------------------------------------
      1        6           0.002053319    0.007812009    0.008156251
      2        6          -0.034176371   -0.063091304   -0.001777769
      3        6           0.001344778    0.009375840   -0.008098509
      4        6           0.016993651    0.002254733   -0.000870206
      5        6          -0.016243009   -0.008058801    0.000370796
      6        6           0.017752346    0.034362893    0.001046050
      7        7           0.060031545    0.046113808    0.002490825
      8        8           0.012136034   -0.021698435   -0.000102739
      9        1          -0.000726451   -0.001553601   -0.004082225
     10        1           0.001044924   -0.000929391   -0.005036339
     11        1           0.002968161   -0.001710707   -0.000091178
     12        1          -0.000766823   -0.001751238    0.003777750
     13        1           0.002942881   -0.001386617   -0.000272280
     14        1           0.001100273   -0.001210499    0.004815257
     15        1          -0.013461908   -0.009651671    0.011615017
     16        1          -0.013453960   -0.009474959   -0.009853122
     17        1          -0.018728251    0.012980730    0.006466172
     18        1          -0.018548437    0.012477802   -0.008267562
     19        1          -0.002262702   -0.004860592   -0.000286187
 -------------------------------------------------------------------
 Cartesian Forces:  Max     0.063091304 RMS     0.016734352
 Leave Link  716 at Mon Oct 14 02:15:38 2019, MaxMem= 10737418240 cpu:               1.2 elap:               0.1
 (Enter /apps/cent7/gaussian/g16-A.03/g16-haswell/g16/l103.exe)

 GradGradGradGradGradGradGradGradGradGradGradGradGradGradGradGradGradGrad
 Berny optimization.
 FormGI is forming the generalized inverse of G from B-inverse, IUseBI=4.
 Internal  Forces:  Max     0.058241707 RMS     0.010597717
 Search for a local minimum.
 Step number   1 out of a maximum of  114
 All quantities printed in internal units (Hartrees-Bohrs-Radians)
 RMS Force = .10598D-01 SwitMx=.10000D-02 MixMth= 1
 Mixed Optimization -- RFO/linear search
 Second derivative matrix not updated -- first step.
 ITU=  0
     Eigenvalues ---    0.00230   0.00230   0.00461   0.01649   0.02062
     Eigenvalues ---    0.02430   0.04046   0.04171   0.04290   0.05525
     Eigenvalues ---    0.05714   0.05714   0.05715   0.05715   0.05905
     Eigenvalues ---    0.06094   0.06626   0.07613   0.07852   0.08707
     Eigenvalues ---    0.10098   0.12655   0.16000   0.16000   0.16000
     Eigenvalues ---    0.16000   0.16000   0.16000   0.16000   0.17884
     Eigenvalues ---    0.22665   0.24999   0.25759   0.26655   0.26668
     Eigenvalues ---    0.27964   0.34806   0.34806   0.34808   0.34808
     Eigenvalues ---    0.34810   0.34811   0.34814   0.34814   0.34815
     Eigenvalues ---    0.34815   0.34816   0.38654   0.43765   0.69154
     Eigenvalues ---    0.74267
 RFO step:  Lambda=-3.84886571D-02 EMin= 2.30000000D-03
 Linear search not attempted -- first point.
 Maximum step size (   0.300) exceeded in Quadratic search.
    -- Step size scaled by   0.909
 Iteration  1 RMS(Cart)=  0.05000561 RMS(Int)=  0.00144724
 Iteration  2 RMS(Cart)=  0.00139669 RMS(Int)=  0.00025675
 Iteration  3 RMS(Cart)=  0.00000105 RMS(Int)=  0.00025675
 Iteration  4 RMS(Cart)=  0.00000000 RMS(Int)=  0.00025675
 ITry= 1 IFail=0 DXMaxC= 2.07D-01 DCOld= 1.00D+10 DXMaxT= 3.00D-01 DXLimC= 3.00D+00 Rises=F
 Variable       Old X    -DE/DX   Delta X   Delta X   Delta X     New X
                                 (Linear)    (Quad)   (Total)
    R1        2.95176   0.00006   0.00000   0.00019   0.00019   2.95195
    R2        2.05991   0.00079   0.00000   0.00186   0.00186   2.06177
    R3        2.05975   0.00256   0.00000   0.00603   0.00603   2.06578
    R4        2.05987   0.00234   0.00000   0.00549   0.00549   2.06536
    R5        2.95147  -0.00171   0.00000  -0.00509  -0.00509   2.94638
    R6        2.95845   0.01385   0.00000   0.02953   0.02936   2.98781
    R7        2.64690   0.05824   0.00000   0.11219   0.11203   2.75893
    R8        2.05977   0.00080   0.00000   0.00187   0.00187   2.06164
    R9        2.05978   0.00236   0.00000   0.00555   0.00555   2.06533
   R10        2.05983   0.00255   0.00000   0.00599   0.00599   2.06582
   R11        2.91106   0.02493   0.00000   0.05723   0.05730   2.96836
   R12        2.05988  -0.00116   0.00000  -0.00273  -0.00273   2.05715
   R13        2.05976  -0.00092   0.00000  -0.00215  -0.00215   2.05760
   R14        2.69672   0.05229   0.00000   0.10872   0.10894   2.80566
   R15        2.05984   0.00488   0.00000   0.01147   0.01147   2.07131
   R16        2.05992   0.00448   0.00000   0.01053   0.01053   2.07045
   R17        2.41690   0.03775   0.00000   0.05081   0.05087   2.46777
   R18        2.05979  -0.00535   0.00000  -0.01257  -0.01257   2.04721
   R19        2.41163   0.01162   0.00000   0.01352   0.01352   2.42515
    A1        1.91065   0.00482   0.00000   0.02219   0.02200   1.93265
    A2        1.91074   0.00548   0.00000   0.02651   0.02630   1.93705
    A3        1.91069  -0.00091   0.00000  -0.00572  -0.00568   1.90501
    A4        1.91061  -0.00437   0.00000  -0.01693  -0.01735   1.89326
    A5        1.91052  -0.00267   0.00000  -0.01505  -0.01500   1.89552
    A6        1.91059  -0.00235   0.00000  -0.01101  -0.01099   1.89960
    A7        1.92175   0.00331   0.00000   0.01145   0.01047   1.93222
    A8        1.94300   0.00018   0.00000   0.01826   0.01819   1.96119
    A9        1.92009  -0.00392   0.00000  -0.02871  -0.02890   1.89120
   A10        1.95117  -0.00029   0.00000   0.01350   0.01335   1.96452
   A11        1.93298  -0.00463   0.00000  -0.03341  -0.03352   1.89946
   A12        1.79146   0.00514   0.00000   0.01733   0.01762   1.80908
   A13        1.91065   0.00458   0.00000   0.02120   0.02102   1.93167
   A14        1.91068  -0.00135   0.00000  -0.00772  -0.00766   1.90302
   A15        1.91072   0.00537   0.00000   0.02592   0.02573   1.93646
   A16        1.91055  -0.00228   0.00000  -0.01308  -0.01302   1.89753
   A17        1.91056  -0.00420   0.00000  -0.01617  -0.01657   1.89399
   A18        1.91064  -0.00212   0.00000  -0.01014  -0.01010   1.90054
   A19        1.83057   0.01088   0.00000   0.01275   0.01193   1.84250
   A20        1.88479   0.00002   0.00000   0.02357   0.02290   1.90769
   A21        1.88485   0.00014   0.00000   0.02226   0.02170   1.90655
   A22        1.87605   0.00084   0.00000   0.03178   0.03128   1.90733
   A23        1.87612   0.00065   0.00000   0.02806   0.02762   1.90373
   A24        2.09453  -0.00964   0.00000  -0.10480  -0.10430   1.99023
   A25        1.79616  -0.00199   0.00000  -0.00860  -0.00854   1.78762
   A26        1.90715   0.00345   0.00000   0.01998   0.01934   1.92649
   A27        1.90700   0.00373   0.00000   0.01994   0.01936   1.92636
   A28        1.86760   0.00582   0.00000   0.05402   0.05366   1.92126
   A29        1.86750   0.00557   0.00000   0.05341   0.05305   1.92054
   A30        2.09440  -0.01477   0.00000  -0.12145  -0.12155   1.97285
   A31        1.99133  -0.00072   0.00000   0.00846   0.00886   2.00019
   A32        2.23009   0.00079   0.00000  -0.00225  -0.00245   2.22764
   A33        2.06176  -0.00007   0.00000  -0.00621  -0.00641   2.05535
   A34        2.01383  -0.01331   0.00000  -0.03008  -0.03002   1.98381
   A35        2.15705  -0.01985   0.00000  -0.06845  -0.06848   2.08857
   A36        2.11229   0.03315   0.00000   0.09852   0.09849   2.21078
    D1        0.41479   0.00337   0.00000   0.05143   0.05142   0.46621
    D2       -1.75930   0.00121   0.00000   0.01268   0.01239  -1.74691
    D3        2.54999  -0.00284   0.00000  -0.00195  -0.00202   2.54797
    D4        2.50923   0.00432   0.00000   0.06053   0.06076   2.56999
    D5        0.33514   0.00217   0.00000   0.02178   0.02173   0.35687
    D6       -1.63875  -0.00188   0.00000   0.00715   0.00731  -1.63143
    D7       -1.67951   0.00425   0.00000   0.05977   0.05990  -1.61961
    D8        2.42958   0.00209   0.00000   0.02102   0.02087   2.45045
    D9        0.45570  -0.00196   0.00000   0.00639   0.00645   0.46215
   D10       -0.43445  -0.00332   0.00000  -0.05110  -0.05107  -0.48552
   D11        1.65987  -0.00414   0.00000  -0.05887  -0.05896   1.60091
   D12       -2.52883  -0.00427   0.00000  -0.06015  -0.06035  -2.58918
   D13        1.73493  -0.00087   0.00000  -0.00942  -0.00917   1.72576
   D14       -2.45393  -0.00169   0.00000  -0.01719  -0.01706  -2.47099
   D15       -0.35944  -0.00182   0.00000  -0.01846  -0.01845  -0.37790
   D16       -2.56203   0.00247   0.00000  -0.00035  -0.00026  -2.56230
   D17       -0.46770   0.00165   0.00000  -0.00812  -0.00816  -0.47586
   D18        1.62678   0.00152   0.00000  -0.00939  -0.00955   1.61724
   D19       -2.00583   0.00209   0.00000   0.01869   0.01860  -1.98723
   D20       -0.00900   0.00825   0.00000   0.07134   0.07144   0.06244
   D21        2.28042  -0.00390   0.00000  -0.02915  -0.02938   2.25104
   D22        2.11991  -0.00214   0.00000  -0.01966  -0.01964   2.10027
   D23       -2.16645   0.00402   0.00000   0.03299   0.03320  -2.13324
   D24        0.12297  -0.00813   0.00000  -0.06750  -0.06762   0.05536
   D25        0.04758   0.00047   0.00000   0.00322   0.00323   0.05081
   D26        2.04441   0.00663   0.00000   0.05588   0.05608   2.10049
   D27       -1.94935  -0.00552   0.00000  -0.04461  -0.04475  -1.99410
   D28        2.03572   0.00111   0.00000   0.01494   0.01453   2.05025
   D29       -1.09906   0.00098   0.00000   0.01612   0.01562  -1.08344
   D30       -2.11892  -0.00044   0.00000  -0.01222  -0.01175  -2.13067
   D31        1.02949  -0.00057   0.00000  -0.01104  -0.01066   1.01883
   D32       -0.03387  -0.00007   0.00000  -0.00246  -0.00247  -0.03633
   D33        3.11454  -0.00021   0.00000  -0.00128  -0.00138   3.11316
   D34       -0.04559  -0.00026   0.00000  -0.00195  -0.00192  -0.04751
   D35        1.93457   0.00677   0.00000   0.06314   0.06319   1.99776
   D36       -2.02557  -0.00711   0.00000  -0.06633  -0.06634  -2.09191
   D37       -2.04853  -0.00576   0.00000  -0.04865  -0.04890  -2.09743
   D38       -0.06838   0.00127   0.00000   0.01645   0.01622  -0.05216
   D39        2.25467  -0.01261   0.00000  -0.11303  -0.11331   2.14136
   D40        1.95745   0.00529   0.00000   0.04162   0.04185   1.99930
   D41       -2.34558   0.01231   0.00000   0.10672   0.10697  -2.23861
   D42       -0.02253  -0.00156   0.00000  -0.02276  -0.02257  -0.04509
   D43        0.02870  -0.00025   0.00000   0.00013   0.00010   0.02880
   D44       -3.11295  -0.00020   0.00000  -0.00092  -0.00096  -3.11391
   D45       -1.98019  -0.00553   0.00000  -0.03981  -0.04003  -2.02022
   D46        1.16135  -0.00548   0.00000  -0.04086  -0.04109   1.12026
   D47        2.03737   0.00524   0.00000   0.03977   0.03998   2.07735
   D48       -1.10427   0.00529   0.00000   0.03872   0.03891  -1.06536
   D49        0.00387   0.00007   0.00000   0.00121   0.00120   0.00507
   D50        3.13885  -0.00002   0.00000  -0.00063  -0.00074   3.13811
   D51       -3.13767   0.00003   0.00000   0.00215   0.00215  -3.13552
   D52       -0.00270  -0.00006   0.00000   0.00031   0.00021  -0.00249
         Item               Value     Threshold  Converged?
 Maximum Force            0.058242     0.000450     NO 
 RMS     Force            0.010598     0.000300     NO 
 Maximum Displacement     0.206655     0.001800     NO 
 RMS     Displacement     0.049877     0.001200     NO 
 Predicted change in Energy=-2.243193D-02
 Lowest energy point so far.  Saving SCF results.
 GradGradGradGradGradGradGradGradGradGradGradGradGradGradGradGradGradGrad

 Leave Link  103 at Mon Oct 14 02:15:38 2019, MaxMem= 10737418240 cpu:               1.6 elap:               0.1
 (Enter /apps/cent7/gaussian/g16-A.03/g16-haswell/g16/l202.exe)
                          Input orientation:                          
 ---------------------------------------------------------------------
 Center     Atomic      Atomic             Coordinates (Angstroms)
 Number     Number       Type             X           Y           Z
 ---------------------------------------------------------------------
      1          6           0       -0.423078   -1.954440   -1.340530
      2          6           0       -0.746285   -1.176493   -0.025045
      3          6           0       -0.400183   -2.040652    1.225723
      4          6           0       -2.231335   -0.634660    0.004142
      5          6           0       -2.109549    0.931046   -0.029214
      6          6           0       -0.639531    1.137690   -0.003493
      7          7           0        0.064110    0.037597    0.002091
      8          8           0        1.344103   -0.053357    0.019378
      9          1           0       -0.480329   -3.031525   -1.176282
     10          1           0       -1.124273   -1.687487   -2.135554
     11          1           0        0.590218   -1.704570   -1.665064
     12          1           0       -0.480362   -3.103644    0.993677
     13          1           0        0.625812   -1.825505    1.534798
     14          1           0       -1.074695   -1.814637    2.055787
     15          1           0       -2.755610   -0.973517   -0.887686
     16          1           0       -2.704510   -0.934976    0.937672
     17          1           0       -2.528942    1.326752   -0.961382
     18          1           0       -2.565847    1.368259    0.865801
     19          1           0       -0.104014    2.079321    0.009781
 ---------------------------------------------------------------------
                    Distance matrix (angstroms):
                    1          2          3          4          5
     1  C    0.000000
     2  C    1.562103   0.000000
     3  C    2.567803   1.559159   0.000000
     4  C    2.611467   1.581078   2.611933   0.000000
     5  C    3.590232   2.510025   3.650724   1.570789   0.000000
     6  C    3.375764   2.316744   3.416155   2.382251   1.484694
     7  N    2.451162   1.459963   2.456005   2.391861   2.350324
     8  O    2.930255   2.373422   2.906397   3.622416   3.591534
     9  H    1.091040   2.199369   2.599592   3.194431   4.435323
    10  H    1.093162   2.204141   3.456474   2.629131   3.502021
    11  H    1.092943   2.180543   3.074165   3.448495   4.112325
    12  H    2.602398   2.196001   1.090975   3.184489   4.469818
    13  H    3.063382   2.176460   1.092924   3.453160   4.186514
    14  H    3.461087   2.201123   1.093186   2.634276   3.599573
    15  H    2.570600   2.196073   3.339657   1.088598   2.186717
    16  H    3.381486   2.195404   2.572045   1.088836   2.184235
    17  H    3.917223   3.212605   4.544717   2.206341   1.096090
    18  H    4.527658   3.252719   4.054667   2.205910   1.095635
    19  H    4.265720   3.318742   4.305857   3.448364   2.311325
                    6          7          8          9         10
     6  C    0.000000
     7  N    1.305889   0.000000
     8  O    2.313853   1.283337   0.000000
     9  H    4.333951   3.332340   3.691564   0.000000
    10  H    3.572434   2.992941   3.661556   1.772373   0.000000
    11  H    3.514476   2.468064   2.476326   1.773638   1.777958
    12  H    4.359885   3.338725   3.685402   2.171157   3.494597
    13  H    3.570428   2.477064   2.439867   3.166700   4.068579
    14  H    3.625773   2.990871   3.619344   3.504334   4.193562
    15  H    3.117176   3.124881   4.298501   3.081491   2.174440
    16  H    3.073414   3.080010   4.244029   3.716356   3.536685
    17  H    2.126775   3.051904   4.226945   4.820537   3.526671
    18  H    2.125918   3.071373   4.245602   5.279923   4.519276
    19  H    1.083339   2.048649   2.577877   5.260143   4.453339
                   11         12         13         14         15
    11  H    0.000000
    12  H    3.189428   0.000000
    13  H    3.202344   1.774845   0.000000
    14  H    4.077840   1.772808   1.778559   0.000000
    15  H    3.511883   3.640566   4.245978   3.492419   0.000000
    16  H    4.268693   3.106942   3.498663   2.163395   1.826480
    17  H    4.406046   5.258075   5.110784   4.592001   2.312585
    18  H    5.080187   4.935942   4.564469   3.710853   2.931662
    19  H    4.195818   5.288933   4.255113   4.504583   4.142007
                   16         17         18         19
    16  H    0.000000
    17  H    2.958487   0.000000
    18  H    2.308524   1.828027   0.000000
    19  H    4.087731   2.718417   2.701666   0.000000
 Stoichiometry    C6H11NO
 Framework group  C1[X(C6H11NO)]
 Deg. of freedom    51
 Full point group                 C1      NOp   1
 RotChk:  IX=0 Diff= 1.36D-01
 Largest Abelian subgroup         C1      NOp   1
 Largest concise Abelian subgroup C1      NOp   1
                         Standard orientation:                         
 ---------------------------------------------------------------------
 Center     Atomic      Atomic             Coordinates (Angstroms)
 Number     Number       Type             X           Y           Z
 ---------------------------------------------------------------------
      1          6           0       -1.328268   -0.585433    1.310585
      2          6           0       -0.499267   -0.419685   -0.002979
      3          6           0       -1.416739   -0.561814   -1.255585
      4          6           0        0.749405   -1.388271   -0.052679
      5          6           0        2.010535   -0.453162   -0.002679
      6          6           0        1.403611    0.901812   -0.001178
      7          7           0        0.097772    0.912618   -0.004879
      8          8           0       -0.660079    1.948282   -0.000981
      9          1           0       -2.210120   -1.203499    1.135370
     10          1           0       -0.728234   -1.052644    2.095872
     11          1           0       -1.655215    0.399013    1.654816
     12          1           0       -2.273954   -1.199530   -1.034845
     13          1           0       -1.780656    0.427285   -1.544946
     14          1           0       -0.867646   -0.996488   -2.094997
     15          1           0        0.742451   -2.029756    0.826807
     16          1           0        0.745571   -1.930371   -0.996965
     17          1           0        2.569888   -0.615992    0.925773
     18          1           0        2.622326   -0.589504   -0.901310
     19          1           0        1.916149    1.856226    0.003520
 ---------------------------------------------------------------------
 Rotational constants (GHZ):           2.6068293           2.2009298           1.6579228
 Leave Link  202 at Mon Oct 14 02:15:38 2019, MaxMem= 10737418240 cpu:               0.2 elap:               0.0
 (Enter /apps/cent7/gaussian/g16-A.03/g16-haswell/g16/l301.exe)
 Standard basis: 6-31G(d) (6D, 7F)
 Ernie: Thresh=  0.10000D-02 Tol=  0.10000D-05 Strict=F.
 There are   142 symmetry adapted cartesian basis functions of A   symmetry.
 There are   142 symmetry adapted basis functions of A   symmetry.
   142 basis functions,   268 primitive gaussians,   142 cartesian basis functions
    31 alpha electrons       31 beta electrons
       nuclear repulsion energy       402.4629525894 Hartrees.
 IExCor=  402 DFT=T Ex+Corr=B3LYP ExCW=0 ScaHFX=  0.200000
 ScaDFX=  0.800000  0.720000  1.000000  0.810000 ScalE2=  1.000000  1.000000
 IRadAn=      5 IRanWt=     -1 IRanGd=            0 ICorTp=0 IEmpDi=  4
 NAtoms=   19 NActive=   19 NUniq=   19 SFac= 1.00D+00 NAtFMM=   60 NAOKFM=F Big=F
 Integral buffers will be    131072 words long.
 Raffenetti 2 integral format.
 Two-electron integral symmetry is turned on.
 Leave Link  301 at Mon Oct 14 02:15:38 2019, MaxMem= 10737418240 cpu:               1.7 elap:               0.1
 (Enter /apps/cent7/gaussian/g16-A.03/g16-haswell/g16/l302.exe)
 NPDir=0 NMtPBC=     1 NCelOv=     1 NCel=       1 NClECP=     1 NCelD=      1
         NCelK=      1 NCelE2=     1 NClLst=     1 CellRange=     0.0.
 One-electron integrals computed using PRISM.
 One-electron integral symmetry used in STVInt
 NBasis=   142 RedAO= T EigKep=  2.27D-03  NBF=   142
 NBsUse=   142 1.00D-06 EigRej= -1.00D+00 NBFU=   142
 Precomputing XC quadrature grid using
 IXCGrd= 4 IRadAn=           5 IRanWt=          -1 IRanGd=           0 AccXCQ= 0.00D+00.
 Generated NRdTot=       0 NPtTot=           0 NUsed=           0 NTot=          32
 NSgBfM=   142   142   142   142   142 MxSgAt=    19 MxSgA2=    19.
 Leave Link  302 at Mon Oct 14 02:15:38 2019, MaxMem= 10737418240 cpu:               3.0 elap:               0.1
 (Enter /apps/cent7/gaussian/g16-A.03/g16-haswell/g16/l303.exe)
 DipDrv:  MaxL=1.
 Leave Link  303 at Mon Oct 14 02:15:38 2019, MaxMem= 10737418240 cpu:               0.6 elap:               0.0
 (Enter /apps/cent7/gaussian/g16-A.03/g16-haswell/g16/l401.exe)
 Initial guess from the checkpoint file:  "5.chk"
 B after Tr=     0.000000   -0.000000   -0.000000
         Rot=    0.998556    0.000556    0.001150   -0.053709 Ang=   6.16 deg.
 Guess basis will be translated and rotated to current coordinates.
 JPrj=2 DoOrth=T DoCkMO=T.
 Generating alternative initial guess.
 ExpMin= 1.61D-01 ExpMax= 5.48D+03 ExpMxC= 8.25D+02 IAcc=2 IRadAn=         4 AccDes= 0.00D+00
 Harris functional with IExCor=  402 and IRadAn=       4 diagonalized for initial guess.
 HarFok:  IExCor=  402 AccDes= 0.00D+00 IRadAn=         4 IDoV= 1 UseB2=F ITyADJ=14
 ICtDFT=  3500011 ScaDFX=  1.000000  1.000000  1.000000  1.000000
 FoFCou: FMM=F IPFlag=           0 FMFlag=      100000 FMFlg1=           0
         NFxFlg=           0 DoJE=T BraDBF=F KetDBF=T FulRan=T
         wScrn=  0.000000 ICntrl=       500 IOpCl=  0 I1Cent=   200000004 NGrid=           0
         NMat0=    1 NMatS0=      1 NMatT0=    0 NMatD0=    1 NMtDS0=    0 NMtDT0=    0
 Petite list used in FoFCou.
 Harris En= -365.205743280108    
 Leave Link  401 at Mon Oct 14 02:15:38 2019, MaxMem= 10737418240 cpu:               6.1 elap:               0.3
 (Enter /apps/cent7/gaussian/g16-A.03/g16-haswell/g16/l502.exe)
 Integral symmetry usage will be decided dynamically.
 Closed shell SCF:
 Using DIIS extrapolation, IDIIS=  1040.
 NGot= 10737418240 LenX= 10737372695 LenY= 10737352090
 Requested convergence on RMS density matrix=1.00D-08 within 128 cycles.
 Requested convergence on MAX density matrix=1.00D-06.
 Requested convergence on             energy=1.00D-06.
 No special actions if energy rises.
 Fock matrices will be formed incrementally for  20 cycles.
 Integral accuracy reduced to 1.0D-05 until final iterations.

 Cycle   1  Pass 0  IDiag  1:
 FoFJK:  IHMeth= 1 ICntrl=       0 DoSepK=F KAlg= 0 I1Cent=           0 FoldK=F
 IRaf= 980000000 NMat=       1 IRICut=       1 DoRegI=T DoRafI=F ISym2E= 0 IDoP0=0 IntGTp=1.
 FoFCou: FMM=F IPFlag=           0 FMFlag=      100000 FMFlg1=           0
         NFxFlg=           0 DoJE=F BraDBF=F KetDBF=F FulRan=T
         wScrn=  0.000000 ICntrl=         0 IOpCl=  0 I1Cent=           0 NGrid=           0
         NMat0=    1 NMatS0=      1 NMatT0=    0 NMatD0=    1 NMtDS0=    0 NMtDT0=    0
 Symmetry not used in FoFCou.
 E= -365.156513390371    
 DIIS: error= 3.22D-03 at cycle   1 NSaved=   1.
 NSaved= 1 IEnMin= 1 EnMin= -365.156513390371     IErMin= 1 ErrMin= 3.22D-03
 ErrMax= 3.22D-03  0.00D+00 EMaxC= 1.00D-01 BMatC= 4.83D-03 BMatP= 4.83D-03
 IDIUse=3 WtCom= 9.68D-01 WtEn= 3.22D-02
 Coeff-Com:  0.100D+01
 Coeff-En:   0.100D+01
 Coeff:      0.100D+01
 Gap=     1.613 Goal=   None    Shift=    0.000
 GapD=    1.613 DampG=2.000 DampE=1.000 DampFc=2.0000 IDamp=-1.
 RMSDP=1.05D-03 MaxDP=1.86D-02              OVMax= 3.55D-02

 Cycle   2  Pass 0  IDiag  1:
 RMSU=  1.04D-03    CP:  9.96D-01
 E= -365.163679102946     Delta-E=       -0.007165712575 Rises=F Damp=F
 DIIS: error= 3.17D-03 at cycle   2 NSaved=   2.
 NSaved= 2 IEnMin= 2 EnMin= -365.163679102946     IErMin= 2 ErrMin= 3.17D-03
 ErrMax= 3.17D-03  0.00D+00 EMaxC= 1.00D-01 BMatC= 8.66D-04 BMatP= 4.83D-03
 IDIUse=3 WtCom= 9.68D-01 WtEn= 3.17D-02
 Coeff-Com:  0.189D+00 0.811D+00
 Coeff-En:   0.000D+00 0.100D+01
 Coeff:      0.183D+00 0.817D+00
 Gap=     0.193 Goal=   None    Shift=    0.000
 RMSDP=4.20D-04 MaxDP=1.15D-02 DE=-7.17D-03 OVMax= 1.83D-02

 Cycle   3  Pass 0  IDiag  1:
 RMSU=  4.12D-04    CP:  9.98D-01  9.36D-01
 E= -365.162962725091     Delta-E=        0.000716377855 Rises=F Damp=F
 DIIS: error= 5.12D-03 at cycle   3 NSaved=   3.
 NSaved= 3 IEnMin= 2 EnMin= -365.163679102946     IErMin= 2 ErrMin= 3.17D-03
 ErrMax= 5.12D-03  0.00D+00 EMaxC= 1.00D-01 BMatC= 1.79D-03 BMatP= 8.66D-04
 IDIUse=3 WtCom= 1.23D-01 WtEn= 8.77D-01
 Coeff-Com: -0.113D-01 0.599D+00 0.412D+00
 Coeff-En:   0.000D+00 0.636D+00 0.364D+00
 Coeff:     -0.138D-02 0.631D+00 0.370D+00
 Gap=     0.198 Goal=   None    Shift=    0.000
 RMSDP=2.80D-04 MaxDP=9.92D-03 DE= 7.16D-04 OVMax= 1.76D-02

 Cycle   4  Pass 0  IDiag  1:
 RMSU=  1.23D-04    CP:  9.96D-01  1.02D+00  4.32D-01
 E= -365.164337150508     Delta-E=       -0.001374425417 Rises=F Damp=F
 DIIS: error= 6.56D-04 at cycle   4 NSaved=   4.
 NSaved= 4 IEnMin= 4 EnMin= -365.164337150508     IErMin= 4 ErrMin= 6.56D-04
 ErrMax= 6.56D-04  0.00D+00 EMaxC= 1.00D-01 BMatC= 8.30D-05 BMatP= 8.66D-04
 IDIUse=3 WtCom= 9.93D-01 WtEn= 6.56D-03
 Coeff-Com: -0.194D-01 0.329D+00 0.225D+00 0.465D+00
 Coeff-En:   0.000D+00 0.000D+00 0.000D+00 0.100D+01
 Coeff:     -0.193D-01 0.327D+00 0.224D+00 0.469D+00
 Gap=     0.198 Goal=   None    Shift=    0.000
 RMSDP=8.69D-05 MaxDP=2.44D-03 DE=-1.37D-03 OVMax= 6.10D-03

 Cycle   5  Pass 0  IDiag  1:
 RMSU=  4.41D-05    CP:  9.96D-01  1.03D+00  4.24D-01  3.95D-01
 E= -365.164403042976     Delta-E=       -0.000065892468 Rises=F Damp=F
 DIIS: error= 2.99D-04 at cycle   5 NSaved=   5.
 NSaved= 5 IEnMin= 5 EnMin= -365.164403042976     IErMin= 5 ErrMin= 2.99D-04
 ErrMax= 2.99D-04  0.00D+00 EMaxC= 1.00D-01 BMatC= 1.48D-05 BMatP= 8.30D-05
 IDIUse=3 WtCom= 9.97D-01 WtEn= 2.99D-03
 Coeff-Com: -0.113D-01 0.128D+00 0.913D-01 0.305D+00 0.487D+00
 Coeff-En:   0.000D+00 0.000D+00 0.000D+00 0.150D+00 0.850D+00
 Coeff:     -0.113D-01 0.128D+00 0.910D-01 0.305D+00 0.488D+00
 Gap=     0.198 Goal=   None    Shift=    0.000
 RMSDP=2.87D-05 MaxDP=1.11D-03 DE=-6.59D-05 OVMax= 2.16D-03

 Cycle   6  Pass 0  IDiag  1:
 RMSU=  1.52D-05    CP:  9.96D-01  1.03D+00  4.19D-01  5.20D-01  5.86D-01
 E= -365.164415232047     Delta-E=       -0.000012189072 Rises=F Damp=F
 DIIS: error= 7.06D-05 at cycle   6 NSaved=   6.
 NSaved= 6 IEnMin= 6 EnMin= -365.164415232047     IErMin= 6 ErrMin= 7.06D-05
 ErrMax= 7.06D-05  0.00D+00 EMaxC= 1.00D-01 BMatC= 1.24D-06 BMatP= 1.48D-05
 IDIUse=1 WtCom= 1.00D+00 WtEn= 0.00D+00
 Coeff-Com: -0.333D-02 0.285D-01 0.242D-01 0.110D+00 0.281D+00 0.560D+00
 Coeff:     -0.333D-02 0.285D-01 0.242D-01 0.110D+00 0.281D+00 0.560D+00
 Gap=     0.198 Goal=   None    Shift=    0.000
 RMSDP=8.41D-06 MaxDP=2.71D-04 DE=-1.22D-05 OVMax= 5.00D-04

 Initial convergence to 1.0D-05 achieved.  Increase integral accuracy.
 Cycle   7  Pass 1  IDiag  1:
 E= -365.164383824638     Delta-E=        0.000031407410 Rises=F Damp=F
 DIIS: error= 8.89D-06 at cycle   1 NSaved=   1.
 NSaved= 1 IEnMin= 1 EnMin= -365.164383824638     IErMin= 1 ErrMin= 8.89D-06
 ErrMax= 8.89D-06  0.00D+00 EMaxC= 1.00D-01 BMatC= 3.27D-08 BMatP= 3.27D-08
 IDIUse=1 WtCom= 1.00D+00 WtEn= 0.00D+00
 Coeff-Com:  0.100D+01
 Coeff:      0.100D+01
 Gap=     0.198 Goal=   None    Shift=    0.000
 RMSDP=8.41D-06 MaxDP=2.71D-04 DE= 3.14D-05 OVMax= 1.72D-04

 Cycle   8  Pass 1  IDiag  1:
 RMSU=  3.61D-06    CP:  1.00D+00
 E= -365.164383803890     Delta-E=        0.000000020748 Rises=F Damp=F
 DIIS: error= 1.67D-05 at cycle   2 NSaved=   2.
 NSaved= 2 IEnMin= 1 EnMin= -365.164383824638     IErMin= 1 ErrMin= 8.89D-06
 ErrMax= 1.67D-05  0.00D+00 EMaxC= 1.00D-01 BMatC= 5.63D-08 BMatP= 3.27D-08
 IDIUse=1 WtCom= 1.00D+00 WtEn= 0.00D+00
 Coeff-Com:  0.582D+00 0.418D+00
 Coeff:      0.582D+00 0.418D+00
 Gap=     0.198 Goal=   None    Shift=    0.000
[...]
 090,0.00381648,0.00052036,-0.00063346,-0.00135759,-0.00370389,-0.15659
 131,0.02301842,-0.07761616,0.46691103,0.00055506,-0.00106924,0.0008134
 0,-0.00367353,-0.00374477,-0.00219494,-0.00034174,0.00104180,-0.000157
 94,0.00482617,0.01962745,-0.08482768,-0.00587166,0.01849339,0.55580647
 ,-0.00265210,-0.00292347,0.00019548,0.01538910,-0.00320911,0.00142510,
 -0.00390115,-0.00326633,-0.00053204,-0.00576292,-0.01962530,0.00028935
 ,-0.20833208,-0.03985684,-0.02336536,0.64256728,-0.00050140,-0.0015057
 9,0.00251414,0.00393098,-0.04059942,0.00093065,-0.00222111,-0.00145490
 ,-0.00193543,-0.03195411,-0.02430318,-0.00504845,-0.02543419,-0.096586
 84,-0.00166010,-0.01460411,0.82461895,-0.00058502,-0.00183518,-0.00021
 955,0.00103071,-0.00101974,0.00572344,-0.00081162,0.00024056,-0.000163
 15,0.00675273,-0.00026681,0.00169149,-0.02318130,-0.00480880,-0.064593
 00,0.07639069,-0.03448463,0.12413103,0.00770965,-0.00054390,-0.0064530
 6,-0.06748022,0.01946542,-0.00094525,0.00882103,0.00034055,0.00587192,
 -0.04039136,-0.01794059,-0.00728673,-0.04757965,0.02049711,-0.00174784
 ,-0.22889880,0.13843927,-0.03222525,0.83012667,-0.01051159,-0.02929007
 ,-0.01386838,0.00604874,-0.10503866,0.00037952,-0.01396809,-0.03653660
 ,0.00518449,-0.00461707,0.00864901,-0.00038258,0.01462229,0.00915867,0
 .00070459,0.15116876,-0.38500404,0.03635466,-0.18296252,0.67966256,-0.
 01853607,-0.03353855,-0.00516836,0.00224633,0.00240021,-0.08100570,0.0
 1668138,0.02681698,0.00293825,-0.00115614,0.00338611,-0.00124226,-0.00
 933349,0.00198046,-0.00576895,-0.02470978,0.02983119,-0.06036463,0.086
 85774,-0.03489485,0.22197955,-0.00126544,0.00224687,0.00209446,-0.0449
 2625,-0.01370775,-0.00429942,0.00002258,0.00355444,-0.00188723,0.00113
 136,-0.00367272,-0.00132543,0.00678116,0.00604153,-0.00406505,-0.05717
 491,0.03064495,-0.00578296,-0.45754171,0.01834740,-0.04961795,0.555448
 59,-0.00013630,0.00003819,-0.00028375,-0.02582801,0.01208850,-0.002131
 35,-0.00006429,-0.00160478,0.00026335,-0.00362431,-0.00605180,-0.00099
 573,-0.00014249,-0.00523359,0.00054478,0.04949720,0.01263573,0.0055266
 2,0.01912898,-0.11149836,0.00299750,-0.03151839,0.09187319,0.00146888,
 0.00011722,0.00029181,-0.00653336,-0.00035698,0.00542162,-0.00024137,0
 .00044703,-0.00011289,0.00006965,-0.00085536,0.00170993,-0.00059521,0.
 00250931,0.01206655,-0.01155387,0.00332400,0.01383187,-0.04818067,0.00
 264534,-0.06961239,0.06478173,-0.00635256,0.04145699,-0.10094741,-0.10
 517106,-0.01102499,0.00211701,0.00790778,0.00166673,0.00010961,-0.0001
 7473,-0.00024407,0.00076838,0.00035195,-0.00039735,0.00009834,-0.00006
 596,0.00018743,0.00029383,0.00032110,0.00016311,-0.00212966,0.00073880
 ,0.00132997,0.00149606,-0.00057839,-0.00055296,0.10480836,-0.10532948,
 -0.26055292,-0.02056153,-0.00615561,-0.01226390,-0.00023720,-0.0001180
 6,0.00023498,0.00127015,-0.00079538,0.00023449,-0.00013841,-0.00020445
 ,-0.00003212,0.00016623,-0.00078891,0.00014493,-0.00061778,0.00233118,
 -0.00035811,-0.00261103,-0.00009610,0.00025565,0.00028330,0.11600391,0
 .28170083,-0.00981417,-0.01901770,-0.05045754,-0.01442180,-0.02643078,
 -0.00264956,-0.00049834,-0.00047556,0.00141083,-0.00080584,0.00056044,
 0.00036237,-0.00026653,0.00012651,-0.00007887,-0.00140384,-0.00084003,
 -0.00022144,0.00302548,-0.00281344,-0.00589917,-0.00043447,0.00002334,
 0.00054424,0.01056545,0.02339706,0.05394938,-0.07840724,0.05141758,-0.
 06310342,0.00118545,-0.00581335,0.00619190,0.00011582,0.00081991,0.001
 43740,0.00058475,-0.00050448,0.00036464,0.00023752,0.00006736,0.000044
 78,0.00026626,-0.00034055,-0.00001159,-0.00022986,0.00028128,-0.000665
 11,-0.00019294,-0.00058343,-0.00008250,0.00489103,-0.00842975,0.012211
 45,0.07867107,0.05097670,-0.14396262,0.11614919,-0.00553810,0.00777092
 ,-0.01150799,0.00046570,-0.00088948,-0.00208755,-0.00003937,0.00063185
 ,0.00032381,0.00017744,0.00002142,-0.00005592,0.00011055,0.00000160,0.
 00019267,-0.00007642,0.00171831,-0.00005161,-0.00012258,-0.00004473,0.
 00020343,0.01090373,-0.01620985,0.02148076,-0.05706089,0.15247795,-0.0
 6220685,0.11398993,-0.19034233,-0.01003571,0.01860388,-0.02235325,0.00
 190474,-0.00439288,-0.00473751,-0.00122492,0.00031516,0.00108789,0.000
 45271,-0.00021264,-0.00026439,-0.00033317,-0.00087915,0.00061927,-0.00
 009833,0.00238129,0.00072423,0.00021720,-0.00059159,0.00020349,0.00204
 341,-0.00219448,0.00318686,0.06786130,-0.12535768,0.20929602,-0.314808
 40,0.03106252,0.02259280,-0.00706619,0.00241177,0.00144048,0.00018682,
 0.00000136,-0.00063892,0.00075771,-0.00035198,0.00141400,-0.00008189,-
 0.00012103,0.00003952,-0.00005656,-0.00002877,-0.00002176,-0.00208389,
 -0.00056711,-0.00019427,0.00145660,-0.00119224,-0.00087446,-0.01166111
 ,0.00197292,0.00067465,-0.00784198,0.00045795,0.00062851,0.34015741,0.
 02881809,-0.05310889,-0.00046483,0.01423205,-0.00346243,-0.00190806,-0
 .00049256,-0.00006923,0.00072270,0.00003024,0.00010914,-0.00321599,0.0
 0012906,0.00031617,0.00006754,-0.00030023,0.00027097,-0.00012665,0.003
 79854,0.00003424,0.00098602,-0.00236333,0.00015200,0.00052525,-0.03017
 199,0.00549813,0.00306921,0.02033391,-0.00231932,-0.00255793,-0.034048
 05,0.05280401,0.01984678,-0.00077095,-0.05140836,0.03135084,-0.0036399
 2,-0.00272407,0.00080705,-0.00018765,0.00147914,-0.00009715,-0.0018046
 5,-0.00497828,0.00043991,0.00012563,-0.00051473,-0.00035125,0.00011544
 ,0.00006311,0.00269729,0.00050293,0.00162516,-0.00188495,0.00108355,0.
 00009740,-0.00300099,0.00088106,-0.00079631,-0.02461687,0.00158656,0.0
 0291535,-0.02541881,0.00303352,0.05501582,0.00000615,-0.00026561,0.000
 24862,0.00433705,0.01048175,-0.00008639,-0.11472264,-0.11441060,-0.008
 04399,0.00041073,-0.00041090,0.00024807,0.00026237,-0.00013830,0.00001
 771,0.00071594,0.00028594,0.00012746,-0.00324046,0.00162278,-0.0026720
 0,0.00145133,-0.00162119,0.00109450,0.00028862,0.00006573,0.00024338,-
 0.00002812,0.00021123,0.00017146,-0.00001509,-0.00013353,-0.00002035,0
 .12032296,-0.00015294,0.00034234,-0.00138682,-0.01120569,-0.01806000,-
 0.00278384,-0.11443319,-0.24645569,-0.01553284,-0.00026047,0.00099294,
 -0.00000449,-0.00022078,-0.00016009,0.00002000,-0.00128051,-0.00046577
 ,-0.00000723,0.00261766,-0.00134782,0.00380841,0.00041759,0.00038542,-
 0.00028202,0.00009301,0.00081473,0.00049021,0.00034506,0.00029031,-0.0
 0005271,0.00007422,0.00006372,-0.00001492,0.12608350,0.26750407,0.0006
 2959,0.00028741,0.00112157,0.01422138,0.02059483,0.00174135,-0.0095326
 5,-0.01704187,-0.05055705,0.00028006,-0.00060429,0.00046044,0.00036617
 ,0.00000247,-0.00021532,0.00121804,0.00090749,0.00022284,-0.00264950,0
 .00374736,-0.00427987,0.00006723,-0.00025037,0.00065691,-0.00020576,-0
 .00020072,-0.00066969,-0.00016822,-0.00022666,0.00032651,0.00003584,0.
 00005961,-0.00010490,0.01121229,0.01581849,0.05244076,0.00033290,-0.00
 022961,0.00077792,-0.00898268,0.00391171,-0.00017953,-0.31247436,0.049
 29952,0.01628444,0.00081445,0.00061141,-0.00124427,-0.00041814,-0.0000
 9600,-0.00007742,-0.00006787,-0.00018249,0.00000925,-0.00277988,-0.000
 46855,-0.00060526,0.00111852,-0.00282176,0.00125250,-0.00009029,0.0000
 6168,-0.00011603,0.00032026,-0.00002088,0.00003596,0.00053027,-0.00007
 582,-0.00037275,-0.01304503,0.00297857,0.00116211,0.33840874,-0.000211
 82,0.00034062,-0.00095005,0.02154406,-0.00436702,-0.00197753,0.0462143
 8,-0.05596683,-0.00380971,0.00050586,-0.00225084,0.00287923,0.00114450
 ,0.00024160,0.00017488,-0.00074646,0.00069045,0.00011913,0.00422549,0.
 00014960,-0.00052464,-0.00308644,0.00028625,-0.00063723,-0.00020677,0.
 00002669,0.00000384,-0.00014486,-0.00016123,-0.00007929,-0.00018192,0.
 00045446,0.00035479,-0.02917834,0.00738862,0.00205830,-0.05351356,0.05
 716562,-0.00080975,-0.00014217,0.00124661,-0.02656925,0.00356294,0.001
 25965,0.01792728,-0.00449788,-0.05219154,0.00063967,0.00344257,-0.0031
 5157,-0.00132511,0.00006937,0.00038429,-0.00003219,-0.00021707,0.00008
 079,-0.00084396,-0.00044099,0.00070451,0.00106950,-0.00060518,-0.00057
 470,-0.00001510,-0.00004726,-0.00010209,0.00032488,-0.00005039,0.00025
 155,0.00025323,0.00011722,-0.00084286,-0.00277162,0.00059796,-0.001133
 21,-0.01692191,0.00197125,0.05432649,-0.00012418,0.00117483,-0.0013292
 7,-0.00019340,-0.00480760,-0.00804506,-0.06084133,0.02276645,0.0476968
 5,0.00066093,-0.00081675,-0.00148748,0.00013232,-0.00002814,0.00012196
 ,0.00001990,-0.00003881,0.00014127,0.00080632,-0.00010899,0.00088295,-
 0.00042569,-0.00034428,-0.00067176,-0.00005787,0.00030105,0.00020119,0
 .00065768,-0.00003246,-0.00049328,0.00026365,0.00000862,-0.00035995,0.
 00327894,-0.00627330,-0.01578121,-0.00373613,0.01413700,0.02920002,0.0
 6010170,0.00118546,-0.00264659,0.00266106,-0.00423794,0.00784551,0.019
 95380,0.02234225,-0.09752825,-0.10080336,-0.00072951,0.00069794,0.0003
 3514,-0.00005020,0.00015444,0.00006160,0.00034813,-0.00012085,-0.00030
 002,0.00000642,0.00206637,0.00006043,-0.00025002,0.00006210,-0.0000690
 6,0.00026168,0.00022647,0.00017074,-0.00015011,0.00076645,0.00123535,-
 0.00000298,-0.00015542,-0.00006777,0.00734638,-0.01093578,-0.02515620,
 0.00027336,-0.00293814,-0.00432800,-0.02609225,0.10226580,-0.00213097,
 0.00468273,-0.00274985,0.00523762,-0.01110342,-0.02291274,0.04622468,-
 0.09782164,-0.25538098,0.00182259,-0.00045609,0.00018118,-0.00009136,0
 .00003874,0.00034103,0.00002431,0.00062670,0.00022988,-0.00101224,-0.0
 0147696,0.00075808,0.00071450,0.00036623,0.00043633,-0.00009011,0.0000
 4050,0.00044196,0.00044412,-0.00061555,-0.00150815,0.00000311,0.000004
 58,0.00023123,-0.00023140,-0.00037189,-0.00032378,0.00030541,-0.000315
 38,-0.00050434,-0.05021606,0.10642898,0.27957412,0.00187397,-0.0009441
 5,-0.00121744,-0.01606939,-0.01601727,-0.01702290,-0.00121488,-0.00017
 331,0.00086015,-0.15150667,-0.08310523,-0.09796588,0.00092568,0.000590
 01,0.00131094,-0.00011203,-0.00009828,-0.00008305,-0.00438487,0.003226
 22,-0.00051469,-0.00162010,-0.00158214,0.00017632,-0.00018799,0.000789
 31,0.00036862,-0.00015075,-0.00022023,0.00061977,0.00042928,-0.0000894
 9,-0.00019562,0.00006840,0.00038276,-0.00024187,-0.00026635,0.00045803
 ,-0.00022716,0.00001845,-0.00005277,0.00009629,0.16340142,0.00033969,0
 .00094677,-0.00005561,0.00755513,0.00656964,0.00809779,0.00032178,0.00
 004969,-0.00008734,-0.08393124,-0.11474797,-0.08153500,-0.01948840,-0.
 01414854,-0.01766461,0.00118772,-0.00532668,0.00100040,0.00232117,-0.0
 0244502,-0.00026981,-0.00018495,0.00131799,-0.00003502,-0.00004883,-0.
 00002633,0.00017874,-0.00021253,-0.00008040,0.00014498,-0.00003069,-0.
 00002298,0.00013353,0.00003643,-0.00014403,0.00003714,0.00008574,-0.00
 038316,-0.00002155,0.00008642,0.00001692,-0.00015060,0.09066776,0.1252
 2579,0.00121410,-0.00021837,0.00057963,0.00269648,0.00190047,0.0012367
 6,-0.00039733,-0.00018024,-0.00026592,-0.10103074,-0.08340273,-0.14768
 218,0.00726715,0.00620532,0.00516598,0.00017370,0.00223168,0.00040302,
 0.00222748,0.00042322,-0.00007268,0.00012016,0.00029204,0.00022876,-0.
 00004653,0.00019110,0.00026182,-0.00005255,0.00024858,0.00016759,-0.00
 001655,0.00007243,-0.00008085,-0.00007331,0.00023818,0.00000989,-0.000
 12317,0.00028379,0.00014519,0.00004204,-0.00000623,0.00039749,0.107435
 13,0.08795000,0.15629351,-0.00480696,0.00044884,-0.00097288,-0.0105049
 6,-0.00100828,0.02950534,0.00147384,-0.00029696,0.00206649,-0.07616423
 ,-0.01141709,0.07587881,0.00005033,0.00132939,-0.00069282,-0.00002960,
 -0.00042993,-0.00033519,-0.00110371,0.00166830,0.00041761,-0.00027084,
 -0.00055811,-0.00050517,0.00005315,0.00022004,0.00001861,0.00004702,-0
 .00025045,-0.00011945,-0.00027176,0.00078918,0.00139681,-0.00003612,0.
 00028329,-0.00017851,0.00030348,-0.00041144,-0.00012648,-0.00045127,-0
 .00005537,-0.00108643,0.00796507,0.00286688,-0.01997502,0.08238219,0.0
 0333574,-0.00001662,-0.00005714,0.00462194,0.00014666,-0.01152319,0.00
 043405,0.00043717,-0.00067053,-0.01165344,-0.04976855,0.02272776,-0.00
 876449,-0.00635407,0.03146861,0.00159142,-0.00086131,0.00059420,0.0002
 5404,-0.00062190,-0.00029385,-0.00033651,0.00034316,0.00012179,-0.0001
 7275,0.00016404,0.00018442,-0.00010116,-0.00001679,0.00022733,0.000385
 11,-0.00045349,-0.00078924,-0.00005323,-0.00018805,-0.00023689,-0.0001
 7690,-0.00003461,0.00009230,0.00021318,0.00017491,0.00017330,0.0062061
 4,0.00234806,-0.01615927,0.00584290,0.05819739,0.00132379,0.00025659,0
 .00092929,0.00016578,-0.00109414,-0.00267225,-0.00204933,0.00113121,0.
 00075143,0.07808212,0.02263098,-0.28567022,0.00078610,0.00115172,-0.00
 562776,-0.00044568,0.00008442,0.00011654,0.00014447,-0.00007040,0.0001
 8247,0.00016909,-0.00000997,-0.00007620,-0.00011639,0.00004788,0.00003
 629,-0.00022934,-0.00000684,0.00032295,0.00013157,-0.00027374,-0.00019
 185,0.00024152,-0.00027886,0.00002875,-0.00017232,0.00030020,0.0002904
 4,0.00009008,-0.00020639,0.00089236,0.00621064,0.00189256,-0.01811873,
 -0.08457400,-0.02706541,0.30649569,0.00009891,0.00027708,-0.00044436,-
 0.00083458,-0.00081360,-0.00079615,0.00040385,0.00040849,0.00020965,0.
 00000552,-0.00121334,0.00480986,-0.06132661,0.01220452,-0.06057667,-0.
 01501596,0.00862874,-0.02987282,0.00170998,-0.00492431,-0.00381380,-0.
 00460127,0.00177240,0.00251241,0.00006684,-0.00002700,0.00018623,-0.00
 001667,0.00009915,0.00041921,0.00002628,-0.00028213,-0.00005165,0.0000
 0090,0.00017331,-0.00008617,-0.00000305,-0.00022919,0.00005852,-0.0000
 5217,-0.00007173,0.00002796,0.00086936,0.00009696,0.00013838,0.0004531
 1,-0.00163675,0.00047096,0.07208516,0.00002721,-0.00002318,0.00017453,
 -0.00080093,-0.00106735,0.00154099,0.00123969,-0.00013848,-0.00019031,
 0.00534509,-0.00479760,0.02957556,0.01011315,-0.05478677,0.03449946,-0
 .00114508,0.00406207,-0.00803824,0.00186585,-0.00132781,0.00042307,-0.
 00194408,0.00055567,-0.00012693,-0.00002313,0.00012351,-0.00002037,0.0
 0016979,-0.00005876,-0.00043213,0.00004853,0.00002931,-0.00014304,-0.0
 0008710,0.00011148,-0.00005147,0.00016107,-0.00041164,0.00014143,-0.00
 010626,0.00001978,-0.00020992,-0.00018199,0.00196062,-0.00025795,0.000
 84101,-0.00521335,0.00141104,-0.01122505,0.05788828,-0.00019906,0.0004
 4500,-0.00046619,0.00028780,0.00008268,-0.00015700,-0.00017745,0.00005
 037,0.00014050,0.00025843,0.00121194,-0.00463103,-0.05552690,0.0372020
 7,-0.27400348,-0.00699473,0.00014513,0.00140269,0.00099291,-0.00253356
 ,-0.00028884,-0.00082124,0.00038514,-0.00012127,-0.00000336,0.00005632
 ,0.00005762,0.00004054,-0.00016561,0.00007695,0.00002136,-0.00001858,0
 .00011299,0.00002893,0.00003022,-0.00002006,-0.00002071,0.00001337,-0.
 00004815,0.00002813,-0.00002864,0.00008664,0.00019963,0.00011222,0.001
 20192,-0.00034345,0.00135404,0.00095298,0.06683553,-0.04080530,0.29697
 196,0.00028487,0.00026803,-0.00022968,-0.00079393,-0.00119047,0.000303
 18,0.00025434,0.00015501,0.00019172,0.00348438,-0.00249471,-0.00343102
 ,-0.14221787,0.08521299,0.09081363,-0.02009834,0.01985920,0.01439214,-
 0.00311669,-0.00400444,0.00359212,-0.00241797,0.00168711,-0.00267837,0
 .00003499,0.00008800,0.00014700,-0.00004571,-0.00001932,0.00006818,0.0
 0000686,-0.00011722,-0.00010814,0.00001113,0.00008150,-0.00006902,-0.0
 0002329,-0.00019763,0.00008360,-0.00001320,-0.00003119,-0.00002346,-0.
 00016418,-0.00027504,-0.00011973,0.00092870,0.00035599,-0.00038349,0.0
 0624031,-0.00434479,-0.00401107,0.15716196,0.00076296,0.00017149,0.000
 32963,-0.00281404,-0.00505073,0.00057379,0.00092889,0.00013772,-0.0004
 0985,0.01929940,-0.01601720,-0.01493885,0.08399533,-0.12439057,-0.0826
 3408,-0.00401681,0.00820897,0.00774142,0.00000306,-0.00130662,-0.00012
 654,-0.00180957,0.00074352,-0.00077558,-0.00003417,0.00007497,0.000129
 68,-0.00009110,0.00004439,-0.00005100,0.00008041,-0.00008931,-0.000359
 00,-0.00002651,0.00008255,-0.00006207,0.00015422,-0.00018280,0.0003500
 4,-0.00002487,0.00000112,0.00010613,0.00013222,-0.00142805,0.00018689,
 0.00019005,0.00172420,0.00008235,-0.00291803,0.00320781,0.00234803,-0.
 09446912,0.13418376,-0.00048529,0.00023684,-0.00036158,-0.00010340,0.0
 0228846,0.00025175,-0.00027782,0.00000676,0.00015723,-0.00710877,0.006
 13257,0.00401893,0.09189810,-0.08446631,-0.13641141,-0.00380077,0.0050
 5597,0.00572194,-0.00248101,0.00072151,0.00027752,0.00066951,0.0001395
 1,-0.00061114,0.00002612,-0.00004242,0.00003301,-0.00000319,-0.0000221
 9,0.00014453,-0.00002110,0.00004712,0.00020888,0.00000186,-0.00002795,
 0.00000010,-0.00006258,0.00005705,-0.00011583,0.00001312,0.00000907,-0
 .00003879,0.00013842,0.00007742,0.00004539,-0.00038661,0.00031678,0.00
 146197,0.01954818,-0.01796863,-0.02091498,-0.09806198,0.08760003,0.145
 99891,0.00031354,0.00007564,-0.00008963,-0.00372470,0.00112518,-0.0016
 3776,0.00089592,0.00077573,0.00021146,-0.00435258,-0.00069880,-0.00193
 578,0.00025386,-0.02047212,0.00249489,-0.11714997,-0.12627644,-0.00609
 679,0.01178713,0.02440809,-0.00018953,0.00153093,-0.00149036,0.0011137
 2,0.00004812,0.00011093,0.00011895,-0.00006359,-0.00002173,0.00008926,
 0.00007200,-0.00006535,-0.00006022,-0.00006705,0.00029640,-0.00027980,
 0.00005846,-0.00012088,0.00008584,-0.00004465,-0.00003962,-0.00001857,
 0.00012559,-0.00139402,0.00052032,-0.00001740,-0.00034529,0.00015443,-
 0.00010990,0.00004702,-0.00059529,0.00048363,0.00065766,0.00049720,0.1
 0996066,-0.00029575,-0.00043969,0.00011994,0.00306958,-0.00050253,0.00
 145492,-0.00069451,-0.00094448,-0.00042191,0.00158064,0.00027573,0.000
 08777,0.00158849,0.00350503,-0.00004161,-0.11214063,-0.29440491,-0.000
 26458,-0.01377131,-0.02666374,-0.00037951,-0.00216033,0.00369591,-0.00
 068594,0.00006582,-0.00005618,-0.00021706,-0.00000268,0.00001999,-0.00
 009642,0.00002999,-0.00005106,-0.00003987,0.00019155,-0.00021894,0.000
 31741,0.00004829,-0.00004764,0.00000540,-0.00001385,0.00002720,0.00005
 356,0.00001241,0.00031768,0.00000108,-0.00005224,-0.00000683,0.0000168
 1,-0.00031953,-0.00013359,0.00011517,-0.00056391,-0.00011522,-0.000161
 60,0.12342797,0.31574326,0.00124402,0.00223775,-0.00018495,-0.00142397
 ,0.00014433,0.00930568,-0.00099525,-0.00140377,-0.00034205,-0.00065722
 ,0.00032634,0.00160163,0.00009704,-0.00389915,0.00008076,-0.00619399,-
 0.00070196,-0.02867614,0.00210654,0.00343625,0.00451307,0.00021530,-0.
 00040157,-0.00583732,-0.00028460,0.00031723,0.00059028,0.00001179,-0.0
 0003701,-0.00011757,-0.00004920,-0.00013941,-0.00010687,0.00026327,-0.
 00025991,0.00029476,0.00006836,0.00007802,-0.00002522,-0.00003355,0.00
 004950,-0.00015168,0.00005270,0.00019474,0.00008342,0.00001234,-0.0004
 6502,-0.00010414,0.00042474,0.00047821,-0.00035327,-0.00047562,-0.0000
 9102,0.00013358,0.00561730,0.00013644,0.01929603\\0.00000576,-0.000006
 16,0.00001480,-0.00000692,-0.00002576,-0.00002936,-0.00000379,0.000010
 80,-0.00000029,-0.00001501,-0.00001085,0.00002430,-0.00000284,0.000019
 25,-0.00000228,0.00000981,-0.00001592,-0.00001012,0.00003254,0.0000319
 1,0.00002507,-0.00002181,0.00000521,-0.00001453,-0.00000071,-0.0000058
 5,-0.00000538,0.00000028,0.00000085,-0.00000399,-0.00000340,-0.0000004
 3,0.00000132,-0.00000222,-0.00000325,-0.00000058,-0.00000110,-0.000001
 77,0.00000136,-0.00000119,0.00000405,0.00000321,0.00000092,-0.00000032
 ,-0.00000543,0.00000548,0.00000211,-0.00000837,0.00000859,-0.00001213,
 0.00000244,0.00000176,0.00000316,-0.00000356,-0.00000617,0.00000511,0.
 00001141\\\@


 When I told the people of Northern Ireland that I was
 an atheist, a woman in the audience stood up and said,
 "Yes, but is it the God of the Catholics or the God
 of the Protestants in whom you don't believe?"
                               -- Quentin Crisp
 Job cpu time:       0 days  0 hours  8 minutes 40.6 seconds.
 Elapsed time:       0 days  0 hours  0 minutes 22.4 seconds.
 File lengths (MBytes):  RWF=     51 Int=      0 D2E=      0 Chk=      3 Scr=      1
 Normal termination of Gaussian 16 at Mon Oct 14 02:17:05 2019.
real 94.03
user 2061.37
sys 19.04
Machine:
brown-a157
brown-a157
brown-a157
brown-a157
brown-a157
brown-a157
brown-a157
brown-a157
brown-a157
brown-a157
brown-a157
brown-a157
brown-a157
brown-a157
brown-a157
brown-a157
brown-a157
brown-a157
brown-a157
brown-a157
brown-a157
brown-a157
brown-a157
brown-a157
