 Entering Gaussian System, Link 0=/apps/cent7/gaussian/g16-A.03/g16-haswell/g16/g16
 Initial command:
 /apps/cent7/gaussian/g16-A.03/g16-haswell/g16/l1.exe "/scratch/brown/finej/gaussian/Gau-180483.inp" -scrdir="/scratch/brown/finej/gaussian/"
 Entering Link 1 = /apps/cent7/gaussian/g16-A.03/g16-haswell/g16/l1.exe PID=    180485.
  
 Copyright (c) 1988,1990,1992,1993,1995,1998,2003,2009,2016,
            Gaussian, Inc.  All Rights Reserved.
  
 This is part of the Gaussian(R) 16 program.  It is based on
 the Gaussian(R) 09 system (copyright 2009, Gaussian, Inc.),
 the Gaussian(R) 03 system (copyright 2003, Gaussian, Inc.),
 the Gaussian(R) 98 system (copyright 1998, Gaussian, Inc.),
 the Gaussian(R) 94 system (copyright 1995, Gaussian, Inc.),
 the Gaussian 92(TM) system (copyright 1992, Gaussian, Inc.),
 the Gaussian 90(TM) system (copyright 1990, Gaussian, Inc.),
 the Gaussian 88(TM) system (copyright 1988, Gaussian, Inc.),
 the Gaussian 86(TM) system (copyright 1986, Carnegie Mellon
 University), and the Gaussian 82(TM) system (copyright 1983,
 Carnegie Mellon University). Gaussian is a federally registered
 trademark of Gaussian, Inc.
  
 This software contains proprietary and confidential information,
 including trade secrets, belonging to Gaussian, Inc.
  
 This software is provided under written license and may be
 used, copied, transmitted, or stored only in accord with that
 written license.
  
 The following legend is applicable only to US Government
 contracts under FAR:
  
                    RESTRICTED RIGHTS LEGEND
  
 Use, reproduction and disclosure by the US Government is
 subject to restrictions as set forth in subparagraphs (a)
 and (c) of the Commercial Computer Software - Restricted
 Rights clause in FAR 52.227-19.
  
 Gaussian, Inc.
 340 Quinnipiac St., Bldg. 40, Wallingford CT 06492
  
  
 ---------------------------------------------------------------
 Warning -- This program may not be used in any manner that
 competes with the business of Gaussian, Inc. or will provide
 assistance to any competitor of Gaussian, Inc.  The licensee
 of this program is prohibited from giving any competitor of
 Gaussian, Inc. access to this program.  By using this program,
 the user acknowledges that Gaussian, Inc. is engaged in the
 business of creating and licensing software in the field of
 computational chemistry and represents and warrants to the
 licensee that it is not a competitor of Gaussian, Inc. and that
 it will not use this program in any manner prohibited above.
 ---------------------------------------------------------------
  

 Cite this work as:
 Gaussian 16, Revision A.03,
 M. J. Frisch, G. W. Trucks, H. B. Schlegel, G. E. Scuseria, 
 M. A. Robb, J. R. Cheeseman, G. Scalmani, V. Barone, 
 G. A. Petersson, H. Nakatsuji, X. Li, M. Caricato, A. V. Marenich, 
 J. Bloino, B. G. Janesko, R. Gomperts, B. Mennucci, H. P. Hratchian, 
 J. V. Ortiz, A. F. Izmaylov, J. L. Sonnenberg, D. Williams-Young, 
 F. Ding, F. Lipparini, F. Egidi, J. Goings, B. Peng, A. Petrone, 
 T. Henderson, D. Ranasinghe, V. G. Zakrzewski, J. Gao, N. Rega, 
 G. Zheng, W. Liang, M. Hada, M. Ehara, K. Toyota, R. Fukuda, 
 J. Hasegawa, M. Ishida, T. Nakajima, Y. Honda, O. Kitao, H. Nakai, 
 T. Vreven, K. Throssell, J. A. Montgomery, Jr., J. E. Peralta, 
 F. Ogliaro, M. J. Bearpark, J. J. Heyd, E. N. Brothers, K. N. Kudin, 
 V. N. Staroverov, T. A. Keith, R. Kobayashi, J. Normand, 
 K. Raghavachari, A. P. Rendell, J. C. Burant, S. S. Iyengar, 
 J. Tomasi, M. Cossi, J. M. Millam, M. Klene, C. Adamo, R. Cammi, 
 J. W. Ochterski, R. L. Martin, K. Morokuma, O. Farkas, 
 J. B. Foresman, and D. J. Fox, Gaussian, Inc., Wallingford CT, 2016.
 
 ******************************************
 Gaussian 16:  ES64L-G16RevA.03 25-Dec-2016
                14-Oct-2019 
 ******************************************
 %chk=5_p.chk
 %nprocshared=24
 Will use up to   24 processors via shared memory.
 %mem=80GB
 --------------------------------------------------------------
 #P opt freq b3lyp/6-31g(d) geom=connectivity temperature=0.001
 --------------------------------------------------------------
 1/18=20,19=15,26=3,38=1,57=2,112=-1000/1,3;
 2/9=110,12=2,17=6,18=5,40=1/2;
 3/5=1,6=6,7=1,11=2,25=1,30=1,71=1,74=-5/1,2,3;
 4//1;
 5/5=2,38=5/2;
 6/7=2,8=2,9=2,10=2,28=1/1;
 7//1,2,3,16;
 1/18=20,19=15,26=3/3(2);
 2/9=110/2;
 99//99;
 2/9=110/2;
 3/5=1,6=6,7=1,11=2,25=1,30=1,71=1,74=-5/1,2,3;
 4/5=5,16=3,69=1/1;
 5/5=2,38=5/2;
 7//1,2,3,16;
 1/18=20,19=15,26=3/3(-5);
 2/9=110/2;
 6/7=2,8=2,9=2,10=2,19=2,28=1/1;
 99/9=1/99;
 Leave Link    1 at Mon Oct 14 02:17:48 2019, MaxMem= 10737418240 cpu:               0.8 elap:               0.0
 (Enter /apps/cent7/gaussian/g16-A.03/g16-haswell/g16/l101.exe)
 -------------------
 Title Card Required
 -------------------
 Symbolic Z-matrix:
 Charge =  1 Multiplicity = 1
 C                    -0.4364   -1.9519   -1.3354 
 C                    -0.7338   -1.1583   -0.0233 
 C                    -0.4103   -2.0416    1.2235 
 C                    -2.2086   -0.6337    0.0029 
 C                    -2.0832    0.9013   -0.03 
 C                    -0.6712    1.1065   -0.0054 
 N                     0.0134    0.0262    0.0003 
 O                     1.2891    0.056     0.0187 
 H                    -0.4826   -3.0217   -1.1314 
 H                    -1.1774   -1.694    -2.092 
 H                     0.5585   -1.694    -1.6985 
 H                    -0.481    -3.0946    0.951 
 H                     0.5994   -1.8234    1.5713 
 H                    -1.1235   -1.8234    2.0184 
 H                    -2.6924   -0.9428   -0.9237 
 H                    -2.6459   -0.9062    0.9634 
 H                    -2.4424    1.2711   -0.9904 
 H                    -2.4815    1.3146    0.8967 
 H                    -0.1345    2.0551    0.0085 
 H                     1.63382  -0.70636  -0.45202 
 
 ITRead=  0  0  0  0  0  0  0  0  0  0  0  0  0  0  0  0  0  0  0  0
 MicOpt= -1 -1 -1 -1 -1 -1 -1 -1 -1 -1 -1 -1 -1 -1 -1 -1 -1 -1 -1 -1
 NAtoms=     20 NQM=       20 NQMF=       0 NMMI=      0 NMMIF=      0
                NMic=       0 NMicF=      0.
                    Isotopes and Nuclear Properties:
 (Nuclear quadrupole moments (NQMom) in fm**2, nuclear magnetic moments (NMagM)
  in nuclear magnetons)

  Atom         1           2           3           4           5           6           7           8           9          10
 IAtWgt=          12          12          12          12          12          12          14          16           1           1
 AtmWgt=  12.0000000  12.0000000  12.0000000  12.0000000  12.0000000  12.0000000  14.0030740  15.9949146   1.0078250   1.0078250
 NucSpn=           0           0           0           0           0           0           2           0           1           1
 AtZEff=  -0.0000000  -0.0000000  -0.0000000  -0.0000000  -0.0000000  -0.0000000  -0.0000000  -0.0000000  -0.0000000  -0.0000000
 NQMom=    0.0000000   0.0000000   0.0000000   0.0000000   0.0000000   0.0000000   2.0440000   0.0000000   0.0000000   0.0000000
 NMagM=    0.0000000   0.0000000   0.0000000   0.0000000   0.0000000   0.0000000   0.4037610   0.0000000   2.7928460   2.7928460
 AtZNuc=   6.0000000   6.0000000   6.0000000   6.0000000   6.0000000   6.0000000   7.0000000   8.0000000   1.0000000   1.0000000

  Atom        11          12          13          14          15          16          17          18          19          20
 IAtWgt=           1           1           1           1           1           1           1           1           1           1
 AtmWgt=   1.0078250   1.0078250   1.0078250   1.0078250   1.0078250   1.0078250   1.0078250   1.0078250   1.0078250   1.0078250
 NucSpn=           1           1           1           1           1           1           1           1           1           1
 AtZEff=  -0.0000000  -0.0000000  -0.0000000  -0.0000000  -0.0000000  -0.0000000  -0.0000000  -0.0000000  -0.0000000  -0.0000000
 NQMom=    0.0000000   0.0000000   0.0000000   0.0000000   0.0000000   0.0000000   0.0000000   0.0000000   0.0000000   0.0000000
 NMagM=    2.7928460   2.7928460   2.7928460   2.7928460   2.7928460   2.7928460   2.7928460   2.7928460   2.7928460   2.7928460
 AtZNuc=   1.0000000   1.0000000   1.0000000   1.0000000   1.0000000   1.0000000   1.0000000   1.0000000   1.0000000   1.0000000
 Leave Link  101 at Mon Oct 14 02:17:48 2019, MaxMem= 10737418240 cpu:               8.3 elap:               0.4
 (Enter /apps/cent7/gaussian/g16-A.03/g16-haswell/g16/l103.exe)

 GradGradGradGradGradGradGradGradGradGradGradGradGradGradGradGradGradGrad
 Berny optimization.
 Initialization pass.
                           ----------------------------
                           !    Initial Parameters    !
                           ! (Angstroms and Degrees)  !
 --------------------------                            --------------------------
 ! Name  Definition              Value          Derivative Info.                !
 --------------------------------------------------------------------------------
 ! R1    R(1,2)                  1.562          estimate D2E/DX2                !
 ! R2    R(1,9)                  1.0901         estimate D2E/DX2                !
 ! R3    R(1,10)                 1.09           estimate D2E/DX2                !
 ! R4    R(1,11)                 1.09           estimate D2E/DX2                !
 ! R5    R(2,3)                  1.5619         estimate D2E/DX2                !
 ! R6    R(2,4)                  1.5655         estimate D2E/DX2                !
 ! R7    R(2,7)                  1.4007         estimate D2E/DX2                !
 ! R8    R(3,12)                 1.09           estimate D2E/DX2                !
 ! R9    R(3,13)                 1.09           estimate D2E/DX2                !
 ! R10   R(3,14)                 1.09           estimate D2E/DX2                !
 ! R11   R(4,5)                  1.5405         estimate D2E/DX2                !
 ! R12   R(4,15)                 1.09           estimate D2E/DX2                !
 ! R13   R(4,16)                 1.09           estimate D2E/DX2                !
 ! R14   R(5,6)                  1.427          estimate D2E/DX2                !
 ! R15   R(5,17)                 1.09           estimate D2E/DX2                !
 ! R16   R(5,18)                 1.0901         estimate D2E/DX2                !
 ! R17   R(6,7)                  1.279          estimate D2E/DX2                !
 ! R18   R(6,19)                 1.09           estimate D2E/DX2                !
 ! R19   R(7,8)                  1.2762         estimate D2E/DX2                !
 ! R20   R(8,20)                 0.96           estimate D2E/DX2                !
 ! A1    A(2,1,9)              109.4722         estimate D2E/DX2                !
 ! A2    A(2,1,10)             109.4776         estimate D2E/DX2                !
 ! A3    A(2,1,11)             109.4744         estimate D2E/DX2                !
 ! A4    A(9,1,10)             109.4697         estimate D2E/DX2                !
 ! A5    A(9,1,11)             109.4646         estimate D2E/DX2                !
 ! A6    A(10,1,11)            109.4687         estimate D2E/DX2                !
 ! A7    A(1,2,3)              110.1083         estimate D2E/DX2                !
 ! A8    A(1,2,4)              111.3256         estimate D2E/DX2                !
 ! A9    A(1,2,7)              110.0132         estimate D2E/DX2                !
 ! A10   A(3,2,4)              111.794          estimate D2E/DX2                !
 ! A11   A(3,2,7)              110.7516         estimate D2E/DX2                !
 ! A12   A(4,2,7)              102.6432         estimate D2E/DX2                !
 ! A13   A(2,3,12)             109.4722         estimate D2E/DX2                !
 ! A14   A(2,3,13)             109.4738         estimate D2E/DX2                !
 ! A15   A(2,3,14)             109.4764         estimate D2E/DX2                !
 ! A16   A(12,3,13)            109.4663         estimate D2E/DX2                !
 ! A17   A(12,3,14)            109.4671         estimate D2E/DX2                !
 ! A18   A(13,3,14)            109.4716         estimate D2E/DX2                !
 ! A19   A(2,4,5)              104.8838         estimate D2E/DX2                !
 ! A20   A(2,4,15)             107.9907         estimate D2E/DX2                !
 ! A21   A(2,4,16)             107.9941         estimate D2E/DX2                !
 ! A22   A(5,4,15)             107.4898         estimate D2E/DX2                !
 ! A23   A(5,4,16)             107.4935         estimate D2E/DX2                !
 ! A24   A(15,4,16)            120.008          estimate D2E/DX2                !
 ! A25   A(4,5,6)              102.9124         estimate D2E/DX2                !
 ! A26   A(4,5,17)             109.2717         estimate D2E/DX2                !
 ! A27   A(4,5,18)             109.2631         estimate D2E/DX2                !
 ! A28   A(6,5,17)             107.0057         estimate D2E/DX2                !
 ! A29   A(6,5,18)             106.9996         estimate D2E/DX2                !
 ! A30   A(17,5,18)            120.0            estimate D2E/DX2                !
 ! A31   A(5,6,7)              114.0951         estimate D2E/DX2                !
 ! A32   A(5,6,19)             127.7748         estimate D2E/DX2                !
 ! A33   A(7,6,19)             118.1302         estimate D2E/DX2                !
 ! A34   A(2,7,6)              115.3838         estimate D2E/DX2                !
 ! A35   A(2,7,8)              123.5899         estimate D2E/DX2                !
 ! A36   A(6,7,8)              121.0252         estimate D2E/DX2                !
 ! A37   A(7,8,20)             109.4712         estimate D2E/DX2                !
 ! D1    D(9,1,2,3)             23.7657         estimate D2E/DX2                !
 ! D2    D(9,1,2,4)           -100.8007         estimate D2E/DX2                !
 ! D3    D(9,1,2,7)            146.1039         estimate D2E/DX2                !
 ! D4    D(10,1,2,3)           143.7684         estimate D2E/DX2                !
 ! D5    D(10,1,2,4)            19.202          estimate D2E/DX2                !
 ! D6    D(10,1,2,7)           -93.8934         estimate D2E/DX2                !
 ! D7    D(11,1,2,3)           -96.2288         estimate D2E/DX2                !
 ! D8    D(11,1,2,4)           139.2048         estimate D2E/DX2                !
 ! D9    D(11,1,2,7)            26.1094         estimate D2E/DX2                !
 ! D10   D(1,2,3,12)           -24.8924         estimate D2E/DX2                !
 ! D11   D(1,2,3,13)            95.1038         estimate D2E/DX2                !
 ! D12   D(1,2,3,14)          -144.891          estimate D2E/DX2                !
 ! D13   D(4,2,3,12)            99.404          estimate D2E/DX2                !
 ! D14   D(4,2,3,13)          -140.5998         estimate D2E/DX2                !
 ! D15   D(4,2,3,14)           -20.5946         estimate D2E/DX2                !
 ! D16   D(7,2,3,12)          -146.7935         estimate D2E/DX2                !
 ! D17   D(7,2,3,13)           -26.7974         estimate D2E/DX2                !
 ! D18   D(7,2,3,14)            93.2078         estimate D2E/DX2                !
 ! D19   D(1,2,4,5)           -114.9256         estimate D2E/DX2                !
 ! D20   D(1,2,4,15)            -0.5155         estimate D2E/DX2                !
 ! D21   D(1,2,4,16)           130.6586         estimate D2E/DX2                !
 ! D22   D(3,2,4,5)            121.4617         estimate D2E/DX2                !
 ! D23   D(3,2,4,15)          -124.1282         estimate D2E/DX2                !
 ! D24   D(3,2,4,16)             7.0459         estimate D2E/DX2                !
 ! D25   D(7,2,4,5)              2.7261         estimate D2E/DX2                !
 ! D26   D(7,2,4,15)           117.1361         estimate D2E/DX2                !
 ! D27   D(7,2,4,16)          -111.6897         estimate D2E/DX2                !
 ! D28   D(1,2,7,6)            116.638          estimate D2E/DX2                !
 ! D29   D(1,2,7,8)            -62.9717         estimate D2E/DX2                !
 ! D30   D(3,2,7,6)           -121.4051         estimate D2E/DX2                !
 ! D31   D(3,2,7,8)             58.9852         estimate D2E/DX2                !
 ! D32   D(4,2,7,6)             -1.9403         estimate D2E/DX2                !
 ! D33   D(4,2,7,8)            178.4499         estimate D2E/DX2                !
 ! D34   D(2,4,5,6)             -2.6121         estimate D2E/DX2                !
 ! D35   D(2,4,5,17)           110.8426         estimate D2E/DX2                !
 ! D36   D(2,4,5,18)          -116.0565         estimate D2E/DX2                !
 ! D37   D(15,4,5,6)          -117.3723         estimate D2E/DX2                !
 ! D38   D(15,4,5,17)           -3.9177         estimate D2E/DX2                !
 ! D39   D(15,4,5,18)          129.1832         estimate D2E/DX2                !
 ! D40   D(16,4,5,6)           112.1537         estimate D2E/DX2                !
 ! D41   D(16,4,5,17)         -134.3916         estimate D2E/DX2                !
 ! D42   D(16,4,5,18)           -1.2907         estimate D2E/DX2                !
 ! D43   D(4,5,6,7)              1.6443         estimate D2E/DX2                !
 ! D44   D(4,5,6,19)          -178.3588         estimate D2E/DX2                !
 ! D45   D(17,5,6,7)          -113.4564         estimate D2E/DX2                !
 ! D46   D(17,5,6,19)           66.5406         estimate D2E/DX2                !
 ! D47   D(18,5,6,7)           116.7329         estimate D2E/DX2                !
 ! D48   D(18,5,6,19)          -63.2701         estimate D2E/DX2                !
 ! D49   D(5,6,7,2)              0.222          estimate D2E/DX2                !
 ! D50   D(5,6,7,8)            179.8426         estimate D2E/DX2                !
 ! D51   D(19,6,7,2)          -179.7753         estimate D2E/DX2                !
 ! D52   D(19,6,7,8)            -0.1546         estimate D2E/DX2                !
 ! D53   D(2,7,8,20)            31.0733         estimate D2E/DX2                !
 ! D54   D(6,7,8,20)          -148.5153         estimate D2E/DX2                !
 --------------------------------------------------------------------------------
 Trust Radius=3.00D-01 FncErr=1.00D-07 GrdErr=1.00D-06 EigMax=2.50D+02 EigMin=1.00D-04
 Number of steps in this run=    120 maximum allowed number of steps=    120.
 GradGradGradGradGradGradGradGradGradGradGradGradGradGradGradGradGradGrad

 Leave Link  103 at Mon Oct 14 02:17:48 2019, MaxMem= 10737418240 cpu:               0.2 elap:               0.0
 (Enter /apps/cent7/gaussian/g16-A.03/g16-haswell/g16/l202.exe)
                          Input orientation:                          
 ---------------------------------------------------------------------
 Center     Atomic      Atomic             Coordinates (Angstroms)
 Number     Number       Type             X           Y           Z
 ---------------------------------------------------------------------
      1          6           0       -0.436400   -1.951900   -1.335400
      2          6           0       -0.733800   -1.158300   -0.023300
      3          6           0       -0.410300   -2.041600    1.223500
      4          6           0       -2.208600   -0.633700    0.002900
      5          6           0       -2.083200    0.901300   -0.030000
      6          6           0       -0.671200    1.106500   -0.005400
      7          7           0        0.013400    0.026200    0.000300
      8          8           0        1.289100    0.056000    0.018700
      9          1           0       -0.482600   -3.021700   -1.131400
     10          1           0       -1.177400   -1.694000   -2.092000
     11          1           0        0.558500   -1.694000   -1.698500
     12          1           0       -0.481000   -3.094600    0.951000
     13          1           0        0.599400   -1.823400    1.571300
     14          1           0       -1.123500   -1.823400    2.018400
     15          1           0       -2.692400   -0.942800   -0.923700
     16          1           0       -2.645900   -0.906200    0.963400
     17          1           0       -2.442400    1.271100   -0.990400
     18          1           0       -2.481500    1.314600    0.896700
     19          1           0       -0.134500    2.055100    0.008500
     20          1           0        1.633818   -0.706360   -0.452019
 ---------------------------------------------------------------------
                    Distance matrix (angstroms):
                    1          2          3          4          5
     1  C    0.000000
     2  C    1.562003   0.000000
     3  C    2.560605   1.561852   0.000000
     4  C    2.582516   1.565544   2.589581   0.000000
     5  C    3.543553   2.462291   3.609781   1.540465   0.000000
     6  C    3.343328   2.265736   3.389513   2.322060   1.427045
     7  N    2.428846   1.400680   2.439577   2.317921   2.272102
     8  O    2.973651   2.359748   2.956253   3.565086   3.476969
     9  H    1.090056   2.182486   2.551740   3.157255   4.377777
    10  H    1.089971   2.182493   3.420791   2.564413   3.436262
    11  H    1.090037   2.182501   3.097981   3.416993   4.061780
    12  H    2.556438   2.182298   1.089983   3.152701   4.415498
    13  H    3.088414   2.182322   1.089986   3.429304   4.145418
    14  H    3.425871   2.182376   1.090014   2.579742   3.541321
    15  H    2.505457   2.166397   3.320513   1.090043   2.137880
    16  H    3.355572   2.166393   2.520852   1.089976   2.137880
    17  H    3.811927   3.123553   4.472669   2.160919   1.090021
    18  H    4.453620   3.164821   3.957366   2.160839   1.090061
    19  H    4.237129   3.268962   4.281967   3.395816   2.264988
    20  H    2.572457   2.448197   2.961191   3.869937   4.071719
                    6          7          8          9         10
     6  C    0.000000
     7  N    1.278967   0.000000
     8  O    2.224164   1.276181   0.000000
     9  H    4.283163   3.288838   3.732812   0.000000
    10  H    3.528872   2.958853   3.687977   1.779968   0.000000
    11  H    3.495933   2.478335   2.558330   1.779966   1.779941
    12  H    4.312785   3.299645   3.732120   2.083676   3.421477
    13  H    3.561562   2.496489   2.533456   3.148211   4.073516
    14  H    3.589520   2.964168   3.653982   3.430440   4.112790
    15  H    3.021284   3.018955   4.211658   3.041082   2.055347
    16  H    2.981438   2.978054   4.159629   3.680135   3.480315
    17  H    2.033339   2.926126   4.052017   4.721105   3.406694
    18  H    2.033292   2.947547   4.070919   5.187706   4.436742
    19  H    1.089992   2.034300   2.454209   5.214829   4.422159
    20  H    2.966318   1.834937   0.960000   3.209608   3.401164
                   11         12         13         14         15
    11  H    0.000000
    12  H    3.172080   0.000000
    13  H    3.272615   1.779884   0.000000
    14  H    4.081815   1.779915   1.779967   0.000000
    15  H    3.425342   3.610406   4.223320   3.448602   0.000000
    16  H    4.239637   3.078318   3.426773   2.066877   1.888028
    17  H    4.277689   5.164829   5.038927   4.513126   2.228969
    18  H    5.002833   4.842106   4.449053   3.598530   2.907609
    19  H    4.177302   5.246692   4.245435   4.478904   4.049599
    20  H    1.919755   3.484912   2.532118   3.866982   4.358274
                   16         17         18         19         20
    16  H    0.000000
    17  H    2.932470   0.000000
    18  H    2.227875   1.888006   0.000000
    19  H    3.998532   2.634172   2.616419   0.000000
    20  H    4.512132   4.562429   4.779034   3.311297   0.000000
 Stoichiometry    C6H12NO(1+)
 Framework group  C1[X(C6H12NO)]
 Deg. of freedom    54
 Full point group                 C1      NOp   1
 Largest Abelian subgroup         C1      NOp   1
 Largest concise Abelian subgroup C1      NOp   1
                         Standard orientation:                         
 ---------------------------------------------------------------------
 Center     Atomic      Atomic             Coordinates (Angstroms)
 Number     Number       Type             X           Y           Z
 ---------------------------------------------------------------------
      1          6           0       -1.315937   -0.600795    1.300195
      2          6           0       -0.478064   -0.427374   -0.006613
      3          6           0       -1.388315   -0.631973   -1.259197
      4          6           0        0.757370   -1.388817   -0.022608
      5          6           0        1.983929   -0.457670    0.016776
      6          6           0        1.397919    0.843131   -0.014301
      7          7           0        0.119038    0.839468   -0.028633
      8          8           0       -0.541615    1.931050   -0.053609
      9          1           0       -2.191700   -1.215363    1.091464
     10          1           0       -0.705193   -1.085427    2.061877
     11          1           0       -1.635872    0.377419    1.659249
     12          1           0       -2.239958   -1.257243   -0.991232
     13          1           0       -1.744877    0.335997   -1.611288
     14          1           0       -0.815510   -1.117516   -2.049307
     15          1           0        0.750623   -1.961135    0.905077
     16          1           0        0.769227   -1.905902   -0.982051
     17          1           0        2.482362   -0.559829    0.980764
     18          1           0        2.552807   -0.573060   -0.905881
     19          1           0        1.909241    1.805670   -0.026611
     20          1           0       -1.372907    1.812695    0.411735
 ---------------------------------------------------------------------
 Rotational constants (GHZ):           2.5979059           2.2491244           1.6803231
 Leave Link  202 at Mon Oct 14 02:17:48 2019, MaxMem= 10737418240 cpu:               0.8 elap:               0.1
 (Enter /apps/cent7/gaussian/g16-A.03/g16-haswell/g16/l301.exe)
 Standard basis: 6-31G(d) (6D, 7F)
 Ernie: Thresh=  0.10000D-02 Tol=  0.10000D-05 Strict=F.
 There are   144 symmetry adapted cartesian basis functions of A   symmetry.
 There are   144 symmetry adapted basis functions of A   symmetry.
   144 basis functions,   272 primitive gaussians,   144 cartesian basis functions
    31 alpha electrons       31 beta electrons
       nuclear repulsion energy       422.4959104036 Hartrees.
 IExCor=  402 DFT=T Ex+Corr=B3LYP ExCW=0 ScaHFX=  0.200000
 ScaDFX=  0.800000  0.720000  1.000000  0.810000 ScalE2=  1.000000  1.000000
 IRadAn=      5 IRanWt=     -1 IRanGd=            0 ICorTp=0 IEmpDi=  4
 NAtoms=   20 NActive=   20 NUniq=   20 SFac= 1.00D+00 NAtFMM=   60 NAOKFM=F Big=F
 Integral buffers will be    131072 words long.
 Raffenetti 2 integral format.
 Two-electron integral symmetry is turned on.
 Leave Link  301 at Mon Oct 14 02:17:49 2019, MaxMem= 10737418240 cpu:               1.5 elap:               0.1
 (Enter /apps/cent7/gaussian/g16-A.03/g16-haswell/g16/l302.exe)
 NPDir=0 NMtPBC=     1 NCelOv=     1 NCel=       1 NClECP=     1 NCelD=      1
         NCelK=      1 NCelE2=     1 NClLst=     1 CellRange=     0.0.
 One-electron integrals computed using PRISM.
 One-electron integral symmetry used in STVInt
 NBasis=   144 RedAO= T EigKep=  1.77D-03  NBF=   144
 NBsUse=   144 1.00D-06 EigRej= -1.00D+00 NBFU=   144
 Precomputing XC quadrature grid using
 IXCGrd= 4 IRadAn=           5 IRanWt=          -1 IRanGd=           0 AccXCQ= 0.00D+00.
 Generated NRdTot=       0 NPtTot=           0 NUsed=           0 NTot=          32
 NSgBfM=   144   144   144   144   144 MxSgAt=    20 MxSgA2=    20.
 Leave Link  302 at Mon Oct 14 02:17:49 2019, MaxMem= 10737418240 cpu:               3.6 elap:               0.2
 (Enter /apps/cent7/gaussian/g16-A.03/g16-haswell/g16/l303.exe)
 DipDrv:  MaxL=1.
 Leave Link  303 at Mon Oct 14 02:17:49 2019, MaxMem= 10737418240 cpu:               0.6 elap:               0.1
 (Enter /apps/cent7/gaussian/g16-A.03/g16-haswell/g16/l401.exe)
 ExpMin= 1.61D-01 ExpMax= 5.48D+03 ExpMxC= 8.25D+02 IAcc=3 IRadAn=         5 AccDes= 0.00D+00
 Harris functional with IExCor=  402 and IRadAn=       5 diagonalized for initial guess.
 HarFok:  IExCor=  402 AccDes= 0.00D+00 IRadAn=         5 IDoV= 1 UseB2=F ITyADJ=14
 ICtDFT=  3500011 ScaDFX=  1.000000  1.000000  1.000000  1.000000
 FoFCou: FMM=F IPFlag=           0 FMFlag=      100000 FMFlg1=           0
         NFxFlg=           0 DoJE=T BraDBF=F KetDBF=T FulRan=T
         wScrn=  0.000000 ICntrl=       500 IOpCl=  0 I1Cent=   200000004 NGrid=           0
         NMat0=    1 NMatS0=      1 NMatT0=    0 NMatD0=    1 NMtDS0=    0 NMtDT0=    0
 Petite list used in FoFCou.
 Harris En= -365.565757832874    
 JPrj=0 DoOrth=F DoCkMO=F.
 Leave Link  401 at Mon Oct 14 02:17:49 2019, MaxMem= 10737418240 cpu:               7.9 elap:               0.4
 (Enter /apps/cent7/gaussian/g16-A.03/g16-haswell/g16/l502.exe)
 Integral symmetry usage will be decided dynamically.
 Closed shell SCF:
 Using DIIS extrapolation, IDIIS=  1040.
 NGot= 10737418240 LenX= 10737371456 LenY= 10737350279
 Requested convergence on RMS density matrix=1.00D-08 within 128 cycles.
 Requested convergence on MAX density matrix=1.00D-06.
 Requested convergence on             energy=1.00D-06.
 No special actions if energy rises.
 Fock matrices will be formed incrementally for  20 cycles.
 Integral accuracy reduced to 1.0D-05 until final iterations.

 Cycle   1  Pass 0  IDiag  1:
 FoFJK:  IHMeth= 1 ICntrl=       0 DoSepK=F KAlg= 0 I1Cent=           0 FoldK=F
 IRaf= 990000000 NMat=       1 IRICut=       1 DoRegI=T DoRafI=F ISym2E= 0 IDoP0=0 IntGTp=1.
 FoFCou: FMM=F IPFlag=           0 FMFlag=      100000 FMFlg1=           0
         NFxFlg=           0 DoJE=F BraDBF=F KetDBF=F FulRan=T
         wScrn=  0.000000 ICntrl=         0 IOpCl=  0 I1Cent=           0 NGrid=           0
         NMat0=    1 NMatS0=      1 NMatT0=    0 NMatD0=    1 NMtDS0=    0 NMtDT0=    0
 Symmetry not used in FoFCou.
 E= -365.275197866509    
 DIIS: error= 4.00D-02 at cycle   1 NSaved=   1.
 NSaved= 1 IEnMin= 1 EnMin= -365.275197866509     IErMin= 1 ErrMin= 4.00D-02
 ErrMax= 4.00D-02  0.00D+00 EMaxC= 1.00D-01 BMatC= 2.40D-01 BMatP= 2.40D-01
 IDIUse=3 WtCom= 6.00D-01 WtEn= 4.00D-01
 Coeff-Com:  0.100D+01
 Coeff-En:   0.100D+01
 Coeff:      0.100D+01
 Gap=     0.233 Goal=   None    Shift=    0.000
 GapD=    0.233 DampG=1.000 DampE=0.500 DampFc=0.5000 IDamp=-1.
 Damping current iteration by 5.00D-01
 RMSDP=6.90D-03 MaxDP=1.47D-01              OVMax= 1.81D-01

 Cycle   2  Pass 0  IDiag  1:
 RMSU=  3.41D-03    CP:  9.82D-01
 E= -365.368667856822     Delta-E=       -0.093469990313 Rises=F Damp=T
 DIIS: error= 6.23D-03 at cycle   2 NSaved=   2.
 NSaved= 2 IEnMin= 2 EnMin= -365.368667856822     IErMin= 2 ErrMin= 6.23D-03
 ErrMax= 6.23D-03  0.00D+00 EMaxC= 1.00D-01 BMatC= 2.06D-02 BMatP= 2.40D-01
 IDIUse=3 WtCom= 9.38D-01 WtEn= 6.23D-02
 Coeff-Com:  0.123D+00 0.877D+00
 Coeff-En:   0.193D+00 0.807D+00
 Coeff:      0.127D+00 0.873D+00
 Gap=     0.274 Goal=   None    Shift=    0.000
 RMSDP=1.59D-03 MaxDP=7.23D-02 DE=-9.35D-02 OVMax= 1.67D-01

 Cycle   3  Pass 0  IDiag  1:
 RMSU=  1.56D-03    CP:  9.76D-01  9.22D-01
 E= -365.492029408882     Delta-E=       -0.123361552060 Rises=F Damp=F
 DIIS: error= 5.91D-03 at cycle   3 NSaved=   3.
 NSaved= 3 IEnMin= 3 EnMin= -365.492029408882     IErMin= 3 ErrMin= 5.91D-03
 ErrMax= 5.91D-03  0.00D+00 EMaxC= 1.00D-01 BMatC= 1.51D-02 BMatP= 2.06D-02
 IDIUse=3 WtCom= 9.41D-01 WtEn= 5.91D-02
 Coeff-Com:  0.211D-01 0.453D+00 0.526D+00
 Coeff-En:   0.000D+00 0.000D+00 0.100D+01
 Coeff:      0.199D-01 0.426D+00 0.554D+00
 Gap=     0.236 Goal=   None    Shift=    0.000
 RMSDP=1.08D-03 MaxDP=5.16D-02 DE=-1.23D-01 OVMax= 7.59D-02

 Cycle   4  Pass 0  IDiag  1:
 RMSU=  8.40D-04    CP:  9.80D-01  9.88D-01  5.92D-01
 E= -365.501191573490     Delta-E=       -0.009162164608 Rises=F Damp=F
 DIIS: error= 3.25D-03 at cycle   4 NSaved=   4.
 NSaved= 4 IEnMin= 4 EnMin= -365.501191573490     IErMin= 4 ErrMin= 3.25D-03
 ErrMax= 3.25D-03  0.00D+00 EMaxC= 1.00D-01 BMatC= 4.29D-03 BMatP= 1.51D-02
 IDIUse=3 WtCom= 9.67D-01 WtEn= 3.25D-02
 Coeff-Com: -0.280D-02 0.826D-01 0.356D+00 0.564D+00
 Coeff-En:   0.000D+00 0.000D+00 0.272D+00 0.728D+00
 Coeff:     -0.271D-02 0.799D-01 0.353D+00 0.569D+00
 Gap=     0.232 Goal=   None    Shift=    0.000
 RMSDP=4.65D-04 MaxDP=1.68D-02 DE=-9.16D-03 OVMax= 3.25D-02

 Cycle   5  Pass 0  IDiag  1:
 RMSU=  1.68D-04    CP:  9.79D-01  9.64D-01  7.25D-01  5.58D-01
 E= -365.505008345768     Delta-E=       -0.003816772278 Rises=F Damp=F
 DIIS: error= 6.35D-04 at cycle   5 NSaved=   5.
 NSaved= 5 IEnMin= 5 EnMin= -365.505008345768     IErMin= 5 ErrMin= 6.35D-04
 ErrMax= 6.35D-04  0.00D+00 EMaxC= 1.00D-01 BMatC= 1.39D-04 BMatP= 4.29D-03
 IDIUse=3 WtCom= 9.94D-01 WtEn= 6.35D-03
 Coeff-Com: -0.195D-02 0.153D-01 0.143D+00 0.281D+00 0.562D+00
 Coeff-En:   0.000D+00 0.000D+00 0.000D+00 0.000D+00 0.100D+01
 Coeff:     -0.194D-02 0.152D-01 0.142D+00 0.279D+00 0.565D+00
 Gap=     0.235 Goal=   None    Shift=    0.000
 RMSDP=9.83D-05 MaxDP=3.37D-03 DE=-3.82D-03 OVMax= 5.51D-03

 Cycle   6  Pass 0  IDiag  1:
 RMSU=  5.97D-05    CP:  9.79D-01  9.65D-01  7.14D-01  5.88D-01  5.74D-01
 E= -365.505131679269     Delta-E=       -0.000123333501 Rises=F Damp=F
 DIIS: error= 2.75D-04 at cycle   6 NSaved=   6.
 NSaved= 6 IEnMin= 6 EnMin= -365.505131679269     IErMin= 6 ErrMin= 2.75D-04
 ErrMax= 2.75D-04  0.00D+00 EMaxC= 1.00D-01 BMatC= 1.39D-05 BMatP= 1.39D-04
 IDIUse=3 WtCom= 9.97D-01 WtEn= 2.75D-03
 Coeff-Com: -0.635D-03-0.163D-03 0.385D-01 0.854D-01 0.297D+00 0.580D+00
 Coeff-En:   0.000D+00 0.000D+00 0.000D+00 0.000D+00 0.126D-01 0.987D+00
 Coeff:     -0.633D-03-0.162D-03 0.384D-01 0.852D-01 0.296D+00 0.581D+00
 Gap=     0.234 Goal=   None    Shift=    0.000
 RMSDP=2.56D-05 MaxDP=6.57D-04 DE=-1.23D-04 OVMax= 8.12D-04

 Cycle   7  Pass 0  IDiag  1:
 RMSU=  1.10D-05    CP:  9.79D-01  9.64D-01  7.18D-01  5.93D-01  6.30D-01
                    CP:  6.78D-01
 E= -365.505143047904     Delta-E=       -0.000011368636 Rises=F Damp=F
 DIIS: error= 6.10D-05 at cycle   7 NSaved=   7.
 NSaved= 7 IEnMin= 7 EnMin= -365.505143047904     IErMin= 7 ErrMin= 6.10D-05
 ErrMax= 6.10D-05  0.00D+00 EMaxC= 1.00D-01 BMatC= 8.01D-07 BMatP= 1.39D-05
 IDIUse=1 WtCom= 1.00D+00 WtEn= 0.00D+00
 Coeff-Com: -0.196D-03-0.926D-03 0.142D-01 0.326D-01 0.138D+00 0.308D+00
 Coeff-Com:  0.508D+00
 Coeff:     -0.196D-03-0.926D-03 0.142D-01 0.326D-01 0.138D+00 0.308D+00
 Coeff:      0.508D+00
 Gap=     0.234 Goal=   None    Shift=    0.000
 RMSDP=5.95D-06 MaxDP=1.88D-04 DE=-1.14D-05 OVMax= 1.33D-04

 Initial convergence to 1.0D-05 achieved.  Increase integral accuracy.
 Cycle   8  Pass 1  IDiag  1:
 E= -365.505133165143     Delta-E=        0.000009882761 Rises=F Damp=F
 DIIS: error= 1.01D-05 at cycle   1 NSaved=   1.
 NSaved= 1 IEnMin= 1 EnMin= -365.505133165143     IErMin= 1 ErrMin= 1.01D-05
 ErrMax= 1.01D-05  0.00D+00 EMaxC= 1.00D-01 BMatC= 3.88D-08 BMatP= 3.88D-08
 IDIUse=1 WtCom= 1.00D+00 WtEn= 0.00D+00
 Coeff-Com:  0.100D+01
 Coeff:      0.100D+01
 Gap=     0.234 Goal=   None    Shift=    0.000
 RMSDP=5.95D-06 MaxDP=1.88D-04 DE= 9.88D-06 OVMax= 1.06D-04

 Cycle   9  Pass 1  IDiag  1:
 RMSU=  3.56D-06    CP:  1.00D+00
 E= -365.505133150401     Delta-E=        0.000000014742 Rises=F Damp=F
 DIIS: error= 1.51D-05 at cycle   2 NSaved=   2.
 NSaved= 2 IEnMin= 1 EnMin= -365.505133165143     IErMin= 1 ErrMin= 1.01D-05
 ErrMax= 1.51D-05  0.00D+00 EMaxC= 1.00D-01 BMatC= 6.22D-08 BMatP= 3.88D-08
 IDIUse=1 WtCom= 1.00D+00 WtEn= 0.00D+00
 Coeff-Com:  0.567D+00 0.433D+00
 Coeff:      0.567D+00 0.433D+00
 Gap=     0.234 Goal=   None    Shift=    0.000
 RMSDP=1.74D-06 MaxDP=6.04D-05 DE= 1.47D-08 OVMax= 1.03D-04

 Cycle  10  Pass 1  IDiag  1:
 RMSU=  1.38D-06    CP:  1.00D+00  7.04D-01
 E= -365.505133197813     Delta-E=       -0.000000047412 Rises=F Damp=F
 DIIS: error= 3.55D-06 at cycle   3 NSaved=   3.
 NSaved= 3 IEnMin= 3 EnMin= -365.505133197813     IErMin= 3 ErrMin= 3.55D-06
 ErrMax= 3.55D-06  0.00D+00 EMaxC= 1.00D-01 BMatC= 3.63D-09 BMatP= 3.88D-08
 IDIUse=1 WtCom= 1.00D+00 WtEn= 0.00D+00
 Coeff-Com:  0.979D-01 0.205D+00 0.697D+00
 Coeff:      0.979D-01 0.205D+00 0.697D+00
 Gap=     0.234 Goal=   None    Shift=    0.000
 RMSDP=5.19D-07 MaxDP=2.03D-05 DE=-4.74D-08 OVMax= 3.71D-05

 Cycle  11  Pass 1  IDiag  1:
 RMSU=  4.06D-07    CP:  1.00D+00  7.71D-01  8.43D-01
 E= -365.505133199842     Delta-E=       -0.000000002029 Rises=F Damp=F
 DIIS: error= 1.72D-06 at cycle   4 NSaved=   4.
 NSaved= 4 IEnMin= 4 EnMin= -365.505133199842     IErMin= 4 ErrMin= 1.72D-06
 ErrMax= 1.72D-06  0.00D+00 EMaxC= 1.00D-01 BMatC= 1.20D-09 BMatP= 3.63D-09
 IDIUse=1 WtCom= 1.00D+00 WtEn= 0.00D+00
 Coeff-Com: -0.418D-02 0.829D-01 0.452D+00 0.469D+00
 Coeff:     -0.418D-02 0.829D-01 0.452D+00 0.469D+00
 Gap=     0.234 Goal=   None    Shift=    0.000
 RMSDP=2.42D-07 MaxDP=8.69D-06 DE=-2.03D-09 OVMax= 1.53D-05

 Cycle  12  Pass 1  IDiag  1:
 RMSU=  1.04D-07    CP:  1.00D+00  7.69D-01  8.82D-01  4.78D-01
 E= -365.505133200932     Delta-E=       -0.000000001090 Rises=F Damp=F
 DIIS: error= 3.20D-07 at cycle   5 NSaved=   5.
 NSaved= 5 IEnMin= 5 EnMin= -365.505133200932     IErMin= 5 ErrMin= 3.20D-07
 ErrMax= 3.20D-07  0.00D+00 EMaxC= 1.00D-01 BMatC= 3.61D-11 BMatP= 1.20D-09
 IDIUse=1 WtCom= 1.00D+00 WtEn= 0.00D+00
 Coeff-Com: -0.675D-02 0.325D-01 0.190D+00 0.248D+00 0.536D+00
 Coeff:     -0.675D-02 0.325D-01 0.190D+00 0.248D+00 0.536D+00
 Gap=     0.234 Goal=   None    Shift=    0.000
 RMSDP=4.50D-08 MaxDP=1.40D-06 DE=-1.09D-09 OVMax= 1.20D-06

 Cycle  13  Pass 1  IDiag  1:
 RMSU=  2.38D-08    CP:  1.00D+00  7.71D-01  8.78D-01  4.86D-01  6.48D-01
 E= -365.505133200959     Delta-E=       -0.000000000028 Rises=F Damp=F
 DIIS: error= 8.45D-08 at cycle   6 NSaved=   6.
 NSaved= 6 IEnMin= 6 EnMin= -365.505133200959     IErMin= 6 ErrMin= 8.45D-08
 ErrMax= 8.45D-08  0.00D+00 EMaxC= 1.00D-01 BMatC= 2.48D-12 BMatP= 3.61D-11
 IDIUse=1 WtCom= 1.00D+00 WtEn= 0.00D+00
 Coeff-Com: -0.300D-02 0.963D-02 0.546D-01 0.902D-01 0.264D+00 0.584D+00
 Coeff:     -0.300D-02 0.963D-02 0.546D-01 0.902D-01 0.264D+00 0.584D+00
 Gap=     0.234 Goal=   None    Shift=    0.000
 RMSDP=1.15D-08 MaxDP=2.87D-07 DE=-2.75D-11 OVMax= 3.41D-07

 Cycle  14  Pass 1  IDiag  1:
 RMSU=  6.46D-09    CP:  1.00D+00  7.72D-01  8.78D-01  5.01D-01  6.60D-01
                    CP:  7.12D-01
 E= -365.505133200962     Delta-E=       -0.000000000003 Rises=F Damp=F
 DIIS: error= 1.47D-08 at cycle   7 NSaved=   7.
 NSaved= 7 IEnMin= 7 EnMin= -365.505133200962     IErMin= 7 ErrMin= 1.47D-08
 ErrMax= 1.47D-08  0.00D+00 EMaxC= 1.00D-01 BMatC= 8.58D-14 BMatP= 2.48D-12
 IDIUse=1 WtCom= 1.00D+00 WtEn= 0.00D+00
 Coeff-Com: -0.508D-03 0.913D-03 0.361D-02 0.133D-01 0.421D-01 0.177D+00
 Coeff-Com:  0.764D+00
 Coeff:     -0.508D-03 0.913D-03 0.361D-02 0.133D-01 0.421D-01 0.177D+00
 Coeff:      0.764D+00
 Gap=     0.234 Goal=   None    Shift=    0.000
 RMSDP=2.17D-09 MaxDP=4.76D-08 DE=-3.18D-12 OVMax= 5.00D-08

 SCF Done:  E(RB3LYP) =  -365.505133201     A.U. after   14 cycles
            NFock= 14  Conv=0.22D-08     -V/T= 2.0077
 KE= 3.627260800644D+02 PE=-1.681750536329D+03 EE= 5.310234126597D+02
 Leave Link  502 at Mon Oct 14 02:17:52 2019, MaxMem= 10737418240 cpu:              72.6 elap:               3.1
 (Enter /apps/cent7/gaussian/g16-A.03/g16-haswell/g16/l601.exe)
 Copying SCF densities to generalized density rwf, IOpCl= 0 IROHF=0.

 **********************************************************************

            Population analysis using the SCF density.

 **********************************************************************

 Orbital symmetries:
       Occupied  (A) (A) (A) (A) (A) (A) (A) (A) (A) (A) (A) (A)
                 (A) (A) (A) (A) (A) (A) (A) (A) (A) (A) (A) (A)
                 (A) (A) (A) (A) (A) (A) (A)
       Virtual   (A) (A) (A) (A) (A) (A) (A) (A) (A) (A) (A) (A)
                 (A) (A) (A) (A) (A) (A) (A) (A) (A) (A) (A) (A)
                 (A) (A) (A) (A) (A) (A) (A) (A) (A) (A) (A) (A)
                 (A) (A) (A) (A) (A) (A) (A) (A) (A) (A) (A) (A)
                 (A) (A) (A) (A) (A) (A) (A) (A) (A) (A) (A) (A)
                 (A) (A) (A) (A) (A) (A) (A) (A) (A) (A) (A) (A)
                 (A) (A) (A) (A) (A) (A) (A) (A) (A) (A) (A) (A)
                 (A) (A) (A) (A) (A) (A) (A) (A) (A) (A) (A) (A)
                 (A) (A) (A) (A) (A) (A) (A) (A) (A) (A) (A) (A)
                 (A) (A) (A) (A) (A)
 The electronic state is 1-A.
 Alpha  occ. eigenvalues --  -19.42292 -14.67922 -10.45483 -10.42399 -10.37956
 Alpha  occ. eigenvalues --  -10.36746 -10.35650 -10.34487  -1.39748  -1.16496
 Alpha  occ. eigenvalues --   -1.00418  -0.97429  -0.87186  -0.86164  -0.84684
 Alpha  occ. eigenvalues --   -0.81926  -0.71950  -0.71736  -0.67477  -0.65481
 Alpha  occ. eigenvalues --   -0.62899  -0.61029  -0.59956  -0.59141  -0.56413
 Alpha  occ. eigenvalues --   -0.55756  -0.54231  -0.53681  -0.52164  -0.50413
 Alpha  occ. eigenvalues --   -0.46700
 Alpha virt. eigenvalues --   -0.23270  -0.12425  -0.09906  -0.05792  -0.05294
 Alpha virt. eigenvalues --   -0.04452  -0.02725  -0.02159  -0.01064   0.00612
 Alpha virt. eigenvalues --    0.02469   0.02738   0.03009   0.03579   0.06382
 Alpha virt. eigenvalues --    0.07592   0.09201   0.12110   0.14098   0.15790
 Alpha virt. eigenvalues --    0.20638   0.31521   0.32437   0.34049   0.36256
 Alpha virt. eigenvalues --    0.40035   0.40722   0.41265   0.42682   0.43322
 Alpha virt. eigenvalues --    0.45271   0.45666   0.49114   0.51989   0.52818
 Alpha virt. eigenvalues --    0.56535   0.58029   0.59611   0.62433   0.64235
 Alpha virt. eigenvalues --    0.65266   0.67417   0.67803   0.69065   0.72657
 Alpha virt. eigenvalues --    0.73079   0.74262   0.75152   0.76841   0.78308
 Alpha virt. eigenvalues --    0.79595   0.80178   0.82595   0.83284   0.86483
 Alpha virt. eigenvalues --    0.87297   0.90762   0.97585   1.02209   1.06744
 Alpha virt. eigenvalues --    1.09250   1.16730   1.21291   1.31277   1.32449
 Alpha virt. eigenvalues --    1.42469   1.48651   1.50849   1.52794   1.54462
 Alpha virt. eigenvalues --    1.59678   1.65087   1.67023   1.70493   1.73024
 Alpha virt. eigenvalues --    1.74504   1.77732   1.79557   1.81089   1.85911
 Alpha virt. eigenvalues --    1.90434   1.91499   1.92586   1.93409   2.00458
 Alpha virt. eigenvalues --    2.02516   2.07843   2.10519   2.11701   2.13405
 Alpha virt. eigenvalues --    2.17439   2.22039   2.24786   2.29095   2.31455
 Alpha virt. eigenvalues --    2.31980   2.39618   2.44168   2.45274   2.51444
 Alpha virt. eigenvalues --    2.54820   2.58974   2.68814   2.84226   2.96031
 Alpha virt. eigenvalues --    3.62145   3.80513   3.97971   3.99626   4.12743
 Alpha virt. eigenvalues --    4.16951   4.35300   4.59432
          Condensed to atoms (all electrons):
               1          2          3          4          5          6
     1  C    5.189164   0.352132  -0.064387  -0.047431   0.002777   0.002428
     2  C    0.352132   4.938605   0.361183   0.350236  -0.053171  -0.077242
     3  C   -0.064387   0.361183   5.168549  -0.045793   0.003099   0.003416
     4  C   -0.047431   0.350236  -0.045793   5.166338   0.334808  -0.074319
     5  C    0.002777  -0.053171   0.003099   0.334808   5.097358   0.372145
     6  C    0.002428  -0.077242   0.003416  -0.074319   0.372145   4.867140
     7  N   -0.060392   0.276867  -0.062849  -0.049561  -0.045107   0.511687
     8  O   -0.007878  -0.043884  -0.004897   0.005560   0.005165  -0.067999
     9  H    0.376386  -0.026375  -0.007053   0.001113  -0.000039  -0.000262
    10  H    0.374146  -0.032049   0.004382  -0.008261   0.000096   0.001249
    11  H    0.360941  -0.044708   0.001044   0.004644  -0.000397   0.000321
    12  H   -0.008135  -0.027350   0.376036   0.001151  -0.000039  -0.000256
    13  H    0.000667  -0.035318   0.370459   0.004117  -0.000362   0.000114
    14  H    0.004461  -0.032917   0.375745  -0.008790   0.000061   0.001020
    15  H   -0.006250  -0.035941   0.003181   0.377580  -0.031309   0.004336
    16  H    0.003648  -0.035075  -0.006673   0.378165  -0.031908   0.004426
    17  H    0.000682   0.003824  -0.000240  -0.030685   0.374154  -0.035848
    18  H   -0.000242   0.003684   0.000419  -0.030950   0.373499  -0.034386
    19  H   -0.000207   0.004789  -0.000178   0.004080  -0.025600   0.358375
    20  H    0.010318  -0.002846  -0.000287   0.000364  -0.000442   0.005042
               7          8          9         10         11         12
     1  C   -0.060392  -0.007878   0.376386   0.374146   0.360941  -0.008135
     2  C    0.276867  -0.043884  -0.026375  -0.032049  -0.044708  -0.027350
     3  C   -0.062849  -0.004897  -0.007053   0.004382   0.001044   0.376036
     4  C   -0.049561   0.005560   0.001113  -0.008261   0.004644   0.001151
     5  C   -0.045107   0.005165  -0.000039   0.000096  -0.000397  -0.000039
     6  C    0.511687  -0.067999  -0.000262   0.001249   0.000321  -0.000256
     7  N    6.312140   0.164611   0.003313   0.001120  -0.007040   0.003476
     8  O    0.164611   8.151699   0.000183   0.000083   0.000731   0.000143
     9  H    0.003313   0.000183   0.470802  -0.020973  -0.020659   0.006515
    10  H    0.001120   0.000083  -0.020973   0.495488  -0.020918   0.000243
    11  H   -0.007040   0.000731  -0.020659  -0.020918   0.555463   0.000289
    12  H    0.003476   0.000143   0.006515   0.000243   0.000289   0.486218
    13  H   -0.011244   0.008597   0.000229  -0.000111  -0.000189  -0.021171
    14  H    0.001294  -0.000041   0.000242  -0.000203  -0.000136  -0.021979
    15  H    0.001988  -0.000124   0.000223   0.006208   0.000333  -0.000197
    16  H    0.001512  -0.000140  -0.000189   0.000217  -0.000141   0.000174
    17  H   -0.001066  -0.000037  -0.000004  -0.000140   0.000005   0.000003
    18  H   -0.000438  -0.000082   0.000002  -0.000005   0.000007  -0.000003
    19  H   -0.036124   0.001480   0.000004   0.000001  -0.000018   0.000004
    20  H   -0.031053   0.238494  -0.000652  -0.000441   0.015224  -0.000107
              13         14         15         16         17         18
     1  C    0.000667   0.004461  -0.006250   0.003648   0.000682  -0.000242
     2  C   -0.035318  -0.032917  -0.035941  -0.035075   0.003824   0.003684
     3  C    0.370459   0.375745   0.003181  -0.006673  -0.000240   0.000419
     4  C    0.004117  -0.008790   0.377580   0.378165  -0.030685  -0.030950
     5  C   -0.000362   0.000061  -0.031309  -0.031908   0.374154   0.373499
     6  C    0.000114   0.001020   0.004336   0.004426  -0.035848  -0.034386
     7  N   -0.011244   0.001294   0.001988   0.001512  -0.001066  -0.000438
     8  O    0.008597  -0.000041  -0.000124  -0.000140  -0.000037  -0.000082
     9  H    0.000229   0.000242   0.000223  -0.000189  -0.000004   0.000002
    10  H   -0.000111  -0.000203   0.006208   0.000217  -0.000140  -0.000005
    11  H   -0.000189  -0.000136   0.000333  -0.000141   0.000005   0.000007
    12  H   -0.021171  -0.021979  -0.000197   0.000174   0.000003  -0.000003
    13  H    0.518835  -0.021312  -0.000124   0.000290   0.000004   0.000026
    14  H   -0.021312   0.501935   0.000245   0.006969  -0.000003  -0.000127
    15  H   -0.000124   0.000245   0.488985  -0.011326  -0.007457   0.002064
    16  H    0.000290   0.006969  -0.011326   0.485489   0.002536  -0.007781
    17  H    0.000004  -0.000003  -0.007457   0.002536   0.465845  -0.010967
    18  H    0.000026  -0.000127   0.002064  -0.007781  -0.010967   0.465943
    19  H   -0.000011   0.000001  -0.000138  -0.000142  -0.000231  -0.000334
    20  H    0.001108  -0.000032  -0.000012  -0.000008   0.000034  -0.000003
              19         20
     1  C   -0.000207   0.010318
     2  C    0.004789  -0.002846
     3  C   -0.000178  -0.000287
     4  C    0.004080   0.000364
     5  C   -0.025600  -0.000442
     6  C    0.358375   0.005042
     7  N   -0.036124  -0.031053
     8  O    0.001480   0.238494
     9  H    0.000004  -0.000652
    10  H    0.000001  -0.000441
    11  H   -0.000018   0.015224
    12  H    0.000004  -0.000107
    13  H   -0.000011   0.001108
    14  H    0.000001  -0.000032
    15  H   -0.000138  -0.000012
    16  H   -0.000142  -0.000008
    17  H   -0.000231   0.000034
    18  H   -0.000334  -0.000003
    19  H    0.434796  -0.000176
    20  H   -0.000176   0.302508
 Mulliken charges:
               1
     1  C   -0.482827
     2  C    0.155555
     3  C   -0.475155
     4  C   -0.332364
     5  C   -0.374789
     6  C    0.158611
     7  N    0.026866
     8  O   -0.451664
     9  H    0.217194
    10  H    0.199869
    11  H    0.155205
    12  H    0.204985
    13  H    0.185394
    14  H    0.193569
    15  H    0.207734
    16  H    0.209956
    17  H    0.239593
    18  H    0.239673
    19  H    0.259630
    20  H    0.462967
 Sum of Mulliken charges =   1.00000
 Mulliken charges with hydrogens summed into heavy atoms:
               1
     1  C    0.089440
     2  C    0.155555
     3  C    0.108793
     4  C    0.085326
     5  C    0.104477
     6  C    0.418241
     7  N    0.026866
     8  O    0.011302
 Electronic spatial extent (au):  <R**2>=            865.1166
 Charge=              1.0000 electrons
 Dipole moment (field-independent basis, Debye):
    X=              0.8538    Y=              0.5416    Z=              0.7884  Tot=              1.2822
 Quadrupole moment (field-independent basis, Debye-Ang):
   XX=            -32.8311   YY=            -40.8768   ZZ=            -43.0509
   XY=             -0.3282   XZ=             -1.3241   YZ=              1.3794
 Traceless Quadrupole moment (field-independent basis, Debye-Ang):
   XX=              6.0885   YY=             -1.9572   ZZ=             -4.1313
   XY=             -0.3282   XZ=             -1.3241   YZ=              1.3794
 Octapole moment (field-independent basis, Debye-Ang**2):
  XXX=              3.7390  YYY=             11.9890  ZZZ=              0.1887  XYY=             -1.9079
  XXY=              9.2608  XXZ=              1.4573  XZZ=              0.8716  YZZ=             -1.2126
  YYZ=              3.2446  XYZ=             -2.3424
 Hexadecapole moment (field-independent basis, Debye-Ang**3):
 XXXX=           -450.2010 YYYY=           -363.1082 ZZZZ=           -216.4977 XXXY=              0.4074
 XXXZ=             -3.5524 YYYX=             -4.8411 YYYZ=              5.3865 ZZZX=              0.0499
 ZZZY=              0.3416 XXYY=           -114.7054 XXZZ=           -109.9929 YYZZ=            -91.0909
 XXYZ=              2.6552 YYXZ=             -5.3004 ZZXY=             -5.6070
 N-N= 4.224959104036D+02 E-N=-1.681750539428D+03  KE= 3.627260800644D+02
 No NMR shielding tensors so no spin-rotation constants.
 Leave Link  601 at Mon Oct 14 02:17:53 2019, MaxMem= 10737418240 cpu:               3.3 elap:               0.2
 (Enter /apps/cent7/gaussian/g16-A.03/g16-haswell/g16/l701.exe)
 ... and contract with generalized density number  0.
 Compute integral first derivatives.
 Leave Link  701 at Mon Oct 14 02:17:53 2019, MaxMem= 10737418240 cpu:               3.3 elap:               0.2
 (Enter /apps/cent7/gaussian/g16-A.03/g16-haswell/g16/l702.exe)
 L702 exits ... SP integral derivatives will be done elsewhere.
 Leave Link  702 at Mon Oct 14 02:17:53 2019, MaxMem= 10737418240 cpu:               0.4 elap:               0.0
 (Enter /apps/cent7/gaussian/g16-A.03/g16-haswell/g16/l703.exe)
 Integral derivatives from FoFJK, PRISM(SPDF).
 Compute integral first derivatives, UseDBF=F ICtDFT=           0.
 Calling FoFJK, ICntrl=      2127 FMM=F ISym2X=0 I1Cent= 0 IOpClX= 0 NMat=1 NMatS=1 NMatT=0.
 FoFJK:  IHMeth= 1 ICntrl=    2127 DoSepK=F KAlg= 0 I1Cent=           0 FoldK=F
 IRaf=         0 NMat=       1 IRICut=       1 DoRegI=T DoRafI=F ISym2E= 0 IDoP0=0 IntGTp=1.
 FoFCou: FMM=F IPFlag=           0 FMFlag=      100000 FMFlg1=         800
         NFxFlg=           0 DoJE=F BraDBF=F KetDBF=F FulRan=T
         wScrn=  0.000000 ICntrl=      2127 IOpCl=  0 I1Cent=           0 NGrid=           0
         NMat0=    1 NMatS0=      1 NMatT0=    0 NMatD0=    1 NMtDS0=    0 NMtDT0=    0
 Symmetry not used in FoFCou.
 Leave Link  703 at Mon Oct 14 02:17:54 2019, MaxMem= 10737418240 cpu:              18.2 elap:               0.8
 (Enter /apps/cent7/gaussian/g16-A.03/g16-haswell/g16/l716.exe)
 Dipole        = 3.35927265D-01 2.13089069D-01 3.10174897D-01
 ***** Axes restored to original set *****
 -------------------------------------------------------------------
 Center     Atomic                   Forces (Hartrees/Bohr)
 Number     Number              X              Y              Z
 -------------------------------------------------------------------
      1        6          -0.000896867    0.007605842    0.009344291
      2        6          -0.035646935   -0.071229301    0.000621398
      3        6           0.001436450    0.008945734   -0.006620333
      4        6           0.016405170    0.002968551   -0.001253834
      5        6          -0.012547987   -0.014473802    0.004467814
      6        6           0.038147352    0.030385637    0.000970442
      7        7          -0.052090032    0.038303817   -0.007321128
      8        8           0.078775504    0.013784984    0.013884486
      9        1           0.000765650    0.000027109   -0.004206061
     10        1           0.003948430   -0.000394413   -0.005281760
     11        1           0.003387208   -0.005757849   -0.008326087
     12        1          -0.000311890   -0.000490583    0.003736782
     13        1           0.002713592   -0.004175731    0.004337514
     14        1           0.002916955   -0.001064221    0.004339437
     15        1          -0.012564982   -0.009324846    0.012263112
     16        1          -0.012397345   -0.009353897   -0.010657996
     17        1          -0.013205034    0.015132820    0.006531288
     18        1          -0.014731361    0.014082734   -0.008465894
     19        1          -0.001426292   -0.001144436   -0.000986294
     20        1           0.007322416   -0.013828149   -0.007377181
 -------------------------------------------------------------------
 Cartesian Forces:  Max     0.078775504 RMS     0.019465297
 Leave Link  716 at Mon Oct 14 02:17:54 2019, MaxMem= 10737418240 cpu:               0.6 elap:               0.0
 (Enter /apps/cent7/gaussian/g16-A.03/g16-haswell/g16/l103.exe)

 GradGradGradGradGradGradGradGradGradGradGradGradGradGradGradGradGradGrad
 Berny optimization.
 FormGI is forming the generalized inverse of G from B-inverse, IUseBI=4.
 Internal  Forces:  Max     0.086158314 RMS     0.012172820
 Search for a local minimum.
 Step number   1 out of a maximum of  120
 All quantities printed in internal units (Hartrees-Bohrs-Radians)
 RMS Force = .12173D-01 SwitMx=.10000D-02 MixMth= 1
 Mixed Optimization -- RFO/linear search
 Second derivative matrix not updated -- first step.
 ITU=  0
     Eigenvalues ---    0.00230   0.00230   0.00467   0.01680   0.02110
     Eigenvalues ---    0.02462   0.02933   0.04032   0.04157   0.04290
     Eigenvalues ---    0.05525   0.05714   0.05714   0.05715   0.05715
     Eigenvalues ---    0.05905   0.06094   0.06626   0.07613   0.07852
     Eigenvalues ---    0.08707   0.10065   0.12642   0.16000   0.16000
     Eigenvalues ---    0.16000   0.16000   0.16000   0.16000   0.16000
     Eigenvalues ---    0.16000   0.17884   0.22665   0.24999   0.25759
     Eigenvalues ---    0.26655   0.26668   0.27964   0.34806   0.34806
     Eigenvalues ---    0.34808   0.34808   0.34810   0.34811   0.34814
     Eigenvalues ---    0.34814   0.34815   0.34815   0.34816   0.38654
     Eigenvalues ---    0.43765   0.55473   0.69154   0.74267
 RFO step:  Lambda=-3.99604569D-02 EMin= 2.30000000D-03
 Linear search not attempted -- first point.
 Maximum step size (   0.300) exceeded in Quadratic search.
    -- Step size scaled by   0.955
 Iteration  1 RMS(Cart)=  0.05124074 RMS(Int)=  0.00090856
 Iteration  2 RMS(Cart)=  0.00096420 RMS(Int)=  0.00031274
 Iteration  3 RMS(Cart)=  0.00000047 RMS(Int)=  0.00031274
 ITry= 1 IFail=0 DXMaxC= 1.67D-01 DCOld= 1.00D+10 DXMaxT= 3.00D-01 DXLimC= 3.00D+00 Rises=F
 Variable       Old X    -DE/DX   Delta X   Delta X   Delta X     New X
                                 (Linear)    (Quad)   (Total)
    R1        2.95176   0.00773   0.00000   0.02409   0.02409   2.97585
    R2        2.05991  -0.00085   0.00000  -0.00208  -0.00208   2.05782
    R3        2.05975   0.00089   0.00000   0.00219   0.00219   2.06193
    R4        2.05987   0.00450   0.00000   0.01108   0.01108   2.07095
    R5        2.95147   0.00421   0.00000   0.01310   0.01310   2.96457
    R6        2.95845   0.01096   0.00000   0.03052   0.03059   2.98904
    R7        2.64690   0.06086   0.00000   0.12516   0.12501   2.77191
    R8        2.05977  -0.00044   0.00000  -0.00108  -0.00108   2.05869
    R9        2.05978   0.00306   0.00000   0.00753   0.00753   2.06731
   R10        2.05983   0.00104   0.00000   0.00257   0.00257   2.06239
   R11        2.91106   0.02842   0.00000   0.07018   0.07037   2.98142
   R12        2.05988  -0.00220   0.00000  -0.00542  -0.00542   2.05446
   R13        2.05976  -0.00208   0.00000  -0.00512  -0.00512   2.05464
   R14        2.69672   0.04347   0.00000   0.08937   0.08938   2.78611
   R15        2.05984   0.00373   0.00000   0.00918   0.00918   2.06902
   R16        2.05992   0.00353   0.00000   0.00868   0.00868   2.06859
   R17        2.41690   0.01594   0.00000   0.02422   0.02405   2.44095
   R18        2.05979  -0.00171   0.00000  -0.00421  -0.00421   2.05558
   R19        2.41163   0.08616   0.00000   0.10512   0.10512   2.51675
   R20        1.81414   0.01723   0.00000   0.02766   0.02766   1.84180
    A1        1.91065   0.00298   0.00000   0.01443   0.01408   1.92473
    A2        1.91074   0.00493   0.00000   0.02348   0.02302   1.93376
    A3        1.91069   0.01186   0.00000   0.05651   0.05587   1.96656
    A4        1.91061  -0.00390   0.00000  -0.01836  -0.01850   1.89210
    A5        1.91052  -0.00739   0.00000  -0.03515  -0.03566   1.87486
    A6        1.91059  -0.00849   0.00000  -0.04093  -0.04164   1.86895
    A7        1.92175   0.00145   0.00000   0.01804   0.01771   1.93946
    A8        1.94300   0.00131   0.00000   0.01486   0.01444   1.95743
    A9        1.92009  -0.00037   0.00000  -0.00891  -0.00877   1.91132
   A10        1.95117   0.00135   0.00000   0.01263   0.01201   1.96319
   A11        1.93298  -0.00181   0.00000  -0.02192  -0.02181   1.91117
   A12        1.79146  -0.00224   0.00000  -0.01794  -0.01769   1.77378
   A13        1.91065   0.00300   0.00000   0.01438   0.01417   1.92482
   A14        1.91068   0.00651   0.00000   0.03097   0.03067   1.94135
   A15        1.91072   0.00472   0.00000   0.02261   0.02234   1.93306
   A16        1.91055  -0.00479   0.00000  -0.02301  -0.02324   1.88731
   A17        1.91056  -0.00381   0.00000  -0.01797  -0.01813   1.89243
   A18        1.91064  -0.00564   0.00000  -0.02699  -0.02735   1.88329
   A19        1.83057   0.00597   0.00000   0.01491   0.01469   1.84526
   A20        1.88479   0.00088   0.00000   0.02328   0.02224   1.90703
   A21        1.88485   0.00121   0.00000   0.01909   0.01833   1.90318
   A22        1.87605   0.00279   0.00000   0.03623   0.03547   1.91152
   A23        1.87612   0.00137   0.00000   0.02664   0.02607   1.90219
   A24        2.09453  -0.01010   0.00000  -0.10600  -0.10540   1.98914
   A25        1.79616   0.00353   0.00000   0.00606   0.00582   1.80199
   A26        1.90715   0.00475   0.00000   0.03687   0.03651   1.94366
   A27        1.90700   0.00450   0.00000   0.03481   0.03408   1.94108
   A28        1.86760   0.00102   0.00000   0.02221   0.02145   1.88905
   A29        1.86750   0.00212   0.00000   0.03511   0.03425   1.90175
   A30        2.09440  -0.01361   0.00000  -0.11819  -0.11752   1.97687
   A31        1.99133  -0.00709   0.00000  -0.02112  -0.02087   1.97046
   A32        2.23009   0.00283   0.00000   0.00717   0.00703   2.23712
   A33        2.06176   0.00425   0.00000   0.01395   0.01381   2.07557
   A34        2.01383  -0.00016   0.00000   0.01830   0.01825   2.03207
   A35        2.15705  -0.00155   0.00000  -0.01446  -0.01468   2.14237
   A36        2.11229   0.00173   0.00000  -0.00364  -0.00386   2.10843
   A37        1.91063   0.00221   0.00000   0.01055   0.01055   1.92118
    D1        0.41479   0.00283   0.00000   0.04477   0.04493   0.45972
    D2       -1.75930  -0.00091   0.00000   0.00478   0.00486  -1.75445
    D3        2.54999   0.00128   0.00000   0.02332   0.02336   2.57336
    D4        2.50923   0.00290   0.00000   0.04551   0.04543   2.55466
    D5        0.33514  -0.00083   0.00000   0.00551   0.00535   0.34049
    D6       -1.63875   0.00136   0.00000   0.02406   0.02386  -1.61489
    D7       -1.67951   0.00279   0.00000   0.04437   0.04449  -1.63502
    D8        2.42958  -0.00095   0.00000   0.00438   0.00441   2.43399
    D9        0.45570   0.00124   0.00000   0.02292   0.02292   0.47862
   D10       -0.43445  -0.00254   0.00000  -0.04302  -0.04314  -0.47759
   D11        1.65987  -0.00258   0.00000  -0.04343  -0.04356   1.61631
   D12       -2.52883  -0.00261   0.00000  -0.04367  -0.04372  -2.57254
   D13        1.73493   0.00119   0.00000  -0.00152  -0.00151   1.73342
   D14       -2.45393   0.00114   0.00000  -0.00193  -0.00193  -2.45586
   D15       -0.35944   0.00112   0.00000  -0.00217  -0.00208  -0.36153
   D16       -2.56203  -0.00185   0.00000  -0.02934  -0.02929  -2.59132
   D17       -0.46770  -0.00189   0.00000  -0.02974  -0.02971  -0.49741
   D18        1.62678  -0.00192   0.00000  -0.02998  -0.02987   1.59692
   D19       -2.00583   0.00083   0.00000   0.01056   0.01053  -1.99529
   D20       -0.00900   0.00725   0.00000   0.06918   0.06946   0.06046
   D21        2.28042  -0.00411   0.00000  -0.03531  -0.03545   2.24497
   D22        2.11991  -0.00302   0.00000  -0.03324  -0.03336   2.08655
   D23       -2.16645   0.00339   0.00000   0.02539   0.02556  -2.14089
   D24        0.12297  -0.00797   0.00000  -0.07910  -0.07935   0.04363
   D25        0.04758  -0.00024   0.00000  -0.00305  -0.00313   0.04445
   D26        2.04441   0.00617   0.00000   0.05558   0.05579   2.10020
   D27       -1.94935  -0.00519   0.00000  -0.04891  -0.04912  -1.99847
   D28        2.03572   0.00006   0.00000   0.00233   0.00225   2.03797
   D29       -1.09906  -0.00220   0.00000  -0.03115  -0.03117  -1.13024
   D30       -2.11892   0.00044   0.00000   0.00447   0.00437  -2.11455
   D31        1.02949  -0.00182   0.00000  -0.02902  -0.02905   1.00043
   D32       -0.03387  -0.00008   0.00000  -0.00118  -0.00116  -0.03503
   D33        3.11454  -0.00234   0.00000  -0.03467  -0.03459   3.07995
   D34       -0.04559   0.00014   0.00000   0.00451   0.00464  -0.04095
   D35        1.93457   0.00490   0.00000   0.04740   0.04782   1.98239
   D36       -2.02557  -0.00577   0.00000  -0.05215  -0.05236  -2.07793
   D37       -2.04853  -0.00489   0.00000  -0.04481  -0.04516  -2.09369
   D38       -0.06838  -0.00013   0.00000  -0.00193  -0.00198  -0.07035
   D39        2.25467  -0.01079   0.00000  -0.10148  -0.10216   2.15252
   D40        1.95745   0.00491   0.00000   0.04488   0.04518   2.00264
   D41       -2.34558   0.00968   0.00000   0.08776   0.08837  -2.25721
   D42       -0.02253  -0.00099   0.00000  -0.01178  -0.01181  -0.03434
   D43        0.02870  -0.00067   0.00000  -0.00678  -0.00674   0.02195
   D44       -3.11295  -0.00003   0.00000   0.00124   0.00122  -3.11172
   D45       -1.98019  -0.00796   0.00000  -0.05952  -0.05973  -2.03992
   D46        1.16135  -0.00732   0.00000  -0.05150  -0.05176   1.10959
   D47        2.03737   0.00677   0.00000   0.04876   0.04919   2.08656
   D48       -1.10427   0.00741   0.00000   0.05678   0.05716  -1.04711
   D49        0.00387   0.00038   0.00000   0.00517   0.00510   0.00898
   D50        3.13885   0.00256   0.00000   0.03767   0.03778  -3.10655
   D51       -3.13767  -0.00019   0.00000  -0.00202  -0.00205  -3.13972
   D52       -0.00270   0.00199   0.00000   0.03048   0.03063   0.02793
   D53        0.54233   0.00034   0.00000   0.00605   0.00582   0.54815
   D54       -2.59208  -0.00203   0.00000  -0.02934  -0.02911  -2.62119
         Item               Value     Threshold  Converged?
 Maximum Force            0.086158     0.000450     NO 
 RMS     Force            0.012173     0.000300     NO 
 Maximum Displacement     0.167317     0.001800     NO 
 RMS     Displacement     0.051090     0.001200     NO 
 Predicted change in Energy=-2.340072D-02
 Lowest energy point so far.  Saving SCF results.
 GradGradGradGradGradGradGradGradGradGradGradGradGradGradGradGradGradGrad

 Leave Link  103 at Mon Oct 14 02:17:54 2019, MaxMem= 10737418240 cpu:               0.9 elap:               0.1
 (Enter /apps/cent7/gaussian/g16-A.03/g16-haswell/g16/l202.exe)
                          Input orientation:                          
 ---------------------------------------------------------------------
 Center     Atomic      Atomic             Coordinates (Angstroms)
 Number     Number       Type             X           Y           Z
 ---------------------------------------------------------------------
      1          6           0       -0.435990   -1.977122   -1.358857
      2          6           0       -0.748656   -1.189484   -0.031561
      3          6           0       -0.399852   -2.050734    1.232426
      4          6           0       -2.231743   -0.640607    0.000995
      5          6           0       -2.106369    0.931906   -0.024013
      6          6           0       -0.649079    1.154916   -0.007702
      7          7           0        0.027754    0.054751   -0.005786
      8          8           0        1.358342    0.072682    0.048309
      9          1           0       -0.493267   -3.050303   -1.183293
     10          1           0       -1.150935   -1.717283   -2.141096
     11          1           0        0.563969   -1.761910   -1.752259
     12          1           0       -0.480669   -3.112057    1.000310
     13          1           0        0.619763   -1.854154    1.576689
     14          1           0       -1.081039   -1.824541    2.054567
     15          1           0       -2.758419   -0.977262   -0.888512
     16          1           0       -2.701639   -0.943234    0.933608
     17          1           0       -2.506421    1.349174   -0.953854
     18          1           0       -2.544639    1.378577    0.874133
     19          1           0       -0.113953    2.101799    0.009123
     20          1           0        1.722359   -0.706273   -0.410647
 ---------------------------------------------------------------------
                    Distance matrix (angstroms):
                    1          2          3          4          5
     1  C    0.000000
     2  C    1.574753   0.000000
     3  C    2.592580   1.568782   0.000000
     4  C    2.619198   1.581732   2.619295   0.000000
     5  C    3.610321   2.518678   3.658822   1.577702   0.000000
     6  C    3.417702   2.346635   3.446190   2.393493   1.474345
     7  N    2.484827   1.466832   2.479734   2.364085   2.307426
     8  O    3.066177   2.457414   3.000379   3.660565   3.570395
     9  H    1.088954   2.203260   2.616020   3.198667   4.450170
    10  H    1.091128   2.211456   3.472170   2.629816   3.523223
    11  H    1.095901   2.238628   3.149716   3.485287   4.168235
    12  H    2.618348   2.198377   1.089411   3.189507   4.477251
    13  H    3.122045   2.213780   1.093973   3.476578   4.213808
    14  H    3.477187   2.205834   1.091372   2.634953   3.601360
    15  H    2.571891   2.195120   3.348665   1.087174   2.194870
    16  H    3.384891   2.192335   2.571783   1.087268   2.188044
    17  H    3.938903   3.222600   4.558160   2.224054   1.094879
    18  H    4.548996   3.262020   4.060622   2.222021   1.094652
    19  H    4.314241   3.352171   4.338402   3.464953   2.310729
    20  H    2.678176   2.546196   3.001840   3.976014   4.182376
                    6          7          8          9         10
     6  C    0.000000
     7  N    1.291693   0.000000
     8  O    2.281252   1.331808   0.000000
     9  H    4.369228   3.361449   3.833840   0.000000
    10  H    3.612860   3.014790   3.780733   1.768292   0.000000
    11  H    3.608717   2.576422   2.690502   1.761086   1.759000
    12  H    4.387654   3.361457   3.798793   2.184512   3.501869
    13  H    3.629705   2.549239   2.567906   3.207351   4.120197
    14  H    3.649206   3.001035   3.684440   3.511652   4.197615
    15  H    3.125912   3.099519   4.350602   3.084689   2.168088
    16  H    3.082418   3.054181   4.277767   3.714555   3.529539
    17  H    2.093480   2.999401   4.191678   4.843638   3.556690
    18  H    2.102571   3.023901   4.197691   5.296801   4.540745
    19  H    1.087764   2.052001   2.507290   5.301876   4.503794
    20  H    3.041399   1.901251   0.974638   3.316693   3.503200
                   11         12         13         14         15
    11  H    0.000000
    12  H    3.238951   0.000000
    13  H    3.330693   1.767903   0.000000
    14  H    4.147516   1.769067   1.766910   0.000000
    15  H    3.521362   3.648718   4.272970   3.491876   0.000000
    16  H    4.306775   3.104988   3.503575   2.158609   1.823323
    17  H    4.443376   5.274942   5.141788   4.599432   2.340957
    18  H    5.140432   4.943853   4.577944   3.714231   2.950017
    19  H    4.300034   5.319890   4.318005   4.531582   4.156870
    20  H    2.063047   3.554142   2.546144   3.897029   4.514329
                   16         17         18         19         20
    16  H    0.000000
    17  H    2.975863   0.000000
    18  H    2.327873   1.828623   0.000000
    19  H    4.101588   2.686573   2.679464   0.000000
    20  H    4.629787   4.733130   4.919810   3.381348   0.000000
 Stoichiometry    C6H12NO(1+)
 Framework group  C1[X(C6H12NO)]
 Deg. of freedom    54
 Full point group                 C1      NOp   1
 RotChk:  IX=0 Diff= 3.02D-02
 Largest Abelian subgroup         C1      NOp   1
 Largest concise Abelian subgroup C1      NOp   1
                         Standard orientation:                         
 ---------------------------------------------------------------------
 Center     Atomic      Atomic             Coordinates (Angstroms)
 Number     Number       Type             X           Y           Z
 ---------------------------------------------------------------------
      1          6           0       -1.337694   -0.658706    1.307472
      2          6           0       -0.493347   -0.469012   -0.008181
      3          6           0       -1.392799   -0.622799   -1.284274
      4          6           0        0.774687   -1.413811   -0.044513
      5          6           0        2.025216   -0.453428    0.010122
      6          6           0        1.419182    0.890601    0.011335
      7          7           0        0.127952    0.859735   -0.004239
      8          8           0       -0.580750    1.986560   -0.045688
      9          1           0       -2.204921   -1.287612    1.111982
     10          1           0       -0.738510   -1.130805    2.087640
     11          1           0       -1.705486    0.290246    1.713940
     12          1           0       -2.241406   -1.272180   -1.072171
     13          1           0       -1.779429    0.345499   -1.615473
     14          1           0       -0.823923   -1.056625   -2.108451
     15          1           0        0.769958   -2.054449    0.833842
     16          1           0        0.786095   -1.956206   -0.986760
     17          1           0        2.583545   -0.578329    0.943626
     18          1           0        2.647573   -0.562185   -0.883805
     19          1           0        1.922311    1.854999    0.016609
     20          1           0       -1.436949    1.859962    0.402436
 ---------------------------------------------------------------------
 Rotational constants (GHZ):           2.4769105           2.1710127           1.6028100
 Leave Link  202 at Mon Oct 14 02:17:54 2019, MaxMem= 10737418240 cpu:               0.3 elap:               0.0
 (Enter /apps/cent7/gaussian/g16-A.03/g16-haswell/g16/l301.exe)
 Standard basis: 6-31G(d) (6D, 7F)
 Ernie: Thresh=  0.10000D-02 Tol=  0.10000D-05 Strict=F.
 There are   144 symmetry adapted cartesian basis functions of A   symmetry.
 There are   144 symmetry adapted basis functions of A   symmetry.
   144 basis functions,   272 primitive gaussians,   144 cartesian basis functions
    31 alpha electrons       31 beta electrons
       nuclear repulsion energy       413.6893942477 Hartrees.
 IExCor=  402 DFT=T Ex+Corr=B3LYP ExCW=0 ScaHFX=  0.200000
 ScaDFX=  0.800000  0.720000  1.000000  0.810000 ScalE2=  1.000000  1.000000
 IRadAn=      5 IRanWt=     -1 IRanGd=            0 ICorTp=0 IEmpDi=  4
 NAtoms=   20 NActive=   20 NUniq=   20 SFac= 1.00D+00 NAtFMM=   60 NAOKFM=F Big=F
 Integral buffers will be    131072 words long.
 Raffenetti 2 integral format.
 Two-electron integral symmetry is turned on.
 Leave Link  301 at Mon Oct 14 02:17:54 2019, MaxMem= 10737418240 cpu:               1.7 elap:               0.1
 (Enter /apps/cent7/gaussian/g16-A.03/g16-haswell/g16/l302.exe)
 NPDir=0 NMtPBC=     1 NCelOv=     1 NCel=       1 NClECP=     1 NCelD=      1
         NCelK=      1 NCelE2=     1 NClLst=     1 CellRange=     0.0.
 One-electron integrals computed using PRISM.
 One-electron integral symmetry used in STVInt
 NBasis=   144 RedAO= T EigKep=  2.21D-03  NBF=   144
 NBsUse=   144 1.00D-06 EigRej= -1.00D+00 NBFU=   144
 Precomputing XC quadrature grid using
 IXCGrd= 4 IRadAn=           5 IRanWt=          -1 IRanGd=           0 AccXCQ= 0.00D+00.
 Generated NRdTot=       0 NPtTot=           0 NUsed=           0 NTot=          32
 NSgBfM=   144   144   144   144   144 MxSgAt=    20 MxSgA2=    20.
 Leave Link  302 at Mon Oct 14 02:17:54 2019, MaxMem= 10737418240 cpu:               3.1 elap:               0.2
 (Enter /apps/cent7/gaussian/g16-A.03/g16-haswell/g16/l303.exe)
 DipDrv:  MaxL=1.
 Leave Link  303 at Mon Oct 14 02:17:54 2019, MaxMem= 10737418240 cpu:               0.6 elap:               0.0
 (Enter /apps/cent7/gaussian/g16-A.03/g16-haswell/g16/l401.exe)
 Initial guess from the checkpoint file:  "5_p.chk"
 B after Tr=     0.000000    0.000000    0.000000
         Rot=    0.999952   -0.008564    0.001830   -0.004458 Ang=  -1.13 deg.
 Guess basis will be translated and rotated to current coordinates.
 JPrj=2 DoOrth=T DoCkMO=T.
 Generating alternative initial guess.
 ExpMin= 1.61D-01 ExpMax= 5.48D+03 ExpMxC= 8.25D+02 IAcc=2 IRadAn=         4 AccDes= 0.00D+00
 Harris functional with IExCor=  402 and IRadAn=       4 diagonalized for initial guess.
 HarFok:  IExCor=  402 AccDes= 0.00D+00 IRadAn=         4 IDoV= 1 UseB2=F ITyADJ=14
 ICtDFT=  3500011 ScaDFX=  1.000000  1.000000  1.000000  1.000000
 FoFCou: FMM=F IPFlag=           0 FMFlag=      100000 FMFlg1=           0
         NFxFlg=           0 DoJE=T BraDBF=F KetDBF=T FulRan=T
         wScrn=  0.000000 ICntrl=       500 IOpCl=  0 I1Cent=   200000004 NGrid=           0
         NMat0=    1 NMatS0=      1 NMatT0=    0 NMatD0=    1 NMtDS0=    0 NMtDT0=    0
 Petite list used in FoFCou.
 Harris En= -365.586474581824    
 Leave Link  401 at Mon Oct 14 02:17:54 2019, MaxMem= 10737418240 cpu:               6.2 elap:               0.3
 (Enter /apps/cent7/gaussian/g16-A.03/g16-haswell/g16/l502.exe)
 Integral symmetry usage will be decided dynamically.
 Closed shell SCF:
 Using DIIS extrapolation, IDIIS=  1040.
 NGot= 10737418240 LenX= 10737371456 LenY= 10737350279
 Requested convergence on RMS density matrix=1.00D-08 within 128 cycles.
 Requested convergence on MAX density matrix=1.00D-06.
 Requested convergence on             energy=1.00D-06.
 No special actions if energy rises.
 Fock matrices will be formed incrementally for  20 cycles.
 Integral accuracy reduced to 1.0D-05 until final iterations.

 Cycle   1  Pass 0  IDiag  1:
 FoFJK:  IHMeth= 1 ICntrl=       0 DoSepK=F KAlg= 0 I1Cent=           0 FoldK=F
 IRaf= 990000000 NMat=       1 IRICut=       1 DoRegI=T DoRafI=F ISym2E= 0 IDoP0=0 IntGTp=1.
 FoFCou: FMM=F IPFlag=           0 FMFlag=      100000 FMFlg1=           0
         NFxFlg=           0 DoJE=F BraDBF=F KetDBF=F FulRan=T
         wScrn=  0.000000 ICntrl=         0 IOpCl=  0 I1Cent=           0 NGrid=           0
         NMat0=    1 NMatS0=      1 NMatT0=    0 NMatD0=    1 NMtDS0=    0 NMtDT0=    0
 Symmetry not used in FoFCou.
 E= -365.523326641232    
 DIIS: error= 3.07D-03 at cycle   1 NSaved=   1.
 NSaved= 1 IEnMin= 1 EnMin= -365.523326641232     IErMin= 1 ErrMin= 3.07D-03
 ErrMax= 3.07D-03  0.00D+00 EMaxC= 1.00D-01 BMatC= 4.00D-03 BMatP= 4.00D-03
 IDIUse=3 WtCom= 9.69D-01 WtEn= 3.07D-02
 Coeff-Com:  0.100D+01
 Coeff-En:   0.100D+01
 Coeff:      0.100D+01
 Gap=     1.660 Goal=   None    Shift=    0.000
 GapD=    1.660 DampG=2.000 DampE=1.000 DampFc=2.0000 IDamp=-1.
 RMSDP=7.23D-04 MaxDP=1.08D-02              OVMax= 1.88D-02

 Cycle   2  Pass 0  IDiag  1:
 RMSU=  7.21D-04    CP:  9.98D-01
 E= -365.528232877418     Delta-E=       -0.004906236186 Rises=F Damp=F
 DIIS: error= 1.60D-03 at cycle   2 NSaved=   2.
 NSaved= 2 IEnMin= 2 EnMin= -365.528232877418     IErMin= 2 ErrMin= 1.60D-03
 ErrMax= 1.60D-03  0.00D+00 EMaxC= 1.00D-01 BMatC= 7.00D-04 BMatP= 4.00D-03
 IDIUse=3 WtCom= 9.84D-01 WtEn= 1.60D-02
 Coeff-Com:  0.212D+00 0.788D+00
 Coeff-En:   0.000D+00 0.100D+01
 Coeff:      0.208D+00 0.792D+00
 Gap=     0.235 Goal=   None    Shift=    0.000
 RMSDP=3.62D-04 MaxDP=1.17D-02 DE=-4.91D-03 OVMax= 1.51D-02

 Cycle   3  Pass 0  IDiag  1:
 RMSU=  3.51D-04    CP:  1.00D+00  9.00D-01
 E= -365.528214398090     Delta-E=        0.000018479328 Rises=F Damp=F
 DIIS: error= 1.48D-03 at cycle   3 NSaved=   3.
 NSaved= 3 IEnMin= 2 EnMin= -365.528232877418     IErMin= 3 ErrMin= 1.48D-03
 ErrMax= 1.48D-03  0.00D+00 EMaxC= 1.00D-01 BMatC= 7.49D-04 BMatP= 7.00D-04
 IDIUse=3 WtCom= 9.85D-01 WtEn= 1.48D-02
 Coeff-Com: -0.404D-02 0.509D+00 0.495D+00
 Coeff-En:   0.000D+00 0.506D+00 0.494D+00
 Coeff:     -0.398D-02 0.509D+00 0.495D+00
 Gap=     0.234 Goal=   None    Shift=    0.000
 RMSDP=1.94D-04 MaxDP=8.90D-03 DE= 1.85D-05 OVMax= 1.13D-02

 Cycle   4  Pass 0  IDiag  1:
 RMSU=  8.67D-05    CP:  9.99D-01  9.63D-01  5.26D-01
 E= -365.528822864431     Delta-E=       -0.000608466341 Rises=F Damp=F
 DIIS: error= 4.99D-04 at cycle   4 NSaved=   4.
 NSaved= 4 IEnMin= 4 EnMin= -365.528822864431     IErMin= 4 ErrMin= 4.99D-04
 ErrMax= 4.99D-04  0.00D+00 EMaxC= 1.00D-01 BMatC= 6.76D-05 BMatP= 7.00D-04
 IDIUse=3 WtCom= 9.95D-01 WtEn= 4.99D-03
 Coeff-Com: -0.150D-01 0.259D+00 0.314D+00 0.442D+00
 Coeff-En:   0.000D+00 0.000D+00 0.907D-02 0.991D+00
 Coeff:     -0.150D-01 0.258D+00 0.313D+00 0.445D+00
 Gap=     0.235 Goal=   None    Shift=    0.000
 RMSDP=5.27D-05 MaxDP=2.10D-03 DE=-6.08D-04 OVMax= 3.64D-03

 Cycle   5  Pass 0  IDiag  1:
 RMSU=  2.38D-05    CP:  9.99D-01  9.76D-01  5.44D-01  4.74D-01
 E= -365.528883444669     Delta-E=       -0.000060580238 Rises=F Damp=F
 DIIS: error= 6.66D-05 at cycle   5 NSaved=   5.
 NSaved= 5 IEnMin= 5 EnMin= -365.528883444669     IErMin= 5 ErrMin= 6.66D-05
 ErrMax= 6.66D-05  0.00D+00 EMaxC= 1.00D-01 BMatC= 1.42D-06 BMatP= 6.76D-05
 IDIUse=1 WtCom= 1.00D+00 WtEn= 0.00D+00
 Coeff-Com: -0.599D-02 0.644D-01 0.926D-01 0.186D+00 0.663D+00
 Coeff:     -0.599D-02 0.644D-01 0.926D-01 0.186D+00 0.663D+00
 Gap=     0.235 Goal=   None    Shift=    0.000
 RMSDP=9.71D-06 MaxDP=2.39D-04 DE=-6.06D-05 OVMax= 4.77D-04

 Initial convergence to 1.0D-05 achieved.  Increase integral accuracy.
 Cycle   6  Pass 1  IDiag  1:
 E= -365.528863037078     Delta-E=        0.000020407591 Rises=F Damp=F
 DIIS: error= 2.86D-05 at cycle   1 NSaved=   1.
 NSaved= 1 IEnMin= 1 EnMin= -365.528863037078     IErMin= 1 ErrMin= 2.86D-05
[...]
 .00001960,-0.00248095,-0.00690061,0.00095494,0.00107269,-0.00622578,-0
 .00124315,0.04624987,0.01430621,-0.00027499,0.00803604,-0.11110920,-0.
 02939138,-0.07509360,0.30838701,-0.00033722,-0.00070110,-0.00030623,0.
 00037115,-0.00055822,-0.00126178,-0.00048683,0.00046206,0.00040499,-0.
 00020913,-0.00015712,0.00163572,0.00193630,-0.00424496,0.01412872,0.01
 653659,0.00101335,0.00213755,0.02530223,-0.02554989,-0.05495567,-0.095
 70312,0.25257811,0.27631846,-0.14178514,-0.13305945,-0.00209729,0.0053
 7894,0.00838591,-0.00013813,-0.00005800,-0.00009432,-0.00025791,0.0005
 9987,0.00016670,-0.00010308,0.00015706,-0.00010774,0.00005181,0.000866
 48,0.00053865,-0.00015826,-0.00153037,0.00283616,0.00306557,0.00062455
 ,-0.00051390,-0.00031344,0.15106749,-0.13150907,-0.22636155,-0.0031001
 6,-0.01093682,-0.01673837,-0.00002879,0.00005245,0.00036591,0.00109165
 ,-0.00037016,0.00105034,0.00011479,-0.00005348,-0.00007126,-0.00005580
 ,-0.00137783,-0.00016422,0.00007212,0.00224520,-0.00193658,-0.00356873
 ,0.00025394,0.00058159,0.00033672,0.14157549,0.24419206,-0.00057273,-0
 .00162669,-0.04720267,-0.01631385,-0.02029653,-0.00032715,-0.00051008,
 0.00014428,0.00090775,-0.00033233,0.00061006,0.00074459,-0.00028521,0.
 00005054,-0.00028976,-0.00132281,-0.00104369,0.00014688,0.00218720,-0.
 00390092,-0.00465215,0.00015253,-0.00011790,0.00035447,0.00031487,0.00
 485907,0.05001214,-0.05488903,0.01658274,-0.02546384,-0.00128886,-0.00
 623889,0.00677357,-0.00004474,0.00115421,0.00104588,0.00078652,-0.0007
 7588,0.00127030,-0.00004918,0.00004352,-0.00018106,0.00029219,-0.00011
 139,-0.00011667,0.00074319,0.00031191,-0.00059044,-0.00040026,-0.00005
 057,0.00033512,0.00255124,-0.00842965,0.01804142,0.05313079,0.01547134
 ,-0.11143250,0.11329126,-0.00233970,0.00885223,-0.02028663,0.00132261,
 -0.00261504,-0.00260192,-0.00095272,0.00060073,-0.00021465,-0.00007035
 ,0.00013483,0.00008600,0.00050309,-0.00015536,0.00001705,-0.00032504,0
 .00229515,0.00035183,-0.00019888,0.00002454,-0.00004274,0.00469670,-0.
 01141931,0.02348314,-0.01715045,0.11791722,-0.02423707,0.11118162,-0.2
 5275991,-0.00268919,0.01229256,-0.02185186,0.00197708,-0.00438388,-0.0
 0268233,-0.00161243,0.00019461,0.00037835,0.00007632,-0.00000542,0.000
 42962,0.00020346,-0.00071204,-0.00018229,0.00031227,0.00155698,0.00140
 960,-0.00063121,-0.00031898,0.00023988,0.00043346,-0.00057458,0.001727
 32,0.02693097,-0.12006004,0.27444284,-0.28019802,0.07997369,-0.0246903
 6,-0.00720110,0.00118095,-0.00106782,0.00035776,-0.00012067,-0.0007643
 1,0.00131036,0.00114989,0.00089459,-0.00048352,-0.00007468,0.00009486,
 -0.00004722,0.00008588,0.00001196,-0.00155267,0.00004674,0.00056262,0.
 00088397,-0.00160091,-0.00061057,-0.01865255,0.00725571,-0.00243475,-0
 .00070161,-0.00057416,-0.00056214,0.30439074,0.08210566,-0.07569049,0.
 00955969,0.01839351,-0.00749570,0.00217052,-0.00026752,0.00034603,0.00
 133838,0.00020433,-0.00099484,-0.00257547,0.00059245,0.00011523,-0.000
 05699,0.00031052,-0.00020568,-0.00005883,0.00208734,0.00087033,0.00062
 886,-0.00155975,0.00059395,0.00019752,-0.02582823,0.01046181,-0.002796
 73,0.01424373,-0.00511266,0.00015723,-0.08831811,0.08070232,-0.0270938
 4,0.00974629,-0.05573389,0.02648192,-0.00655586,0.00250399,0.00077461,
 -0.00003755,0.00159995,-0.00064275,-0.00318753,-0.00334895,0.00128641,
 -0.00018800,0.00029396,0.00036008,0.00001356,-0.00010535,0.00008991,0.
 00080971,0.00090352,-0.00069929,0.00012193,-0.00014961,-0.00022396,0.0
 0049775,-0.00048829,-0.02753870,0.00705367,-0.00050185,0.02760196,-0.0
 0724987,0.05474751,0.00024768,0.00005941,0.00016947,0.00205670,0.00674
 683,-0.00082278,-0.11033022,-0.11557597,0.00707751,0.00064492,0.000481
 89,0.00041063,0.00015385,-0.00002183,-0.00025892,0.00030634,0.00053691
 ,-0.00022604,-0.00095277,0.00151448,-0.00181920,0.00062726,-0.00043731
 ,0.00030854,0.00033402,-0.00000070,0.00017583,-0.00006140,0.00024294,0
 .00004588,-0.00011629,-0.00022113,0.00009356,0.11556716,-0.00010416,0.
 00042271,-0.00119834,-0.00629370,-0.01305922,0.00086059,-0.11506633,-0
 .25870599,0.01165712,-0.00071224,0.00037510,-0.00006613,-0.00000047,-0
 .00005081,-0.00019957,-0.00089080,0.00047232,0.00047207,0.00159005,-0.
 00113176,0.00214192,0.00017981,0.00033615,-0.00014206,0.00006916,0.000
 65154,0.00013205,0.00029847,0.00015428,-0.00005116,0.00007690,0.000065
 67,0.00012155,0.12511902,0.27781444,0.00032280,-0.00017740,0.00127485,
 0.01480680,0.02559224,-0.00213102,0.00563924,0.00991225,-0.04876479,0.
 00065018,-0.00043095,0.00047727,-0.00001812,-0.00009083,-0.00002215,0.
 00173403,0.00079932,-0.00041199,-0.00234857,0.00429526,-0.00569840,0.0
 0008758,-0.00009645,0.00012447,-0.00016382,-0.00021551,-0.00087686,-0.
 00023456,-0.00014547,0.00039924,0.00013577,-0.00003048,-0.00014941,-0.
 00573481,-0.01396494,0.05262045,0.00027444,0.00006874,0.00053578,-0.00
 450478,0.00096345,-0.00011933,-0.31162762,0.04507731,-0.02586450,0.000
 81571,-0.00025130,-0.00074066,-0.00001958,-0.00005719,-0.00014643,-0.0
 0019157,0.00012582,0.00000860,-0.00079204,-0.00011035,-0.00044766,0.00
 071247,-0.00090626,0.00076954,0.00002785,0.00007078,0.00003860,0.00027
 923,-0.00005840,-0.00003750,0.00051096,-0.00031344,-0.00036065,-0.0135
 9600,0.00327583,-0.00096991,0.33524152,-0.00055835,-0.00020235,-0.0009
 3430,0.01487812,-0.00534749,0.00250379,0.04378062,-0.05577794,0.003137
 29,-0.00019421,0.00018172,0.00328371,-0.00013182,0.00023148,-0.0000490
 1,0.00051629,-0.00037676,-0.00007195,0.00193807,0.00102435,-0.00071058
 ,-0.00117876,0.00023653,-0.00028359,-0.00013729,0.00010555,-0.00008877
 ,0.00000280,-0.00014924,-0.00003274,-0.00013386,0.00044956,-0.00016075
 ,-0.02904227,0.00715445,-0.00341263,-0.04897101,0.05637648,-0.00090198
 ,0.00045928,0.00170403,-0.03053795,0.00423789,-0.00313992,-0.02361918,
 0.00367545,-0.05353040,0.00029534,0.00165754,-0.00465901,-0.00027160,0
 .00001738,-0.00045849,-0.00021474,0.00033659,0.00000019,-0.00072685,-0
 .00102039,0.00120919,0.00082957,-0.00027560,0.00009162,-0.00000517,0.0
 0002465,-0.00013758,0.00039874,0.00001937,0.00018741,0.00051081,-0.000
 31111,-0.00059759,0.00197823,-0.00091453,-0.00045620,0.02814746,-0.006
 66718,0.05630925,0.00015853,0.00110544,-0.00130203,0.00068142,-0.00601
 930,-0.00597609,-0.07701992,0.05002903,0.06354038,0.00067284,-0.000451
 40,-0.00026671,0.00006009,0.00010826,-0.00002693,0.00048023,-0.0002681
 7,0.00018718,-0.00006387,0.00032936,0.00060302,-0.00025525,-0.00031543
 ,0.00004917,0.00001058,0.00029276,0.00026166,0.00070046,-0.00019413,-0
 .00041903,0.00034772,-0.00018607,-0.00028344,0.00523037,-0.00849834,-0
 .01319170,-0.00771952,0.01889144,0.02502372,0.07703974,0.00070222,-0.0
 0112206,0.00243307,-0.00609545,0.00767846,0.01403021,0.04951043,-0.140
 61580,-0.11875669,-0.00026717,0.00056426,-0.00035819,0.00015352,0.0000
 7207,-0.00004413,0.00009528,-0.00001428,-0.00026516,-0.00009715,0.0022
 7823,0.00025655,-0.00009127,-0.00006743,-0.00013222,0.00019196,0.00014
 275,0.00025367,-0.00008222,0.00082707,0.00070874,-0.00012831,-0.000176
 53,0.00008349,0.01058664,-0.01479455,-0.02164712,0.00052072,-0.0032100
 0,-0.00288505,-0.05482890,0.14861947,-0.00147264,0.00423157,-0.0041328
 8,0.00873329,-0.01678662,-0.02260142,0.06264543,-0.11629675,-0.2017431
 4,0.00115003,-0.00029685,0.00112724,-0.00041189,0.00020092,0.00002201,
 0.00039756,0.00080197,0.00010449,-0.00001093,-0.00188043,0.00109878,-0
 .00005985,0.00037271,-0.00005655,-0.00010880,0.00006012,0.00024250,0.0
 0043296,-0.00112592,-0.00115637,0.00006604,0.00012032,0.00020734,-0.00
 147647,0.00151733,0.00256581,-0.00076798,0.00284963,0.00389723,-0.0679
 9786,0.12625264,0.22017461,0.00150777,-0.00043697,-0.00170365,-0.01087
 569,0.00006674,-0.02906171,-0.00465352,0.00059552,0.00094068,-0.076994
 27,-0.00853016,-0.07723037,0.00062974,0.00056952,0.00086488,-0.0006947
 2,-0.00007572,0.00005201,-0.00064353,0.00133336,-0.00018394,-0.0006101
 1,-0.00071335,0.00036317,0.00003818,0.00035923,0.00012070,-0.00050874,
 -0.00007192,0.00085569,0.00037541,-0.00030150,0.00012360,0.00001170,0.
 00015861,0.00001547,-0.00004019,0.00075692,-0.00127033,0.00000281,-0.0
 0022755,0.00008628,0.08275206,0.00041079,0.00050329,0.00058580,0.00443
 101,-0.00020257,0.01194147,0.00359421,-0.00013964,0.00013941,-0.008523
 04,-0.04935581,-0.01612090,-0.00957447,-0.00564713,-0.03114975,0.00201
 353,-0.00170254,-0.00163156,0.00013619,-0.00032941,0.00057275,-0.00023
 643,0.00035891,-0.00017753,0.00005170,-0.00029755,0.00026859,0.0002144
 1,0.00016440,-0.00017976,-0.00022281,-0.00006584,-0.00013977,-0.000175
 41,0.00020728,-0.00020776,0.00028932,-0.00046159,0.00076365,-0.0001213
 3,-0.00000899,-0.00024093,0.00302970,0.05787783,0.00172941,-0.00116099
 ,0.00091052,0.00003127,0.00131967,-0.00085064,-0.00071806,-0.00030765,
 0.00078311,-0.07926638,-0.01607632,-0.29481748,-0.00085646,-0.00137858
 ,-0.00557141,0.00046084,-0.00024166,-0.00011561,-0.00033408,-0.0000476
 4,0.00020329,-0.00000726,0.00005519,-0.00018778,-0.00024653,0.00031488
 ,0.00010212,-0.00009623,0.00028226,0.00063633,0.00022129,-0.00019835,0
 .00014760,0.00008471,-0.00008011,0.00002696,-0.00008027,0.00010983,0.0
 0001705,0.00018666,0.00000604,0.00024423,0.08546507,0.02000818,0.31355
 377,-0.00114460,0.00015379,-0.00085984,-0.01693686,-0.01482717,0.01608
 685,0.00189360,-0.00108048,0.00113047,-0.15600386,-0.08962377,0.099950
 32,0.00167990,0.00063650,-0.00210468,-0.00064812,0.00066836,0.00016953
 ,-0.00468139,0.00164789,0.00033721,-0.00117756,-0.00153220,-0.00004669
 ,0.00006262,0.00026176,0.00022935,0.00002177,-0.00005658,-0.00007295,-
 0.00007840,0.00046871,0.00031087,-0.00020641,0.00074966,-0.00031241,0.
 00045762,-0.00003754,0.00014302,-0.00019355,-0.00016567,-0.00058475,0.
 00840119,0.00644404,-0.00613833,0.16743468,0.00053272,0.00000931,0.000
 16479,0.00779634,0.00690255,-0.00837062,0.00044087,0.00097564,0.000063
 90,-0.09049838,-0.12308391,0.08550906,-0.01840108,-0.01482092,0.016141
 26,0.00070098,-0.00572159,-0.00083827,0.00232769,-0.00159962,0.0000386
 8,0.00042279,0.00126945,0.00001445,-0.00001075,-0.00012891,-0.00005818
 ,0.00005235,0.00002323,0.00015521,-0.00000730,-0.00043284,-0.00006363,
 0.00011812,-0.00008884,-0.00014431,0.00002188,-0.00000850,-0.00009435,
 -0.00022075,-0.00000470,-0.00010134,0.00242572,0.00233715,-0.00154184,
 0.09617211,0.13352126,0.00038003,0.00013141,-0.00022014,-0.00254765,-0
 .00214567,0.00150898,-0.00107651,0.00035752,0.00055201,0.10372586,0.08
 822126,-0.14673708,-0.00809106,-0.00700250,0.00592366,-0.00081635,-0.0
 0301568,-0.00023088,-0.00195360,-0.00053576,0.00008650,-0.00083014,-0.
 00049747,0.00014281,0.00012152,-0.00015717,-0.00004350,-0.00009060,0.0
 0000424,0.00030385,0.00006599,-0.00025244,0.00012930,-0.00008978,-0.00
 007061,0.00022335,-0.00000588,-0.00008030,-0.00009422,-0.00003932,-0.0
 0031766,0.00008339,0.02001803,0.01648867,-0.01685198,-0.10807224,-0.09
 110394,0.15400174,0.00014301,0.00005236,-0.00006763,-0.00105849,-0.001
 08431,-0.00090746,0.00033486,0.00027541,0.00021217,0.00389977,-0.00267
 433,0.00404584,-0.13997942,0.09126982,-0.08971581,-0.02038587,0.020887
 39,-0.01764990,-0.00315653,-0.00294100,-0.00118442,-0.00057313,0.00140
 486,0.00256347,0.00000188,0.00002050,0.00003854,-0.00001061,-0.0000025
 9,0.00002033,0.00003287,-0.00004067,-0.00005584,0.00000579,0.00004586,
 -0.00013642,0.00001724,-0.00004011,0.00006582,-0.00003889,-0.00000420,
 -0.00004695,0.00091927,0.00030956,0.00013397,-0.00017422,-0.00043747,0
 .00008994,0.15322343,0.00102895,0.00001589,0.00021870,-0.00322545,-0.0
 0512875,-0.00113043,0.00092214,0.00041631,-0.00025677,0.01715569,-0.01
 458727,0.01339894,0.09049638,-0.14314063,0.09123983,-0.00117875,0.0070
 2757,-0.00983416,-0.00195739,0.00103119,0.00191320,-0.00101098,0.00097
 496,0.00087835,-0.00001771,0.00013938,0.00010749,-0.00000739,-0.000040
 66,-0.00008754,0.00016837,-0.00013108,-0.00031967,-0.00004631,0.000110
 03,-0.00022713,0.00008814,-0.00009728,0.00032697,-0.00007576,0.0000143
 2,0.00003996,0.00031656,0.00161141,0.00009624,0.00023412,-0.00146151,-
 0.00025004,-0.10121074,0.15130352,0.00036417,-0.00002853,0.00015630,-0
 .00015165,-0.00281522,-0.00000129,0.00049192,-0.00009591,-0.00038712,0
 .00785429,-0.00626834,0.00490439,-0.09260775,0.09084268,-0.12927249,0.
 00575112,-0.00452834,0.00229077,0.00106941,0.00042390,0.00071219,0.000
 00356,-0.00026743,-0.00113637,-0.00000041,0.00004150,0.00001808,0.0000
 1272,-0.00001625,-0.00005297,0.00009131,-0.00004347,-0.00014149,-0.000
 02494,0.00002291,-0.00000316,0.00003518,-0.00004439,0.00020836,-0.0000
 1155,0.00002210,0.00008807,0.00037198,-0.00034978,0.00112938,-0.000107
 76,-0.00017347,0.00007127,0.09650012,-0.09461390,0.13953487,0.00039007
 ,0.00037256,-0.00014471,-0.00068819,-0.00051613,0.00113310,0.00001123,
 0.00004570,0.00032108,0.00022961,-0.00097613,-0.00542825,-0.06048157,0
 .00953147,0.06486607,-0.01344607,0.00724336,0.03371091,-0.00012714,-0.
 00334925,0.00121808,-0.00345875,0.00134144,-0.00292359,-0.00002872,0.0
 0011531,0.00006685,-0.00005385,-0.00005653,-0.00005834,0.00003476,-0.0
 0007908,-0.00001682,0.00005193,-0.00007408,-0.00012544,0.00003607,-0.0
 0014363,-0.00002874,-0.00000662,0.00020658,-0.00035709,0.00043171,-0.0
 0172395,-0.00047547,0.00085370,-0.00008577,-0.00018586,0.00685054,-0.0
 0208831,-0.01958785,0.06910238,0.00123507,0.00007361,0.00036823,-0.001
 26522,-0.00195946,-0.00190380,0.00011588,0.00000413,-0.00000313,0.0059
 9250,-0.00429444,-0.02821988,0.00605246,-0.05031537,-0.03451447,0.0021
 5278,0.00087033,0.00954442,0.00063734,0.00085802,-0.00005698,-0.001654
 57,0.00066148,-0.00045300,-0.00011731,0.00014514,0.00007179,-0.0001285
 5,0.00000789,0.00013117,0.00022906,-0.00027992,-0.00016759,-0.00003329
 ,0.00011804,0.00000347,-0.00000713,0.00002914,0.00015076,0.00020654,-0
 .00017033,0.00044569,0.00082178,-0.00481717,-0.00115749,-0.00008277,0.
 00209603,0.00022158,-0.00504815,0.00244646,0.01788132,-0.00925266,0.05
 486741,0.00023254,0.00012119,0.00001783,-0.00076911,-0.00084037,-0.000
 19169,0.00027312,-0.00009313,-0.00023342,-0.00050117,-0.00134385,-0.00
 433885,0.06078584,-0.03626009,-0.28362266,0.00558343,-0.00044456,-0.00
 246590,-0.00061141,0.00291899,0.00091794,-0.00079445,0.00018124,-0.000
 66219,-0.00002884,0.00006300,0.00002938,-0.00004531,-0.00001274,0.0000
 1903,0.00002515,-0.00004869,-0.00004226,0.00003009,-0.00000536,-0.0000
 6713,0.00001876,-0.00006056,0.00011765,-0.00013075,0.00021025,0.000015
 85,0.00047125,-0.00124740,0.00078115,0.00005846,0.00022541,0.00117174,
 0.00502014,-0.00176419,-0.01840801,-0.07041951,0.03870291,0.30687437,0
 .00106816,0.00089342,-0.00021407,-0.00421676,0.00030756,0.00163363,0.0
 0043401,0.00016906,0.00009641,-0.00434491,-0.00058082,0.00193403,0.002
 08473,-0.01977990,-0.00324703,-0.12110970,-0.12850398,-0.00326082,0.01
 262504,0.02621709,0.00208680,0.00144889,-0.00044031,-0.00104401,-0.000
 14756,0.00024112,0.00030694,-0.00003893,-0.00005719,-0.00001167,0.0000
 1965,-0.00008872,-0.00008316,0.00000479,0.00009569,-0.00012751,0.00004
 488,-0.00004617,0.00004798,-0.00006098,-0.00002153,-0.00005814,-0.0000
 2351,-0.00034546,-0.00009328,0.00017834,-0.00119525,-0.00064930,0.0006
 2002,0.00066588,-0.00036484,-0.00008782,0.00008723,0.00070078,0.111313
 73,-0.00059388,-0.00080316,0.00025295,0.00232420,0.00075996,-0.0021922
 7,0.00005444,-0.00005178,0.00013697,0.00156816,0.00074705,-0.00029641,
 -0.00014138,0.00420996,0.00012784,-0.11117469,-0.29330665,-0.01179721,
 -0.01137823,-0.02418345,-0.00150478,-0.00274251,0.00219776,0.00087768,
 0.00021586,-0.00011369,-0.00023725,-0.00001227,0.00002193,-0.00001131,
 0.00005185,-0.00003705,0.00000931,0.00001891,0.00003168,0.00002259,0.0
 0000519,-0.00005464,0.00003391,0.00000374,-0.00000950,0.00007493,-0.00
 003989,-0.00001825,0.00001713,0.00000170,0.00032393,0.00005547,-0.0005
 3094,0.00000105,0.00015426,-0.00022837,0.00005503,-0.00012362,0.122585
 52,0.31030424,0.00116332,0.00146135,-0.00046597,0.00218205,0.00023035,
 0.00949527,-0.00159312,-0.00264226,-0.00052921,0.00138131,-0.00084403,
 0.00179434,0.00010407,0.00446169,0.00507337,-0.00193045,-0.01023887,-0
 .04820346,-0.00353745,-0.00783601,0.01014782,-0.00061180,0.00125317,-0
 .00606810,-0.00030779,0.00021800,0.00033694,0.00005512,-0.00008071,-0.
 00018670,-0.00005033,-0.00006999,-0.00004209,0.00035451,-0.00020383,0.
 00074899,0.00003895,0.00011873,-0.00010706,0.00000226,0.00009739,-0.00
 012305,-0.00004479,0.00061045,-0.00008623,0.00008118,0.00004954,0.0000
 8594,0.00103044,0.00007869,0.00025246,-0.00130300,-0.00103827,0.000099
 77,0.00233517,0.01436926,0.02809997,0.00035707,0.00077294,-0.00026396,
 -0.00059197,-0.00085891,0.00230015,0.00023828,-0.00018487,0.00015869,0
 .00040887,0.00079312,-0.00045253,-0.00045347,0.00189628,-0.00249359,-0
 .00703734,-0.00344675,0.00194950,-0.03288383,0.04155988,0.03611396,-0.
 07010233,0.04489943,0.05313932,0.00048159,-0.00006655,-0.00016273,-0.0
 0045819,-0.00012804,-0.00052395,0.00076717,-0.00120204,-0.00012449,0.0
 0002058,-0.00001893,-0.00002858,0.00007331,-0.00014925,0.00013584,-0.0
 0002619,0.00004206,-0.00015826,-0.00002555,-0.00000155,-0.00000087,0.0
 0026155,-0.00015482,0.00004691,-0.00067153,-0.00025743,0.00031097,0.00
 038671,0.00005900,0.00010099,0.00018795,0.00001258,0.00065037,0.109067
 34,-0.00183911,0.00314518,-0.00030429,-0.00184298,0.00286673,0.0013057
 8,-0.00053098,-0.00030898,-0.00029943,-0.00042744,-0.00004873,-0.00016
 253,-0.00082890,0.00051373,0.00034714,-0.00014299,-0.00007410,-0.00189
 343,-0.00153219,0.00363484,0.00824514,0.08880354,-0.21733510,-0.223915
 82,0.00115843,-0.00060463,0.00018600,0.00008310,-0.00009874,0.00003932
 ,0.00096177,-0.00298226,-0.00038704,0.00012907,-0.00008254,0.00016584,
 0.00016791,-0.00010347,0.00046477,0.00021303,-0.00000245,-0.00023897,-
 0.00003660,-0.00001378,-0.00001881,-0.00003247,-0.00010722,-0.00005091
 ,-0.00025123,-0.00050491,-0.00014366,-0.00028253,-0.00039600,-0.000178
 41,-0.00020327,-0.00007443,0.00000534,-0.08356614,0.21257688,0.0005633
 3,0.00076490,0.00091547,0.00041015,0.00175146,0.00059427,0.00047590,-0
 .00053232,-0.00030533,-0.00011626,-0.00063803,0.00005490,-0.00002462,0
 .00021483,0.00106296,-0.00335935,-0.00022663,0.00104820,-0.00536594,0.
 00301843,0.00097489,0.10018384,-0.22173128,-0.23079440,0.00016620,0.00
 000648,-0.00060421,-0.00093939,-0.00000175,-0.00079920,-0.00010205,-0.
 00048011,0.00076759,-0.00027601,-0.00002890,0.00011974,-0.00005209,0.0
 0059374,-0.00056149,-0.00020864,0.00005209,-0.00005815,-0.00025403,0.0
 0006618,-0.00005439,-0.00019761,0.00012764,-0.00010674,0.00004366,0.00
 018543,0.00003676,-0.00026141,-0.00000671,-0.00001260,0.00001208,0.000
 03056,-0.00032300,-0.09069776,0.21683397,0.22804474\\-0.00001232,0.000
 02951,0.00000110,-0.00002278,-0.00006618,0.00001056,-0.00001378,0.0000
 1194,-0.00001706,0.00001910,-0.00000626,-0.00001417,0.00000055,0.00000
 107,0.00001330,0.00000817,-0.00001575,-0.00000041,0.00010322,0.0000731
 1,0.00000558,-0.00008057,-0.00001365,0.00000384,0.00000408,-0.00000839
 ,0.00000014,0.00000102,-0.00000097,0.00000260,0.00000266,-0.00000965,-
 0.00000318,0.00000283,-0.00000149,0.00000259,0.00000208,-0.00000006,0.
 00000268,0.00000045,0.00000115,0.00000144,-0.00000572,-0.00000082,0.00
 000413,-0.00000396,-0.00000187,0.00000156,0.00000042,0.00000451,0.0000
 0134,-0.00000450,-0.00000034,-0.00000472,-0.00000135,0.00000194,-0.000
 00601,0.00000037,0.00000221,-0.00000531\\\@


 WAR ES EIN GOTT DER DIESE ZEICHEN SCHRIEB?
          - LUDWIG BOLTZMANN, QUOTING GOETHE, ABOUT MAXWELL'S EQUATIONS.
 Job cpu time:       0 days  0 hours  9 minutes 13.2 seconds.
 Elapsed time:       0 days  0 hours  0 minutes 23.6 seconds.
 File lengths (MBytes):  RWF=     54 Int=      0 D2E=      0 Chk=      3 Scr=      1
 Normal termination of Gaussian 16 at Mon Oct 14 02:19:35 2019.
real 106.95
user 2337.90
sys 21.11
Machine:
brown-a479
brown-a479
brown-a479
brown-a479
brown-a479
brown-a479
brown-a479
brown-a479
brown-a479
brown-a479
brown-a479
brown-a479
brown-a479
brown-a479
brown-a479
brown-a479
brown-a479
brown-a479
brown-a479
brown-a479
brown-a479
brown-a479
brown-a479
brown-a479
