Title Card Required                                                     
Freq      UB3LYP                                                      6-31G(d)            
Number of atoms                            I               29
Info1-9                                    I   N=           9
          68          68        1002           0           0         100
           6          18        -502
Full Title                                 C   N=           2
Title Card Required     
Route                                      C   N=           6
#P opt freq b3lyp/6-31g(d) geom=connectivity temperature=0.0
01          
Charge                                     I                0
Multiplicity                               I                2
Number of electrons                        I               87
Number of alpha electrons                  I               44
Number of beta electrons                   I               43
Number of basis functions                  I              201
Number of independent functions            I              201
Number of point charges in /Mol/           I                0
Number of translation vectors              I                0
Atomic numbers                             I   N=          29
           6           6           6           6           6           6
           6           6           6           7           8           1
           1           1           1           1           1           1
           1           1           1           1           1           1
           1           1           1           1           1
Nuclear charges                            R   N=          29
  6.00000000E+00  6.00000000E+00  6.00000000E+00  6.00000000E+00  6.00000000E+00
  6.00000000E+00  6.00000000E+00  6.00000000E+00  6.00000000E+00  7.00000000E+00
  8.00000000E+00  1.00000000E+00  1.00000000E+00  1.00000000E+00  1.00000000E+00
  1.00000000E+00  1.00000000E+00  1.00000000E+00  1.00000000E+00  1.00000000E+00
  1.00000000E+00  1.00000000E+00  1.00000000E+00  1.00000000E+00  1.00000000E+00
  1.00000000E+00  1.00000000E+00  1.00000000E+00  1.00000000E+00
Current cartesian coordinates              R   N=          87
 -3.33944340E+00 -3.47057630E-01  2.73567192E+00 -2.51756237E+00 -1.30718049E-01
 -5.47648362E-02 -4.41864465E+00 -1.55847205E+00 -1.72526949E+00 -2.35588430E+00
  2.64968127E+00 -9.13849312E-01  3.92301241E-05  4.02302275E+00  4.56115192E-02
  2.35600366E+00  2.64971111E+00 -9.13771176E-01  2.51758732E+00 -1.30726341E-01
 -5.46921869E-02  3.33934076E+00 -3.47135359E-01  2.73570968E+00  4.41857349E+00
 -1.55851541E+00 -1.72530497E+00  1.87578783E-05 -1.40482178E+00 -3.82195929E-01
  4.73141869E-05 -3.81642187E+00 -8.90650069E-02 -5.30440709E+00  2.72846376E-01
  2.94587478E+00 -3.19982779E+00 -2.31708474E+00  3.34404564E+00 -2.17227068E+00
  8.08435117E-01  3.99213998E+00 -4.58528456E+00 -3.52548614E+00 -1.12773455E+00
 -6.27601320E+00 -6.52353016E-01 -1.59499720E+00 -3.81498128E+00 -1.53052616E+00
 -3.70476864E+00 -2.35083654E+00  2.70759356E+00 -2.98941343E+00 -4.08447738E+00
  3.61528501E+00 -2.99661818E-01  2.26413233E-05  5.98044714E+00 -6.36004818E-01
  2.16461383E-05  4.12886134E+00  2.11662922E+00  2.35102697E+00  2.70767951E+00
 -2.98932126E+00  4.08456796E+00  3.61527171E+00 -2.99452183E-01  3.19959327E+00
 -2.31713629E+00  3.34412520E+00  5.30431425E+00  2.72690335E-01  2.94601247E+00
  2.17212529E+00  8.08413146E-01  3.99209499E+00  4.58509948E+00 -3.52558374E+00
 -1.12787827E+00  3.81473642E+00 -1.53042050E+00 -3.70475492E+00  6.27602232E+00
 -6.52547008E-01 -1.59509047E+00
Number of symbols in /Mol/                 I                0
Force Field                                I                0
Atom Types                                 C   N=          29
                                                            
                                                            
                                                            
                                                            
                                                            
                                                
Int Atom Types                             I   N=          29
           0           0           0           0           0           0
           0           0           0           0           0           0
           0           0           0           0           0           0
           0           0           0           0           0           0
           0           0           0           0           0
MM charges                                 R   N=          29
  0.00000000E+00  0.00000000E+00  0.00000000E+00  0.00000000E+00  0.00000000E+00
  0.00000000E+00  0.00000000E+00  0.00000000E+00  0.00000000E+00  0.00000000E+00
  0.00000000E+00  0.00000000E+00  0.00000000E+00  0.00000000E+00  0.00000000E+00
  0.00000000E+00  0.00000000E+00  0.00000000E+00  0.00000000E+00  0.00000000E+00
  0.00000000E+00  0.00000000E+00  0.00000000E+00  0.00000000E+00  0.00000000E+00
  0.00000000E+00  0.00000000E+00  0.00000000E+00  0.00000000E+00
Integer atomic weights                     I   N=          29
          12          12          12          12          12          12
          12          12          12          14          16           1
           1           1           1           1           1           1
           1           1           1           1           1           1
           1           1           1           1           1
Real atomic weights                        R   N=          29
  1.20000000E+01  1.20000000E+01  1.20000000E+01  1.20000000E+01  1.20000000E+01
  1.20000000E+01  1.20000000E+01  1.20000000E+01  1.20000000E+01  1.40030740E+01
  1.59949146E+01  1.00782504E+00  1.00782504E+00  1.00782504E+00  1.00782504E+00
  1.00782504E+00  1.00782504E+00  1.00782504E+00  1.00782504E+00  1.00782504E+00
  1.00782504E+00  1.00782504E+00  1.00782504E+00  1.00782504E+00  1.00782504E+00
  1.00782504E+00  1.00782504E+00  1.00782504E+00  1.00782504E+00
Atom fragment info                         I   N=          29
           0           0           0           0           0           0
           0           0           0           0           0           0
           0           0           0           0           0           0
           0           0           0           0           0           0
           0           0           0           0           0
Atom residue num                           I   N=          29
           0           0           0           0           0           0
           0           0           0           0           0           0
           0           0           0           0           0           0
           0           0           0           0           0           0
           0           0           0           0           0
Nuclear spins                              I   N=          29
           0           0           0           0           0           0
           0           0           0           2           0           1
           1           1           1           1           1           1
           1           1           1           1           1           1
           1           1           1           1           1
Nuclear ZEff                               R   N=          29
 -3.60000000E+00 -3.60000000E+00 -3.60000000E+00 -3.60000000E+00 -3.60000000E+00
 -3.60000000E+00 -3.60000000E+00 -3.60000000E+00 -3.60000000E+00 -4.55000000E+00
 -5.60000000E+00 -1.00000000E+00 -1.00000000E+00 -1.00000000E+00 -1.00000000E+00
 -1.00000000E+00 -1.00000000E+00 -1.00000000E+00 -1.00000000E+00 -1.00000000E+00
 -1.00000000E+00 -1.00000000E+00 -1.00000000E+00 -1.00000000E+00 -1.00000000E+00
 -1.00000000E+00 -1.00000000E+00 -1.00000000E+00 -1.00000000E+00
Nuclear ZNuc                               R   N=          29
  6.00000000E+00  6.00000000E+00  6.00000000E+00  6.00000000E+00  6.00000000E+00
  6.00000000E+00  6.00000000E+00  6.00000000E+00  6.00000000E+00  7.00000000E+00
  8.00000000E+00  1.00000000E+00  1.00000000E+00  1.00000000E+00  1.00000000E+00
  1.00000000E+00  1.00000000E+00  1.00000000E+00  1.00000000E+00  1.00000000E+00
  1.00000000E+00  1.00000000E+00  1.00000000E+00  1.00000000E+00  1.00000000E+00
  1.00000000E+00  1.00000000E+00  1.00000000E+00  1.00000000E+00
Nuclear QMom                               R   N=          29
  0.00000000E+00  0.00000000E+00  0.00000000E+00  0.00000000E+00  0.00000000E+00
  0.00000000E+00  0.00000000E+00  0.00000000E+00  0.00000000E+00  2.04400000E+00
  0.00000000E+00  0.00000000E+00  0.00000000E+00  0.00000000E+00  0.00000000E+00
  0.00000000E+00  0.00000000E+00  0.00000000E+00  0.00000000E+00  0.00000000E+00
  0.00000000E+00  0.00000000E+00  0.00000000E+00  0.00000000E+00  0.00000000E+00
  0.00000000E+00  0.00000000E+00  0.00000000E+00  0.00000000E+00
Nuclear GFac                               R   N=          29
  0.00000000E+00  0.00000000E+00  0.00000000E+00  0.00000000E+00  0.00000000E+00
  0.00000000E+00  0.00000000E+00  0.00000000E+00  0.00000000E+00  4.03761000E-01
  0.00000000E+00  2.79284600E+00  2.79284600E+00  2.79284600E+00  2.79284600E+00
  2.79284600E+00  2.79284600E+00  2.79284600E+00  2.79284600E+00  2.79284600E+00
  2.79284600E+00  2.79284600E+00  2.79284600E+00  2.79284600E+00  2.79284600E+00
  2.79284600E+00  2.79284600E+00  2.79284600E+00  2.79284600E+00
MicOpt                                     I   N=          29
          -1          -1          -1          -1          -1          -1
          -1          -1          -1          -1          -1          -1
          -1          -1          -1          -1          -1          -1
          -1          -1          -1          -1          -1          -1
          -1          -1          -1          -1          -1
Number of residues                         I                0
Number of secondary structures             I                0
Redundant internal dimensions              I   N=           4
         170          29          57          84
Redundant internal coordinate indices      I   N=         680
           1           2           0           0           1          12
           0           0           1          13           0           0
           1          14           0           0           2           3
           0           0           2           4           0           0
           2          10           0           0           3          15
           0           0           3          16           0           0
           3          17           0           0           4           5
           0           0           4          18           0           0
           4          19           0           0           5           6
           0           0           5          20           0           0
           5          21           0           0           6           7
           0           0           6          22           0           0
           6          23           0           0           7           8
           0           0           7           9           0           0
           7          10           0           0           8          24
           0           0           8          25           0           0
           8          26           0           0           9          27
           0           0           9          28           0           0
           9          29           0           0          10          11
           0           0           2           1          12           0
           2           1          13           0           2           1
          14           0          12           1          13           0
          12           1          14           0          13           1
          14           0           1           2           3           0
           1           2           4           0           1           2
          10           0           3           2           4           0
           3           2          10           0           4           2
          10           0           2           3          15           0
           2           3          16           0           2           3
          17           0          15           3          16           0
          15           3          17           0          16           3
          17           0           2           4           5           0
           2           4          18           0           2           4
          19           0           5           4          18           0
           5           4          19           0          18           4
          19           0           4           5           6           0
           4           5          20           0           4           5
          21           0           6           5          20           0
           6           5          21           0          20           5
          21           0           5           6           7           0
           5           6          22           0           5           6
          23           0           7           6          22           0
           7           6          23           0          22           6
          23           0           6           7           8           0
           6           7           9           0           6           7
          10           0           8           7           9           0
           8           7          10           0           9           7
          10           0           7           8          24           0
           7           8          25           0           7           8
          26           0          24           8          25           0
          24           8          26           0          25           8
          26           0           7           9          27           0
           7           9          28           0           7           9
          29           0          27           9          28           0
          27           9          29           0          28           9
          29           0           2          10           7           0
           2          10          11           0           7          10
          11           0          12           1           2           3
          12           1           2           4          12           1
           2          10          13           1           2           3
          13           1           2           4          13           1
           2          10          14           1           2           3
          14           1           2           4          14           1
           2          10           1           2           3          15
           1           2           3          16           1           2
           3          17           4           2           3          15
           4           2           3          16           4           2
           3          17          10           2           3          15
          10           2           3          16          10           2
           3          17           1           2           4           5
           1           2           4          18           1           2
           4          19           3           2           4           5
           3           2           4          18           3           2
           4          19          10           2           4           5
          10           2           4          18          10           2
           4          19           1           2          10           7
           1           2          10          11           3           2
          10           7           3           2          10          11
           4           2          10           7           4           2
          10          11           2           4           5           6
           2           4           5          20           2           4
           5          21          18           4           5           6
          18           4           5          20          18           4
           5          21          19           4           5           6
          19           4           5          20          19           4
           5          21           4           5           6           7
           4           5           6          22           4           5
           6          23          20           5           6           7
          20           5           6          22          20           5
           6          23          21           5           6           7
          21           5           6          22          21           5
           6          23           5           6           7           8
           5           6           7           9           5           6
           7          10          22           6           7           8
          22           6           7           9          22           6
           7          10          23           6           7           8
          23           6           7           9          23           6
           7          10           6           7           8          24
           6           7           8          25           6           7
           8          26           9           7           8          24
           9           7           8          25           9           7
           8          26          10           7           8          24
          10           7           8          25          10           7
           8          26           6           7           9          27
           6           7           9          28           6           7
           9          29           8           7           9          27
           8           7           9          28           8           7
           9          29          10           7           9          27
          10           7           9          28          10           7
           9          29           6           7          10           2
           6           7          10          11           8           7
          10           2           8           7          10          11
           9           7          10           2           9           7
          10          11
Redundant internal coordinates             R   N=         170
  2.91698964E+00  2.07112252E+00  2.06654734E+00  2.06788965E+00  2.90571525E+00
  2.91458167E+00  2.84055738E+00  2.06251334E+00  2.07071015E+00  2.06968773E+00
  2.89084894E+00  2.07637803E+00  2.07307764E+00  2.89084216E+00  2.07270622E+00
  2.07372036E+00  2.91461119E+00  2.07636540E+00  2.07307251E+00  2.91692546E+00
  2.90573178E+00  2.84055089E+00  2.06654360E+00  2.07111853E+00  2.06789467E+00
  2.06252452E+00  2.06969336E+00  2.07071261E+00  2.42934985E+00  1.92005933E+00
  1.91058222E+00  1.96143045E+00  1.89604796E+00  1.88239602E+00  1.89196215E+00
  1.90622939E+00  1.94802636E+00  1.90363084E+00  1.91301426E+00  1.86837083E+00
  1.92276757E+00  1.93361783E+00  1.91310992E+00  1.93092048E+00  1.90353251E+00
  1.88970463E+00  1.89218098E+00  1.98293936E+00  1.89798301E+00  1.88678704E+00
  1.89287025E+00  1.93898857E+00  1.85999914E+00  1.90534480E+00  1.91717191E+00
  1.93446226E+00  1.91718571E+00  1.93444849E+00  1.85482523E+00  1.98291341E+00
  1.89285836E+00  1.93899272E+00  1.89800307E+00  1.88678021E+00  1.86002341E+00
  1.94803838E+00  1.91299273E+00  1.92279103E+00  1.90629233E+00  1.90361026E+00
  1.86831207E+00  1.91061457E+00  1.92006853E+00  1.96139311E+00  1.89605425E+00
  1.89194160E+00  1.88240646E+00  1.93361898E+00  1.93085440E+00  1.91314979E+00
  1.88970469E+00  1.90353016E+00  1.89220906E+00  2.17857464E+00  2.01680102E+00
  2.01677239E+00 -9.33484578E-01  1.18460808E+00 -2.96998179E+00  1.14876288E+00
 -3.01632977E+00 -8.87734333E-01 -3.03115792E+00 -9.13065258E-01  1.21553018E+00
 -9.85810645E-01  1.11572523E+00 -3.08170311E+00 -3.12500810E+00 -1.02347223E+00
  1.06228474E+00  1.07294444E+00 -3.10870499E+00 -1.02294802E+00  1.33356483E+00
 -2.83992912E+00 -8.27061046E-01 -2.83546904E+00 -7.25777680E-01  1.28709040E+00
 -7.83961137E-01  1.32573022E+00 -2.94458701E+00 -1.55290338E+00  1.17341724E+00
  2.66983074E+00 -8.87033954E-01  5.90886417E-01 -2.96597827E+00  1.03521535E+00
  3.13839631E+00 -1.10034761E+00 -1.07734431E+00  1.02583665E+00  3.07027804E+00
 -3.11600117E+00 -1.01282021E+00  1.03162117E+00 -1.03518952E+00  1.07737025E+00
  3.11605178E+00 -3.13836203E+00 -1.02580226E+00  1.01287927E+00  1.10038171E+00
 -3.07024383E+00 -1.03156230E+00 -1.33358056E+00  2.83538074E+00  7.83943492E-01
  2.83993130E+00  7.25707292E-01 -1.32572995E+00  8.27027762E-01 -1.28719624E+00
  2.94455182E+00  3.01628700E+00 -1.18461759E+00  9.13050633E-01 -1.14878232E+00
  9.33498394E-01  3.03116662E+00  8.87668210E-01  2.96994893E+00 -1.21556815E+00
  3.12506287E+00 -1.06227255E+00  1.02350331E+00  9.85823701E-01  3.08167359E+00
 -1.11573586E+00 -1.07290773E+00  1.02294216E+00  3.10871801E+00 -5.90885192E-01
  2.96597346E+00  1.55292121E+00 -1.17340544E+00 -2.66978194E+00  8.87076716E-01
ZRed-IntVec                                I   N=         170
           0           0           0           0           0           0
           0           0           0           0           0           0
           0           0           0           0           0           0
           0           0           0           0           0           0
           0           0           0           0           0           0
           0           0           0           0           0           0
           0           0           0           0           0           0
           0           0           0           0           0           0
           0           0           0           0           0           0
           0           0           0           0           0           0
           0           0           0           0           0           0
           0           0           0           0           0           0
           0           0           0           0           0           0
           0           0           0           0           0           0
           0           0           0           0           0           0
           0           0           0           0           0           0
           0           0           0           0           0           0
           0           0           0           0           0           0
           0           0           0           0           0           0
           0           0           0           0           0           0
           0           0           0           0           0           0
           0           0           0           0           0           0
           0           0           0           0           0           0
           0           0           0           0           0           0
           0           0           0           0           0           0
           0           0           0           0           0           0
           0           0           0           0           0           0
           0           0           0           0           0           0
           0           0
ZRed-FPVec                                 R   N=         170
  0.00000000E+00  0.00000000E+00  0.00000000E+00  0.00000000E+00  0.00000000E+00
  0.00000000E+00  0.00000000E+00  0.00000000E+00  0.00000000E+00  0.00000000E+00
  0.00000000E+00  0.00000000E+00  0.00000000E+00  0.00000000E+00  0.00000000E+00
  0.00000000E+00  0.00000000E+00  0.00000000E+00  0.00000000E+00  0.00000000E+00
  0.00000000E+00  0.00000000E+00  0.00000000E+00  0.00000000E+00  0.00000000E+00
  0.00000000E+00  0.00000000E+00  0.00000000E+00  0.00000000E+00  0.00000000E+00
  0.00000000E+00  0.00000000E+00  0.00000000E+00  0.00000000E+00  0.00000000E+00
  0.00000000E+00  0.00000000E+00  0.00000000E+00  0.00000000E+00  0.00000000E+00
  0.00000000E+00  0.00000000E+00  0.00000000E+00  0.00000000E+00  0.00000000E+00
  0.00000000E+00  0.00000000E+00  0.00000000E+00  0.00000000E+00  0.00000000E+00
  0.00000000E+00  0.00000000E+00  0.00000000E+00  0.00000000E+00  0.00000000E+00
  0.00000000E+00  0.00000000E+00  0.00000000E+00  0.00000000E+00  0.00000000E+00
  0.00000000E+00  0.00000000E+00  0.00000000E+00  0.00000000E+00  0.00000000E+00
  0.00000000E+00  0.00000000E+00  0.00000000E+00  0.00000000E+00  0.00000000E+00
  0.00000000E+00  0.00000000E+00  0.00000000E+00  0.00000000E+00  0.00000000E+00
  0.00000000E+00  0.00000000E+00  0.00000000E+00  0.00000000E+00  0.00000000E+00
  0.00000000E+00  0.00000000E+00  0.00000000E+00  0.00000000E+00  0.00000000E+00
  0.00000000E+00  0.00000000E+00  0.00000000E+00  0.00000000E+00  0.00000000E+00
  0.00000000E+00  0.00000000E+00  0.00000000E+00  0.00000000E+00  0.00000000E+00
  0.00000000E+00  0.00000000E+00  0.00000000E+00  0.00000000E+00  0.00000000E+00
  0.00000000E+00  0.00000000E+00  0.00000000E+00  0.00000000E+00  0.00000000E+00
  0.00000000E+00  0.00000000E+00  0.00000000E+00  0.00000000E+00  0.00000000E+00
  0.00000000E+00  0.00000000E+00  0.00000000E+00  0.00000000E+00  0.00000000E+00
  0.00000000E+00  0.00000000E+00  0.00000000E+00  0.00000000E+00  0.00000000E+00
  0.00000000E+00  0.00000000E+00  0.00000000E+00  0.00000000E+00  0.00000000E+00
  0.00000000E+00  0.00000000E+00  0.00000000E+00  0.00000000E+00  0.00000000E+00
  0.00000000E+00  0.00000000E+00  0.00000000E+00  0.00000000E+00  0.00000000E+00
  0.00000000E+00  0.00000000E+00  0.00000000E+00  0.00000000E+00  0.00000000E+00
  0.00000000E+00  0.00000000E+00  0.00000000E+00  0.00000000E+00  0.00000000E+00
  0.00000000E+00  0.00000000E+00  0.00000000E+00  0.00000000E+00  0.00000000E+00
  0.00000000E+00  0.00000000E+00  0.00000000E+00  0.00000000E+00  0.00000000E+00
  0.00000000E+00  0.00000000E+00  0.00000000E+00  0.00000000E+00  0.00000000E+00
  0.00000000E+00  0.00000000E+00  0.00000000E+00  0.00000000E+00  0.00000000E+00
  0.00000000E+00  0.00000000E+00  0.00000000E+00  0.00000000E+00  0.00000000E+00
ZRed-Constraint1                           R   N=         170
  2.91698964E+00  2.07112252E+00  2.06654734E+00  2.06788965E+00  2.90571525E+00
  2.91458167E+00  2.84055738E+00  2.06251334E+00  2.07071015E+00  2.06968773E+00
  2.89084894E+00  2.07637803E+00  2.07307764E+00  2.89084216E+00  2.07270622E+00
  2.07372036E+00  2.91461119E+00  2.07636540E+00  2.07307251E+00  2.91692546E+00
  2.90573178E+00  2.84055089E+00  2.06654360E+00  2.07111853E+00  2.06789467E+00
  2.06252452E+00  2.06969336E+00  2.07071261E+00  2.42934985E+00  1.92005933E+00
  1.91058222E+00  1.96143045E+00  1.89604796E+00  1.88239602E+00  1.89196215E+00
  1.90622939E+00  1.94802636E+00  1.90363084E+00  1.91301426E+00  1.86837083E+00
  1.92276757E+00  1.93361783E+00  1.91310992E+00  1.93092048E+00  1.90353251E+00
  1.88970463E+00  1.89218098E+00  1.98293936E+00  1.89798301E+00  1.88678704E+00
  1.89287025E+00  1.93898857E+00  1.85999914E+00  1.90534480E+00  1.91717191E+00
  1.93446226E+00  1.91718571E+00  1.93444849E+00  1.85482523E+00  1.98291341E+00
  1.89285836E+00  1.93899272E+00  1.89800307E+00  1.88678021E+00  1.86002341E+00
  1.94803838E+00  1.91299273E+00  1.92279103E+00  1.90629233E+00  1.90361026E+00
  1.86831207E+00  1.91061457E+00  1.92006853E+00  1.96139311E+00  1.89605425E+00
  1.89194160E+00  1.88240646E+00  1.93361898E+00  1.93085440E+00  1.91314979E+00
  1.88970469E+00  1.90353016E+00  1.89220906E+00  2.17857464E+00  2.01680102E+00
  2.01677239E+00 -9.33484578E-01  1.18460808E+00 -2.96998179E+00  1.14876288E+00
 -3.01632977E+00 -8.87734333E-01 -3.03115792E+00 -9.13065258E-01  1.21553018E+00
 -9.85810645E-01  1.11572523E+00 -3.08170311E+00 -3.12500810E+00 -1.02347223E+00
  1.06228474E+00  1.07294444E+00 -3.10870499E+00 -1.02294802E+00  1.33356483E+00
 -2.83992912E+00 -8.27061046E-01 -2.83546904E+00 -7.25777680E-01  1.28709040E+00
 -7.83961137E-01  1.32573022E+00 -2.94458701E+00 -1.55290338E+00  1.17341724E+00
  2.66983074E+00 -8.87033954E-01  5.90886417E-01 -2.96597827E+00  1.03521535E+00
  3.13839631E+00 -1.10034761E+00 -1.07734431E+00  1.02583665E+00  3.07027804E+00
 -3.11600117E+00 -1.01282021E+00  1.03162117E+00 -1.03518952E+00  1.07737025E+00
  3.11605178E+00 -3.13836203E+00 -1.02580226E+00  1.01287927E+00  1.10038171E+00
 -3.07024383E+00 -1.03156230E+00 -1.33358056E+00  2.83538074E+00  7.83943492E-01
  2.83993130E+00  7.25707292E-01 -1.32572995E+00  8.27027762E-01 -1.28719624E+00
  2.94455182E+00  3.01628700E+00 -1.18461759E+00  9.13050633E-01 -1.14878232E+00
  9.33498394E-01  3.03116662E+00  8.87668210E-01  2.96994893E+00 -1.21556815E+00
  3.12506287E+00 -1.06227255E+00  1.02350331E+00  9.85823701E-01  3.08167359E+00
 -1.11573586E+00 -1.07290773E+00  1.02294216E+00  3.10871801E+00 -5.90885192E-01
  2.96597346E+00  1.55292121E+00 -1.17340544E+00 -2.66978194E+00  8.87076716E-01
ZRed-Constraint2                           R   N=         170
  2.96570673E+00  2.05992496E+00  2.05973507E+00  2.05960227E+00  2.97514480E+00
  2.96433471E+00  2.87141524E+00  2.05989060E+00  2.05987243E+00  2.05978865E+00
  2.93025856E+00  2.05980510E+00  2.05972954E+00  2.93081836E+00  2.05989105E+00
  2.05977863E+00  2.96332690E+00  2.05981870E+00  2.05988479E+00  2.96720217E+00
  2.97450986E+00  2.87193771E+00  2.05975363E+00  2.05983902E+00  2.05984459E+00
  2.05977430E+00  2.05975192E+00  2.05989639E+00  2.58651291E+00  1.91058577E+00
  1.91060641E+00  1.91067806E+00  1.91057522E+00  1.91065133E+00  1.91070262E+00
  1.83363292E+00  1.94389042E+00  1.94401666E+00  1.89562188E+00  1.92630063E+00
  1.91832955E+00  1.91060780E+00  1.91056785E+00  1.91068303E+00  1.91059394E+00
  1.91068917E+00  1.91065762E+00  1.98770426E+00  1.85093585E+00  1.85089199E+00
  1.84311492E+00  1.84304001E+00  2.09449109E+00  1.95763137E+00  1.85339303E+00