 Entering Gaussian System, Link 0=/apps/cent7/gaussian/g16-A.03/g16-haswell/g16/g16
 Initial command:
 /apps/cent7/gaussian/g16-A.03/g16-haswell/g16/l1.exe "/scratch/brown/finej/gaussian/Gau-329582.inp" -scrdir="/scratch/brown/finej/gaussian/"
 Entering Link 1 = /apps/cent7/gaussian/g16-A.03/g16-haswell/g16/l1.exe PID=    329584.
  
 Copyright (c) 1988,1990,1992,1993,1995,1998,2003,2009,2016,
            Gaussian, Inc.  All Rights Reserved.
  
 This is part of the Gaussian(R) 16 program.  It is based on
 the Gaussian(R) 09 system (copyright 2009, Gaussian, Inc.),
 the Gaussian(R) 03 system (copyright 2003, Gaussian, Inc.),
 the Gaussian(R) 98 system (copyright 1998, Gaussian, Inc.),
 the Gaussian(R) 94 system (copyright 1995, Gaussian, Inc.),
 the Gaussian 92(TM) system (copyright 1992, Gaussian, Inc.),
 the Gaussian 90(TM) system (copyright 1990, Gaussian, Inc.),
 the Gaussian 88(TM) system (copyright 1988, Gaussian, Inc.),
 the Gaussian 86(TM) system (copyright 1986, Carnegie Mellon
 University), and the Gaussian 82(TM) system (copyright 1983,
 Carnegie Mellon University). Gaussian is a federally registered
 trademark of Gaussian, Inc.
  
 This software contains proprietary and confidential information,
 including trade secrets, belonging to Gaussian, Inc.
  
 This software is provided under written license and may be
 used, copied, transmitted, or stored only in accord with that
 written license.
  
 The following legend is applicable only to US Government
 contracts under FAR:
  
                    RESTRICTED RIGHTS LEGEND
  
 Use, reproduction and disclosure by the US Government is
 subject to restrictions as set forth in subparagraphs (a)
 and (c) of the Commercial Computer Software - Restricted
 Rights clause in FAR 52.227-19.
  
 Gaussian, Inc.
 340 Quinnipiac St., Bldg. 40, Wallingford CT 06492
  
  
 ---------------------------------------------------------------
 Warning -- This program may not be used in any manner that
 competes with the business of Gaussian, Inc. or will provide
 assistance to any competitor of Gaussian, Inc.  The licensee
 of this program is prohibited from giving any competitor of
 Gaussian, Inc. access to this program.  By using this program,
 the user acknowledges that Gaussian, Inc. is engaged in the
 business of creating and licensing software in the field of
 computational chemistry and represents and warrants to the
 licensee that it is not a competitor of Gaussian, Inc. and that
 it will not use this program in any manner prohibited above.
 ---------------------------------------------------------------
  

 Cite this work as:
 Gaussian 16, Revision A.03,
 M. J. Frisch, G. W. Trucks, H. B. Schlegel, G. E. Scuseria, 
 M. A. Robb, J. R. Cheeseman, G. Scalmani, V. Barone, 
 G. A. Petersson, H. Nakatsuji, X. Li, M. Caricato, A. V. Marenich, 
 J. Bloino, B. G. Janesko, R. Gomperts, B. Mennucci, H. P. Hratchian, 
 J. V. Ortiz, A. F. Izmaylov, J. L. Sonnenberg, D. Williams-Young, 
 F. Ding, F. Lipparini, F. Egidi, J. Goings, B. Peng, A. Petrone, 
 T. Henderson, D. Ranasinghe, V. G. Zakrzewski, J. Gao, N. Rega, 
 G. Zheng, W. Liang, M. Hada, M. Ehara, K. Toyota, R. Fukuda, 
 J. Hasegawa, M. Ishida, T. Nakajima, Y. Honda, O. Kitao, H. Nakai, 
 T. Vreven, K. Throssell, J. A. Montgomery, Jr., J. E. Peralta, 
 F. Ogliaro, M. J. Bearpark, J. J. Heyd, E. N. Brothers, K. N. Kudin, 
 V. N. Staroverov, T. A. Keith, R. Kobayashi, J. Normand, 
 K. Raghavachari, A. P. Rendell, J. C. Burant, S. S. Iyengar, 
 J. Tomasi, M. Cossi, J. M. Millam, M. Klene, C. Adamo, R. Cammi, 
 J. W. Ochterski, R. L. Martin, K. Morokuma, O. Farkas, 
 J. B. Foresman, and D. J. Fox, Gaussian, Inc., Wallingford CT, 2016.
 
 ******************************************
 Gaussian 16:  ES64L-G16RevA.03 25-Dec-2016
                14-Oct-2019 
 ******************************************
 %chk=6.chk
 %nprocshared=24
 Will use up to   24 processors via shared memory.
 %mem=80GB
 --------------------------------------------------------------
 #P opt freq b3lyp/6-31g(d) geom=connectivity temperature=0.001
 --------------------------------------------------------------
 1/18=20,19=15,26=3,38=1,57=2,112=-1000/1,3;
 2/9=110,12=2,17=6,18=5,40=1/2;
 3/5=1,6=6,7=1,11=2,25=1,30=1,71=1,74=-5/1,2,3;
 4//1;
 5/5=2,38=5/2;
 6/7=2,8=2,9=2,10=2,28=1/1;
 7//1,2,3,16;
 1/18=20,19=15,26=3/3(2);
 2/9=110/2;
 99//99;
 2/9=110/2;
 3/5=1,6=6,7=1,11=2,25=1,30=1,71=1,74=-5/1,2,3;
 4/5=5,16=3,69=1/1;
 5/5=2,38=5/2;
 7//1,2,3,16;
 1/18=20,19=15,26=3/3(-5);
 2/9=110/2;
 6/7=2,8=2,9=2,10=2,19=2,28=1/1;
 99/9=1/99;
 Leave Link    1 at Mon Oct 14 02:19:24 2019, MaxMem= 10737418240 cpu:               1.1 elap:               0.1
 (Enter /apps/cent7/gaussian/g16-A.03/g16-haswell/g16/l101.exe)
 -------------------
 Title Card Required
 -------------------
 Symbolic Z-matrix:
 Charge =  0 Multiplicity = 2
 C                    -1.5576   -0.541     2.3284 
 C                    -0.5428   -0.845     1.1705 
 C                     0.4809   -1.8724    1.783 
 C                    -1.2566   -1.5186   -0.0532 
 C                    -2.0789   -0.5317   -0.9217 
 C                    -1.2497    0.7104   -1.34 
 C                    -0.5491    1.436    -0.1393 
 C                    -1.5775    2.2763    0.6984 
 C                     0.4702    2.4915   -0.709 
 N                     0.1776    0.4148    0.7202 
 O                     1.3634    0.0765    0.1262 
 H                    -1.9237   -1.4789    2.7462 
 H                    -1.0576    0.0334    3.1082 
 H                    -2.3962    0.0334    1.9351 
 H                     0.4349   -1.8263    2.8711 
 H                     0.2277   -2.8793    1.451 
 H                     1.4887   -1.623     1.451 
 H                    -0.461    -1.8865   -0.7011 
 H                    -1.9828   -2.2143    0.3671 
 H                    -2.3167   -1.0632   -1.8432 
 H                    -2.8812   -0.1611   -0.2837 
 H                    -0.4474    0.3291   -1.9717 
 H                    -1.9698    1.4221   -1.7439 
 H                    -1.3909    2.1238    1.7614 
 H                    -1.4646    3.3334    0.4577 
 H                    -2.5909    1.955     0.4577 
 H                     0.9638    3.0027    0.1175 
 H                     1.2165    1.9832   -1.3195 
 H                    -0.064     3.2196   -1.3195 
 
 ITRead=  0  0  0  0  0  0  0  0  0  0  0  0  0  0  0  0  0  0  0  0
 ITRead=  0  0  0  0  0  0  0  0  0
 MicOpt= -1 -1 -1 -1 -1 -1 -1 -1 -1 -1 -1 -1 -1 -1 -1 -1 -1 -1 -1 -1
 MicOpt= -1 -1 -1 -1 -1 -1 -1 -1 -1
 NAtoms=     29 NQM=       29 NQMF=       0 NMMI=      0 NMMIF=      0
                NMic=       0 NMicF=      0.
                    Isotopes and Nuclear Properties:
 (Nuclear quadrupole moments (NQMom) in fm**2, nuclear magnetic moments (NMagM)
  in nuclear magnetons)

  Atom         1           2           3           4           5           6           7           8           9          10
 IAtWgt=          12          12          12          12          12          12          12          12          12          14
 AtmWgt=  12.0000000  12.0000000  12.0000000  12.0000000  12.0000000  12.0000000  12.0000000  12.0000000  12.0000000  14.0030740
 NucSpn=           0           0           0           0           0           0           0           0           0           2
 AtZEff=  -0.0000000  -0.0000000  -0.0000000  -0.0000000  -0.0000000  -0.0000000  -0.0000000  -0.0000000  -0.0000000  -0.0000000
 NQMom=    0.0000000   0.0000000   0.0000000   0.0000000   0.0000000   0.0000000   0.0000000   0.0000000   0.0000000   2.0440000
 NMagM=    0.0000000   0.0000000   0.0000000   0.0000000   0.0000000   0.0000000   0.0000000   0.0000000   0.0000000   0.4037610
 AtZNuc=   6.0000000   6.0000000   6.0000000   6.0000000   6.0000000   6.0000000   6.0000000   6.0000000   6.0000000   7.0000000

  Atom        11          12          13          14          15          16          17          18          19          20
 IAtWgt=          16           1           1           1           1           1           1           1           1           1
 AtmWgt=  15.9949146   1.0078250   1.0078250   1.0078250   1.0078250   1.0078250   1.0078250   1.0078250   1.0078250   1.0078250
 NucSpn=           0           1           1           1           1           1           1           1           1           1
 AtZEff=  -0.0000000  -0.0000000  -0.0000000  -0.0000000  -0.0000000  -0.0000000  -0.0000000  -0.0000000  -0.0000000  -0.0000000
 NQMom=    0.0000000   0.0000000   0.0000000   0.0000000   0.0000000   0.0000000   0.0000000   0.0000000   0.0000000   0.0000000
 NMagM=    0.0000000   2.7928460   2.7928460   2.7928460   2.7928460   2.7928460   2.7928460   2.7928460   2.7928460   2.7928460
 AtZNuc=   8.0000000   1.0000000   1.0000000   1.0000000   1.0000000   1.0000000   1.0000000   1.0000000   1.0000000   1.0000000

  Atom        21          22          23          24          25          26          27          28          29
 IAtWgt=           1           1           1           1           1           1           1           1           1
 AtmWgt=   1.0078250   1.0078250   1.0078250   1.0078250   1.0078250   1.0078250   1.0078250   1.0078250   1.0078250
 NucSpn=           1           1           1           1           1           1           1           1           1
 AtZEff=  -0.0000000  -0.0000000  -0.0000000  -0.0000000  -0.0000000  -0.0000000  -0.0000000  -0.0000000  -0.0000000
 NQMom=    0.0000000   0.0000000   0.0000000   0.0000000   0.0000000   0.0000000   0.0000000   0.0000000   0.0000000
 NMagM=    2.7928460   2.7928460   2.7928460   2.7928460   2.7928460   2.7928460   2.7928460   2.7928460   2.7928460
 AtZNuc=   1.0000000   1.0000000   1.0000000   1.0000000   1.0000000   1.0000000   1.0000000   1.0000000   1.0000000
 Leave Link  101 at Mon Oct 14 02:19:24 2019, MaxMem= 10737418240 cpu:               8.5 elap:               0.4
 (Enter /apps/cent7/gaussian/g16-A.03/g16-haswell/g16/l103.exe)

 GradGradGradGradGradGradGradGradGradGradGradGradGradGradGradGradGradGrad
 Berny optimization.
 Initialization pass.
                           ----------------------------
                           !    Initial Parameters    !
                           ! (Angstroms and Degrees)  !
 --------------------------                            --------------------------
 ! Name  Definition              Value          Derivative Info.                !
 --------------------------------------------------------------------------------
 ! R1    R(1,2)                  1.5694         estimate D2E/DX2                !
 ! R2    R(1,12)                 1.0901         estimate D2E/DX2                !
 ! R3    R(1,13)                 1.09           estimate D2E/DX2                !
 ! R4    R(1,14)                 1.0899         estimate D2E/DX2                !
 ! R5    R(2,3)                  1.5744         estimate D2E/DX2                !
 ! R6    R(2,4)                  1.5687         estimate D2E/DX2                !
 ! R7    R(2,10)                 1.5195         estimate D2E/DX2                !
 ! R8    R(3,15)                 1.09           estimate D2E/DX2                !
 ! R9    R(3,16)                 1.09           estimate D2E/DX2                !
 ! R10   R(3,17)                 1.09           estimate D2E/DX2                !
 ! R11   R(4,5)                  1.5506         estimate D2E/DX2                !
 ! R12   R(4,18)                 1.09           estimate D2E/DX2                !
 ! R13   R(4,19)                 1.09           estimate D2E/DX2                !
 ! R14   R(5,6)                  1.5509         estimate D2E/DX2                !
 ! R15   R(5,20)                 1.09           estimate D2E/DX2                !
 ! R16   R(5,21)                 1.09           estimate D2E/DX2                !
 ! R17   R(6,7)                  1.5681         estimate D2E/DX2                !
 ! R18   R(6,22)                 1.09           estimate D2E/DX2                !
 ! R19   R(6,23)                 1.09           estimate D2E/DX2                !
 ! R20   R(7,8)                  1.5702         estimate D2E/DX2                !
 ! R21   R(7,9)                  1.574          estimate D2E/DX2                !
 ! R22   R(7,10)                 1.5198         estimate D2E/DX2                !
 ! R23   R(8,24)                 1.09           estimate D2E/DX2                !
 ! R24   R(8,25)                 1.09           estimate D2E/DX2                !
 ! R25   R(8,26)                 1.09           estimate D2E/DX2                !
 ! R26   R(9,27)                 1.09           estimate D2E/DX2                !
 ! R27   R(9,28)                 1.09           estimate D2E/DX2                !
 ! R28   R(9,29)                 1.0901         estimate D2E/DX2                !
 ! R29   R(10,11)                1.3687         estimate D2E/DX2                !
 ! A1    A(2,1,12)             109.4685         estimate D2E/DX2                !
 ! A2    A(2,1,13)             109.4697         estimate D2E/DX2                !
 ! A3    A(2,1,14)             109.4738         estimate D2E/DX2                !
 ! A4    A(12,1,13)            109.4679         estimate D2E/DX2                !
 ! A5    A(12,1,14)            109.4723         estimate D2E/DX2                !
 ! A6    A(13,1,14)            109.4752         estimate D2E/DX2                !
 ! A7    A(1,2,3)              105.0594         estimate D2E/DX2                !
 ! A8    A(1,2,4)              111.3767         estimate D2E/DX2                !
 ! A9    A(1,2,10)             111.3839         estimate D2E/DX2                !
 ! A10   A(3,2,4)              108.6111         estimate D2E/DX2                !
 ! A11   A(3,2,10)             110.3689         estimate D2E/DX2                !
 ! A12   A(4,2,10)             109.9122         estimate D2E/DX2                !
 ! A13   A(2,3,15)             109.4698         estimate D2E/DX2                !
 ! A14   A(2,3,16)             109.4675         estimate D2E/DX2                !
 ! A15   A(2,3,17)             109.4741         estimate D2E/DX2                !
 ! A16   A(15,3,16)            109.469          estimate D2E/DX2                !
 ! A17   A(15,3,17)            109.4744         estimate D2E/DX2                !
 ! A18   A(16,3,17)            109.4726         estimate D2E/DX2                !
 ! A19   A(2,4,5)              113.8871         estimate D2E/DX2                !
 ! A20   A(2,4,18)             106.0508         estimate D2E/DX2                !
 ! A21   A(2,4,19)             106.0483         estimate D2E/DX2                !
 ! A22   A(5,4,18)             105.6027         estimate D2E/DX2                !
 ! A23   A(5,4,19)             105.5984         estimate D2E/DX2                !
 ! A24   A(18,4,19)            120.0055         estimate D2E/DX2                !
 ! A25   A(4,5,6)              112.164          estimate D2E/DX2                !
 ! A26   A(4,5,20)             106.1916         estimate D2E/DX2                !
 ! A27   A(4,5,21)             106.1941         estimate D2E/DX2                !
 ! A28   A(6,5,20)             106.2085         estimate D2E/DX2                !
 ! A29   A(6,5,21)             106.2067         estimate D2E/DX2                !
 ! A30   A(20,5,21)            120.0019         estimate D2E/DX2                !
 ! A31   A(5,6,7)              113.7617         estimate D2E/DX2                !
 ! A32   A(5,6,22)             105.6451         estimate D2E/DX2                !
 ! A33   A(5,6,23)             105.6429         estimate D2E/DX2                !
 ! A34   A(7,6,22)             106.0671         estimate D2E/DX2                !
 ! A35   A(7,6,23)             106.0663         estimate D2E/DX2                !
 ! A36   A(22,6,23)            119.9936         estimate D2E/DX2                !
 ! A37   A(6,7,8)              111.316          estimate D2E/DX2                !
 ! A38   A(6,7,9)              108.8124         estimate D2E/DX2                !
 ! A39   A(6,7,10)             109.618          estimate D2E/DX2                !
 ! A40   A(8,7,9)              104.9729         estimate D2E/DX2                !
 ! A41   A(8,7,10)             111.7808         estimate D2E/DX2                !
 ! A42   A(9,7,10)             110.2203         estimate D2E/DX2                !
 ! A43   A(7,8,24)             109.4693         estimate D2E/DX2                !
 ! A44   A(7,8,25)             109.4724         estimate D2E/DX2                !
 ! A45   A(7,8,26)             109.4729         estimate D2E/DX2                !
 ! A46   A(24,8,25)            109.4699         estimate D2E/DX2                !
 ! A47   A(24,8,26)            109.4678         estimate D2E/DX2                !
 ! A48   A(25,8,26)            109.475          estimate D2E/DX2                !
 ! A49   A(7,9,27)             109.4693         estimate D2E/DX2                !
 ! A50   A(7,9,28)             109.475          estimate D2E/DX2                !
 ! A51   A(7,9,29)             109.4667         estimate D2E/DX2                !
 ! A52   A(27,9,28)            109.4727         estimate D2E/DX2                !
 ! A53   A(27,9,29)            109.4716         estimate D2E/DX2                !
 ! A54   A(28,9,29)            109.472          estimate D2E/DX2                !
 ! A55   A(2,10,7)             119.8681         estimate D2E/DX2                !
 ! A56   A(2,10,11)            109.538          estimate D2E/DX2                !
 ! A57   A(7,10,11)            109.5668         estimate D2E/DX2                !
 ! D1    D(12,1,2,3)           -50.5249         estimate D2E/DX2                !
 ! D2    D(12,1,2,4)            66.8769         estimate D2E/DX2                !
 ! D3    D(12,1,2,10)         -170.0265         estimate D2E/DX2                !
 ! D4    D(13,1,2,3)            69.4684         estimate D2E/DX2                !
 ! D5    D(13,1,2,4)          -173.1298         estimate D2E/DX2                !
 ! D6    D(13,1,2,10)          -50.0332         estimate D2E/DX2                !
 ! D7    D(14,1,2,3)          -170.5261         estimate D2E/DX2                !
 ! D8    D(14,1,2,4)           -53.1243         estimate D2E/DX2                !
 ! D9    D(14,1,2,10)           69.9723         estimate D2E/DX2                !
 ! D10   D(1,2,3,15)           -19.4338         estimate D2E/DX2                !
 ! D11   D(1,2,3,16)           100.5603         estimate D2E/DX2                !
 ! D12   D(1,2,3,17)          -139.4385         estimate D2E/DX2                !
 ! D13   D(4,2,3,15)          -138.7019         estimate D2E/DX2                !
 ! D14   D(4,2,3,16)           -18.7078         estimate D2E/DX2                !
 ! D15   D(4,2,3,17)           101.2934         estimate D2E/DX2                !
 ! D16   D(10,2,3,15)          100.7427         estimate D2E/DX2                !
 ! D17   D(10,2,3,16)         -139.2632         estimate D2E/DX2                !
 ! D18   D(10,2,3,17)          -19.2621         estimate D2E/DX2                !
 ! D19   D(1,2,4,5)             76.3767         estimate D2E/DX2                !
 ! D20   D(1,2,4,18)          -167.9328         estimate D2E/DX2                !
 ! D21   D(1,2,4,19)           -39.307          estimate D2E/DX2                !
 ! D22   D(3,2,4,5)           -168.395          estimate D2E/DX2                !
 ! D23   D(3,2,4,18)           -52.7045         estimate D2E/DX2                !
 ! D24   D(3,2,4,19)            75.9213         estimate D2E/DX2                !
 ! D25   D(10,2,4,5)           -47.5574         estimate D2E/DX2                !
 ! D26   D(10,2,4,18)           68.1331         estimate D2E/DX2                !
 ! D27   D(10,2,4,19)         -163.2411         estimate D2E/DX2                !
 ! D28   D(1,2,10,7)           -75.3905         estimate D2E/DX2                !
 ! D29   D(1,2,10,11)          156.7597         estimate D2E/DX2                !
 ! D30   D(3,2,10,7)           168.3126         estimate D2E/DX2                !
 ! D31   D(3,2,10,11)           40.4627         estimate D2E/DX2                !
 ! D32   D(4,2,10,7)            48.5395         estimate D2E/DX2                !
 ! D33   D(4,2,10,11)          -79.3104         estimate D2E/DX2                !
 ! D34   D(2,4,5,6)             51.2901         estimate D2E/DX2                !
 ! D35   D(2,4,5,20)           166.8934         estimate D2E/DX2                !
 ! D36   D(2,4,5,21)           -64.3126         estimate D2E/DX2                !
 ! D37   D(18,4,5,6)           -64.6629         estimate D2E/DX2                !
 ! D38   D(18,4,5,20)           50.9404         estimate D2E/DX2                !
 ! D39   D(18,4,5,21)          179.7344         estimate D2E/DX2                !
 ! D40   D(19,4,5,6)           167.2374         estimate D2E/DX2                !
 ! D41   D(19,4,5,20)          -77.1593         estimate D2E/DX2                !
 ! D42   D(19,4,5,21)           51.6347         estimate D2E/DX2                !
 ! D43   D(4,5,6,7)            -51.8743         estimate D2E/DX2                !
 ! D44   D(4,5,6,22)            64.0592         estimate D2E/DX2                !
 ! D45   D(4,5,6,23)          -167.8054         estimate D2E/DX2                !
 ! D46   D(20,5,6,7)          -167.4673         estimate D2E/DX2                !
 ! D47   D(20,5,6,22)          -51.5339         estimate D2E/DX2                !
 ! D48   D(20,5,6,23)           76.6015         estimate D2E/DX2                !
 ! D49   D(21,5,6,7)            63.7208         estimate D2E/DX2                !
 ! D50   D(21,5,6,22)          179.6542         estimate D2E/DX2                !
 ! D51   D(21,5,6,23)          -52.2104         estimate D2E/DX2                !
 ! D52   D(5,6,7,8)            -75.607          estimate D2E/DX2                !
 ! D53   D(5,6,7,9)            169.1842         estimate D2E/DX2                !
 ! D54   D(5,6,7,10)            48.5826         estimate D2E/DX2                !
 ! D55   D(22,6,7,8)           168.7074         estimate D2E/DX2                !
 ! D56   D(22,6,7,9)            53.4987         estimate D2E/DX2                !
 ! D57   D(22,6,7,10)          -67.1029         estimate D2E/DX2                !
 ! D58   D(23,6,7,8)            40.0755         estimate D2E/DX2                !
 ! D59   D(23,6,7,9)           -75.1333         estimate D2E/DX2                !
 ! D60   D(23,6,7,10)          164.2651         estimate D2E/DX2                !
 ! D61   D(6,7,8,24)           136.5207         estimate D2E/DX2                !
 ! D62   D(6,7,8,25)          -103.4815         estimate D2E/DX2                !
 ! D63   D(6,7,8,26)            16.5249         estimate D2E/DX2                !
 ! D64   D(9,7,8,24)          -105.9195         estimate D2E/DX2                !
 ! D65   D(9,7,8,25)            14.0784         estimate D2E/DX2                !
 ! D66   D(9,7,8,26)           134.0848         estimate D2E/DX2                !
 ! D67   D(10,7,8,24)           13.5624         estimate D2E/DX2                !
 ! D68   D(10,7,8,25)          133.5602         estimate D2E/DX2                !
 ! D69   D(10,7,8,26)         -106.4334         estimate D2E/DX2                !
 ! D70   D(6,7,9,27)          -179.9995         estimate D2E/DX2                !
 ! D71   D(6,7,9,28)           -59.9966         estimate D2E/DX2                !
 ! D72   D(6,7,9,29)            60.0039         estimate D2E/DX2                !
 ! D73   D(8,7,9,27)            60.7497         estimate D2E/DX2                !
 ! D74   D(8,7,9,28)          -179.2474         estimate D2E/DX2                !
 ! D75   D(8,7,9,29)           -59.2469         estimate D2E/DX2                !
 ! D76   D(10,7,9,27)          -59.7698         estimate D2E/DX2                !
 ! D77   D(10,7,9,28)           60.2332         estimate D2E/DX2                !
 ! D78   D(10,7,9,29)         -179.7663         estimate D2E/DX2                !
 ! D79   D(6,7,10,2)           -49.0134         estimate D2E/DX2                !
 ! D80   D(6,7,10,11)           78.8233         estimate D2E/DX2                !
 ! D81   D(8,7,10,2)            74.9047         estimate D2E/DX2                !
 ! D82   D(8,7,10,11)         -157.2586         estimate D2E/DX2                !
 ! D83   D(9,7,10,2)          -168.7567         estimate D2E/DX2                !
 ! D84   D(9,7,10,11)          -40.92           estimate D2E/DX2                !
 --------------------------------------------------------------------------------
 Trust Radius=3.00D-01 FncErr=1.00D-07 GrdErr=1.00D-06 EigMax=2.50D+02 EigMin=1.00D-04
 Number of steps in this run=    174 maximum allowed number of steps=    174.
 GradGradGradGradGradGradGradGradGradGradGradGradGradGradGradGradGradGrad

 Leave Link  103 at Mon Oct 14 02:19:24 2019, MaxMem= 10737418240 cpu:               0.3 elap:               0.0
 (Enter /apps/cent7/gaussian/g16-A.03/g16-haswell/g16/l202.exe)
                          Input orientation:                          
 ---------------------------------------------------------------------
 Center     Atomic      Atomic             Coordinates (Angstroms)
 Number     Number       Type             X           Y           Z
 ---------------------------------------------------------------------
      1          6           0       -1.557600   -0.541000    2.328400
      2          6           0       -0.542800   -0.845000    1.170500
      3          6           0        0.480900   -1.872400    1.783000
      4          6           0       -1.256600   -1.518600   -0.053200
      5          6           0       -2.078900   -0.531700   -0.921700
      6          6           0       -1.249700    0.710400   -1.340000
      7          6           0       -0.549100    1.436000   -0.139300
      8          6           0       -1.577500    2.276300    0.698400
      9          6           0        0.470200    2.491500   -0.709000
     10          7           0        0.177600    0.414800    0.720200
     11          8           0        1.363400    0.076500    0.126200
     12          1           0       -1.923700   -1.478900    2.746200
     13          1           0       -1.057600    0.033400    3.108200
     14          1           0       -2.396200    0.033400    1.935100
     15          1           0        0.434900   -1.826300    2.871100
     16          1           0        0.227700   -2.879300    1.451000
     17          1           0        1.488700   -1.623000    1.451000
     18          1           0       -0.461000   -1.886500   -0.701100
     19          1           0       -1.982800   -2.214300    0.367100
     20          1           0       -2.316700   -1.063200   -1.843200
     21          1           0       -2.881200   -0.161100   -0.283700
     22          1           0       -0.447400    0.329100   -1.971700
     23          1           0       -1.969800    1.422100   -1.743900
     24          1           0       -1.390900    2.123800    1.761400
     25          1           0       -1.464600    3.333400    0.457700
     26          1           0       -2.590900    1.955000    0.457700
     27          1           0        0.963800    3.002700    0.117500
     28          1           0        1.216500    1.983200   -1.319500
     29          1           0       -0.064000    3.219600   -1.319500
 ---------------------------------------------------------------------
                    Distance matrix (angstroms):
                    1          2          3          4          5
     1  C    0.000000
     2  C    1.569384   0.000000
     3  C    2.495109   1.574379   0.000000
     4  C    2.591972   1.568658   2.552589   0.000000
     5  C    3.291655   2.614395   3.957961   1.550626   0.000000
     6  C    3.888182   3.036707   4.406695   2.573780   1.550922
     7  C    3.318907   2.630319   3.962530   3.039347   2.612332
     8  C    3.254916   3.322047   4.756583   3.881900   3.280395
     9  C    4.746981   3.961177   5.025316   4.415067   3.960163
    10  N    2.551623   1.519488   2.540240   2.528461   2.946776
    11  O    3.709883   2.360789   2.705920   3.072609   3.649306
    12  H    1.090065   2.188960   2.620057   2.878062   3.791407
    13  H    1.089965   2.188901   2.784818   3.527429   4.195532
    14  H    1.089895   2.188902   3.454405   2.767802   2.929390
    15  H    2.432401   2.193374   1.090047   3.392253   4.730805
    16  H    3.069979   2.193337   1.090038   2.513418   4.057257
    17  H    3.349701   2.193389   1.089993   3.132122   4.421358
    18  H    3.491529   2.143432   2.656714   1.090002   2.121732
    19  H    2.612934   2.143370   2.862077   1.089962   2.121646
    20  H    4.272139   3.503815   4.650881   2.129625   1.090047
    21  H    2.952847   2.837346   4.301571   2.129615   1.089988
    22  H    4.525536   3.355746   4.450406   2.783782   2.122562
    23  H    4.539526   3.958510   5.412826   3.466243   2.122557
    24  H    2.729549   3.143598   4.412903   4.071595   3.837193
    25  H    4.303387   4.337837   5.713295   4.883256   4.149591
    26  H    3.285916   3.541581   5.083440   3.755965   2.889388
    27  H    4.878867   4.264205   5.174329   5.039987   4.778069
    28  H    5.232054   4.158600   5.003225   4.470161   4.164448
    29  H    5.447947   4.790649   5.987561   5.047410   4.276718
                    6          7          8          9         10
     6  C    0.000000
     7  C    1.568125   0.000000
     8  C    2.591249   1.570176   0.000000
     9  C    2.555100   1.574043   2.494025   0.000000
    10  N    2.523686   1.519764   2.558522   2.537895   0.000000
    11  O    3.062656   2.361437   3.716911   2.706952   1.368724
    12  H    4.684479   4.325769   4.291255   5.782148   3.479402
    13  H    4.503522   3.573810   3.332872   4.790349   2.715461
    14  H    3.535403   3.111623   2.688921   4.609747   2.871567
    15  H    5.196738   4.546797   5.059813   5.609078   3.116906
    16  H    4.781039   4.664149   5.514106   5.793954   3.374563
    17  H    4.553380   4.004892   5.017223   4.757316   2.530945
    18  H    2.788213   3.370814   4.531454   4.475945   2.779188
    19  H    3.464895   3.954317   4.521008   5.414772   3.421136
    20  H    2.130107   3.503382   4.261268   4.657157   3.870018
    21  H    2.130041   2.830242   2.933440   4.295236   3.270433
    22  H    1.090009   2.143189   3.492585   2.666904   2.764832
    23  H    1.090044   2.143204   2.616942   2.858012   3.420200
    24  H    3.411205   2.189602   1.089975   3.114767   2.542631
    25  H    3.187167   2.189675   1.090020   2.411107   3.359160
    26  H    2.565068   2.189684   1.090023   3.319541   3.178949
    27  H    3.504073   2.193026   2.706161   1.089986   2.771026
    28  H    2.775353   2.193090   3.458940   1.089974   2.774810
    29  H    2.775318   2.193040   2.693031   1.090050   3.476442
                   11         12         13         14         15
    11  O    0.000000
    12  H    4.482041   0.000000
    13  H    3.841279   1.779951   0.000000
    14  H    4.172358   1.779941   1.779891   0.000000
    15  H    3.466589   2.387317   2.396301   3.514215   0.000000
    16  H    3.432443   2.875271   3.589168   3.950066   1.780007
    17  H    2.158494   3.652777   3.460291   4.250937   1.780031
    18  H    2.804680   3.766896   4.307286   3.792172   3.683324
    19  H    4.062370   2.490868   3.663575   2.771584   3.502261
    20  H    4.326730   4.624916   5.225345   3.935023   5.511647
    21  H    4.270960   3.440014   3.855948   2.279502   4.870541
    22  H    2.782802   5.263735   5.124955   4.375882   5.373724
    23  H    4.051930   5.345926   5.128691   3.955420   6.134567
    24  H    3.801511   3.772685   2.508930   2.326064   4.490910
    25  H    4.326069   5.348480   4.252152   3.733710   6.004590
    26  H    4.390347   4.180198   3.615066   2.431700   5.410933
    27  H    2.953371   5.944111   4.674087   4.838389   5.584021
    28  H    2.397318   6.194910   5.345819   5.238868   5.717020
    29  H    3.742539   6.485700   5.544695   5.116976   6.578080
                   16         17         18         19         20
    16  H    0.000000
    17  H    1.780003   0.000000
    18  H    2.468095   2.915870   0.000000
    19  H    2.550171   3.684534   1.887956   0.000000
    20  H    4.541359   5.064208   2.329343   2.514348   0.000000
    21  H    4.479180   4.923653   3.001432   2.333730   1.887984
    22  H    4.739669   4.390222   2.554113   3.781048   2.334372
    23  H    5.791238   5.607249   3.782954   4.204747   2.511357
    24  H    5.267563   4.735711   4.796991   4.594946   4.899716
    25  H    6.515226   5.854445   5.440348   5.572586   5.034909
    26  H    5.683450   5.516508   4.542732   4.214387   3.805109
    27  H    6.076018   4.842607   5.157949   5.996819   5.580105
    28  H    5.683072   4.555704   4.262746   5.540681   4.694499
    29  H    6.705024   5.791142   5.158710   6.004472   4.867370
                   21         22         23         24         25
    21  H    0.000000
    22  H    3.002170   0.000000
    23  H    2.338665   1.887920   0.000000
    24  H    3.409428   4.248197   3.621414   0.000000
    25  H    3.842910   3.995310   2.958942   1.779943   0.000000
    26  H    2.260935   3.624931   2.348785   1.779923   1.780039
    27  H    4.995460   3.674830   3.816951   3.003246   2.474313
    28  H    4.739414   2.435154   3.263044   4.038595   3.488521
    29  H    4.520910   2.987867   2.653902   3.528936   2.265628
                   26         27         28         29
    26  H    0.000000
    27  H    3.721465   0.000000
    28  H    4.201848   1.779946   0.000000
    29  H    3.338095   1.779996   1.779990   0.000000
 Stoichiometry    C9H18NO(2)
 Framework group  C1[X(C9H18NO)]
 Deg. of freedom    81
 Full point group                 C1      NOp   1
 Largest Abelian subgroup         C1      NOp   1
 Largest concise Abelian subgroup C1      NOp   1
                         Standard orientation:                         
 ---------------------------------------------------------------------
 Center     Atomic      Atomic             Coordinates (Angstroms)
 Number     Number       Type             X           Y           Z
 ---------------------------------------------------------------------
      1          6           0       -1.624047    0.453096    1.596470
      2          6           0       -1.315064   -0.108959    0.164132
      3          6           0       -2.514144   -1.075120   -0.163601
      4          6           0       -1.288712    1.037272   -0.906451
      5          6           0        0.001925    1.896176   -0.875114
      6          6           0        1.285013    1.026045   -0.918896
      7          6           0        1.315253   -0.109946    0.161672
      8          6           0        1.630827    0.466870    1.587557
      9          6           0        2.511163   -1.082347   -0.157464
     10          7           0       -0.000373   -0.870419    0.139497
     11          8           0       -0.002105   -1.752991   -0.906671
     12          1           0       -2.644392    0.835671    1.624306
     13          1           0       -1.515051   -0.344695    2.331094
     14          1           0       -0.927553    1.258586    1.828748
     15          1           0       -3.015131   -1.359321    0.761842
     16          1           0       -3.221815   -0.566673   -0.818479
     17          1           0       -2.135756   -1.968135   -0.661027
     18          1           0       -1.288123    0.542541   -1.877710
     19          1           0       -2.099072    1.716162   -0.641038
     20          1           0       -0.000188    2.481652   -1.794580
     21          1           0        0.008622    2.399651    0.091603
     22          1           0        1.265900    0.522556   -1.885464
     23          1           0        2.105532    1.699644   -0.671493
     24          1           0        0.969311    0.005403    2.320694
     25          1           0        2.667290    0.249924    1.846061
     26          1           0        1.474887    1.545679    1.585800
     27          1           0        2.542124   -1.876985    0.587961
     28          1           0        2.371497   -1.517599   -1.146955
     29          1           0        3.448084   -0.525704   -0.134301
 ---------------------------------------------------------------------
 Rotational constants (GHZ):           1.4892684           0.9726135           0.8794404
 Leave Link  202 at Mon Oct 14 02:19:24 2019, MaxMem= 10737418240 cpu:               1.6 elap:               0.1
 (Enter /apps/cent7/gaussian/g16-A.03/g16-haswell/g16/l301.exe)
 Standard basis: 6-31G(d) (6D, 7F)
 Ernie: Thresh=  0.10000D-02 Tol=  0.10000D-05 Strict=F.
 There are   201 symmetry adapted cartesian basis functions of A   symmetry.
 There are   201 symmetry adapted basis functions of A   symmetry.
   201 basis functions,   380 primitive gaussians,   201 cartesian basis functions
    44 alpha electrons       43 beta electrons
       nuclear repulsion energy       708.4607385489 Hartrees.
 IExCor=  402 DFT=T Ex+Corr=B3LYP ExCW=0 ScaHFX=  0.200000
 ScaDFX=  0.800000  0.720000  1.000000  0.810000 ScalE2=  1.000000  1.000000
 IRadAn=      5 IRanWt=     -1 IRanGd=            0 ICorTp=0 IEmpDi=  4
 NAtoms=   29 NActive=   29 NUniq=   29 SFac= 1.00D+00 NAtFMM=   60 NAOKFM=F Big=F
 Integral buffers will be    131072 words long.
 Raffenetti 2 integral format.
 Two-electron integral symmetry is turned on.
 Leave Link  301 at Mon Oct 14 02:19:25 2019, MaxMem= 10737418240 cpu:               1.3 elap:               0.1
 (Enter /apps/cent7/gaussian/g16-A.03/g16-haswell/g16/l302.exe)
 NPDir=0 NMtPBC=     1 NCelOv=     1 NCel=       1 NClECP=     1 NCelD=      1
         NCelK=      1 NCelE2=     1 NClLst=     1 CellRange=     0.0.
 One-electron integrals computed using PRISM.
 One-electron integral symmetry used in STVInt
 NBasis=   201 RedAO= T EigKep=  2.93D-03  NBF=   201
 NBsUse=   201 1.00D-06 EigRej= -1.00D+00 NBFU=   201
 Precomputing XC quadrature grid using
 IXCGrd= 4 IRadAn=           5 IRanWt=          -1 IRanGd=           0 AccXCQ= 0.00D+00.
 Generated NRdTot=       0 NPtTot=           0 NUsed=           0 NTot=          32
 NSgBfM=   201   201   201   201   201 MxSgAt=    29 MxSgA2=    29.
 Leave Link  302 at Mon Oct 14 02:19:25 2019, MaxMem= 10737418240 cpu:               4.9 elap:               0.2
 (Enter /apps/cent7/gaussian/g16-A.03/g16-haswell/g16/l303.exe)
 DipDrv:  MaxL=1.
 Leave Link  303 at Mon Oct 14 02:19:25 2019, MaxMem= 10737418240 cpu:               0.9 elap:               0.1
 (Enter /apps/cent7/gaussian/g16-A.03/g16-haswell/g16/l401.exe)
 ExpMin= 1.61D-01 ExpMax= 5.48D+03 ExpMxC= 8.25D+02 IAcc=3 IRadAn=         5 AccDes= 0.00D+00
 Harris functional with IExCor=  402 and IRadAn=       5 diagonalized for initial guess.
 HarFok:  IExCor=  402 AccDes= 0.00D+00 IRadAn=         5 IDoV= 1 UseB2=F ITyADJ=14
 ICtDFT=  3500011 ScaDFX=  1.000000  1.000000  1.000000  1.000000
 FoFCou: FMM=F IPFlag=           0 FMFlag=      100000 FMFlg1=           0
         NFxFlg=           0 DoJE=T BraDBF=F KetDBF=T FulRan=T
         wScrn=  0.000000 ICntrl=       500 IOpCl=  0 I1Cent=   200000004 NGrid=           0
         NMat0=    1 NMatS0=      1 NMatT0=    0 NMatD0=    1 NMtDS0=    0 NMtDT0=    0
 Petite list used in FoFCou.
 Harris En= -483.726607811511    
 JPrj=0 DoOrth=F DoCkMO=F.
 Initial guess <Sx>= 0.0000 <Sy>= 0.0000 <Sz>= 0.5000 <S**2>= 0.7500 S= 0.5000
 Leave Link  401 at Mon Oct 14 02:19:25 2019, MaxMem= 10737418240 cpu:              11.6 elap:               0.5
 (Enter /apps/cent7/gaussian/g16-A.03/g16-haswell/g16/l502.exe)
 Integral symmetry usage will be decided dynamically.
 UHF open shell SCF:
 Using DIIS extrapolation, IDIIS=  1040.
 NGot= 10737418240 LenX= 10737330056 LenY= 10737289214
 Requested convergence on RMS density matrix=1.00D-08 within 128 cycles.
 Requested convergence on MAX density matrix=1.00D-06.
 Requested convergence on             energy=1.00D-06.
 No special actions if energy rises.
 Fock matrices will be formed incrementally for  20 cycles.
 Integral accuracy reduced to 1.0D-05 until final iterations.

 Cycle   1  Pass 0  IDiag  1:
 FoFJK:  IHMeth= 1 ICntrl=       0 DoSepK=F KAlg= 0 I1Cent=           0 FoldK=F
 IRaf= 960000000 NMat=       1 IRICut=       1 DoRegI=T DoRafI=F ISym2E= 0 IDoP0=0 IntGTp=1.
 FoFCou: FMM=F IPFlag=           0 FMFlag=      100000 FMFlg1=           0
         NFxFlg=           0 DoJE=F BraDBF=F KetDBF=F FulRan=T
         wScrn=  0.000000 ICntrl=         0 IOpCl=  1 I1Cent=           0 NGrid=           0
         NMat0=    1 NMatS0=      1 NMatT0=    0 NMatD0=    1 NMtDS0=    0 NMtDT0=    0
 Symmetry not used in FoFCou.
 E= -483.267693591787    
 DIIS: error= 3.95D-02 at cycle   1 NSaved=   1.
 NSaved= 1 IEnMin= 1 EnMin= -483.267693591787     IErMin= 1 ErrMin= 3.95D-02
 ErrMax= 3.95D-02  0.00D+00 EMaxC= 1.00D-01 BMatC= 1.61D+00 BMatP= 1.61D+00
 IDIUse=3 WtCom= 6.05D-01 WtEn= 3.95D-01
 Coeff-Com:  0.100D+01
 Coeff-En:   0.100D+01
 Coeff:      0.100D+01
 Gap=     0.314 Goal=   None    Shift=    0.000
 Gap=     0.058 Goal=   None    Shift=    0.000
 GapD=    0.058 DampG=0.500 DampE=0.500 DampFc=0.2500 IDamp=-1.
 Damping current iteration by 2.50D-01
 RMSDP=6.69D-03 MaxDP=1.79D-01              OVMax= 2.21D-01

 Cycle   2  Pass 0  IDiag  1:
 RMSU=  1.65D-03    CP:  9.89D-01
 E= -483.417712329695     Delta-E=       -0.150018737908 Rises=F Damp=T
 DIIS: error= 1.96D-02 at cycle   2 NSaved=   2.
 NSaved= 2 IEnMin= 2 EnMin= -483.417712329695     IErMin= 2 ErrMin= 1.96D-02
 ErrMax= 1.96D-02  0.00D+00 EMaxC= 1.00D-01 BMatC= 3.53D-01 BMatP= 1.61D+00
 IDIUse=3 WtCom= 8.04D-01 WtEn= 1.96D-01
 Coeff-Com: -0.651D+00 0.165D+01
 Coeff-En:   0.000D+00 0.100D+01
 Coeff:     -0.524D+00 0.152D+01
 Gap=     0.329 Goal=   None    Shift=    0.000
 Gap=     0.153 Goal=   None    Shift=    0.000
 RMSDP=2.30D-03 MaxDP=5.03D-02 DE=-1.50D-01 OVMax= 2.52D-01

 Cycle   3  Pass 0  IDiag  1:
 RMSU=  1.65D-03    CP:  9.69D-01  1.92D+00
 E= -483.635241661796     Delta-E=       -0.217529332101 Rises=F Damp=F
 DIIS: error= 1.44D-02 at cycle   3 NSaved=   3.
 NSaved= 3 IEnMin= 3 EnMin= -483.635241661796     IErMin= 3 ErrMin= 1.44D-02
 ErrMax= 1.44D-02  0.00D+00 EMaxC= 1.00D-01 BMatC= 1.84D-01 BMatP= 3.53D-01
 IDIUse=3 WtCom= 8.56D-01 WtEn= 1.44D-01
 Coeff-Com: -0.373D+00 0.935D+00 0.438D+00
 Coeff-En:   0.000D+00 0.000D+00 0.100D+01
 Coeff:     -0.319D+00 0.800D+00 0.519D+00
 Gap=     0.282 Goal=   None    Shift=    0.000
 Gap=     0.143 Goal=   None    Shift=    0.000
 RMSDP=1.46D-03 MaxDP=6.58D-02 DE=-2.18D-01 OVMax= 1.56D-01

 Cycle   4  Pass 0  IDiag  1:
 RMSU=  8.61D-04    CP:  9.77D-01  1.81D+00  3.04D-01
 E= -483.662882277271     Delta-E=       -0.027640615474 Rises=F Damp=F
 DIIS: error= 1.10D-02 at cycle   4 NSaved=   4.
 NSaved= 4 IEnMin= 4 EnMin= -483.662882277271     IErMin= 4 ErrMin= 1.10D-02
 ErrMax= 1.10D-02  0.00D+00 EMaxC= 1.00D-01 BMatC= 6.96D-02 BMatP= 1.84D-01
 IDIUse=3 WtCom= 8.90D-01 WtEn= 1.10D-01
 Coeff-Com:  0.287D-01 0.144D-01 0.367D+00 0.590D+00
 Coeff-En:   0.000D+00 0.000D+00 0.293D+00 0.707D+00
 Coeff:      0.256D-01 0.128D-01 0.359D+00 0.603D+00
 Gap=     0.289 Goal=   None    Shift=    0.000
 Gap=     0.161 Goal=   None    Shift=    0.000
 RMSDP=6.52D-04 MaxDP=2.66D-02 DE=-2.76D-02 OVMax= 5.28D-02

 Cycle   5  Pass 0  IDiag  1:
 RMSU=  2.66D-04    CP:  9.74D-01  1.77D+00  5.92D-01  6.02D-01
 E= -483.676425493550     Delta-E=       -0.013543216279 Rises=F Damp=F
 DIIS: error= 1.49D-03 at cycle   5 NSaved=   5.
 NSaved= 5 IEnMin= 5 EnMin= -483.676425493550     IErMin= 5 ErrMin= 1.49D-03
 ErrMax= 1.49D-03  0.00D+00 EMaxC= 1.00D-01 BMatC= 1.45D-03 BMatP= 6.96D-02
 IDIUse=3 WtCom= 9.85D-01 WtEn= 1.49D-02
 Coeff-Com:  0.305D-01-0.384D-01 0.155D+00 0.295D+00 0.558D+00
 Coeff-En:   0.000D+00 0.000D+00 0.000D+00 0.000D+00 0.100D+01
 Coeff:      0.301D-01-0.378D-01 0.153D+00 0.291D+00 0.565D+00
 Gap=     0.278 Goal=   None    Shift=    0.000
 Gap=     0.161 Goal=   None    Shift=    0.000
 RMSDP=1.37D-04 MaxDP=5.58D-03 DE=-1.35D-02 OVMax= 1.46D-02

 Cycle   6  Pass 0  IDiag  1:
 RMSU=  8.78D-05    CP:  9.74D-01  1.78D+00  5.76D-01  6.49D-01  6.58D-01
 E= -483.676743841195     Delta-E=       -0.000318347645 Rises=F Damp=F
 DIIS: error= 6.02D-04 at cycle   6 NSaved=   6.
 NSaved= 6 IEnMin= 6 EnMin= -483.676743841195     IErMin= 6 ErrMin= 6.02D-04
 ErrMax= 6.02D-04  0.00D+00 EMaxC= 1.00D-01 BMatC= 2.23D-04 BMatP= 1.45D-03
 IDIUse=3 WtCom= 9.94D-01 WtEn= 6.02D-03
 Coeff-Com:  0.107D-01-0.197D-01 0.148D-01 0.206D-01 0.247D+00 0.727D+00
 Coeff-En:   0.000D+00 0.000D+00 0.000D+00 0.000D+00 0.224D-01 0.978D+00
 Coeff:      0.106D-01-0.196D-01 0.147D-01 0.205D-01 0.246D+00 0.728D+00
 Gap=     0.280 Goal=   None    Shift=    0.000
 Gap=     0.163 Goal=   None    Shift=    0.000
 RMSDP=4.67D-05 MaxDP=1.80D-03 DE=-3.18D-04 OVMax= 2.19D-03

 Cycle   7  Pass 0  IDiag  1:
 RMSU=  2.65D-05    CP:  9.74D-01  1.78D+00  5.87D-01  6.51D-01  7.81D-01
                    CP:  9.51D-01
 E= -483.676795672835     Delta-E=       -0.000051831640 Rises=F Damp=F
 DIIS: error= 2.14D-04 at cycle   7 NSaved=   7.
 NSaved= 7 IEnMin= 7 EnMin= -483.676795672835     IErMin= 7 ErrMin= 2.14D-04
 ErrMax= 2.14D-04  0.00D+00 EMaxC= 1.00D-01 BMatC= 2.38D-05 BMatP= 2.23D-04
 IDIUse=3 WtCom= 9.98D-01 WtEn= 2.14D-03
 Coeff-Com: -0.607D-03 0.566D-03-0.124D-01-0.397D-01-0.426D-01 0.408D-01
 Coeff-Com:  0.105D+01
 Coeff-En:   0.000D+00 0.000D+00 0.000D+00 0.000D+00 0.000D+00 0.000D+00
 Coeff-En:   0.100D+01
 Coeff:     -0.606D-03 0.565D-03-0.124D-01-0.396D-01-0.425D-01 0.408D-01
 Coeff:      0.105D+01
 Gap=     0.281 Goal=   None    Shift=    0.000
 Gap=     0.163 Goal=   None    Shift=    0.000
 RMSDP=2.19D-05 MaxDP=9.68D-04 DE=-5.18D-05 OVMax= 2.50D-03

 Cycle   8  Pass 0  IDiag  1:
 RMSU=  1.11D-05    CP:  9.74D-01  1.77D+00  5.91D-01  6.52D-01  8.25D-01
                    CP:  1.07D+00  1.27D+00
 E= -483.676802988900     Delta-E=       -0.000007316065 Rises=F Damp=F
 DIIS: error= 8.69D-05 at cycle   8 NSaved=   8.
 NSaved= 8 IEnMin= 8 EnMin= -483.676802988900     IErMin= 8 ErrMin= 8.69D-05
 ErrMax= 8.69D-05  0.00D+00 EMaxC= 1.00D-01 BMatC= 5.23D-06 BMatP= 2.38D-05
 IDIUse=1 WtCom= 1.00D+00 WtEn= 0.00D+00
 Coeff-Com: -0.687D-03 0.142D-02-0.627D-02-0.217D-01-0.465D-01-0.717D-01
 Coeff-Com:  0.499D+00 0.646D+00
 Coeff:     -0.687D-03 0.142D-02-0.627D-02-0.217D-01-0.465D-01-0.717D-01
 Coeff:      0.499D+00 0.646D+00
 Gap=     0.280 Goal=   None    Shift=    0.000
 Gap=     0.163 Goal=   None    Shift=    0.000
 RMSDP=8.77D-06 MaxDP=2.61D-04 DE=-7.32D-06 OVMax= 6.90D-04

 Initial convergence to 1.0D-05 achieved.  Increase integral accuracy.
 Cycle   9  Pass 1  IDiag  1:
 E= -483.676716730137     Delta-E=        0.000086258763 Rises=F Damp=F
 DIIS: error= 4.04D-05 at cycle   1 NSaved=   1.
 NSaved= 1 IEnMin= 1 EnMin= -483.676716730137     IErMin= 1 ErrMin= 4.04D-05
 ErrMax= 4.04D-05  0.00D+00 EMaxC= 1.00D-01 BMatC= 1.09D-06 BMatP= 1.09D-06
 IDIUse=1 WtCom= 1.00D+00 WtEn= 0.00D+00
 Coeff-Com:  0.100D+01
 Coeff:      0.100D+01
 Gap=     0.280 Goal=   None    Shift=    0.000
 Gap=     0.163 Goal=   None    Shift=    0.000
 RMSDP=8.77D-06 MaxDP=2.61D-04 DE= 8.63D-05 OVMax= 2.08D-04

 Cycle  10  Pass 1  IDiag  1:
 RMSU=  7.25D-06    CP:  1.00D+00
 E= -483.676716645224     Delta-E=        0.000000084913 Rises=F Damp=F
 DIIS: error= 5.73D-05 at cycle   2 NSaved=   2.
 NSaved= 2 IEnMin= 1 EnMin= -483.676716730137     IErMin= 1 ErrMin= 4.04D-05
 ErrMax= 5.73D-05  0.00D+00 EMaxC= 1.00D-01 BMatC= 1.97D-06 BMatP= 1.09D-06
 IDIUse=1 WtCom= 1.00D+00 WtEn= 0.00D+00
 Coeff-Com:  0.586D+00 0.414D+00
 Coeff:      0.586D+00 0.414D+00
 Gap=     0.280 Goal=   None    Shift=    0.000
 Gap=     0.163 Goal=   None    Shift=    0.000
 RMSDP=3.76D-06 MaxDP=2.34D-04 DE= 8.49D-08 OVMax= 4.99D-04

 Cycle  11  Pass 1  IDiag  1:
 RMSU=  3.05D-06    CP:  1.00D+00  6.98D-01
 E= -483.676716990871     Delta-E=       -0.000000345646 Rises=F Damp=F
 DIIS: error= 2.62D-05 at cycle   3 NSaved=   3.
 NSaved= 3 IEnMin= 3 EnMin= -483.676716990871     IErMin= 3 ErrMin= 2.62D-05
 ErrMax= 2.62D-05  0.00D+00 EMaxC= 1.00D-01 BMatC= 4.10D-07 BMatP= 1.09D-06
 IDIUse=1 WtCom= 1.00D+00 WtEn= 0.00D+00
 Coeff-Com:  0.106D+00 0.308D+00 0.586D+00
 Coeff:      0.106D+00 0.308D+00 0.586D+00
 Gap=     0.280 Goal=   None    Shift=    0.000
 Gap=     0.163 Goal=   None    Shift=    0.000
 RMSDP=1.65D-06 MaxDP=7.64D-05 DE=-3.46D-07 OVMax= 6.20D-05

 Cycle  12  Pass 1  IDiag  1:
 RMSU=  1.40D-06    CP:  1.00D+00  7.96D-01  8.41D-01
 E= -483.676717062603     Delta-E=       -0.000000071732 Rises=F Damp=F
 DIIS: error= 5.84D-06 at cycle   4 NSaved=   4.
 NSaved= 4 IEnMin= 4 EnMin= -483.676717062603     IErMin= 4 ErrMin= 5.84D-06
 ErrMax= 5.84D-06  0.00D+00 EMaxC= 1.00D-01 BMatC= 4.62D-08 BMatP= 4.10D-07
 IDIUse=1 WtCom= 1.00D+00 WtEn= 0.00D+00
 Coeff-Com: -0.649D-01 0.131D+00 0.312D+00 0.622D+00
 Coeff:     -0.649D-01 0.131D+00 0.312D+00 0.622D+00
 Gap=     0.280 Goal=   None    Shift=    0.000
 Gap=     0.163 Goal=   None    Shift=    0.000
 RMSDP=7.96D-07 MaxDP=3.15D-05 DE=-7.17D-08 OVMax= 7.53D-05

 Cycle  13  Pass 1  IDiag  1:
 RMSU=  6.08D-07    CP:  1.00D+00  8.43D-01  8.89D-01  7.48D-01
 E= -483.676717076874     Delta-E=       -0.000000014271 Rises=F Damp=F
 DIIS: error= 4.32D-06 at cycle   5 NSaved=   5.
 NSaved= 5 IEnMin= 5 EnMin= -483.676717076874     IErMin= 5 ErrMin= 4.32D-06
 ErrMax= 4.32D-06  0.00D+00 EMaxC= 1.00D-01 BMatC= 8.98D-09 BMatP= 4.62D-08
 IDIUse=1 WtCom= 1.00D+00 WtEn= 0.00D+00
 Coeff-Com: -0.104D-01-0.337D-01-0.226D+00-0.793D-02 0.128D+01
 Coeff:     -0.104D-01-0.337D-01-0.226D+00-0.793D-02 0.128D+01
 Gap=     0.280 Goal=   None    Shift=    0.000
 Gap=     0.163 Goal=   None    Shift=    0.000
 RMSDP=5.24D-07 MaxDP=2.39D-05 DE=-1.43D-08 OVMax= 4.47D-05

 Cycle  14  Pass 1  IDiag  1:
 RMSU=  1.60D-07    CP:  1.00D+00  8.80D-01  8.98D-01  9.70D-01  1.46D+00
 E= -483.676717080162     Delta-E=       -0.000000003288 Rises=F Damp=F
 DIIS: error= 7.77D-07 at cycle   6 NSaved=   6.
 NSaved= 6 IEnMin= 6 EnMin= -483.676717080162     IErMin= 6 ErrMin= 7.77D-07
 ErrMax= 7.77D-07  0.00D+00 EMaxC= 1.00D-01 BMatC= 9.28D-10 BMatP= 8.98D-09
 IDIUse=1 WtCom= 1.00D+00 WtEn= 0.00D+00
 Coeff-Com:  0.353D-02-0.319D-01-0.164D+00-0.840D-01 0.659D+00 0.617D+00
 Coeff:      0.353D-02-0.319D-01-0.164D+00-0.840D-01 0.659D+00 0.617D+00
 Gap=     0.280 Goal=   None    Shift=    0.000
 Gap=     0.163 Goal=   None    Shift=    0.000
 RMSDP=1.22D-07 MaxDP=6.90D-06 DE=-3.29D-09 OVMax= 1.31D-05

 Cycle  15  Pass 1  IDiag  1:
 RMSU=  5.36D-08    CP:  1.00D+00  8.83D-01  9.05D-01  1.02D+00  1.57D+00
                    CP:  7.19D-01
 E= -483.676717080422     Delta-E=       -0.000000000260 Rises=F Damp=F
 DIIS: error= 2.06D-07 at cycle   7 NSaved=   7.
 NSaved= 7 IEnMin= 7 EnMin= -483.676717080422     IErMin= 7 ErrMin= 2.06D-07
 ErrMax= 2.06D-07  0.00D+00 EMaxC= 1.00D-01 BMatC= 4.80D-11 BMatP= 9.28D-10
 IDIUse=1 WtCom= 1.00D+00 WtEn= 0.00D+00
 Coeff-Com:  0.225D-02-0.103D-01-0.492D-01-0.356D-01 0.172D+00 0.262D+00
 Coeff-Com:  0.659D+00
 Coeff:      0.225D-02-0.103D-01-0.492D-01-0.356D-01 0.172D+00 0.262D+00
 Coeff:      0.659D+00
 Gap=     0.280 Goal=   None    Shift=    0.000
 Gap=     0.163 Goal=   None    Shift=    0.000
 RMSDP=2.93D-08 MaxDP=9.39D-07 DE=-2.60D-10 OVMax= 2.68D-06

 Cycle  16  Pass 1  IDiag  1:
 RMSU=  2.12D-08    CP:  1.00D+00  8.84D-01  9.04D-01  1.02D+00  1.59D+00
                    CP:  7.72D-01  8.20D-01
 E= -483.676717080440     Delta-E=       -0.000000000018 Rises=F Damp=F
 DIIS: error= 7.62D-08 at cycle   8 NSaved=   8.
 NSaved= 8 IEnMin= 8 EnMin= -483.676717080440     IErMin= 8 ErrMin= 7.62D-08
 ErrMax= 7.62D-08  0.00D+00 EMaxC= 1.00D-01 BMatC= 4.47D-12 BMatP= 4.80D-11
 IDIUse=1 WtCom= 1.00D+00 WtEn= 0.00D+00
 Coeff-Com:  0.414D-03-0.731D-03-0.126D-02-0.501D-02-0.126D-02 0.316D-01
 Coeff-Com:  0.225D+00 0.752D+00
 Coeff:      0.414D-03-0.731D-03-0.126D-02-0.501D-02-0.126D-02 0.316D-01
 Coeff:      0.225D+00 0.752D+00
 Gap=     0.280 Goal=   None    Shift=    0.000
 Gap=     0.163 Goal=   None    Shift=    0.000
 RMSDP=1.16D-08 MaxDP=5.27D-07 DE=-1.80D-11 OVMax= 1.97D-06

 Cycle  17  Pass 1  IDiag  1:
 RMSU=  9.04D-09    CP:  1.00D+00  8.84D-01  9.05D-01  1.02D+00  1.59D+00
                    CP:  7.79D-01  9.37D-01  1.11D+00
 E= -483.676717080442     Delta-E=       -0.000000000003 Rises=F Damp=F
 DIIS: error= 4.83D-08 at cycle   9 NSaved=   9.
 NSaved= 9 IEnMin= 9 EnMin= -483.676717080442     IErMin= 9 ErrMin= 4.83D-08
 ErrMax= 4.83D-08  0.00D+00 EMaxC= 1.00D-01 BMatC= 1.22D-12 BMatP= 4.47D-12
 IDIUse=1 WtCom= 1.00D+00 WtEn= 0.00D+00
 Coeff-Com: -0.251D-03 0.155D-02 0.897D-02 0.455D-02-0.331D-01-0.376D-01
 Coeff-Com: -0.367D-01 0.313D+00 0.780D+00
 Coeff:     -0.251D-03 0.155D-02 0.897D-02 0.455D-02-0.331D-01-0.376D-01
 Coeff:     -0.367D-01 0.313D+00 0.780D+00
 Gap=     0.280 Goal=   None    Shift=    0.000
 Gap=     0.163 Goal=   None    Shift=    0.000
 RMSDP=8.02D-09 MaxDP=4.39D-07 DE=-2.73D-12 OVMax= 1.63D-06

 SCF Done:  E(UB3LYP) =  -483.676717080     A.U. after   17 cycles
            NFock= 17  Conv=0.80D-08     -V/T= 2.0102
 <Sx>= 0.0000 <Sy>= 0.0000 <Sz>= 0.5000 <S**2>= 0.7538 S= 0.5019
 <L.S>= 0.000000000000E+00
 KE= 4.788069223049D+02 PE=-2.539303738424D+03 EE= 8.683593604902D+02
 Annihilation of the first spin contaminant:
 S**2 before annihilation     0.7538,   after     0.7500
 Leave Link  502 at Mon Oct 14 02:19:36 2019, MaxMem= 10737418240 cpu:             245.8 elap:              10.3
 (Enter /apps/cent7/gaussian/g16-A.03/g16-haswell/g16/l601.exe)
 Copying SCF densities to generalized density rwf, IOpCl= 1 IROHF=0.

 **********************************************************************

            Population analysis using the SCF density.

 **********************************************************************

 Orbital symmetries:
 Alpha Orbitals:
       Occupied  (A) (A) (A) (A) (A) (A) (A) (A) (A) (A) (A) (A)
                 (A) (A) (A) (A) (A) (A) (A) (A) (A) (A) (A) (A)
                 (A) (A) (A) (A) (A) (A) (A) (A) (A) (A) (A) (A)
                 (A) (A) (A) (A) (A) (A) (A) (A)
       Virtual   (A) (A) (A) (A) (A) (A) (A) (A) (A) (A) (A) (A)
                 (A) (A) (A) (A) (A) (A) (A) (A) (A) (A) (A) (A)
                 (A) (A) (A) (A) (A) (A) (A) (A) (A) (A) (A) (A)
                 (A) (A) (A) (A) (A) (A) (A) (A) (A) (A) (A) (A)
                 (A) (A) (A) (A) (A) (A) (A) (A) (A) (A) (A) (A)
                 (A) (A) (A) (A) (A) (A) (A) (A) (A) (A) (A) (A)
                 (A) (A) (A) (A) (A) (A) (A) (A) (A) (A) (A) (A)
                 (A) (A) (A) (A) (A) (A) (A) (A) (A) (A) (A) (A)
                 (A) (A) (A) (A) (A) (A) (A) (A) (A) (A) (A) (A)
                 (A) (A) (A) (A) (A) (A) (A) (A) (A) (A) (A) (A)
                 (A) (A) (A) (A) (A) (A) (A) (A) (A) (A) (A) (A)
                 (A) (A) (A) (A) (A) (A) (A) (A) (A) (A) (A) (A)
                 (A) (A) (A) (A) (A) (A) (A) (A) (A) (A) (A) (A)
                 (A)
 Beta  Orbitals:
       Occupied  (A) (A) (A) (A) (A) (A) (A) (A) (A) (A) (A) (A)
                 (A) (A) (A) (A) (A) (A) (A) (A) (A) (A) (A) (A)
                 (A) (A) (A) (A) (A) (A) (A) (A) (A) (A) (A) (A)
                 (A) (A) (A) (A) (A) (A) (A)
       Virtual   (A) (A) (A) (A) (A) (A) (A) (A) (A) (A) (A) (A)
                 (A) (A) (A) (A) (A) (A) (A) (A) (A) (A) (A) (A)
                 (A) (A) (A) (A) (A) (A) (A) (A) (A) (A) (A) (A)
                 (A) (A) (A) (A) (A) (A) (A) (A) (A) (A) (A) (A)
                 (A) (A) (A) (A) (A) (A) (A) (A) (A) (A) (A) (A)
                 (A) (A) (A) (A) (A) (A) (A) (A) (A) (A) (A) (A)
                 (A) (A) (A) (A) (A) (A) (A) (A) (A) (A) (A) (A)
                 (A) (A) (A) (A) (A) (A) (A) (A) (A) (A) (A) (A)
                 (A) (A) (A) (A) (A) (A) (A) (A) (A) (A) (A) (A)
                 (A) (A) (A) (A) (A) (A) (A) (A) (A) (A) (A) (A)
                 (A) (A) (A) (A) (A) (A) (A) (A) (A) (A) (A) (A)
                 (A) (A) (A) (A) (A) (A) (A) (A) (A) (A) (A) (A)
                 (A) (A) (A) (A) (A) (A) (A) (A) (A) (A) (A) (A)
                 (A) (A)
 The electronic state is 2-A.
 Alpha  occ. eigenvalues --  -19.14870 -14.41469 -10.23503 -10.23398 -10.18561
 Alpha  occ. eigenvalues --  -10.18558 -10.18509 -10.18148 -10.18053 -10.17056
 Alpha  occ. eigenvalues --  -10.16511  -1.04421  -0.84900  -0.80371  -0.76940
 Alpha  occ. eigenvalues --   -0.71641  -0.68578  -0.68217  -0.67563  -0.59993
 Alpha  occ. eigenvalues --   -0.58473  -0.51130  -0.47910  -0.47101  -0.47033
 Alpha  occ. eigenvalues --   -0.44768  -0.43859  -0.42714  -0.41478  -0.40550
 Alpha  occ. eigenvalues --   -0.39780  -0.39434  -0.38891  -0.37870  -0.37707
 Alpha  occ. eigenvalues --   -0.36171  -0.34871  -0.33732  -0.33048  -0.31501
 Alpha  occ. eigenvalues --   -0.30691  -0.30174  -0.24723  -0.21180
 Alpha virt. eigenvalues --    0.06864   0.10853   0.11205   0.11470   0.11746
 Alpha virt. eigenvalues --    0.11975   0.14073   0.15077   0.15601   0.16027
 Alpha virt. eigenvalues --    0.16200   0.17073   0.17840   0.18500   0.18673
 Alpha virt. eigenvalues --    0.19097   0.20161   0.20588   0.21401   0.22415
 Alpha virt. eigenvalues --    0.22778   0.22935   0.24256   0.24971   0.26749
 Alpha virt. eigenvalues --    0.27584   0.28531   0.29453   0.32059   0.48624
 Alpha virt. eigenvalues --    0.49961   0.52013   0.52800   0.53330   0.54827
 Alpha virt. eigenvalues --    0.56117   0.58071   0.59074   0.59793   0.60809
 Alpha virt. eigenvalues --    0.62772   0.64074   0.65056   0.66936   0.67406
 Alpha virt. eigenvalues --    0.71718   0.72599   0.73427   0.75092   0.76624
 Alpha virt. eigenvalues --    0.78278   0.80707   0.82060   0.83184   0.84742
 Alpha virt. eigenvalues --    0.85038   0.86322   0.87288   0.88319   0.89226
 Alpha virt. eigenvalues --    0.90234   0.90787   0.92217   0.93125   0.93214
 Alpha virt. eigenvalues --    0.94037   0.94605   0.95353   0.96461   0.97607
 Alpha virt. eigenvalues --    0.98539   0.99973   1.00767   1.01945   1.02401
 Alpha virt. eigenvalues --    1.03173   1.06392   1.06620   1.13350   1.19047
 Alpha virt. eigenvalues --    1.23508   1.26777   1.28174   1.30023   1.33240
 Alpha virt. eigenvalues --    1.37996   1.42145   1.46213   1.49584   1.50437
 Alpha virt. eigenvalues --    1.59968   1.62127   1.64182   1.67332   1.70403
 Alpha virt. eigenvalues --    1.72631   1.76071   1.77328   1.77977   1.80428
 Alpha virt. eigenvalues --    1.82582   1.84697   1.86459   1.87466   1.89611
 Alpha virt. eigenvalues --    1.93443   1.93771   1.96891   2.00856   2.02840
 Alpha virt. eigenvalues --    2.04895   2.05331   2.06793   2.09783   2.11937
 Alpha virt. eigenvalues --    2.13008   2.16048   2.16476   2.17922   2.20442
 Alpha virt. eigenvalues --    2.23451   2.24106   2.27445   2.27913   2.29032
 Alpha virt. eigenvalues --    2.29540   2.32896   2.33734   2.34887   2.35996
 Alpha virt. eigenvalues --    2.37404   2.39470   2.40376   2.45330   2.46819
 Alpha virt. eigenvalues --    2.51859   2.53571   2.65033   2.65376   2.71812
 Alpha virt. eigenvalues --    2.78960   2.79979   2.82778   2.83522   2.87312
 Alpha virt. eigenvalues --    3.02244   3.69453   3.98754   4.18613   4.21138
 Alpha virt. eigenvalues --    4.24999   4.28296   4.30703   4.41592   4.57214
 Alpha virt. eigenvalues --    4.68252   4.76270
  Beta  occ. eigenvalues --  -19.13328 -14.40567 -10.23486 -10.23380 -10.18527
  Beta  occ. eigenvalues --  -10.18513 -10.18500 -10.18146 -10.18049 -10.17054
  Beta  occ. eigenvalues --  -10.16511  -1.01871  -0.83837  -0.80270  -0.76324
  Beta  occ. eigenvalues --   -0.70399  -0.68503  -0.68174  -0.67506  -0.59628
  Beta  occ. eigenvalues --   -0.58182  -0.50807  -0.46920  -0.46827  -0.46740
  Beta  occ. eigenvalues --   -0.43852  -0.43787  -0.42678  -0.41431  -0.40280
  Beta  occ. eigenvalues --   -0.39411  -0.39091  -0.38451  -0.37804  -0.35996
  Beta  occ. eigenvalues --   -0.34791  -0.34612  -0.33641  -0.32958  -0.30628
  Beta  occ. eigenvalues --   -0.30357  -0.27783  -0.23283
  Beta virt. eigenvalues --   -0.06956   0.06905   0.10918   0.11492   0.11652
  Beta virt. eigenvalues --    0.11821   0.12266   0.14240   0.15180   0.15707
  Beta virt. eigenvalues --    0.16142   0.16379   0.17123   0.17989   0.18562
  Beta virt. eigenvalues --    0.18786   0.19204   0.20232   0.20764   0.21526
  Beta virt. eigenvalues --    0.22593   0.22913   0.23007   0.24334   0.25603
  Beta virt. eigenvalues --    0.26979   0.27935   0.28912   0.29699   0.32326
  Beta virt. eigenvalues --    0.48740   0.49992   0.52126   0.52949   0.53409
  Beta virt. eigenvalues --    0.55257   0.56218   0.58372   0.59471   0.60017
  Beta virt. eigenvalues --    0.60911   0.62831   0.64234   0.65178   0.67026
  Beta virt. eigenvalues --    0.67746   0.71932   0.72724   0.73680   0.75326
  Beta virt. eigenvalues --    0.76791   0.78438   0.80785   0.82267   0.83488
  Beta virt. eigenvalues --    0.85073   0.85339   0.86766   0.87380   0.88470
  Beta virt. eigenvalues --    0.89490   0.90300   0.91018   0.92268   0.93290
  Beta virt. eigenvalues --    0.93494   0.94212   0.94781   0.95505   0.96533
  Beta virt. eigenvalues --    0.97743   0.98717   1.00091   1.01012   1.02058
  Beta virt. eigenvalues --    1.03113   1.03607   1.06538   1.09658   1.13847
  Beta virt. eigenvalues --    1.19564   1.23703   1.27189   1.28525   1.30422
  Beta virt. eigenvalues --    1.33444   1.38651   1.42544   1.46636   1.50265
  Beta virt. eigenvalues --    1.51002   1.60384   1.62431   1.64649   1.68016
  Beta virt. eigenvalues --    1.70852   1.73039   1.76376   1.77907   1.78724
  Beta virt. eigenvalues --    1.81562   1.82911   1.84895   1.86703   1.87718
  Beta virt. eigenvalues --    1.90333   1.93805   1.94052   1.97488   2.01442
  Beta virt. eigenvalues --    2.03029   2.05153   2.05763   2.07348   2.10331
  Beta virt. eigenvalues --    2.12156   2.13437   2.16503   2.16754   2.18585
  Beta virt. eigenvalues --    2.21180   2.23558   2.24350   2.27793   2.28051
  Beta virt. eigenvalues --    2.29182   2.29691   2.33121   2.34376   2.34994
  Beta virt. eigenvalues --    2.36352   2.37781   2.39636   2.40536   2.45422
  Beta virt. eigenvalues --    2.47616   2.52802   2.53903   2.65218   2.65578
  Beta virt. eigenvalues --    2.71972   2.79885   2.80151   2.83248   2.84016
  Beta virt. eigenvalues --    2.87808   3.03611   3.71724   3.99795   4.18651
  Beta virt. eigenvalues --    4.21742   4.25032   4.28335   4.30714   4.41655
  Beta virt. eigenvalues --    4.57382   4.68432   4.76330
          Condensed to atoms (all electrons):
               1          2          3          4          5          6
     1  C    5.196098   0.357908  -0.057361  -0.059128  -0.004076  -0.000563
     2  C    0.357908   4.806805   0.364851   0.373226  -0.031470  -0.013605
     3  C   -0.057361   0.364851   5.213557  -0.050394   0.004591   0.000058
     4  C   -0.059128   0.373226  -0.050394   5.109117   0.359395  -0.041675
     5  C   -0.004076  -0.031470   0.004591   0.359395   5.063677   0.362630
     6  C   -0.000563  -0.013605   0.000058  -0.041675   0.362630   5.101204
     7  C    0.002205  -0.041943   0.003434  -0.013535  -0.029510   0.374226
     8  C   -0.001102   0.001303  -0.000136  -0.000988  -0.006295  -0.052469
     9  C   -0.000179   0.004100  -0.000131   0.000144   0.004192  -0.055396
    10  N   -0.051352   0.248918  -0.036349  -0.049151  -0.010362  -0.050506
    11  O    0.003669  -0.050104  -0.025064  -0.001791  -0.000955  -0.002334
    12  H    0.365696  -0.023348  -0.008059  -0.001938  -0.000086   0.000027
    13  H    0.365828  -0.026742  -0.005997   0.005115  -0.000044   0.000060
    14  H    0.361220  -0.032556   0.006472  -0.005458   0.001367  -0.000128
    15  H   -0.007631  -0.039017   0.364671   0.004284  -0.000168  -0.000003
    16  H    0.001759  -0.033497   0.367212  -0.004883   0.000359   0.000010
    17  H    0.004570  -0.028501   0.352202   0.000544  -0.000157  -0.000014
    18  H    0.006005  -0.038837  -0.007993   0.366545  -0.044896  -0.003351
    19  H   -0.005192  -0.034324  -0.003055   0.362552  -0.040049   0.005232
    20  H    0.000014   0.004357  -0.000151  -0.037058   0.371986  -0.036893
    21  H    0.002547  -0.003835  -0.000057  -0.044270   0.367496  -0.044931
    22  H    0.000056  -0.000365  -0.000034  -0.003178  -0.044462   0.365634
    23  H    0.000000   0.000153   0.000007   0.005321  -0.039192   0.363694
    24  H   -0.000212  -0.001171  -0.000064   0.000275   0.000078   0.004384
    25  H    0.000201  -0.000084   0.000003  -0.000017   0.000027   0.002164
    26  H   -0.001668   0.000073   0.000002   0.000134   0.000587  -0.006943
    27  H   -0.000016  -0.000018  -0.000001   0.000007  -0.000161   0.004927
    28  H   -0.000005   0.000165   0.000010  -0.000016  -0.000024  -0.005155
    29  H   -0.000005  -0.000039   0.000002   0.000001   0.000065  -0.002546
               7          8          9         10         11         12
     1  C    0.002205  -0.001102  -0.000179  -0.051352   0.003669   0.365696
     2  C   -0.041943   0.001303   0.004100   0.248918  -0.050104  -0.023348
     3  C    0.003434  -0.000136  -0.000131  -0.036349  -0.025064  -0.008059
     4  C   -0.013535  -0.000988   0.000144  -0.049151  -0.001791  -0.001938
     5  C   -0.029510  -0.006295   0.004192  -0.010362  -0.000955  -0.000086
     6  C    0.374226  -0.052469  -0.055396  -0.050506  -0.002334   0.000027
     7  C    4.826582   0.328790   0.381186   0.247863  -0.055436  -0.000177
     8  C    0.328790   5.232402  -0.058521  -0.048200   0.003923   0.000184
     9  C    0.381186  -0.058521   5.149123  -0.042270  -0.006186   0.000003
    10  N    0.247863  -0.048200  -0.042270   6.759870   0.155629   0.003182
    11  O   -0.055436   0.003923  -0.006186   0.155629   8.280122  -0.000071
    12  H   -0.000177   0.000184   0.000003   0.003182  -0.000071   0.560425
    13  H    0.000148  -0.001530  -0.000025   0.000964   0.000012  -0.026655
    14  H   -0.000073   0.000311   0.000021  -0.001713  -0.000047  -0.029000
    15  H   -0.000033  -0.000011   0.000001   0.001700   0.000841   0.000271
    16  H   -0.000085  -0.000000   0.000003   0.002543   0.000388   0.001157
    17  H    0.000853  -0.000037  -0.000013  -0.010093   0.028258   0.000119
    18  H   -0.000143   0.000063  -0.000071  -0.002620   0.006298  -0.000035
    19  H    0.000121   0.000040   0.000006   0.004108   0.000024   0.003348
    20  H    0.004259   0.000021  -0.000142   0.000040  -0.000039  -0.000007
    21  H   -0.003932   0.002943  -0.000050  -0.000423   0.000010   0.000017
    22  H   -0.039026   0.006209  -0.007897  -0.002899   0.006186   0.000001
    23  H   -0.037397  -0.005804  -0.000935   0.004090   0.000018  -0.000002
    24  H   -0.029563   0.362228   0.001216  -0.000125   0.000051   0.000167
    25  H   -0.030051   0.371045  -0.011107   0.002648  -0.000076  -0.000005
    26  H   -0.034470   0.362156   0.004938   0.001696  -0.000070   0.000018
    27  H   -0.028020  -0.004826   0.364751   0.000426   0.000086   0.000000
    28  H   -0.027075   0.006086   0.365125  -0.005498   0.012858   0.000000
    29  H   -0.028198  -0.006356   0.357567   0.003137   0.000937   0.000000
              13         14         15         16         17         18
     1  C    0.365828   0.361220  -0.007631   0.001759   0.004570   0.006005
     2  C   -0.026742  -0.032556  -0.039017  -0.033497  -0.028501  -0.038837
     3  C   -0.005997   0.006472   0.364671   0.367212   0.352202  -0.007993
     4  C    0.005115  -0.005458   0.004284  -0.004883   0.000544   0.366545
     5  C   -0.000044   0.001367  -0.000168   0.000359  -0.000157  -0.044896
     6  C    0.000060  -0.000128  -0.000003   0.000010  -0.000014  -0.003351
     7  C    0.000148  -0.000073  -0.000033  -0.000085   0.000853  -0.000143
     8  C   -0.001530   0.000311  -0.000011  -0.000000  -0.000037   0.000063
     9  C   -0.000025   0.000021   0.000001   0.000003  -0.000013  -0.000071
    10  N    0.000964  -0.001713   0.001700   0.002543  -0.010093  -0.002620
    11  O    0.000012  -0.000047   0.000841   0.000388   0.028258   0.006298
    12  H   -0.026655  -0.029000   0.000271   0.001157   0.000119  -0.000035
    13  H    0.551839  -0.029660   0.004360  -0.000022   0.000089  -0.000169
    14  H   -0.029660   0.578191   0.000477  -0.000252  -0.000212  -0.000066
    15  H    0.004360   0.000477   0.581192  -0.030716  -0.021704   0.000098
    16  H   -0.000022  -0.000252  -0.030716   0.565712  -0.020775   0.001940
    17  H    0.000089  -0.000212  -0.021704  -0.020775   0.496511   0.001677
    18  H   -0.000169  -0.000066   0.000098   0.001940   0.001677   0.576261
    19  H   -0.000012   0.000365  -0.000092   0.002066  -0.000108  -0.020471
    20  H    0.000003  -0.000094   0.000003  -0.000014   0.000005  -0.005384
    21  H   -0.000152   0.003223   0.000007  -0.000003   0.000001   0.006216
    22  H   -0.000001  -0.000007   0.000000  -0.000006  -0.000022   0.005369
    23  H   -0.000003   0.000016  -0.000000  -0.000000   0.000000  -0.000038
    24  H    0.002665  -0.000575   0.000003   0.000001  -0.000005  -0.000010
    25  H    0.000005   0.000144   0.000000  -0.000000   0.000000   0.000001
    26  H    0.000029   0.001921   0.000001   0.000000   0.000001   0.000008
    27  H    0.000008  -0.000002   0.000000  -0.000000  -0.000000   0.000000
    28  H   -0.000000  -0.000001  -0.000000  -0.000000  -0.000019  -0.000006
    29  H    0.000000   0.000001  -0.000000  -0.000000  -0.000000  -0.000003
              19         20         21         22         23         24
     1  C   -0.005192   0.000014   0.002547   0.000056   0.000000  -0.000212
     2  C   -0.034324   0.004357  -0.003835  -0.000365   0.000153  -0.001171
     3  C   -0.003055  -0.000151  -0.000057  -0.000034   0.000007  -0.000064
     4  C    0.362552  -0.037058  -0.044270  -0.003178   0.005321   0.000275
     5  C   -0.040049   0.371986   0.367496  -0.044462  -0.039192   0.000078
     6  C    0.005232  -0.036893  -0.044931   0.365634   0.363694   0.004384
     7  C    0.000121   0.004259  -0.003932  -0.039026  -0.037397  -0.029563
     8  C    0.000040   0.000021   0.002943   0.006209  -0.005804   0.362228
     9  C    0.000006  -0.000142  -0.000050  -0.007897  -0.000935   0.001216
    10  N    0.004108   0.000040  -0.000423  -0.002899   0.004090  -0.000125
    11  O    0.000024  -0.000039   0.000010   0.006186   0.000018   0.000051
    12  H    0.003348  -0.000007   0.000017   0.000001  -0.000002   0.000167
    13  H   -0.000012   0.000003  -0.000152  -0.000001  -0.000003   0.002665
    14  H    0.000365  -0.000094   0.003223  -0.000007   0.000016  -0.000575
    15  H   -0.000092   0.000003   0.000007   0.000000  -0.000000   0.000003
    16  H    0.002066  -0.000014  -0.000003  -0.000006  -0.000000   0.000001
    17  H   -0.000108   0.000005   0.000001  -0.000022   0.000000  -0.000005
    18  H   -0.020471  -0.005384   0.006216   0.005369  -0.000038  -0.000010
    19  H    0.592622  -0.002189  -0.005544  -0.000044  -0.000189  -0.000009
    20  H   -0.002189   0.584223  -0.020688  -0.005309  -0.002473   0.000008
    21  H   -0.005544  -0.020688   0.604482   0.006390  -0.005755  -0.000615
    22  H   -0.000044  -0.005309   0.006390   0.577965  -0.020446  -0.000196
    23  H   -0.000189  -0.002473  -0.005755  -0.020446   0.593963   0.000063
    24  H   -0.000009   0.000008  -0.000615  -0.000196   0.000063   0.544236
    25  H   -0.000000   0.000001  -0.000013  -0.000163   0.000486  -0.023037
    26  H   -0.000003  -0.000163   0.004616   0.000179   0.001885  -0.026951
    27  H   -0.000000   0.000003   0.000004   0.000092  -0.000102   0.001009
    28  H    0.000000  -0.000004   0.000003   0.005564  -0.000167  -0.000199
    29  H   -0.000000   0.000001  -0.000007   0.000030   0.001995   0.000220
              25         26         27         28         29
     1  C    0.000201  -0.001668  -0.000016  -0.000005  -0.000005
     2  C   -0.000084   0.000073  -0.000018   0.000165  -0.000039
     3  C    0.000003   0.000002  -0.000001   0.000010   0.000002
     4  C   -0.000017   0.000134   0.000007  -0.000016   0.000001
     5  C    0.000027   0.000587  -0.000161  -0.000024   0.000065
     6  C    0.002164  -0.006943   0.004927  -0.005155  -0.002546
     7  C   -0.030051  -0.034470  -0.028020  -0.027075  -0.028198
     8  C    0.371045   0.362156  -0.004826   0.006086  -0.006356
     9  C   -0.011107   0.004938   0.364751   0.365125   0.357567
    10  N    0.002648   0.001696   0.000426  -0.005498   0.003137
    11  O   -0.000076  -0.000070   0.000086   0.012858   0.000937
    12  H   -0.000005   0.000018   0.000000   0.000000   0.000000
    13  H    0.000005   0.000029   0.000008  -0.000000   0.000000
    14  H    0.000144   0.001921  -0.000002  -0.000001   0.000001
    15  H    0.000000   0.000001   0.000000  -0.000000  -0.000000
    16  H   -0.000000   0.000000  -0.000000  -0.000000  -0.000000
    17  H    0.000000   0.000001  -0.000000  -0.000019  -0.000000
    18  H    0.000001   0.000008   0.000000  -0.000006  -0.000003
    19  H   -0.000000  -0.000003  -0.000000   0.000000  -0.000000
    20  H    0.000001  -0.000163   0.000003  -0.000004   0.000001
    21  H   -0.000013   0.004616   0.000004   0.000003  -0.000007
    22  H   -0.000163   0.000179   0.000092   0.005564   0.000030
    23  H    0.000486   0.001885  -0.000102  -0.000167   0.001995
    24  H   -0.023037  -0.026951   0.001009  -0.000199   0.000220
    25  H    0.551753  -0.028723   0.001873   0.000464   0.002987
    26  H   -0.028723   0.575054   0.000030  -0.000239   0.000008
    27  H    0.001873   0.000030   0.563053  -0.024447  -0.030856
    28  H    0.000464  -0.000239  -0.024447   0.528289  -0.027502
    29  H    0.002987   0.000008  -0.030856  -0.027502   0.590163
          Atomic-Atomic Spin Densities.
               1          2          3          4          5          6
     1  C   -0.003627   0.005917   0.001661   0.000830   0.000066   0.000189
     2  C    0.005917   0.009615   0.002329  -0.013874   0.000976  -0.004931
     3  C    0.001661   0.002329   0.000588  -0.004307   0.000046  -0.000106
     4  C    0.000830  -0.013874  -0.004307   0.054781  -0.003493   0.005137
     5  C    0.000066   0.000976   0.000046  -0.003493  -0.002476  -0.003656
     6  C    0.000189  -0.004931  -0.000106   0.005137  -0.003656   0.055063
     7  C    0.000097   0.009234   0.000202  -0.004380   0.000945  -0.013029
     8  C   -0.000326   0.000821   0.000022  -0.000094   0.000238   0.000506
     9  C    0.000007   0.000332   0.000010  -0.000149   0.000023  -0.005653
    10  N   -0.001818  -0.010629  -0.002523  -0.010301   0.001862  -0.009926
    11  O   -0.000075  -0.004157   0.000694   0.005259   0.000100   0.004939
    12  H    0.000452  -0.000391  -0.000275   0.000449  -0.000027   0.000011
    13  H   -0.001718  -0.001450  -0.000682   0.000516  -0.000031   0.000057
    14  H   -0.000059   0.000673   0.000060  -0.000520   0.000082  -0.000129
    15  H   -0.000657   0.000384  -0.000769   0.000390  -0.000002   0.000004
    16  H    0.000215  -0.000066   0.001019  -0.001037  -0.000005  -0.000006
    17  H    0.000005   0.001018   0.002015  -0.000192  -0.000003  -0.000006
    18  H   -0.000132   0.000853  -0.000244   0.001684   0.000381   0.000168
    19  H   -0.000434   0.001432   0.000426  -0.001157   0.000368  -0.000190
    20  H    0.000015  -0.000228  -0.000003  -0.000570   0.001448  -0.000613
    21  H   -0.000131   0.000593   0.000013  -0.000840   0.000232  -0.000867
    22  H   -0.000005  -0.000124  -0.000008   0.000195   0.000392   0.001697
    23  H   -0.000016   0.000177   0.000001  -0.000217   0.000325  -0.001637
    24  H    0.000043  -0.000832  -0.000029   0.000179  -0.000076   0.000726
    25  H    0.000005  -0.000019  -0.000000   0.000005  -0.000008   0.000226
    26  H    0.000013  -0.000029  -0.000001   0.000017  -0.000040   0.000157
    27  H    0.000002  -0.000059  -0.000002   0.000010  -0.000006   0.000382
    28  H    0.000000  -0.000042  -0.000001   0.000013   0.000003   0.000616
    29  H    0.000000   0.000001   0.000000  -0.000001  -0.000002  -0.000429
               7          8          9         10         11         12
     1  C    0.000097  -0.000326   0.000007  -0.001818  -0.000075   0.000452
     2  C    0.009234   0.000821   0.000332  -0.010629  -0.004157  -0.000391
     3  C    0.000202   0.000022   0.000010  -0.002523   0.000694  -0.000275
     4  C   -0.004380  -0.000094  -0.000149  -0.010301   0.005259   0.000449
     5  C    0.000945   0.000238   0.000023   0.001862   0.000100  -0.000027
     6  C   -0.013029   0.000506  -0.005653  -0.009926   0.004939   0.000011
     7  C    0.003813   0.008648   0.004295  -0.010779  -0.002665  -0.000024
     8  C    0.008648  -0.004015   0.000384  -0.002665  -0.000099   0.000002
     9  C    0.004295   0.000384   0.005208  -0.003251  -0.000079  -0.000000
    10  N   -0.010779  -0.002665  -0.003251   0.538035  -0.120353   0.000072
    11  O   -0.002665  -0.000099  -0.000079  -0.120353   0.698951   0.000004
    12  H   -0.000024   0.000002  -0.000000   0.000072   0.000004  -0.001143
    13  H   -0.000332  -0.000102  -0.000010   0.002584  -0.000070   0.000381
    14  H    0.000210   0.000084   0.000005  -0.000211  -0.000005  -0.000076
    15  H   -0.000021  -0.000001  -0.000000   0.000542  -0.000118   0.000134
    16  H    0.000010   0.000001   0.000000   0.000033  -0.000075  -0.000092
    17  H   -0.000045   0.000004   0.000002  -0.000236  -0.002202   0.000006
    18  H   -0.000095  -0.000009  -0.000004  -0.001464   0.000493   0.000013
    19  H    0.000151  -0.000010   0.000002   0.000135  -0.000098  -0.000127
    20  H   -0.000215   0.000010  -0.000005  -0.000066   0.000024   0.000001
    21  H    0.000573  -0.000006   0.000013   0.000157  -0.000018  -0.000014
    22  H    0.000798  -0.000127  -0.000147  -0.001631   0.000667   0.000000
    23  H    0.001712  -0.000504   0.000470   0.000182  -0.000106  -0.000000
    24  H   -0.002104  -0.002344  -0.000432   0.003457  -0.000063   0.000011
    25  H   -0.000400   0.000267  -0.000133   0.000114   0.000001   0.000000
    26  H   -0.000267   0.000392  -0.000016   0.000020   0.000002  -0.000001
    27  H    0.000031  -0.000074  -0.003045   0.001325  -0.000600   0.000000
    28  H    0.000083  -0.000109  -0.000124   0.000082  -0.000795   0.000000
    29  H    0.000360   0.000083   0.001717  -0.000047  -0.000050  -0.000000
              13         14         15         16         17         18
     1  C   -0.001718  -0.000059  -0.000657   0.000215   0.000005  -0.000132
     2  C   -0.001450   0.000673   0.000384  -0.000066   0.001018   0.000853
     3  C   -0.000682   0.000060  -0.000769   0.001019   0.002015  -0.000244
     4  C    0.000516  -0.000520   0.000390  -0.001037  -0.000192   0.001684
     5  C   -0.000031   0.000082  -0.000002  -0.000005  -0.000003   0.000381
     6  C    0.000057  -0.000129   0.000004  -0.000006  -0.000006   0.000168
     7  C   -0.000332   0.000210  -0.000021   0.000010  -0.000045  -0.000095
     8  C   -0.000102   0.000084  -0.000001   0.000001   0.000004  -0.000009
     9  C   -0.000010   0.000005  -0.000000   0.000000   0.000002  -0.000004
    10  N    0.002584  -0.000211   0.000542   0.000033  -0.000236  -0.001464
    11  O   -0.000070  -0.000005  -0.000118  -0.000075  -0.002202   0.000493
    12  H    0.000381  -0.000076   0.000134  -0.000092   0.000006   0.000013
    13  H    0.001626  -0.000218   0.000292  -0.000034  -0.000024   0.000008
    14  H   -0.000218   0.000045  -0.000012   0.000005   0.000001  -0.000006
    15  H    0.000292  -0.000012   0.000968  -0.000432  -0.000293   0.000014
    16  H   -0.000034   0.000005  -0.000432   0.000315  -0.000045  -0.000089
    17  H   -0.000024   0.000001  -0.000293  -0.000045  -0.001803   0.000003
[...]
 58,-0.00043386,-0.00063680,0.00009992,0.00018115,0.00009469,-0.0051545
 3,-0.00354214,0.00121504,0.01496658,-0.01664818,0.01189984,0.09458594,
 -0.16488081,0.08837660,-0.00804574,0.00989720,-0.00785254,-0.00029976,
 0.00056682,-0.00069413,0.00027750,0.00039943,0.00006637,-0.00172568,-0
 .00181214,-0.00183185,-0.00071953,0.00095159,-0.00139761,0.00003552,0.
 00002183,-0.00008768,-0.00003058,0.00001940,0.00010333,-0.00001102,-0.
 00003149,-0.00002625,0.00008169,-0.00005842,0.00007171,-0.00004790,0.0
 0007360,-0.00005397,-0.00002085,-0.00001194,-0.00000746,-0.00032457,0.
 00045793,-0.00023142,0.00097468,-0.00112799,0.00124776,0.00038849,0.00
 050241,-0.00068290,-0.00020948,0.00112758,-0.00001158,0.00615958,-0.00
 787773,0.00554745,-0.10050518,0.18164794,-0.00009128,0.00016147,0.0000
 3579,-0.00004004,-0.00078607,0.00045423,0.00012761,0.00006631,-0.00008
 161,0.00220296,0.00117057,0.00029596,-0.00495805,0.00644151,-0.0054539
 2,-0.06978203,0.08668150,-0.11542405,-0.01399565,0.01863394,-0.0151041
 0,-0.00001837,0.00134008,0.00074006,0.00083456,0.00049815,0.00007161,-
 0.00162265,-0.00450630,-0.00123624,-0.00146727,0.00079530,-0.00241066,
 0.00006929,0.00000594,-0.00004661,-0.00003861,-0.00001970,0.00001523,0
 .00005855,0.00000105,0.00001379,-0.00001206,-0.00005130,0.00004579,-0.
 00001258,0.00004801,0.00000544,-0.00002105,-0.00000427,0.00000714,-0.0
 0029383,0.00017303,0.00012103,-0.00054325,0.00053274,-0.00000157,0.000
 31870,-0.00029747,0.00055670,-0.00020639,-0.00025347,-0.00002542,0.010
 87123,-0.01402794,0.01160252,0.07825123,-0.09510934,0.12519632,-0.0000
 4316,-0.00007437,-0.00002304,-0.00000109,0.00028077,-0.00018144,-0.000
 03205,-0.00003811,0.00005292,0.00003139,-0.00006366,-0.00000640,-0.000
 31952,-0.00005244,0.00030615,-0.00302316,0.00234392,0.00174725,0.00929
 813,0.00797171,0.01807977,-0.10621795,-0.04764663,-0.10250532,0.001278
 08,0.00037398,0.00013492,0.00127868,-0.00100053,0.00011921,-0.00034073
 ,-0.00000990,0.00007207,-0.00004126,0.00004120,0.00009756,0.00018322,-
 0.00005773,0.00007526,-0.00008127,0.00001804,-0.00018182,-0.00000275,0
 .00003631,-0.00003601,-0.00000304,-0.00003723,-0.00000006,-0.00001193,
 0.00001793,0.00000336,0.00005701,-0.00006842,0.00003821,-0.00002609,-0
 .00001590,-0.00004607,0.00015243,0.00002959,-0.00011754,0.00030402,0.0
 0015107,-0.00020215,0.00060096,0.00080929,0.00100138,-0.00016097,-0.00
 009389,0.00003358,0.11332637,0.00000454,0.00023532,-0.00003061,0.00012
 751,-0.00063665,-0.00027252,0.00007251,0.00007887,0.00004625,-0.000050
 34,0.00012675,-0.00020887,0.00002708,0.00038537,-0.00012989,0.00369353
 ,-0.00188797,-0.00129402,-0.00850925,-0.01002632,-0.01734457,-0.046036
 28,-0.08392906,-0.07705244,-0.00065835,0.00016426,0.00109511,-0.002330
 71,0.00070213,-0.00130210,-0.00000500,0.00091595,0.00123410,0.00005998
 ,0.00009950,0.00001735,0.00008777,-0.00019677,0.00025075,-0.00007038,-
 0.00002815,-0.00016160,0.00005044,-0.00006785,0.00005812,0.00000455,0.
 00006010,-0.00001495,-0.00002398,-0.00001183,0.00001092,0.00002606,0.0
 0000100,0.00007723,0.00003933,-0.00002167,0.00007842,0.00001359,-0.000
 08730,0.00002455,0.00014797,0.00011546,0.00002097,-0.00055155,-0.00061
 613,-0.00113360,-0.00008569,0.00022634,0.00002559,0.04882571,0.0887620
 8,-0.00000396,0.00001359,-0.00002242,0.00006929,-0.00016740,-0.0000861
 5,0.00002380,0.00003132,0.00003117,-0.00010348,0.00000269,0.00000895,0
 .00036155,0.00018177,-0.00022377,0.00304260,-0.00132364,-0.00087059,-0
 .00743477,-0.00646569,-0.01420050,-0.09997891,-0.07920098,-0.22728549,
 -0.00116649,-0.00009835,0.00007194,-0.00182804,0.00068678,-0.00061693,
 0.00016247,0.00182089,0.00108847,0.00000067,-0.00000268,-0.00001350,-0
 .00000632,0.00007648,0.00001092,0.00003881,-0.00006777,0.00006754,0.00
 001634,-0.00001031,0.00001989,0.00000138,0.00001579,-0.00000316,-0.000
 00075,-0.00001055,-0.00000809,-0.00003545,0.00004132,-0.00000728,0.000
 02191,-0.00004590,0.00005583,-0.00013268,-0.00006061,0.00008038,-0.000
 20065,-0.00006577,0.00011233,-0.00038153,-0.00084899,-0.00062062,0.000
 24431,0.00005533,0.00047088,0.10890394,0.08806431,0.24559333,-0.000506
 34,-0.00001033,0.00000496,-0.00094649,-0.00055871,0.00028517,0.0002304
 5,0.00030000,-0.00015655,-0.00001581,0.00005247,-0.00012510,-0.0002772
 4,-0.00008915,-0.00001898,0.00011374,-0.00066050,-0.00048346,-0.005615
 25,0.01399644,-0.01307979,-0.06756513,0.05218216,-0.04100416,0.0003033
 6,0.00037737,-0.00079908,-0.00307809,0.00410056,0.00112864,0.00043311,
 0.00036238,0.00026607,0.00022597,-0.00011295,0.00000379,-0.00004182,-0
 .00003040,0.00004972,0.00043722,-0.00003376,0.00003818,0.00000814,-0.0
 0006878,0.00004114,-0.00006258,0.00012878,-0.00004655,0.00004730,-0.00
 004486,0.00000236,0.00001000,-0.00001418,-0.00001322,0.00004367,0.0000
 3914,0.00006638,0.00008457,-0.00007051,-0.00004866,0.00015425,-0.00005
 631,-0.00002790,0.00000794,-0.00016048,0.00005860,0.00042109,-0.000166
 92,0.00017144,-0.00425244,0.01212210,-0.00778570,0.07089504,-0.0003838
 9,-0.00010881,-0.00000750,0.00046656,0.00077111,-0.00000222,-0.0001655
 1,-0.00021258,0.00001339,0.00013502,0.00011818,0.00016212,-0.00034170,
 -0.00008756,-0.00008605,0.00032347,0.00007754,0.00126047,0.00460069,-0
 .01506914,0.01225060,0.05325480,-0.20063427,0.11844942,-0.00113879,0.0
 0051549,0.00118824,0.00253774,-0.00294606,-0.00272475,-0.00025873,0.00
 067308,0.00043182,0.00005910,-0.00006961,0.00009396,0.00006138,0.00001
 179,-0.00003811,0.00020331,-0.00006658,0.00002835,-0.00002361,0.000073
 78,-0.00003860,0.00003499,-0.00010009,0.00004819,0.00002097,0.00000966
 ,-0.00001768,0.00001390,-0.00002455,-0.00004382,-0.00006618,0.00001023
 ,-0.00009657,0.00004000,-0.00004721,-0.00008921,0.00017438,-0.00003247
 ,0.00003570,-0.00021328,0.00038192,-0.00022665,-0.00049692,0.00010040,
 -0.00098257,-0.00302939,0.01133301,-0.00726401,-0.06017079,0.21631464,
 0.00024292,-0.00004576,-0.00000073,0.00025808,0.00007794,-0.00013469,-
 0.00004419,-0.00010834,0.00007540,0.00001921,-0.00002220,0.00008796,0.
 00010467,0.00001170,-0.00002616,-0.00002931,-0.00007219,0.00063833,0.0
 0454217,-0.01286866,0.00817428,-0.04249944,0.11896029,-0.14141969,0.00
 010848,-0.00001642,0.00034875,0.00114860,-0.00288779,-0.00079373,0.000
 29756,0.00078424,0.00101219,-0.00009072,0.00012127,0.00006568,0.000085
 37,-0.00005926,0.00007479,-0.00025123,-0.00002366,-0.00008642,0.000008
 22,0.00002374,-0.00001462,0.00002468,-0.00002994,0.00001769,-0.0000292
 4,0.00001237,0.00001000,-0.00000404,0.00001530,0.00001652,-0.00000703,
 -0.00000124,-0.00003425,-0.00002821,0.00002018,0.00002895,-0.00008423,
 0.00000339,-0.00001829,-0.00000726,0.00025543,0.00017670,-0.00003529,-
 0.00013192,-0.00014699,-0.00522022,0.02120038,-0.01425229,0.04408092,-
 0.13055045,0.15152403,-0.00097742,-0.00019172,0.00007997,-0.00081200,0
 .00008112,0.00019891,0.00015176,0.00014279,-0.00015509,0.00014639,0.00
 012144,-0.00013953,-0.00032634,-0.00022239,0.00019273,-0.00000671,-0.0
 0066143,-0.00094275,-0.01617775,-0.01103055,0.00533593,-0.22960837,-0.
 10662679,0.06114430,-0.00200069,0.00412755,0.00182493,0.00112217,-0.00
 079067,0.00011511,-0.00022715,0.00073102,-0.00052010,0.00043340,-0.000
 32745,0.00004133,-0.00008154,0.00007303,-0.00003922,0.00116602,-0.0000
 9055,0.00012029,-0.00001432,-0.00003447,0.00003083,-0.00002882,0.00006
 907,-0.00001848,0.00008853,-0.00007400,-0.00002056,0.00008192,-0.00013
 166,-0.00003048,0.00001673,0.00005510,0.00002233,0.00028017,0.00001084
 ,-0.00023753,0.00077216,-0.00024377,-0.00048997,0.00002153,0.00001437,
 -0.00003301,0.00007417,0.00008567,0.00015939,-0.01155437,-0.00715500,0
 .00510171,0.00920098,0.00454802,-0.00263924,0.24849752,0.00008294,-0.0
 0089408,0.00035857,0.00015709,-0.00022504,-0.00006585,-0.00001986,-0.0
 0004615,0.00004458,0.00006217,-0.00010653,-0.00005261,0.00010154,-0.00
 063534,-0.00042129,-0.00053566,0.00080595,0.00054494,0.01797861,0.0115
 4035,-0.00543262,-0.10804912,-0.11355451,0.03720461,0.00197817,-0.0023
 7440,-0.00174475,-0.00117876,0.00163613,-0.00016078,-0.00005000,0.0000
 0541,0.00024849,0.00004353,-0.00007930,0.00001788,-0.00015999,0.000144
 99,-0.00005343,0.00011600,-0.00102199,0.00081396,-0.00000210,-0.000003
 17,0.00000080,0.00000322,0.00001113,-0.00000237,-0.00002377,0.00001879
 ,0.00000519,-0.00000493,0.00000915,0.00001423,0.00000435,0.00001147,0.
 00000116,-0.00007819,0.00011437,0.00007092,-0.00019121,-0.00094156,-0.
 00072167,0.00008756,0.00013297,0.00029569,-0.00019448,-0.00005175,0.00
 000912,-0.00848759,-0.00625449,0.00430337,-0.02102979,-0.01189492,0.00
 553433,0.11829437,0.12290053,-0.00008578,0.00038834,-0.00031581,0.0003
 0927,-0.00010424,0.00038798,-0.00000590,-0.00007316,-0.00010616,-0.000
 00858,-0.00004361,0.00026777,0.00058786,-0.00045210,-0.00045594,0.0003
 2595,0.00081762,0.00067462,0.01229540,0.00964598,-0.00592239,0.0613248
 1,0.03621268,-0.07064725,0.00208903,-0.00317909,-0.00136552,-0.0008538
 0,0.00007465,0.00032699,-0.00038850,0.00014704,-0.00013533,-0.00000494
 ,-0.00003620,-0.00006991,-0.00008125,0.00004260,-0.00010529,0.00000623
 ,0.00076654,-0.00002095,-0.00003323,0.00001499,-0.00002057,0.00001221,
 -0.00001522,0.00001988,0.00002995,-0.00000388,-0.00000074,-0.00009838,
 0.00008698,-0.00009417,-0.00001108,0.00002926,-0.00002986,-0.00025072,
 0.00013720,0.00012763,-0.00069382,-0.00081303,0.00009752,-0.00017050,0
 .00015714,0.00014908,-0.00004681,0.00013716,-0.00025172,-0.02215446,-0
 .01350006,0.01018266,0.01677756,0.00906086,-0.00552492,-0.06990268,-0.
 03987575,0.07254365,0.00005864,0.00009639,-0.00001015,0.00003917,-0.00
 029131,-0.00019527,0.00001225,0.00005047,0.00005477,-0.00016266,0.0001
 7115,-0.00004394,-0.00015058,-0.00039280,-0.00174900,-0.00310371,-0.00
 296390,0.00366581,-0.01242983,-0.01232404,-0.01937153,0.00105737,-0.00
 023472,-0.00132092,-0.10560070,-0.06017024,-0.09099740,-0.00061506,0.0
 0050269,-0.00120024,0.00059361,0.00208224,-0.00017667,0.00000971,0.000
 01976,-0.00001676,-0.00000404,-0.00001357,0.00005258,-0.00001386,-0.00
 002709,-0.00001978,0.00004654,-0.00002454,0.00002417,-0.00000082,0.000
 01599,0.00000106,-0.00000020,-0.00000561,0.00000728,0.00002640,-0.0000
 1811,-0.00000259,0.00005682,-0.00005443,0.00006459,-0.00034240,-0.0005
 0166,0.00017149,-0.00003577,0.00006950,0.00004458,0.00023687,-0.000144
 39,-0.00010754,0.00018786,0.00019126,0.00014459,-0.00041653,0.00017013
 ,0.00087330,-0.00018228,0.00007072,-0.00003958,0.00045430,0.00014361,0
 .00013448,0.11397151,0.00002815,0.00025678,0.00002555,0.00008913,-0.00
 048786,0.00000698,0.00009241,0.00008072,0.00000863,0.00001571,0.000263
 80,-0.00022240,-0.00067622,0.00028007,-0.00109496,-0.00218722,-0.00221
 631,0.00226912,-0.00769856,-0.00989766,-0.01419125,0.00125012,0.000352
 08,-0.00018819,-0.05978819,-0.11512912,-0.10121217,-0.00124773,0.00042
 224,-0.00147252,0.00134191,0.00106189,0.00075519,0.00007218,0.00001619
 ,-0.00007358,-0.00005074,-0.00002598,0.00008307,0.00004445,-0.00002295
 ,-0.00001100,0.00003139,-0.00007272,0.00008358,0.00000567,0.00006484,-
 0.00000617,-0.00001558,-0.00002768,-0.00000416,0.00000915,0.00001870,0
 .00002785,0.00005811,0.00000673,0.00011257,-0.00021319,-0.00035659,0.0
 0014951,-0.00011200,-0.00009596,0.00006788,-0.00002917,0.00021535,0.00
 050781,-0.00030927,0.00011703,-0.00013944,-0.00019513,0.00059506,0.000
 30984,0.00005597,-0.00000237,0.00016646,0.00017685,-0.00013466,0.00016
 120,0.06791329,0.12102283,-0.00000776,-0.00011568,0.00000887,-0.000077
 53,0.00028363,0.00005843,-0.00004314,-0.00001921,0.00000851,-0.0000672
 9,-0.00013507,0.00002181,0.00039144,0.00041069,0.00081471,0.00140299,0
 .00121420,-0.00102781,0.00617129,0.00552492,0.01021002,-0.00001787,0.0
 0029068,0.00084532,-0.09327957,-0.10437564,-0.20146081,-0.00100031,-0.
 00076773,0.00011301,0.00086595,0.00236959,-0.00251606,-0.00003652,-0.0
 0001135,0.00004143,0.00001176,0.00001542,-0.00002071,-0.00001271,0.000
 00259,-0.00000124,-0.00000721,0.00001609,-0.00000951,0.00000816,-0.000
 02932,0.00000562,0.00000106,0.00000586,-0.00001159,-0.00001139,0.00001
 615,-0.00001145,-0.00002936,-0.00001006,-0.00001918,0.00013563,0.00025
 874,-0.00004936,-0.00008246,-0.00012365,0.00002645,-0.00006397,0.00032
 607,0.00014354,0.00013852,0.00002800,-0.00003246,0.00021964,0.00000596
 ,0.00004114,-0.00015835,-0.00010670,-0.00007352,-0.00011188,0.00011379
 ,0.00008131,0.09978705,0.11102197,0.21724159,-0.00006781,0.00004462,-0
 .00005366,0.00005810,-0.00003677,0.00009731,-0.00008027,-0.00005087,0.
 00002010,-0.00005625,0.00005679,0.00008941,0.00033958,-0.00035908,-0.0
 0023247,0.00030026,0.00179639,0.00147249,-0.01766583,0.01580614,0.0104
 3076,-0.00377334,-0.00412252,0.00134890,-0.16655259,0.10419365,0.07795
 001,0.00101762,0.00064927,-0.00184495,0.00035544,0.00007820,0.00055746
 ,0.00004742,-0.00003647,0.00000216,-0.00001183,0.00001228,-0.00002050,
 0.00008985,0.00003700,-0.00000359,0.00000012,0.00000891,-0.00001240,0.
 00003212,-0.00001231,-0.00000238,0.00005068,-0.00003403,-0.00001501,0.
 00004034,-0.00007541,-0.00004589,0.00003102,-0.00000700,-0.00002851,-0
 .00002226,-0.00004745,-0.00000996,0.00023301,0.00020816,-0.00010041,0.
 00006980,-0.00090829,-0.00109103,0.00011304,-0.00010167,0.00004031,0.0
 0008737,0.00000241,0.00013565,0.00033858,-0.00034316,-0.00026218,-0.00
 091708,0.00096501,0.00121158,0.01175892,-0.00933157,-0.00618181,0.1813
 8842,-0.00000596,0.00005507,-0.00002456,-0.00017673,-0.00012406,-0.000
 06699,0.00004653,0.00002757,-0.00001144,-0.00001491,0.00001640,-0.0000
 2780,0.00005599,0.00013107,0.00020694,-0.00016084,0.00087122,0.0008027
 2,-0.01332877,0.00990712,0.00854952,-0.00210972,-0.00167960,0.00102017
 ,0.10714892,-0.14432791,-0.07165107,0.00004923,0.00154785,-0.00054884,
 -0.00024636,0.00023457,0.00003296,0.00002563,0.00001244,-0.00001585,-0
 .00000680,-0.00000940,0.00001272,0.00002111,0.00000348,-0.00000380,0.0
 0000891,-0.00001719,0.00000285,-0.00001174,0.00002717,-0.00000612,0.00
 000469,-0.00000549,0.00001207,0.00000368,-0.00000687,-0.00000130,0.000
 01807,0.00000684,0.00000502,0.00004243,0.00004451,-0.00001768,-0.00003
 650,0.00000296,0.00002362,0.00000530,0.00010969,-0.00002421,-0.0000945
 5,-0.00001886,-0.00006062,-0.00004244,-0.00009207,0.00016387,-0.000342
 23,0.00014519,-0.00017995,-0.00079910,0.00076091,0.00049686,0.01114114
 ,-0.00951361,-0.00542207,-0.11405131,0.15410345,0.00001793,-0.00005454
 ,0.00001791,0.00018523,0.00011984,-0.00012973,0.00005850,-0.00002829,-
 0.00007051,0.00005016,-0.00006569,0.00001007,0.00003497,0.00008595,0.0
 0001756,-0.00133872,0.00007361,-0.00003111,0.00817739,-0.00713329,-0.0
 0744918,0.00203027,0.00250107,-0.00057870,0.07800568,-0.07048970,-0.10
 206751,0.00045162,-0.00055544,0.00145239,-0.00097282,0.00013439,-0.000
 42419,-0.00003618,0.00001426,0.00000711,0.00001682,-0.00000909,-0.0000
 1063,-0.00007315,-0.00001186,0.00001325,-0.00000053,0.00001271,-0.0000
 2240,-0.00003958,-0.00001442,0.00002252,-0.00003586,0.00006932,0.00004
 548,-0.00001713,0.00002818,0.00003469,-0.00003234,0.00000807,-0.000012
 22,-0.00000769,0.00005789,-0.00000771,-0.00009580,-0.00002415,0.000018
 38,-0.00028688,-0.00009030,0.00046416,-0.00017635,-0.00005701,0.000053
 46,-0.00023413,0.00013724,0.00036520,-0.00006558,-0.00021605,0.0001925
 2,0.00080886,-0.00068282,-0.00010515,0.01752657,-0.01426667,-0.0097161
 5,-0.08812667,0.07732314,0.10616050,0.00002119,-0.00011186,-0.00001893
 ,0.00070282,-0.00002889,0.00088604,-0.00026134,-0.00019998,0.00007791,
 0.00011593,0.00007995,0.00015994,0.00009498,0.00021958,0.00021736,0.00
 085607,0.00003676,0.00024261,0.00847184,-0.01570196,0.01691448,0.00069
 694,-0.00014147,0.00006720,-0.08199221,0.06165461,-0.06253612,-0.00403
 929,-0.00461820,0.00121376,0.00081166,0.00081977,-0.00065493,-0.000064
 86,0.00000253,0.00004396,-0.00000260,-0.00000096,0.00000369,-0.0000297
 9,0.00000935,0.00000908,-0.00000102,0.00000471,0.00000862,0.00011121,-
 0.00006697,0.00001838,0.00003214,-0.00002709,-0.00003099,-0.00000293,-
 0.00002662,-0.00003245,-0.00002477,0.00001552,-0.00004882,0.00004683,0
 .00008528,-0.00003124,0.00001658,-0.00000605,-0.00000821,-0.00001417,0
 .00012912,-0.00019711,-0.00022110,-0.00010625,-0.00018033,-0.00006931,
 0.00000129,0.00006102,-0.00041193,0.00008692,0.00035051,0.00022483,-0.
 00001270,-0.00031389,-0.00545151,0.01067006,-0.00794438,-0.00720445,0.
 01285634,-0.01582461,0.08758826,-0.00003648,-0.00032198,0.00003380,0.0
 0056970,0.00064512,0.00076907,-0.00019365,-0.00017174,0.00000866,0.000
 22644,0.00012601,0.00010743,-0.00011872,0.00005983,-0.00019458,0.00096
 070,0.00057189,0.00038257,0.00782802,-0.01267262,0.01125357,0.00095175
 ,-0.00000567,-0.00063616,0.06005904,-0.16183951,0.11505546,-0.00385209
 ,-0.00279908,0.00149887,0.00007288,0.00055475,-0.00099776,-0.00010834,
 -0.00002286,0.00009485,0.00002039,0.00001430,-0.00004368,-0.00005187,0
 .00002588,0.00000612,-0.00000698,0.00003861,-0.00002294,0.00004851,-0.
 00008252,0.00004208,0.00000460,0.00003342,-0.00000191,-0.00000921,-0.0
 0000559,-0.00001332,-0.00008945,0.00002858,-0.00008307,-0.00001852,0.0
 0000807,-0.00001874,0.00007283,0.00007178,-0.00002853,0.00013049,-0.00
 025442,-0.00010678,-0.00078986,0.00004450,-0.00034581,0.00001383,0.000
 05506,-0.00013472,-0.00009670,0.00076022,-0.00018925,-0.00015169,0.000
 12573,-0.00028076,-0.00547193,0.01320919,-0.01078788,0.00565908,-0.012
 21244,0.01313365,-0.06562278,0.17401549,-0.00001520,0.00021386,-0.0000
 0585,-0.00052649,-0.00071495,-0.00035595,0.00020277,0.00015821,-0.0000
 5445,-0.00003126,-0.00009458,-0.00005962,0.00023137,0.00001684,0.00002
 631,-0.00080027,-0.00068167,0.00010882,-0.00568841,0.00570392,-0.00776
 699,-0.00076020,0.00043522,-0.00015355,-0.06070860,0.11482837,-0.16741
 261,0.00088021,0.00132885,-0.00108403,0.00081024,0.00160909,-0.0001890
 8,0.00008413,0.00001700,-0.00005727,-0.00003198,-0.00001263,0.00004220
 ,0.00004815,-0.00000680,0.00000609,0.00001324,-0.00004608,0.00003204,-
 0.00004488,0.00008136,-0.00000470,-0.00001171,-0.00001069,0.00001625,-
 0.00000120,-0.00000039,0.00002652,0.00004617,0.00001844,0.00005141,0.0
 0003545,0.00000295,0.00001144,0.00001244,0.00000749,-0.00002682,0.0001
 6225,0.00000377,0.00007040,0.00020652,-0.00009057,0.00052939,0.0000234
 4,0.00009799,0.00001015,0.00083815,-0.00053220,0.00008249,0.00010387,-
 0.00036768,0.00031259,-0.00730094,0.01712531,-0.01471190,0.00467530,-0
 .01059015,0.01174998,0.06754744,-0.12850026,0.17880672\\-0.00000468,-0
 .00000381,0.00000511,-0.00000157,-0.00002975,-0.00000695,0.00000192,0.
 00000814,0.00000182,0.00000569,0.00000838,0.00002211,-0.00001407,-0.00
 000264,-0.00000703,0.00000670,0.00001333,0.00000750,-0.00001614,0.0000
 1589,-0.00001526,0.00000673,0.00000170,-0.00000403,0.00000261,-0.00000
 406,0.00000432,0.00001434,0.00000783,0.00000416,0.00000200,0.00000329,
 -0.00000353,-0.00000047,0.00000031,-0.00000156,-0.00000095,0.00000049,
 -0.00000177,-0.00000029,0.00000222,0.00000207,-0.00000330,-0.00000014,
 -0.00000352,0.00000155,-0.00000162,-0.00000188,-0.00000111,-0.00000496
 ,0.00000291,-0.00000085,-0.00000146,-0.00000247,-0.00000051,-0.0000029
 6,-0.00000127,0.00000345,0.00000018,0.00000154,0.00000608,0.00000029,-
 0.00000200,-0.00000437,-0.00000297,-0.00000061,-0.00000052,-0.00000005
 ,-0.00000116,-0.00000401,-0.00000250,0.00000026,0.00000081,-0.00000293
 ,-0.00000028,0.00000062,-0.00000267,0.00000371,-0.00000082,-0.00000082
 ,0.00000108,-0.00000144,-0.00000045,-0.00000123,0.00000259,0.00000173,
 -0.00000202\\\@


 THE LENGTH OF A MEETING IS PROPORTIONAL TO THE
 SQUARE OF THE PARTICIPANTS.
 Job cpu time:       0 days  0 hours 37 minutes 52.2 seconds.
 Elapsed time:       0 days  0 hours  1 minutes 36.1 seconds.
 File lengths (MBytes):  RWF=    275 Int=      0 D2E=      0 Chk=      6 Scr=      1
 Normal termination of Gaussian 16 at Mon Oct 14 02:24:51 2019.
real 327.30
user 7536.53
sys 36.56
Machine:
brown-a477
brown-a477
brown-a477
brown-a477
brown-a477
brown-a477
brown-a477
brown-a477
brown-a477
brown-a477
brown-a477
brown-a477
brown-a477
brown-a477
brown-a477
brown-a477
brown-a477
brown-a477
brown-a477
brown-a477
brown-a477
brown-a477
brown-a477
brown-a477
