 Entering Gaussian System, Link 0=/apps/cent7/gaussian/g16-A.03/g16-haswell/g16/g16
 Initial command:
 /apps/cent7/gaussian/g16-A.03/g16-haswell/g16/l1.exe "/scratch/brown/finej/gaussian/Gau-251721.inp" -scrdir="/scratch/brown/finej/gaussian/"
 Entering Link 1 = /apps/cent7/gaussian/g16-A.03/g16-haswell/g16/l1.exe PID=    251723.
  
 Copyright (c) 1988,1990,1992,1993,1995,1998,2003,2009,2016,
            Gaussian, Inc.  All Rights Reserved.
  
 This is part of the Gaussian(R) 16 program.  It is based on
 the Gaussian(R) 09 system (copyright 2009, Gaussian, Inc.),
 the Gaussian(R) 03 system (copyright 2003, Gaussian, Inc.),
 the Gaussian(R) 98 system (copyright 1998, Gaussian, Inc.),
 the Gaussian(R) 94 system (copyright 1995, Gaussian, Inc.),
 the Gaussian 92(TM) system (copyright 1992, Gaussian, Inc.),
 the Gaussian 90(TM) system (copyright 1990, Gaussian, Inc.),
 the Gaussian 88(TM) system (copyright 1988, Gaussian, Inc.),
 the Gaussian 86(TM) system (copyright 1986, Carnegie Mellon
 University), and the Gaussian 82(TM) system (copyright 1983,
 Carnegie Mellon University). Gaussian is a federally registered
 trademark of Gaussian, Inc.
  
 This software contains proprietary and confidential information,
 including trade secrets, belonging to Gaussian, Inc.
  
 This software is provided under written license and may be
 used, copied, transmitted, or stored only in accord with that
 written license.
  
 The following legend is applicable only to US Government
 contracts under FAR:
  
                    RESTRICTED RIGHTS LEGEND
  
 Use, reproduction and disclosure by the US Government is
 subject to restrictions as set forth in subparagraphs (a)
 and (c) of the Commercial Computer Software - Restricted
 Rights clause in FAR 52.227-19.
  
 Gaussian, Inc.
 340 Quinnipiac St., Bldg. 40, Wallingford CT 06492
  
  
 ---------------------------------------------------------------
 Warning -- This program may not be used in any manner that
 competes with the business of Gaussian, Inc. or will provide
 assistance to any competitor of Gaussian, Inc.  The licensee
 of this program is prohibited from giving any competitor of
 Gaussian, Inc. access to this program.  By using this program,
 the user acknowledges that Gaussian, Inc. is engaged in the
 business of creating and licensing software in the field of
 computational chemistry and represents and warrants to the
 licensee that it is not a competitor of Gaussian, Inc. and that
 it will not use this program in any manner prohibited above.
 ---------------------------------------------------------------
  

 Cite this work as:
 Gaussian 16, Revision A.03,
 M. J. Frisch, G. W. Trucks, H. B. Schlegel, G. E. Scuseria, 
 M. A. Robb, J. R. Cheeseman, G. Scalmani, V. Barone, 
 G. A. Petersson, H. Nakatsuji, X. Li, M. Caricato, A. V. Marenich, 
 J. Bloino, B. G. Janesko, R. Gomperts, B. Mennucci, H. P. Hratchian, 
 J. V. Ortiz, A. F. Izmaylov, J. L. Sonnenberg, D. Williams-Young, 
 F. Ding, F. Lipparini, F. Egidi, J. Goings, B. Peng, A. Petrone, 
 T. Henderson, D. Ranasinghe, V. G. Zakrzewski, J. Gao, N. Rega, 
 G. Zheng, W. Liang, M. Hada, M. Ehara, K. Toyota, R. Fukuda, 
 J. Hasegawa, M. Ishida, T. Nakajima, Y. Honda, O. Kitao, H. Nakai, 
 T. Vreven, K. Throssell, J. A. Montgomery, Jr., J. E. Peralta, 
 F. Ogliaro, M. J. Bearpark, J. J. Heyd, E. N. Brothers, K. N. Kudin, 
 V. N. Staroverov, T. A. Keith, R. Kobayashi, J. Normand, 
 K. Raghavachari, A. P. Rendell, J. C. Burant, S. S. Iyengar, 
 J. Tomasi, M. Cossi, J. M. Millam, M. Klene, C. Adamo, R. Cammi, 
 J. W. Ochterski, R. L. Martin, K. Morokuma, O. Farkas, 
 J. B. Foresman, and D. J. Fox, Gaussian, Inc., Wallingford CT, 2016.
 
 ******************************************
 Gaussian 16:  ES64L-G16RevA.03 25-Dec-2016
                14-Oct-2019 
 ******************************************
 %chk=6_p.chk
 %nprocshared=24
 Will use up to   24 processors via shared memory.
 %mem=20GB
 --------------------------------------------------------------
 #p opt freq b3lyp/6-31g(d) geom=connectivity temperature=0.001
 --------------------------------------------------------------
 1/18=20,19=15,26=3,38=1,57=2,112=-1000/1,3;
 2/9=110,12=2,17=6,18=5,40=1/2;
 3/5=1,6=6,7=1,11=2,25=1,30=1,71=1,74=-5/1,2,3;
 4//1;
 5/5=2,38=5/2;
 6/7=2,8=2,9=2,10=2,28=1/1;
 7//1,2,3,16;
 1/18=20,19=15,26=3/3(2);
 2/9=110/2;
 99//99;
 2/9=110/2;
 3/5=1,6=6,7=1,11=2,25=1,30=1,71=1,74=-5/1,2,3;
 4/5=5,16=3,69=1/1;
 5/5=2,38=5/2;
 7//1,2,3,16;
 1/18=20,19=15,26=3/3(-5);
 2/9=110/2;
 6/7=2,8=2,9=2,10=2,19=2,28=1/1;
 99/9=1/99;
 Leave Link    1 at Mon Oct 14 02:20:43 2019, MaxMem=  2684354560 cpu:               1.6 elap:               0.1
 (Enter /apps/cent7/gaussian/g16-A.03/g16-haswell/g16/l101.exe)
 -------------------
 Title Card Required
 -------------------
 Symbolic Z-matrix:
 Charge =  1 Multiplicity = 2
 C                    -1.5576   -0.541     2.3284 
 C                    -0.5428   -0.845     1.1705 
 C                     0.4809   -1.8724    1.783 
 C                    -1.2566   -1.5186   -0.0532 
 C                    -2.0789   -0.5317   -0.9217 
 C                    -1.2497    0.7104   -1.34 
 C                    -0.5491    1.436    -0.1393 
 C                    -1.5775    2.2763    0.6984 
 C                     0.4702    2.4915   -0.709 
 N                     0.1776    0.4148    0.7202 
 O                     1.3634    0.0765    0.1262 
 H                    -1.9237   -1.4789    2.7462 
 H                    -1.0576    0.0334    3.1082 
 H                    -2.3962    0.0334    1.9351 
 H                     0.4349   -1.8263    2.8711 
 H                     0.2277   -2.8793    1.451 
 H                     1.4887   -1.623     1.451 
 H                    -0.461    -1.8865   -0.7011 
 H                    -1.9828   -2.2143    0.3671 
 H                    -2.3167   -1.0632   -1.8432 
 H                    -2.8812   -0.1611   -0.2837 
 H                    -0.4474    0.3291   -1.9717 
 H                    -1.9698    1.4221   -1.7439 
 H                    -1.3909    2.1238    1.7614 
 H                    -1.4646    3.3334    0.4577 
 H                    -2.5909    1.955     0.4577 
 H                     0.9638    3.0027    0.1175 
 H                     1.2165    1.9832   -1.3195 
 H                    -0.064     3.2196   -1.3195 
 H                     2.09267   0.38547   0.6687 
 
 ITRead=  0  0  0  0  0  0  0  0  0  0  0  0  0  0  0  0  0  0  0  0
 ITRead=  0  0  0  0  0  0  0  0  0  0
 MicOpt= -1 -1 -1 -1 -1 -1 -1 -1 -1 -1 -1 -1 -1 -1 -1 -1 -1 -1 -1 -1
 MicOpt= -1 -1 -1 -1 -1 -1 -1 -1 -1 -1
 NAtoms=     30 NQM=       30 NQMF=       0 NMMI=      0 NMMIF=      0
                NMic=       0 NMicF=      0.
                    Isotopes and Nuclear Properties:
 (Nuclear quadrupole moments (NQMom) in fm**2, nuclear magnetic moments (NMagM)
  in nuclear magnetons)

  Atom         1           2           3           4           5           6           7           8           9          10
 IAtWgt=          12          12          12          12          12          12          12          12          12          14
 AtmWgt=  12.0000000  12.0000000  12.0000000  12.0000000  12.0000000  12.0000000  12.0000000  12.0000000  12.0000000  14.0030740
 NucSpn=           0           0           0           0           0           0           0           0           0           2
 AtZEff=  -0.0000000  -0.0000000  -0.0000000  -0.0000000  -0.0000000  -0.0000000  -0.0000000  -0.0000000  -0.0000000  -0.0000000
 NQMom=    0.0000000   0.0000000   0.0000000   0.0000000   0.0000000   0.0000000   0.0000000   0.0000000   0.0000000   2.0440000
 NMagM=    0.0000000   0.0000000   0.0000000   0.0000000   0.0000000   0.0000000   0.0000000   0.0000000   0.0000000   0.4037610
 AtZNuc=   6.0000000   6.0000000   6.0000000   6.0000000   6.0000000   6.0000000   6.0000000   6.0000000   6.0000000   7.0000000

  Atom        11          12          13          14          15          16          17          18          19          20
 IAtWgt=          16           1           1           1           1           1           1           1           1           1
 AtmWgt=  15.9949146   1.0078250   1.0078250   1.0078250   1.0078250   1.0078250   1.0078250   1.0078250   1.0078250   1.0078250
 NucSpn=           0           1           1           1           1           1           1           1           1           1
 AtZEff=  -0.0000000  -0.0000000  -0.0000000  -0.0000000  -0.0000000  -0.0000000  -0.0000000  -0.0000000  -0.0000000  -0.0000000
 NQMom=    0.0000000   0.0000000   0.0000000   0.0000000   0.0000000   0.0000000   0.0000000   0.0000000   0.0000000   0.0000000
 NMagM=    0.0000000   2.7928460   2.7928460   2.7928460   2.7928460   2.7928460   2.7928460   2.7928460   2.7928460   2.7928460
 AtZNuc=   8.0000000   1.0000000   1.0000000   1.0000000   1.0000000   1.0000000   1.0000000   1.0000000   1.0000000   1.0000000

  Atom        21          22          23          24          25          26          27          28          29          30
 IAtWgt=           1           1           1           1           1           1           1           1           1           1
 AtmWgt=   1.0078250   1.0078250   1.0078250   1.0078250   1.0078250   1.0078250   1.0078250   1.0078250   1.0078250   1.0078250
 NucSpn=           1           1           1           1           1           1           1           1           1           1
 AtZEff=  -0.0000000  -0.0000000  -0.0000000  -0.0000000  -0.0000000  -0.0000000  -0.0000000  -0.0000000  -0.0000000  -0.0000000
 NQMom=    0.0000000   0.0000000   0.0000000   0.0000000   0.0000000   0.0000000   0.0000000   0.0000000   0.0000000   0.0000000
 NMagM=    2.7928460   2.7928460   2.7928460   2.7928460   2.7928460   2.7928460   2.7928460   2.7928460   2.7928460   2.7928460
 AtZNuc=   1.0000000   1.0000000   1.0000000   1.0000000   1.0000000   1.0000000   1.0000000   1.0000000   1.0000000   1.0000000
 Leave Link  101 at Mon Oct 14 02:20:44 2019, MaxMem=  2684354560 cpu:               8.4 elap:               0.4
 (Enter /apps/cent7/gaussian/g16-A.03/g16-haswell/g16/l103.exe)

 GradGradGradGradGradGradGradGradGradGradGradGradGradGradGradGradGradGrad
 Berny optimization.
 Initialization pass.
                           ----------------------------
                           !    Initial Parameters    !
                           ! (Angstroms and Degrees)  !
 --------------------------                            --------------------------
 ! Name  Definition              Value          Derivative Info.                !
 --------------------------------------------------------------------------------
 ! R1    R(1,2)                  1.5694         estimate D2E/DX2                !
 ! R2    R(1,12)                 1.0901         estimate D2E/DX2                !
 ! R3    R(1,13)                 1.09           estimate D2E/DX2                !
 ! R4    R(1,14)                 1.0899         estimate D2E/DX2                !
 ! R5    R(2,3)                  1.5744         estimate D2E/DX2                !
 ! R6    R(2,4)                  1.5687         estimate D2E/DX2                !
 ! R7    R(2,10)                 1.5195         estimate D2E/DX2                !
 ! R8    R(3,15)                 1.09           estimate D2E/DX2                !
 ! R9    R(3,16)                 1.09           estimate D2E/DX2                !
 ! R10   R(3,17)                 1.09           estimate D2E/DX2                !
 ! R11   R(4,5)                  1.5506         estimate D2E/DX2                !
 ! R12   R(4,18)                 1.09           estimate D2E/DX2                !
 ! R13   R(4,19)                 1.09           estimate D2E/DX2                !
 ! R14   R(5,6)                  1.5509         estimate D2E/DX2                !
 ! R15   R(5,20)                 1.09           estimate D2E/DX2                !
 ! R16   R(5,21)                 1.09           estimate D2E/DX2                !
 ! R17   R(6,7)                  1.5681         estimate D2E/DX2                !
 ! R18   R(6,22)                 1.09           estimate D2E/DX2                !
 ! R19   R(6,23)                 1.09           estimate D2E/DX2                !
 ! R20   R(7,8)                  1.5702         estimate D2E/DX2                !
 ! R21   R(7,9)                  1.574          estimate D2E/DX2                !
 ! R22   R(7,10)                 1.5198         estimate D2E/DX2                !
 ! R23   R(8,24)                 1.09           estimate D2E/DX2                !
 ! R24   R(8,25)                 1.09           estimate D2E/DX2                !
 ! R25   R(8,26)                 1.09           estimate D2E/DX2                !
 ! R26   R(9,27)                 1.09           estimate D2E/DX2                !
 ! R27   R(9,28)                 1.09           estimate D2E/DX2                !
 ! R28   R(9,29)                 1.0901         estimate D2E/DX2                !
 ! R29   R(10,11)                1.3687         estimate D2E/DX2                !
 ! R30   R(11,30)                0.96           estimate D2E/DX2                !
 ! A1    A(2,1,12)             109.4685         estimate D2E/DX2                !
 ! A2    A(2,1,13)             109.4697         estimate D2E/DX2                !
 ! A3    A(2,1,14)             109.4738         estimate D2E/DX2                !
 ! A4    A(12,1,13)            109.4679         estimate D2E/DX2                !
 ! A5    A(12,1,14)            109.4723         estimate D2E/DX2                !
 ! A6    A(13,1,14)            109.4752         estimate D2E/DX2                !
 ! A7    A(1,2,3)              105.0594         estimate D2E/DX2                !
 ! A8    A(1,2,4)              111.3767         estimate D2E/DX2                !
 ! A9    A(1,2,10)             111.3839         estimate D2E/DX2                !
 ! A10   A(3,2,4)              108.6111         estimate D2E/DX2                !
 ! A11   A(3,2,10)             110.3689         estimate D2E/DX2                !
 ! A12   A(4,2,10)             109.9122         estimate D2E/DX2                !
 ! A13   A(2,3,15)             109.4698         estimate D2E/DX2                !
 ! A14   A(2,3,16)             109.4675         estimate D2E/DX2                !
 ! A15   A(2,3,17)             109.4741         estimate D2E/DX2                !
 ! A16   A(15,3,16)            109.469          estimate D2E/DX2                !
 ! A17   A(15,3,17)            109.4744         estimate D2E/DX2                !
 ! A18   A(16,3,17)            109.4726         estimate D2E/DX2                !
 ! A19   A(2,4,5)              113.8871         estimate D2E/DX2                !
 ! A20   A(2,4,18)             106.0508         estimate D2E/DX2                !
 ! A21   A(2,4,19)             106.0483         estimate D2E/DX2                !
 ! A22   A(5,4,18)             105.6027         estimate D2E/DX2                !
 ! A23   A(5,4,19)             105.5984         estimate D2E/DX2                !
 ! A24   A(18,4,19)            120.0055         estimate D2E/DX2                !
 ! A25   A(4,5,6)              112.164          estimate D2E/DX2                !
 ! A26   A(4,5,20)             106.1916         estimate D2E/DX2                !
 ! A27   A(4,5,21)             106.1941         estimate D2E/DX2                !
 ! A28   A(6,5,20)             106.2085         estimate D2E/DX2                !
 ! A29   A(6,5,21)             106.2067         estimate D2E/DX2                !
 ! A30   A(20,5,21)            120.0019         estimate D2E/DX2                !
 ! A31   A(5,6,7)              113.7617         estimate D2E/DX2                !
 ! A32   A(5,6,22)             105.6451         estimate D2E/DX2                !
 ! A33   A(5,6,23)             105.6429         estimate D2E/DX2                !
 ! A34   A(7,6,22)             106.0671         estimate D2E/DX2                !
 ! A35   A(7,6,23)             106.0663         estimate D2E/DX2                !
 ! A36   A(22,6,23)            119.9936         estimate D2E/DX2                !
 ! A37   A(6,7,8)              111.316          estimate D2E/DX2                !
 ! A38   A(6,7,9)              108.8124         estimate D2E/DX2                !
 ! A39   A(6,7,10)             109.618          estimate D2E/DX2                !
 ! A40   A(8,7,9)              104.9729         estimate D2E/DX2                !
 ! A41   A(8,7,10)             111.7808         estimate D2E/DX2                !
 ! A42   A(9,7,10)             110.2203         estimate D2E/DX2                !
 ! A43   A(7,8,24)             109.4693         estimate D2E/DX2                !
 ! A44   A(7,8,25)             109.4724         estimate D2E/DX2                !
 ! A45   A(7,8,26)             109.4729         estimate D2E/DX2                !
 ! A46   A(24,8,25)            109.4699         estimate D2E/DX2                !
 ! A47   A(24,8,26)            109.4678         estimate D2E/DX2                !
 ! A48   A(25,8,26)            109.475          estimate D2E/DX2                !
 ! A49   A(7,9,27)             109.4693         estimate D2E/DX2                !
 ! A50   A(7,9,28)             109.475          estimate D2E/DX2                !
 ! A51   A(7,9,29)             109.4667         estimate D2E/DX2                !
 ! A52   A(27,9,28)            109.4727         estimate D2E/DX2                !
 ! A53   A(27,9,29)            109.4716         estimate D2E/DX2                !
 ! A54   A(28,9,29)            109.472          estimate D2E/DX2                !
 ! A55   A(2,10,7)             119.8681         estimate D2E/DX2                !
 ! A56   A(2,10,11)            109.538          estimate D2E/DX2                !
 ! A57   A(7,10,11)            109.5668         estimate D2E/DX2                !
 ! A58   A(10,11,30)           109.4712         estimate D2E/DX2                !
 ! D1    D(12,1,2,3)           -50.5249         estimate D2E/DX2                !
 ! D2    D(12,1,2,4)            66.8769         estimate D2E/DX2                !
 ! D3    D(12,1,2,10)         -170.0265         estimate D2E/DX2                !
 ! D4    D(13,1,2,3)            69.4684         estimate D2E/DX2                !
 ! D5    D(13,1,2,4)          -173.1298         estimate D2E/DX2                !
 ! D6    D(13,1,2,10)          -50.0332         estimate D2E/DX2                !
 ! D7    D(14,1,2,3)          -170.5261         estimate D2E/DX2                !
 ! D8    D(14,1,2,4)           -53.1243         estimate D2E/DX2                !
 ! D9    D(14,1,2,10)           69.9723         estimate D2E/DX2                !
 ! D10   D(1,2,3,15)           -19.4338         estimate D2E/DX2                !
 ! D11   D(1,2,3,16)           100.5603         estimate D2E/DX2                !
 ! D12   D(1,2,3,17)          -139.4385         estimate D2E/DX2                !
 ! D13   D(4,2,3,15)          -138.7019         estimate D2E/DX2                !
 ! D14   D(4,2,3,16)           -18.7078         estimate D2E/DX2                !
 ! D15   D(4,2,3,17)           101.2934         estimate D2E/DX2                !
 ! D16   D(10,2,3,15)          100.7427         estimate D2E/DX2                !
 ! D17   D(10,2,3,16)         -139.2632         estimate D2E/DX2                !
 ! D18   D(10,2,3,17)          -19.2621         estimate D2E/DX2                !
 ! D19   D(1,2,4,5)             76.3767         estimate D2E/DX2                !
 ! D20   D(1,2,4,18)          -167.9328         estimate D2E/DX2                !
 ! D21   D(1,2,4,19)           -39.307          estimate D2E/DX2                !
 ! D22   D(3,2,4,5)           -168.395          estimate D2E/DX2                !
 ! D23   D(3,2,4,18)           -52.7045         estimate D2E/DX2                !
 ! D24   D(3,2,4,19)            75.9213         estimate D2E/DX2                !
 ! D25   D(10,2,4,5)           -47.5574         estimate D2E/DX2                !
 ! D26   D(10,2,4,18)           68.1331         estimate D2E/DX2                !
 ! D27   D(10,2,4,19)         -163.2411         estimate D2E/DX2                !
 ! D28   D(1,2,10,7)           -75.3905         estimate D2E/DX2                !
 ! D29   D(1,2,10,11)          156.7597         estimate D2E/DX2                !
 ! D30   D(3,2,10,7)           168.3126         estimate D2E/DX2                !
 ! D31   D(3,2,10,11)           40.4627         estimate D2E/DX2                !
 ! D32   D(4,2,10,7)            48.5395         estimate D2E/DX2                !
 ! D33   D(4,2,10,11)          -79.3104         estimate D2E/DX2                !
 ! D34   D(2,4,5,6)             51.2901         estimate D2E/DX2                !
 ! D35   D(2,4,5,20)           166.8934         estimate D2E/DX2                !
 ! D36   D(2,4,5,21)           -64.3126         estimate D2E/DX2                !
 ! D37   D(18,4,5,6)           -64.6629         estimate D2E/DX2                !
 ! D38   D(18,4,5,20)           50.9404         estimate D2E/DX2                !
 ! D39   D(18,4,5,21)          179.7344         estimate D2E/DX2                !
 ! D40   D(19,4,5,6)           167.2374         estimate D2E/DX2                !
 ! D41   D(19,4,5,20)          -77.1593         estimate D2E/DX2                !
 ! D42   D(19,4,5,21)           51.6347         estimate D2E/DX2                !
 ! D43   D(4,5,6,7)            -51.8743         estimate D2E/DX2                !
 ! D44   D(4,5,6,22)            64.0592         estimate D2E/DX2                !
 ! D45   D(4,5,6,23)          -167.8054         estimate D2E/DX2                !
 ! D46   D(20,5,6,7)          -167.4673         estimate D2E/DX2                !
 ! D47   D(20,5,6,22)          -51.5339         estimate D2E/DX2                !
 ! D48   D(20,5,6,23)           76.6015         estimate D2E/DX2                !
 ! D49   D(21,5,6,7)            63.7208         estimate D2E/DX2                !
 ! D50   D(21,5,6,22)          179.6542         estimate D2E/DX2                !
 ! D51   D(21,5,6,23)          -52.2104         estimate D2E/DX2                !
 ! D52   D(5,6,7,8)            -75.607          estimate D2E/DX2                !
 ! D53   D(5,6,7,9)            169.1842         estimate D2E/DX2                !
 ! D54   D(5,6,7,10)            48.5826         estimate D2E/DX2                !
 ! D55   D(22,6,7,8)           168.7074         estimate D2E/DX2                !
 ! D56   D(22,6,7,9)            53.4987         estimate D2E/DX2                !
 ! D57   D(22,6,7,10)          -67.1029         estimate D2E/DX2                !
 ! D58   D(23,6,7,8)            40.0755         estimate D2E/DX2                !
 ! D59   D(23,6,7,9)           -75.1333         estimate D2E/DX2                !
 ! D60   D(23,6,7,10)          164.2651         estimate D2E/DX2                !
 ! D61   D(6,7,8,24)           136.5207         estimate D2E/DX2                !
 ! D62   D(6,7,8,25)          -103.4815         estimate D2E/DX2                !
 ! D63   D(6,7,8,26)            16.5249         estimate D2E/DX2                !
 ! D64   D(9,7,8,24)          -105.9195         estimate D2E/DX2                !
 ! D65   D(9,7,8,25)            14.0784         estimate D2E/DX2                !
 ! D66   D(9,7,8,26)           134.0848         estimate D2E/DX2                !
 ! D67   D(10,7,8,24)           13.5624         estimate D2E/DX2                !
 ! D68   D(10,7,8,25)          133.5602         estimate D2E/DX2                !
 ! D69   D(10,7,8,26)         -106.4334         estimate D2E/DX2                !
 ! D70   D(6,7,9,27)          -179.9995         estimate D2E/DX2                !
 ! D71   D(6,7,9,28)           -59.9966         estimate D2E/DX2                !
 ! D72   D(6,7,9,29)            60.0039         estimate D2E/DX2                !
 ! D73   D(8,7,9,27)            60.7497         estimate D2E/DX2                !
 ! D74   D(8,7,9,28)          -179.2474         estimate D2E/DX2                !
 ! D75   D(8,7,9,29)           -59.2469         estimate D2E/DX2                !
 ! D76   D(10,7,9,27)          -59.7698         estimate D2E/DX2                !
 ! D77   D(10,7,9,28)           60.2332         estimate D2E/DX2                !
 ! D78   D(10,7,9,29)         -179.7663         estimate D2E/DX2                !
 ! D79   D(6,7,10,2)           -49.0134         estimate D2E/DX2                !
 ! D80   D(6,7,10,11)           78.8233         estimate D2E/DX2                !
 ! D81   D(8,7,10,2)            74.9047         estimate D2E/DX2                !
 ! D82   D(8,7,10,11)         -157.2586         estimate D2E/DX2                !
 ! D83   D(9,7,10,2)          -168.7567         estimate D2E/DX2                !
 ! D84   D(9,7,10,11)          -40.92           estimate D2E/DX2                !
 ! D85   D(2,10,11,30)        -113.0614         estimate D2E/DX2                !
 ! D86   D(7,10,11,30)         113.5495         estimate D2E/DX2                !
 --------------------------------------------------------------------------------
 Trust Radius=3.00D-01 FncErr=1.00D-07 GrdErr=1.00D-06 EigMax=2.50D+02 EigMin=1.00D-04
 Number of steps in this run=    180 maximum allowed number of steps=    180.
 GradGradGradGradGradGradGradGradGradGradGradGradGradGradGradGradGradGrad

 Leave Link  103 at Mon Oct 14 02:20:44 2019, MaxMem=  2684354560 cpu:               1.0 elap:               0.1
 (Enter /apps/cent7/gaussian/g16-A.03/g16-haswell/g16/l202.exe)
                          Input orientation:                          
 ---------------------------------------------------------------------
 Center     Atomic      Atomic             Coordinates (Angstroms)
 Number     Number       Type             X           Y           Z
 ---------------------------------------------------------------------
      1          6           0       -1.557600   -0.541000    2.328400
      2          6           0       -0.542800   -0.845000    1.170500
      3          6           0        0.480900   -1.872400    1.783000
      4          6           0       -1.256600   -1.518600   -0.053200
      5          6           0       -2.078900   -0.531700   -0.921700
      6          6           0       -1.249700    0.710400   -1.340000
      7          6           0       -0.549100    1.436000   -0.139300
      8          6           0       -1.577500    2.276300    0.698400
      9          6           0        0.470200    2.491500   -0.709000
     10          7           0        0.177600    0.414800    0.720200
     11          8           0        1.363400    0.076500    0.126200
     12          1           0       -1.923700   -1.478900    2.746200
     13          1           0       -1.057600    0.033400    3.108200
     14          1           0       -2.396200    0.033400    1.935100
     15          1           0        0.434900   -1.826300    2.871100
     16          1           0        0.227700   -2.879300    1.451000
     17          1           0        1.488700   -1.623000    1.451000
     18          1           0       -0.461000   -1.886500   -0.701100
     19          1           0       -1.982800   -2.214300    0.367100
     20          1           0       -2.316700   -1.063200   -1.843200
     21          1           0       -2.881200   -0.161100   -0.283700
     22          1           0       -0.447400    0.329100   -1.971700
     23          1           0       -1.969800    1.422100   -1.743900
     24          1           0       -1.390900    2.123800    1.761400
     25          1           0       -1.464600    3.333400    0.457700
     26          1           0       -2.590900    1.955000    0.457700
     27          1           0        0.963800    3.002700    0.117500
     28          1           0        1.216500    1.983200   -1.319500
     29          1           0       -0.064000    3.219600   -1.319500
     30          1           0        2.092665    0.385471    0.668703
 ---------------------------------------------------------------------
                    Distance matrix (angstroms):
                    1          2          3          4          5
     1  C    0.000000
     2  C    1.569384   0.000000
     3  C    2.495109   1.574379   0.000000
     4  C    2.591972   1.568658   2.552589   0.000000
     5  C    3.291655   2.614395   3.957961   1.550626   0.000000
     6  C    3.888182   3.036707   4.406695   2.573780   1.550922
     7  C    3.318907   2.630319   3.962530   3.039347   2.612332
     8  C    3.254916   3.322047   4.756583   3.881900   3.280395
     9  C    4.746981   3.961177   5.025316   4.415067   3.960163
    10  N    2.551623   1.519488   2.540240   2.528461   2.946776
    11  O    3.709883   2.360789   2.705920   3.072609   3.649306
    12  H    1.090065   2.188960   2.620057   2.878062   3.791407
    13  H    1.089965   2.188901   2.784818   3.527429   4.195532
    14  H    1.089895   2.188902   3.454405   2.767802   2.929390
    15  H    2.432401   2.193374   1.090047   3.392253   4.730805
    16  H    3.069979   2.193337   1.090038   2.513418   4.057257
    17  H    3.349701   2.193389   1.089993   3.132122   4.421358
    18  H    3.491529   2.143432   2.656714   1.090002   2.121732
    19  H    2.612934   2.143370   2.862077   1.089962   2.121646
    20  H    4.272139   3.503815   4.650881   2.129625   1.090047
    21  H    2.952847   2.837346   4.301571   2.129615   1.089988
    22  H    4.525536   3.355746   4.450406   2.783782   2.122562
    23  H    4.539526   3.958510   5.412826   3.466243   2.122557
    24  H    2.729549   3.143598   4.412903   4.071595   3.837193
    25  H    4.303387   4.337837   5.713295   4.883256   4.149591
    26  H    3.285916   3.541581   5.083440   3.755965   2.889388
    27  H    4.878867   4.264205   5.174329   5.039987   4.778069
    28  H    5.232054   4.158600   5.003225   4.470161   4.164448
    29  H    5.447947   4.790649   5.987561   5.047410   4.276718
    30  H    4.115505   2.951531   2.989553   3.919720   4.557690
                    6          7          8          9         10
     6  C    0.000000
     7  C    1.568125   0.000000
     8  C    2.591249   1.570176   0.000000
     9  C    2.555100   1.574043   2.494025   0.000000
    10  N    2.523686   1.519764   2.558522   2.537895   0.000000
    11  O    3.062656   2.361437   3.716911   2.706952   1.368724
    12  H    4.684479   4.325769   4.291255   5.782148   3.479402
    13  H    4.503522   3.573810   3.332872   4.790349   2.715461
    14  H    3.535403   3.111623   2.688921   4.609747   2.871567
    15  H    5.196738   4.546797   5.059813   5.609078   3.116906
    16  H    4.781039   4.664149   5.514106   5.793954   3.374563
    17  H    4.553380   4.004892   5.017223   4.757316   2.530945
    18  H    2.788213   3.370814   4.531454   4.475945   2.779188
    19  H    3.464895   3.954317   4.521008   5.414772   3.421136
    20  H    2.130107   3.503382   4.261268   4.657157   3.870018
    21  H    2.130041   2.830242   2.933440   4.295236   3.270433
    22  H    1.090009   2.143189   3.492585   2.666904   2.764832
    23  H    1.090044   2.143204   2.616942   2.858012   3.420200
    24  H    3.411205   2.189602   1.089975   3.114767   2.542631
    25  H    3.187167   2.189675   1.090020   2.411107   3.359160
    26  H    2.565068   2.189684   1.090023   3.319541   3.178949
    27  H    3.504073   2.193026   2.706161   1.089986   2.771026
    28  H    2.775353   2.193090   3.458940   1.089974   2.774810
    29  H    2.775318   2.193040   2.693031   1.090050   3.476442
    30  H    3.913039   2.955572   4.128708   2.994298   1.915982
                   11         12         13         14         15
    11  O    0.000000
    12  H    4.482041   0.000000
    13  H    3.841279   1.779951   0.000000
    14  H    4.172358   1.779941   1.779891   0.000000
    15  H    3.466589   2.387317   2.396301   3.514215   0.000000
    16  H    3.432443   2.875271   3.589168   3.950066   1.780007
    17  H    2.158494   3.652777   3.460291   4.250937   1.780031
    18  H    2.804680   3.766896   4.307286   3.792172   3.683324
    19  H    4.062370   2.490868   3.663575   2.771584   3.502261
    20  H    4.326730   4.624916   5.225345   3.935023   5.511647
    21  H    4.270960   3.440014   3.855948   2.279502   4.870541
    22  H    2.782802   5.263735   5.124955   4.375882   5.373724
    23  H    4.051930   5.345926   5.128691   3.955420   6.134567
    24  H    3.801511   3.772685   2.508930   2.326064   4.490910
    25  H    4.326069   5.348480   4.252152   3.733710   6.004590
    26  H    4.390347   4.180198   3.615066   2.431700   5.410933
    27  H    2.953371   5.944111   4.674087   4.838389   5.584021
    28  H    2.397318   6.194910   5.345819   5.238868   5.717020
    29  H    3.742539   6.485700   5.544695   5.116976   6.578080
    30  H    0.960000   4.891121   3.999909   4.677353   3.534214
                   16         17         18         19         20
    16  H    0.000000
    17  H    1.780003   0.000000
    18  H    2.468095   2.915870   0.000000
    19  H    2.550171   3.684534   1.887956   0.000000
    20  H    4.541359   5.064208   2.329343   2.514348   0.000000
    21  H    4.479180   4.923653   3.001432   2.333730   1.887984
    22  H    4.739669   4.390222   2.554113   3.781048   2.334372
    23  H    5.791238   5.607249   3.782954   4.204747   2.511357
    24  H    5.267563   4.735711   4.796991   4.594946   4.899716
    25  H    6.515226   5.854445   5.440348   5.572586   5.034909
    26  H    5.683450   5.516508   4.542732   4.214387   3.805109
    27  H    6.076018   4.842607   5.157949   5.996819   5.580105
    28  H    5.683072   4.555704   4.262746   5.540681   4.694499
    29  H    6.705024   5.791142   5.158710   6.004472   4.867370
    30  H    3.840418   2.238463   3.682311   4.843469   5.277386
                   21         22         23         24         25
    21  H    0.000000
    22  H    3.002170   0.000000
    23  H    2.338665   1.887920   0.000000
    24  H    3.409428   4.248197   3.621414   0.000000
    25  H    3.842910   3.995310   2.958942   1.779943   0.000000
    26  H    2.260935   3.624931   2.348785   1.779923   1.780039
    27  H    4.995460   3.674830   3.816951   3.003246   2.474313
    28  H    4.739414   2.435154   3.263044   4.038595   3.488521
    29  H    4.520910   2.987867   2.653902   3.528936   2.265628
    30  H    5.093638   3.664265   4.837239   4.043637   4.624818
                   26         27         28         29         30
    26  H    0.000000
    27  H    3.721465   0.000000
    28  H    4.201848   1.779946   0.000000
    29  H    3.338095   1.779996   1.779990   0.000000
    30  H    4.944060   2.903110   2.696916   4.078780   0.000000
 Stoichiometry    C9H19NO(1+,2)
 Framework group  C1[X(C9H19NO)]
 Deg. of freedom    84
 Full point group                 C1      NOp   1
 Largest Abelian subgroup         C1      NOp   1
 Largest concise Abelian subgroup C1      NOp   1
                         Standard orientation:                         
 ---------------------------------------------------------------------
 Center     Atomic      Atomic             Coordinates (Angstroms)
 Number     Number       Type             X           Y           Z
 ---------------------------------------------------------------------
      1          6           0       -1.623862    0.554568    1.579774
      2          6           0       -1.315003   -0.070936    0.173958
      3          6           0       -2.514238   -1.050586   -0.110280
      4          6           0       -1.288505    1.026340   -0.946743
      5          6           0        0.002263    1.885589   -0.953818
      6          6           0        1.285218    1.014176   -0.958724
      7          6           0        1.315314   -0.072433    0.171494
      8          6           0        1.631014    0.567433    1.570192
      9          6           0        2.511069   -1.058297   -0.103925
     10          7           0       -0.000427   -0.832937    0.183326
     11          8           0       -0.002320   -1.761346   -0.822387
     12          1           0       -2.644149    0.938159    1.590518
     13          1           0       -1.514968   -0.209639    2.349289
     14          1           0       -0.927240    1.369520    1.775838
     15          1           0       -3.015243   -1.293101    0.826941
     16          1           0       -3.221849   -0.571782   -0.787196
     17          1           0       -2.135998   -1.964980   -0.567339
     18          1           0       -1.288016    0.488730   -1.894941
     19          1           0       -2.098755    1.716528   -0.711896
     20          1           0        0.000215    2.429422   -1.898511
     21          1           0        0.009062    2.431730   -0.010548
     22          1           0        1.266003    0.468030   -1.901844
     23          1           0        2.105846    1.698026   -0.741664
     24          1           0        0.969447    0.139266    2.323217
     25          1           0        2.667450    0.362090    1.838106
     26          1           0        1.475237    1.645111    1.520265
     27          1           0        2.541929   -1.818860    0.676242
     28          1           0        2.371311   -1.537280   -1.072989
     29          1           0        3.448075   -0.501318   -0.105659
     30          1           0       -0.006422   -2.643443   -0.443589
 ---------------------------------------------------------------------
 Rotational constants (GHZ):           1.4584689           0.9722104           0.8689302
 Leave Link  202 at Mon Oct 14 02:20:44 2019, MaxMem=  2684354560 cpu:               0.4 elap:               0.0
 (Enter /apps/cent7/gaussian/g16-A.03/g16-haswell/g16/l301.exe)
 Standard basis: 6-31G(d) (6D, 7F)
 Ernie: Thresh=  0.10000D-02 Tol=  0.10000D-05 Strict=F.
 There are   203 symmetry adapted cartesian basis functions of A   symmetry.
 There are   203 symmetry adapted basis functions of A   symmetry.
   203 basis functions,   384 primitive gaussians,   203 cartesian basis functions
    44 alpha electrons       43 beta electrons
       nuclear repulsion energy       725.3839252504 Hartrees.
 IExCor=  402 DFT=T Ex+Corr=B3LYP ExCW=0 ScaHFX=  0.200000
 ScaDFX=  0.800000  0.720000  1.000000  0.810000 ScalE2=  1.000000  1.000000
 IRadAn=      5 IRanWt=     -1 IRanGd=            0 ICorTp=0 IEmpDi=  4
 NAtoms=   30 NActive=   30 NUniq=   30 SFac= 1.00D+00 NAtFMM=   60 NAOKFM=F Big=F
 Integral buffers will be    131072 words long.
 Raffenetti 2 integral format.
 Two-electron integral symmetry is turned on.
 Leave Link  301 at Mon Oct 14 02:20:44 2019, MaxMem=  2684354560 cpu:               1.3 elap:               0.1
 (Enter /apps/cent7/gaussian/g16-A.03/g16-haswell/g16/l302.exe)
 NPDir=0 NMtPBC=     1 NCelOv=     1 NCel=       1 NClECP=     1 NCelD=      1
         NCelK=      1 NCelE2=     1 NClLst=     1 CellRange=     0.0.
 One-electron integrals computed using PRISM.
 One-electron integral symmetry used in STVInt
 NBasis=   203 RedAO= T EigKep=  2.92D-03  NBF=   203
 NBsUse=   203 1.00D-06 EigRej= -1.00D+00 NBFU=   203
 Precomputing XC quadrature grid using
 IXCGrd= 4 IRadAn=           5 IRanWt=          -1 IRanGd=           0 AccXCQ= 0.00D+00.
 Generated NRdTot=       0 NPtTot=           0 NUsed=           0 NTot=          32
 NSgBfM=   203   203   203   203   203 MxSgAt=    30 MxSgA2=    30.
 Leave Link  302 at Mon Oct 14 02:20:44 2019, MaxMem=  2684354560 cpu:               5.3 elap:               0.2
 (Enter /apps/cent7/gaussian/g16-A.03/g16-haswell/g16/l303.exe)
 DipDrv:  MaxL=1.
 Leave Link  303 at Mon Oct 14 02:20:44 2019, MaxMem=  2684354560 cpu:               1.2 elap:               0.1
 (Enter /apps/cent7/gaussian/g16-A.03/g16-haswell/g16/l401.exe)
 ExpMin= 1.61D-01 ExpMax= 5.48D+03 ExpMxC= 8.25D+02 IAcc=3 IRadAn=         5 AccDes= 0.00D+00
 Harris functional with IExCor=  402 and IRadAn=       5 diagonalized for initial guess.
 HarFok:  IExCor=  402 AccDes= 0.00D+00 IRadAn=         5 IDoV= 1 UseB2=F ITyADJ=14
 ICtDFT=  3500011 ScaDFX=  1.000000  1.000000  1.000000  1.000000
 FoFCou: FMM=F IPFlag=           0 FMFlag=      100000 FMFlg1=           0
         NFxFlg=           0 DoJE=T BraDBF=F KetDBF=T FulRan=T
         wScrn=  0.000000 ICntrl=       500 IOpCl=  0 I1Cent=   200000004 NGrid=           0
         NMat0=    1 NMatS0=      1 NMatT0=    0 NMatD0=    1 NMtDS0=    0 NMtDT0=    0
 Petite list used in FoFCou.
 Harris En= -484.093204728181    
 JPrj=0 DoOrth=F DoCkMO=F.
 Initial guess <Sx>= 0.0000 <Sy>= 0.0000 <Sz>= 0.5000 <S**2>= 0.7500 S= 0.5000
 Leave Link  401 at Mon Oct 14 02:20:45 2019, MaxMem=  2684354560 cpu:              12.5 elap:               0.6
 (Enter /apps/cent7/gaussian/g16-A.03/g16-haswell/g16/l502.exe)
 Integral symmetry usage will be decided dynamically.
 UHF open shell SCF:
 Using DIIS extrapolation, IDIIS=  1040.
 NGot=  2684354560 LenX=  2684264665 LenY=  2684223015
 Requested convergence on RMS density matrix=1.00D-08 within 128 cycles.
 Requested convergence on MAX density matrix=1.00D-06.
 Requested convergence on             energy=1.00D-06.
 No special actions if energy rises.
 Fock matrices will be formed incrementally for  20 cycles.
 Integral accuracy reduced to 1.0D-05 until final iterations.

 Cycle   1  Pass 0  IDiag  1:
 FoFJK:  IHMeth= 1 ICntrl=       0 DoSepK=F KAlg= 0 I1Cent=           0 FoldK=F
 IRaf= 960000000 NMat=       1 IRICut=       1 DoRegI=T DoRafI=F ISym2E= 0 IDoP0=0 IntGTp=1.
 FoFCou: FMM=F IPFlag=           0 FMFlag=      100000 FMFlg1=           0
         NFxFlg=           0 DoJE=F BraDBF=F KetDBF=F FulRan=T
         wScrn=  0.000000 ICntrl=         0 IOpCl=  1 I1Cent=           0 NGrid=           0
         NMat0=    1 NMatS0=      1 NMatT0=    0 NMatD0=    1 NMtDS0=    0 NMtDT0=    0
 Symmetry not used in FoFCou.
 E= -483.594363742165    
 DIIS: error= 3.41D-02 at cycle   1 NSaved=   1.
 NSaved= 1 IEnMin= 1 EnMin= -483.594363742165     IErMin= 1 ErrMin= 3.41D-02
 ErrMax= 3.41D-02  0.00D+00 EMaxC= 1.00D-01 BMatC= 1.70D+00 BMatP= 1.70D+00
 IDIUse=3 WtCom= 6.59D-01 WtEn= 3.41D-01
 Coeff-Com:  0.100D+01
 Coeff-En:   0.100D+01
 Coeff:      0.100D+01
 Gap=     0.593 Goal=   None    Shift=    0.000
 Gap=     0.040 Goal=   None    Shift=    0.000
 GapD=    0.040 DampG=0.250 DampE=0.500 DampFc=0.2500 IDamp=-1.
 Damping current iteration by 2.50D-01
 RMSDP=7.44D-03 MaxDP=3.45D-01              OVMax= 5.00D-01

 Cycle   2  Pass 0  IDiag  1:
 RMSU=  1.84D-03    CP:  9.87D-01
 E= -483.735558819947     Delta-E=       -0.141195077782 Rises=F Damp=T
 DIIS: error= 1.59D-02 at cycle   2 NSaved=   2.
 NSaved= 2 IEnMin= 2 EnMin= -483.735558819947     IErMin= 2 ErrMin= 1.59D-02
 ErrMax= 1.59D-02  0.00D+00 EMaxC= 1.00D-01 BMatC= 3.13D-01 BMatP= 1.70D+00
 IDIUse=3 WtCom= 8.41D-01 WtEn= 1.59D-01
 Coeff-Com: -0.469D+00 0.147D+01
 Coeff-En:   0.000D+00 0.100D+01
 Coeff:     -0.395D+00 0.139D+01
 Gap=     0.446 Goal=   None    Shift=    0.000
 Gap=    -0.021 Goal=   None    Shift=    0.000
 RMSDP=2.32D-03 MaxDP=8.98D-02 DE=-1.41D-01 OVMax= 5.47D-01

 Cycle   3  Pass 0  IDiag  1:
 RMSU=  2.26D-03    CP:  9.71D-01  1.20D+00
 E= -483.944609232041     Delta-E=       -0.209050412094 Rises=F Damp=F
 DIIS: error= 1.61D-02 at cycle   3 NSaved=   3.
 NSaved= 3 IEnMin= 3 EnMin= -483.944609232041     IErMin= 2 ErrMin= 1.59D-02
 ErrMax= 1.61D-02  0.00D+00 EMaxC= 1.00D-01 BMatC= 2.83D-01 BMatP= 3.13D-01
 IDIUse=3 WtCom= 8.39D-01 WtEn= 1.61D-01
 Coeff-Com: -0.352D+00 0.923D+00 0.430D+00
 Coeff-En:   0.000D+00 0.000D+00 0.100D+01
 Coeff:     -0.296D+00 0.774D+00 0.521D+00
 Gap=     0.352 Goal=   None    Shift=    0.000
 Gap=     0.100 Goal=   None    Shift=    0.000
 RMSDP=1.68D-03 MaxDP=4.88D-02 DE=-2.09D-01 OVMax= 1.33D-01

 Cycle   4  Pass 0  IDiag  1:
 RMSU=  1.36D-03    CP:  9.76D-01  1.37D+00  5.89D-01
 E= -484.012986463061     Delta-E=       -0.068377231020 Rises=F Damp=F
 DIIS: error= 3.00D-03 at cycle   4 NSaved=   4.
 NSaved= 4 IEnMin= 4 EnMin= -484.012986463061     IErMin= 4 ErrMin= 3.00D-03
 ErrMax= 3.00D-03  0.00D+00 EMaxC= 1.00D-01 BMatC= 1.70D-02 BMatP= 2.83D-01
 IDIUse=3 WtCom= 9.70D-01 WtEn= 3.00D-02
 Coeff-Com: -0.776D-01 0.161D+00 0.214D+00 0.703D+00
 Coeff-En:   0.000D+00 0.000D+00 0.000D+00 0.100D+01
 Coeff:     -0.752D-01 0.156D+00 0.207D+00 0.711D+00
 Gap=     0.323 Goal=   None    Shift=    0.000
 Gap=     0.118 Goal=   None    Shift=    0.000
 RMSDP=3.48D-04 MaxDP=1.37D-02 DE=-6.84D-02 OVMax= 2.13D-02

 Cycle   5  Pass 0  IDiag  1:
 RMSU=  2.28D-04    CP:  9.75D-01  1.35D+00  6.57D-01  8.46D-01
 E= -484.016587631855     Delta-E=       -0.003601168794 Rises=F Damp=F
 DIIS: error= 1.40D-03 at cycle   5 NSaved=   5.
 NSaved= 5 IEnMin= 5 EnMin= -484.016587631855     IErMin= 5 ErrMin= 1.40D-03
 ErrMax= 1.40D-03  0.00D+00 EMaxC= 1.00D-01 BMatC= 2.24D-03 BMatP= 1.70D-02
 IDIUse=3 WtCom= 9.86D-01 WtEn= 1.40D-02
 Coeff-Com: -0.355D-01 0.578D-01 0.646D-01 0.327D+00 0.587D+00
 Coeff-En:   0.000D+00 0.000D+00 0.000D+00 0.000D+00 0.100D+01
 Coeff:     -0.350D-01 0.570D-01 0.637D-01 0.322D+00 0.592D+00
 Gap=     0.325 Goal=   None    Shift=    0.000
 Gap=     0.120 Goal=   None    Shift=    0.000
 RMSDP=1.06D-04 MaxDP=4.99D-03 DE=-3.60D-03 OVMax= 5.60D-03

 Cycle   6  Pass 0  IDiag  1:
 RMSU=  8.89D-05    CP:  9.75D-01  1.36D+00  6.54D-01  8.57D-01  7.59D-01
 E= -484.016970379725     Delta-E=       -0.000382747870 Rises=F Damp=F
 DIIS: error= 5.74D-04 at cycle   6 NSaved=   6.
 NSaved= 6 IEnMin= 6 EnMin= -484.016970379725     IErMin= 6 ErrMin= 5.74D-04
 ErrMax= 5.74D-04  0.00D+00 EMaxC= 1.00D-01 BMatC= 3.60D-04 BMatP= 2.24D-03
 IDIUse=3 WtCom= 9.94D-01 WtEn= 5.74D-03
 Coeff-Com: -0.735D-02 0.536D-02-0.932D-02 0.461D-01 0.329D+00 0.637D+00
 Coeff-En:   0.000D+00 0.000D+00 0.000D+00 0.000D+00 0.313D-01 0.969D+00
 Coeff:     -0.731D-02 0.533D-02-0.926D-02 0.458D-01 0.327D+00 0.639D+00
 Gap=     0.324 Goal=   None    Shift=    0.000
 Gap=     0.121 Goal=   None    Shift=    0.000
 RMSDP=4.93D-05 MaxDP=2.48D-03 DE=-3.83D-04 OVMax= 3.30D-03

 Cycle   7  Pass 0  IDiag  1:
 RMSU=  2.96D-05    CP:  9.75D-01  1.37D+00  6.53D-01  8.75D-01  8.48D-01
                    CP:  7.98D-01
 E= -484.017053290000     Delta-E=       -0.000082910276 Rises=F Damp=F
 DIIS: error= 1.49D-04 at cycle   7 NSaved=   7.
 NSaved= 7 IEnMin= 7 EnMin= -484.017053290000     IErMin= 7 ErrMin= 1.49D-04
 ErrMax= 1.49D-04  0.00D+00 EMaxC= 1.00D-01 BMatC= 2.12D-05 BMatP= 3.60D-04
 IDIUse=3 WtCom= 9.99D-01 WtEn= 1.49D-03
 Coeff-Com: -0.130D-03-0.147D-02-0.905D-02-0.190D-01 0.443D-01 0.223D+00
 Coeff-Com:  0.762D+00
 Coeff-En:   0.000D+00 0.000D+00 0.000D+00 0.000D+00 0.000D+00 0.000D+00
 Coeff-En:   0.100D+01
 Coeff:     -0.129D-03-0.147D-02-0.904D-02-0.189D-01 0.442D-01 0.223D+00
 Coeff:      0.763D+00
 Gap=     0.325 Goal=   None    Shift=    0.000
 Gap=     0.121 Goal=   None    Shift=    0.000
 RMSDP=1.71D-05 MaxDP=6.41D-04 DE=-8.29D-05 OVMax= 8.65D-04

 Cycle   8  Pass 0  IDiag  1:
 RMSU=  1.57D-05    CP:  9.75D-01  1.37D+00  6.51D-01  8.77D-01  8.52D-01
                    CP:  8.59D-01  9.78D-01
 E= -484.017057063299     Delta-E=       -0.000003773299 Rises=F Damp=F
 DIIS: error= 8.81D-05 at cycle   8 NSaved=   8.
 NSaved= 8 IEnMin= 8 EnMin= -484.017057063299     IErMin= 8 ErrMin= 8.81D-05
 ErrMax= 8.81D-05  0.00D+00 EMaxC= 1.00D-01 BMatC= 9.21D-06 BMatP= 2.12D-05
 IDIUse=1 WtCom= 1.00D+00 WtEn= 0.00D+00
 Coeff-Com:  0.109D-02-0.104D-02-0.237D-02-0.191D-01-0.447D-01-0.363D-02
 Coeff-Com:  0.466D+00 0.604D+00
 Coeff:      0.109D-02-0.104D-02-0.237D-02-0.191D-01-0.447D-01-0.363D-02
 Coeff:      0.466D+00 0.604D+00
 Gap=     0.325 Goal=   None    Shift=    0.000
 Gap=     0.121 Goal=   None    Shift=    0.000
 RMSDP=8.82D-06 MaxDP=3.55D-04 DE=-3.77D-06 OVMax= 5.95D-04

 Initial convergence to 1.0D-05 achieved.  Increase integral accuracy.
 Cycle   9  Pass 1  IDiag  1:
 E= -484.016998992005     Delta-E=        0.000058071295 Rises=F Damp=F
 DIIS: error= 1.67D-05 at cycle   1 NSaved=   1.
 NSaved= 1 IEnMin= 1 EnMin= -484.016998992005     IErMin= 1 ErrMin= 1.67D-05
 ErrMax= 1.67D-05  0.00D+00 EMaxC= 1.00D-01 BMatC= 5.91D-07 BMatP= 5.91D-07
 IDIUse=1 WtCom= 1.00D+00 WtEn= 0.00D+00
 Coeff-Com:  0.100D+01
 Coeff:      0.100D+01
 Gap=     0.325 Goal=   None    Shift=    0.000
 Gap=     0.121 Goal=   None    Shift=    0.000
 RMSDP=8.82D-06 MaxDP=3.55D-04 DE= 5.81D-05 OVMax= 2.13D-04

 Cycle  10  Pass 1  IDiag  1:
 RMSU=  5.47D-06    CP:  1.00D+00
 E= -484.016999090601     Delta-E=       -0.000000098596 Rises=F Damp=F
 DIIS: error= 2.24D-05 at cycle   2 NSaved=   2.
 NSaved= 2 IEnMin= 2 EnMin= -484.016999090601     IErMin= 1 ErrMin= 1.67D-05
 ErrMax= 2.24D-05  0.00D+00 EMaxC= 1.00D-01 BMatC= 4.56D-07 BMatP= 5.91D-07
 IDIUse=1 WtCom= 1.00D+00 WtEn= 0.00D+00
 Coeff-Com:  0.456D+00 0.544D+00
 Coeff:      0.456D+00 0.544D+00
 Gap=     0.325 Goal=   None    Shift=    0.000
 Gap=     0.121 Goal=   None    Shift=    0.000
 RMSDP=2.43D-06 MaxDP=9.09D-05 DE=-9.86D-08 OVMax= 2.36D-04

 Cycle  11  Pass 1  IDiag  1:
 RMSU=  2.24D-06    CP:  1.00D+00  8.27D-01
 E= -484.016999182244     Delta-E=       -0.000000091644 Rises=F Damp=F
 DIIS: error= 1.03D-05 at cycle   3 NSaved=   3.
 NSaved= 3 IEnMin= 3 EnMin= -484.016999182244     IErMin= 3 ErrMin= 1.03D-05
 ErrMax= 1.03D-05  0.00D+00 EMaxC= 1.00D-01 BMatC= 1.28D-07 BMatP= 4.56D-07
 IDIUse=1 WtCom= 1.00D+00 WtEn= 0.00D+00
 Coeff-Com: -0.151D-01 0.333D+00 0.682D+00
 Coeff:     -0.151D-01 0.333D+00 0.682D+00
 Gap=     0.325 Goal=   None    Shift=    0.000
 Gap=     0.121 Goal=   None    Shift=    0.000
 RMSDP=9.42D-07 MaxDP=5.38D-05 DE=-9.16D-08 OVMax= 8.88D-05

 Cycle  12  Pass 1  IDiag  1:
 RMSU=  6.80D-07    CP:  1.00D+00  9.19D-01  8.15D-01
 E= -484.016999214133     Delta-E=       -0.000000031889 Rises=F Damp=F
 DIIS: error= 3.79D-06 at cycle   4 NSaved=   4.
 NSaved= 4 IEnMin= 4 EnMin= -484.016999214133     IErMin= 4 ErrMin= 3.79D-06
 ErrMax= 3.79D-06  0.00D+00 EMaxC= 1.00D-01 BMatC= 1.17D-08 BMatP= 1.28D-07
 IDIUse=1 WtCom= 1.00D+00 WtEn= 0.00D+00
 Coeff-Com: -0.573D-01 0.107D+00 0.309D+00 0.641D+00
 Coeff:     -0.573D-01 0.107D+00 0.309D+00 0.641D+00
 Gap=     0.325 Goal=   None    Shift=    0.000
 Gap=     0.121 Goal=   None    Shift=    0.000
 RMSDP=4.18D-07 MaxDP=1.89D-05 DE=-3.19D-08 OVMax= 2.74D-05

 Cycle  13  Pass 1  IDiag  1:
 RMSU=  3.84D-07    CP:  1.00D+00  9.43D-01  8.46D-01  9.01D-01
 E= -484.016999217305     Delta-E=       -0.000000003171 Rises=F Damp=F
 DIIS: error= 2.44D-06 at cycle   5 NSaved=   5.
 NSaved= 5 IEnMin= 5 EnMin= -484.016999217305     IErMin= 5 ErrMin= 2.44D-06
 ErrMax= 2.44D-06  0.00D+00 EMaxC= 1.00D-01 BMatC= 3.59D-09 BMatP= 1.17D-08
 IDIUse=1 WtCom= 1.00D+00 WtEn= 0.00D+00
 Coeff-Com: -0.267D-01-0.242D-01-0.106D-01 0.355D+00 0.706D+00
 Coeff:     -0.267D-01-0.242D-01-0.106D-01 0.355D+00 0.706D+00
 Gap=     0.325 Goal=   None    Shift=    0.000
 Gap=     0.121 Goal=   None    Shift=    0.000
 RMSDP=2.28D-07 MaxDP=1.36D-05 DE=-3.17D-09 OVMax= 1.68D-05

 Cycle  14  Pass 1  IDiag  1:
 RMSU=  1.73D-07    CP:  1.00D+00  9.54D-01  8.62D-01  1.09D+00  9.41D-01
 E= -484.016999218360     Delta-E=       -0.000000001055 Rises=F Damp=F
 DIIS: error= 1.06D-06 at cycle   6 NSaved=   6.
 NSaved= 6 IEnMin= 6 EnMin= -484.016999218360     IErMin= 6 ErrMin= 1.06D-06
 ErrMax= 1.06D-06  0.00D+00 EMaxC= 1.00D-01 BMatC= 1.02D-09 BMatP= 3.59D-09
 IDIUse=1 WtCom= 1.00D+00 WtEn= 0.00D+00
 Coeff-Com:  0.159D-02-0.489D-01-0.104D+00 0.807D-02 0.437D+00 0.706D+00
 Coeff:      0.159D-02-0.489D-01-0.104D+00 0.807D-02 0.437D+00 0.706D+00
 Gap=     0.325 Goal=   None    Shift=    0.000
 Gap=     0.121 Goal=   None    Shift=    0.000
 RMSDP=1.10D-07 MaxDP=6.76D-06 DE=-1.06D-09 OVMax= 9.95D-06

 Cycle  15  Pass 1  IDiag  1:
 RMSU=  4.73D-08    CP:  1.00D+00  9.57D-01  8.76D-01  1.19D+00  1.09D+00
                    CP:  8.63D-01
 E= -484.016999218625     Delta-E=       -0.000000000265 Rises=F Damp=F
 DIIS: error= 2.29D-07 at cycle   7 NSaved=   7.
 NSaved= 7 IEnMin= 7 EnMin= -484.016999218625     IErMin= 7 ErrMin= 2.29D-07
 ErrMax= 2.29D-07  0.00D+00 EMaxC= 1.00D-01 BMatC= 8.31D-11 BMatP= 1.02D-09
 IDIUse=1 WtCom= 1.00D+00 WtEn= 0.00D+00
 Coeff-Com:  0.244D-02-0.246D-01-0.535D-01-0.222D-01 0.195D+00 0.374D+00
 Coeff-Com:  0.529D+00
 Coeff:      0.244D-02-0.246D-01-0.535D-01-0.222D-01 0.195D+00 0.374D+00
 Coeff:      0.529D+00
 Gap=     0.325 Goal=   None    Shift=    0.000
 Gap=     0.121 Goal=   None    Shift=    0.000
 RMSDP=2.90D-08 MaxDP=1.16D-06 DE=-2.65D-10 OVMax= 1.25D-06

 Cycle  16  Pass 1  IDiag  1:
 RMSU=  1.79D-08    CP:  1.00D+00  9.56D-01  8.79D-01  1.19D+00  1.13D+00
                    CP:  8.32D-01  6.44D-01
 E= -484.016999218646     Delta-E=       -0.000000000021 Rises=F Damp=F
 DIIS: error= 4.52D-08 at cycle   8 NSaved=   8.
 NSaved= 8 IEnMin= 8 EnMin= -484.016999218646     IErMin= 8 ErrMin= 4.52D-08
 ErrMax= 4.52D-08  0.00D+00 EMaxC= 1.00D-01 BMatC= 3.43D-12 BMatP= 8.31D-11
 IDIUse=1 WtCom= 1.00D+00 WtEn= 0.00D+00
 Coeff-Com:  0.533D-03-0.190D-02-0.330D-02-0.865D-02 0.106D-01 0.232D-01
 Coeff-Com:  0.148D+00 0.831D+00
 Coeff:      0.533D-03-0.190D-02-0.330D-02-0.865D-02 0.106D-01 0.232D-01
 Coeff:      0.148D+00 0.831D+00
 Gap=     0.325 Goal=   None    Shift=    0.000
 Gap=     0.121 Goal=   None    Shift=    0.000
 RMSDP=7.54D-09 MaxDP=2.13D-07 DE=-2.09D-11 OVMax= 8.53D-07

 SCF Done:  E(UB3LYP) =  -484.016999219     A.U. after   16 cycles
            NFock= 16  Conv=0.75D-08     -V/T= 2.0098
 <Sx>= 0.0000 <Sy>= 0.0000 <Sz>= 0.5000 <S**2>= 0.7536 S= 0.5018
 <L.S>= 0.000000000000E+00
 KE= 4.792971916764D+02 PE=-2.558220078836D+03 EE= 8.695219626903D+02
 Annihilation of the first spin contaminant:
 S**2 before annihilation     0.7536,   after     0.7500
 Leave Link  502 at Mon Oct 14 02:20:55 2019, MaxMem=  2684354560 cpu:             240.9 elap:              10.1
 (Enter /apps/cent7/gaussian/g16-A.03/g16-haswell/g16/l601.exe)
 Copying SCF densities to generalized density rwf, IOpCl= 1 IROHF=0.

 **********************************************************************

            Population analysis using the SCF density.

 **********************************************************************

 Orbital symmetries:
 Alpha Orbitals:
       Occupied  (A) (A) (A) (A) (A) (A) (A) (A) (A) (A) (A) (A)
                 (A) (A) (A) (A) (A) (A) (A) (A) (A) (A) (A) (A)
                 (A) (A) (A) (A) (A) (A) (A) (A) (A) (A) (A) (A)
                 (A) (A) (A) (A) (A) (A) (A) (A)
       Virtual   (A) (A) (A) (A) (A) (A) (A) (A) (A) (A) (A) (A)
                 (A) (A) (A) (A) (A) (A) (A) (A) (A) (A) (A) (A)
                 (A) (A) (A) (A) (A) (A) (A) (A) (A) (A) (A) (A)
                 (A) (A) (A) (A) (A) (A) (A) (A) (A) (A) (A) (A)
                 (A) (A) (A) (A) (A) (A) (A) (A) (A) (A) (A) (A)
                 (A) (A) (A) (A) (A) (A) (A) (A) (A) (A) (A) (A)
                 (A) (A) (A) (A) (A) (A) (A) (A) (A) (A) (A) (A)
                 (A) (A) (A) (A) (A) (A) (A) (A) (A) (A) (A) (A)
                 (A) (A) (A) (A) (A) (A) (A) (A) (A) (A) (A) (A)
                 (A) (A) (A) (A) (A) (A) (A) (A) (A) (A) (A) (A)
                 (A) (A) (A) (A) (A) (A) (A) (A) (A) (A) (A) (A)
                 (A) (A) (A) (A) (A) (A) (A) (A) (A) (A) (A) (A)
                 (A) (A) (A) (A) (A) (A) (A) (A) (A) (A) (A) (A)
                 (A) (A) (A)
 Beta  Orbitals:
       Occupied  (A) (A) (A) (A) (A) (A) (A) (A) (A) (A) (A) (A)
                 (A) (A) (A) (A) (A) (A) (A) (A) (A) (A) (A) (A)
                 (A) (A) (A) (A) (A) (A) (A) (A) (A) (A) (A) (A)
                 (A) (A) (A) (A) (A) (A) (A)
       Virtual   (A) (A) (A) (A) (A) (A) (A) (A) (A) (A) (A) (A)
                 (A) (A) (A) (A) (A) (A) (A) (A) (A) (A) (A) (A)
                 (A) (A) (A) (A) (A) (A) (A) (A) (A) (A) (A) (A)
                 (A) (A) (A) (A) (A) (A) (A) (A) (A) (A) (A) (A)
                 (A) (A) (A) (A) (A) (A) (A) (A) (A) (A) (A) (A)
                 (A) (A) (A) (A) (A) (A) (A) (A) (A) (A) (A) (A)
                 (A) (A) (A) (A) (A) (A) (A) (A) (A) (A) (A) (A)
                 (A) (A) (A) (A) (A) (A) (A) (A) (A) (A) (A) (A)
                 (A) (A) (A) (A) (A) (A) (A) (A) (A) (A) (A) (A)
                 (A) (A) (A) (A) (A) (A) (A) (A) (A) (A) (A) (A)
                 (A) (A) (A) (A) (A) (A) (A) (A) (A) (A) (A) (A)
                 (A) (A) (A) (A) (A) (A) (A) (A) (A) (A) (A) (A)
                 (A) (A) (A) (A) (A) (A) (A) (A) (A) (A) (A) (A)
                 (A) (A) (A) (A)
 The electronic state is 2-A.
 Alpha  occ. eigenvalues --  -19.40394 -14.66965 -10.41931 -10.41894 -10.35473
 Alpha  occ. eigenvalues --  -10.35442 -10.33805 -10.33757 -10.33590 -10.33173
 Alpha  occ. eigenvalues --  -10.32868  -1.32434  -1.08108  -0.98098  -0.95702
 Alpha  occ. eigenvalues --   -0.90354  -0.84828  -0.84332  -0.83896  -0.77655
 Alpha  occ. eigenvalues --   -0.77371  -0.76491  -0.69354  -0.66152  -0.64968
 Alpha  occ. eigenvalues --   -0.62677  -0.60316  -0.60063  -0.58788  -0.57308
 Alpha  occ. eigenvalues --   -0.56876  -0.56031  -0.55417  -0.54743  -0.53682
 Alpha  occ. eigenvalues --   -0.53209  -0.52607  -0.50888  -0.50153  -0.49651
 Alpha  occ. eigenvalues --   -0.49227  -0.46954  -0.46738  -0.45000
 Alpha virt. eigenvalues --   -0.12515  -0.07895  -0.06277  -0.05063  -0.03462
 Alpha virt. eigenvalues --   -0.02897  -0.02539  -0.01017  -0.00383   0.00035
 Alpha virt. eigenvalues --    0.00468   0.00935   0.01645   0.02407   0.03045
 Alpha virt. eigenvalues --    0.03598   0.03789   0.04610   0.05173   0.05836
 Alpha virt. eigenvalues --    0.06591   0.07000   0.07502   0.08449   0.09202
 Alpha virt. eigenvalues --    0.10778   0.11319   0.12323   0.13590   0.15484
 Alpha virt. eigenvalues --    0.32476   0.34560   0.36067   0.36690   0.37453
 Alpha virt. eigenvalues --    0.38108   0.39913   0.41305   0.42257   0.42458
 Alpha virt. eigenvalues --    0.44492   0.47030   0.47996   0.48726   0.50687
 Alpha virt. eigenvalues --    0.51223   0.54823   0.56157   0.56950   0.58399
 Alpha virt. eigenvalues --    0.60542   0.61114   0.62546   0.64626   0.65531
 Alpha virt. eigenvalues --    0.67217   0.68617   0.70074   0.71180   0.72682
 Alpha virt. eigenvalues --    0.73149   0.74625   0.75436   0.75779   0.76983
 Alpha virt. eigenvalues --    0.77415   0.77553   0.78255   0.78914   0.79476
 Alpha virt. eigenvalues --    0.81581   0.82452   0.82973   0.84091   0.84868
 Alpha virt. eigenvalues --    0.85275   0.86978   0.87957   0.91353   0.95036
 Alpha virt. eigenvalues --    0.97398   0.98113   1.05443   1.08337   1.10835
 Alpha virt. eigenvalues --    1.15406   1.16680   1.21523   1.25482   1.28523
 Alpha virt. eigenvalues --    1.31331   1.34962   1.42271   1.43772   1.46497
 Alpha virt. eigenvalues --    1.48828   1.51333   1.54961   1.57147   1.59304
 Alpha virt. eigenvalues --    1.61333   1.64667   1.66925   1.67831   1.68758
 Alpha virt. eigenvalues --    1.69258   1.74793   1.76603   1.77900   1.80052
 Alpha virt. eigenvalues --    1.85100   1.86374   1.86858   1.88895   1.90161
 Alpha virt. eigenvalues --    1.93251   1.94426   1.97692   1.98466   1.99711
 Alpha virt. eigenvalues --    2.02568   2.05414   2.07108   2.09173   2.11080
 Alpha virt. eigenvalues --    2.11528   2.12804   2.14032   2.16379   2.17595
 Alpha virt. eigenvalues --    2.18594   2.20620   2.22081   2.23321   2.27749
 Alpha virt. eigenvalues --    2.28402   2.33136   2.34846   2.39034   2.47774
 Alpha virt. eigenvalues --    2.48393   2.54432   2.58938   2.63258   2.63770
 Alpha virt. eigenvalues --    2.64517   2.66222   2.79960   3.55441   3.77866
 Alpha virt. eigenvalues --    4.02153   4.03466   4.09401   4.12536   4.14789
 Alpha virt. eigenvalues --    4.25268   4.41116   4.50204   4.58385
  Beta  occ. eigenvalues --  -19.40133 -14.65448 -10.41895 -10.41858 -10.35320
  Beta  occ. eigenvalues --  -10.35290 -10.33810 -10.33727 -10.33562 -10.33164
  Beta  occ. eigenvalues --  -10.32859  -1.31109  -1.06531  -0.97730  -0.94778
  Beta  occ. eigenvalues --   -0.89975  -0.84714  -0.83927  -0.83805  -0.77152
  Beta  occ. eigenvalues --   -0.76867  -0.75159  -0.66258  -0.65804  -0.64564
  Beta  occ. eigenvalues --   -0.62397  -0.59974  -0.59060  -0.58668  -0.57095
  Beta  occ. eigenvalues --   -0.56596  -0.55943  -0.55290  -0.54700  -0.53565
  Beta  occ. eigenvalues --   -0.52993  -0.50836  -0.49682  -0.49506  -0.49317
  Beta  occ. eigenvalues --   -0.48940  -0.46644  -0.46434
  Beta virt. eigenvalues --   -0.34291  -0.11715  -0.07593  -0.05589  -0.04547
  Beta virt. eigenvalues --   -0.03333  -0.02757  -0.02375  -0.00659  -0.00170
  Beta virt. eigenvalues --    0.00293   0.00703   0.01123   0.01874   0.02574
  Beta virt. eigenvalues --    0.03177   0.03744   0.03999   0.04718   0.05334
  Beta virt. eigenvalues --    0.06046   0.06873   0.07259   0.07602   0.08625
  Beta virt. eigenvalues --    0.09391   0.10943   0.11601   0.12579   0.13897
  Beta virt. eigenvalues --    0.15818   0.32689   0.34664   0.36273   0.37070
  Beta virt. eigenvalues --    0.37590   0.39127   0.40131   0.41972   0.42726
  Beta virt. eigenvalues --    0.43014   0.44700   0.47175   0.48371   0.48848
  Beta virt. eigenvalues --    0.51034   0.51605   0.55035   0.56570   0.57152
  Beta virt. eigenvalues --    0.58850   0.60776   0.61366   0.63194   0.64769
  Beta virt. eigenvalues --    0.66382   0.67608   0.68948   0.70262   0.71339
  Beta virt. eigenvalues --    0.72820   0.73381   0.74772   0.75766   0.75980
  Beta virt. eigenvalues --    0.77072   0.77581   0.77731   0.78459   0.79028
  Beta virt. eigenvalues --    0.79671   0.81727   0.82616   0.83268   0.84227
  Beta virt. eigenvalues --    0.85369   0.85443   0.87139   0.88034   0.91533
  Beta virt. eigenvalues --    0.95417   0.97865   0.98451   1.05626   1.08701
  Beta virt. eigenvalues --    1.11115   1.15961   1.17374   1.21920   1.25790
  Beta virt. eigenvalues --    1.29366   1.31826   1.35258   1.42784   1.44241
  Beta virt. eigenvalues --    1.47138   1.49312   1.51797   1.55640   1.57594
  Beta virt. eigenvalues --    1.59582   1.61653   1.65000   1.67314   1.68281
  Beta virt. eigenvalues --    1.69147   1.69652   1.75268   1.76915   1.78382
  Beta virt. eigenvalues --    1.80528   1.85322   1.86755   1.87584   1.89171
  Beta virt. eigenvalues --    1.90684   1.93537   1.94626   1.98021   1.98902
  Beta virt. eigenvalues --    1.99932   2.03049   2.05943   2.07560   2.09828
  Beta virt. eigenvalues --    2.11365   2.11827   2.13034   2.14530   2.16653
  Beta virt. eigenvalues --    2.17948   2.18853   2.20804   2.22241   2.23513
  Beta virt. eigenvalues --    2.28246   2.28842   2.33656   2.35273   2.39732
  Beta virt. eigenvalues --    2.48200   2.48799   2.54971   2.60353   2.63520
  Beta virt. eigenvalues --    2.64314   2.65048   2.67067   2.81059   3.56099
  Beta virt. eigenvalues --    3.79593   4.02306   4.04245   4.09491   4.12594
  Beta virt. eigenvalues --    4.14827   4.25498   4.41439   4.50465   4.58514
          Condensed to atoms (all electrons):
               1          2          3          4          5          6
     1  C    5.153473   0.366043  -0.055483  -0.050432  -0.003990  -0.000459
     2  C    0.366043   4.948542   0.347715   0.341224  -0.032963  -0.013548
     3  C   -0.055483   0.347715   5.200301  -0.047343   0.004490   0.000092
     4  C   -0.050432   0.341224  -0.047343   5.116942   0.348851  -0.041180
     5  C   -0.003990  -0.032963   0.004490   0.348851   5.079752   0.351848
     6  C   -0.000459  -0.013548   0.000092  -0.041180   0.351848   5.109139
     7  C    0.001306  -0.036451   0.002833  -0.014109  -0.030282   0.342177
     8  C   -0.001359  -0.000380  -0.000093  -0.000548  -0.006497  -0.044292
     9  C   -0.000115   0.003128  -0.000137   0.000185   0.003971  -0.053123
    10  N   -0.045886   0.208406  -0.037153  -0.041764  -0.010266  -0.042141
    11  O    0.003153  -0.054478  -0.019929   0.000002  -0.000121  -0.000238
    12  H    0.376149  -0.023277  -0.006813  -0.002799  -0.000054   0.000021
    13  H    0.371419  -0.026602  -0.005490   0.004197  -0.000024   0.000003
    14  H    0.365719  -0.034051   0.005757  -0.004882   0.001675  -0.000170
    15  H   -0.004359  -0.037076   0.374758   0.003295  -0.000139  -0.000006
    16  H    0.000981  -0.030772   0.376607  -0.002357   0.000358   0.000015
    17  H    0.004390  -0.032847   0.357743   0.000502  -0.000170  -0.000039
    18  H    0.004831  -0.039629  -0.006805   0.372739  -0.043096  -0.002934
    19  H   -0.004533  -0.031344  -0.003685   0.375307  -0.034727   0.004637
    20  H    0.000043   0.004076  -0.000117  -0.032387   0.373439  -0.032319
    21  H    0.002723  -0.003547  -0.000069  -0.043828   0.373834  -0.044244
    22  H    0.000044  -0.000070  -0.000035  -0.002805  -0.042994   0.370655
    23  H   -0.000020   0.000208   0.000005   0.004713  -0.034352   0.376801
    24  H    0.001042  -0.001584  -0.000030   0.000120   0.000122   0.003347
    25  H    0.000205  -0.000052   0.000002  -0.000020   0.000047   0.000858
    26  H   -0.001640   0.000368  -0.000003   0.000014   0.000558  -0.004543
    27  H   -0.000006   0.000034   0.000001  -0.000004  -0.000151   0.004283
    28  H    0.000000   0.000006   0.000008  -0.000019   0.000003  -0.004416
    29  H   -0.000002  -0.000045   0.000001   0.000002   0.000075  -0.002264
    30  H   -0.000237   0.002233   0.001417   0.000001  -0.000054   0.000048
               7          8          9         10         11         12
     1  C    0.001306  -0.001359  -0.000115  -0.045886   0.003153   0.376149
     2  C   -0.036451  -0.000380   0.003128   0.208406  -0.054478  -0.023277
     3  C    0.002833  -0.000093  -0.000137  -0.037153  -0.019929  -0.006813
     4  C   -0.014109  -0.000548   0.000185  -0.041764   0.000002  -0.002799
     5  C   -0.030282  -0.006497   0.003971  -0.010266  -0.000121  -0.000054
     6  C    0.342177  -0.044292  -0.053123  -0.042141  -0.000238   0.000021
     7  C    4.965018   0.334061   0.370346   0.204183  -0.059803  -0.000108
     8  C    0.334061   5.191103  -0.057172  -0.040102   0.003350   0.000196
     9  C    0.370346  -0.057172   5.156083  -0.041696  -0.005516   0.000002
    10  N    0.204183  -0.040102  -0.041696   6.815617   0.128711   0.002957
    11  O   -0.059803   0.003350  -0.005516   0.128711   8.154499  -0.000058
    12  H   -0.000108   0.000196   0.000002   0.002957  -0.000058   0.488023
    13  H    0.000071  -0.001069  -0.000009  -0.002709   0.000019  -0.022178
    14  H   -0.000174   0.000773   0.000011  -0.001842  -0.000072  -0.023664
    15  H   -0.000055  -0.000002   0.000002   0.001302   0.000424  -0.000365
    16  H   -0.000074   0.000000   0.000002   0.002393   0.000378   0.000859
    17  H    0.000582  -0.000011  -0.000012  -0.011090   0.017499   0.000179
    18  H   -0.000034   0.000061  -0.000057  -0.004247   0.004184   0.000018
    19  H    0.000206  -0.000009   0.000004   0.003401  -0.000041   0.003044
    20  H    0.003967   0.000055  -0.000112   0.000358  -0.000026  -0.000009
    21  H   -0.003858   0.003326  -0.000066  -0.000554   0.000017   0.000006
    22  H   -0.039633   0.005087  -0.006064  -0.004573   0.003844   0.000000
    23  H   -0.033881  -0.005263  -0.001964   0.003349  -0.000036  -0.000001
    24  H   -0.029244   0.366255   0.001067  -0.004297   0.000098   0.000139
    25  H   -0.031430   0.380118  -0.006980   0.002375  -0.000068  -0.000004
    26  H   -0.036657   0.371652   0.004088   0.001365  -0.000070   0.000014
    27  H   -0.031622  -0.003921   0.369175  -0.001239  -0.000042  -0.000000
    28  H   -0.029303   0.005479   0.367134  -0.006064   0.007137  -0.000000
    29  H   -0.022935  -0.005942   0.375321   0.002784   0.000596   0.000000
    30  H    0.001697  -0.000204   0.001394  -0.019718   0.234767   0.000004
              13         14         15         16         17         18
     1  C    0.371419   0.365719  -0.004359   0.000981   0.004390   0.004831
     2  C   -0.026602  -0.034051  -0.037076  -0.030772  -0.032847  -0.039629
     3  C   -0.005490   0.005757   0.374758   0.376607   0.357743  -0.006805
     4  C    0.004197  -0.004882   0.003295  -0.002357   0.000502   0.372739
     5  C   -0.000024   0.001675  -0.000139   0.000358  -0.000170  -0.043096
     6  C    0.000003  -0.000170  -0.000006   0.000015  -0.000039  -0.002934
     7  C    0.000071  -0.000174  -0.000055  -0.000074   0.000582  -0.000034
     8  C   -0.001069   0.000773  -0.000002   0.000000  -0.000011   0.000061
     9  C   -0.000009   0.000011   0.000002   0.000002  -0.000012  -0.000057
    10  N   -0.002709  -0.001842   0.001302   0.002393  -0.011090  -0.004247
    11  O    0.000019  -0.000072   0.000424   0.000378   0.017499   0.004184
    12  H   -0.022178  -0.023664  -0.000365   0.000859   0.000179   0.000018
    13  H    0.515372  -0.026521   0.003094   0.000001   0.000044  -0.000147
    14  H   -0.026521   0.535374   0.000469  -0.000196  -0.000221  -0.000039
    15  H    0.003094   0.000469   0.510452  -0.022736  -0.024103   0.000075
    16  H    0.000001  -0.000196  -0.022736   0.483689  -0.017953   0.001220
    17  H    0.000044  -0.000221  -0.024103  -0.017953   0.530534   0.001540
    18  H   -0.000147  -0.000039   0.000075   0.001220   0.001540   0.532424
    19  H    0.000097  -0.000038   0.000048   0.001491  -0.000039  -0.015986
    20  H    0.000001  -0.000061   0.000002  -0.000010   0.000003  -0.004014
    21  H   -0.000117   0.003343   0.000006  -0.000007   0.000001   0.005555
    22  H    0.000000  -0.000005   0.000001  -0.000004   0.000002   0.005038
    23  H   -0.000000   0.000008  -0.000000  -0.000000   0.000000  -0.000091
    24  H    0.001858  -0.000871  -0.000004   0.000001  -0.000003  -0.000008
    25  H   -0.000009   0.000164  -0.000000  -0.000000   0.000000   0.000001
    26  H    0.000030   0.001485   0.000000   0.000000   0.000001   0.000005
    27  H    0.000001  -0.000000  -0.000000  -0.000000  -0.000003   0.000001
    28  H    0.000000  -0.000001   0.000000  -0.000000  -0.000002   0.000003
    29  H   -0.000000   0.000001  -0.000000  -0.000000  -0.000000  -0.000001
    30  H    0.000018   0.000004   0.000027  -0.000042   0.000252  -0.000086
              19         20         21         22         23         24
     1  C   -0.004533   0.000043   0.002723   0.000044  -0.000020   0.001042
     2  C   -0.031344   0.004076  -0.003547  -0.000070   0.000208  -0.001584
     3  C   -0.003685  -0.000117  -0.000069  -0.000035   0.000005  -0.000030
     4  C    0.375307  -0.032387  -0.043828  -0.002805   0.004713   0.000120
     5  C   -0.034727   0.373439   0.373834  -0.042994  -0.034352   0.000122
     6  C    0.004637  -0.032319  -0.044244   0.370655   0.376801   0.003347
     7  C    0.000206   0.003967  -0.003858  -0.039633  -0.033881  -0.029244
     8  C   -0.000009   0.000055   0.003326   0.005087  -0.005263   0.366255
     9  C    0.000004  -0.000112  -0.000066  -0.006064  -0.001964   0.001067
    10  N    0.003401   0.000358  -0.000554  -0.004573   0.003349  -0.004297
    11  O   -0.000041  -0.000026   0.000017   0.003844  -0.000036   0.000098
    12  H    0.003044  -0.000009   0.000006   0.000000  -0.000001   0.000139
    13  H    0.000097   0.000001  -0.000117   0.000000  -0.000000   0.001858
    14  H   -0.000038  -0.000061   0.003343  -0.000005   0.000008  -0.000871
    15  H    0.000048   0.000002   0.000006   0.000001  -0.000000  -0.000004
    16  H    0.001491  -0.000010  -0.000007  -0.000004  -0.000000   0.000001
    17  H   -0.000039   0.000003   0.000001   0.000002   0.000000  -0.000003
    18  H   -0.015986  -0.004014   0.005555   0.005038  -0.000091  -0.000008
    19  H    0.502622  -0.001480  -0.005004  -0.000097  -0.000171   0.000000
    20  H   -0.001480   0.502482  -0.014402  -0.004010  -0.001672   0.000003
    21  H   -0.005004  -0.014402   0.555530   0.005736  -0.005188  -0.000555
    22  H   -0.000097  -0.004010   0.005736   0.535704  -0.015780  -0.000183
    23  H   -0.000171  -0.001672  -0.005188  -0.015780   0.503110   0.000172
    24  H    0.000000   0.000003  -0.000555  -0.000183   0.000172   0.518103
    25  H    0.000000  -0.000000  -0.000002  -0.000113   0.000565  -0.020166
    26  H    0.000000  -0.000119   0.004766   0.000236   0.000852  -0.023699
    27  H   -0.000000   0.000002   0.000005   0.000089   0.000007   0.000729
    28  H    0.000000  -0.000003   0.000002   0.004641  -0.000188  -0.000199
    29  H   -0.000000  -0.000001  -0.000008  -0.000117   0.001813   0.000155
    30  H    0.000001   0.000002   0.000001  -0.000074   0.000000  -0.000002
              25         26         27         28         29         30
     1  C    0.000205  -0.001640  -0.000006   0.000000  -0.000002  -0.000237
     2  C   -0.000052   0.000368   0.000034   0.000006  -0.000045   0.002233
     3  C    0.000002  -0.000003   0.000001   0.000008   0.000001   0.001417
     4  C   -0.000020   0.000014  -0.000004  -0.000019   0.000002   0.000001
     5  C    0.000047   0.000558  -0.000151   0.000003   0.000075  -0.000054
     6  C    0.000858  -0.004543   0.004283  -0.004416  -0.002264   0.000048
     7  C   -0.031430  -0.036657  -0.031622  -0.029303  -0.022935   0.001697
     8  C    0.380118   0.371652  -0.003921   0.005479  -0.005942  -0.000204
     9  C   -0.006980   0.004088   0.369175   0.367134   0.375321   0.001394
    10  N    0.002375   0.001365  -0.001239  -0.006064   0.002784  -0.019718
    11  O   -0.000068  -0.000070  -0.000042   0.007137   0.000596   0.234767
    12  H   -0.000004   0.000014  -0.000000  -0.000000   0.000000   0.000004
    13  H   -0.000009   0.000030   0.000001   0.000000  -0.000000   0.000018
    14  H    0.000164   0.001485  -0.000000  -0.000001   0.000001   0.000004
    15  H   -0.000000   0.000000  -0.000000   0.000000  -0.000000   0.000027
    16  H   -0.000000   0.000000  -0.000000  -0.000000  -0.000000  -0.000042
    17  H    0.000000   0.000001  -0.000003  -0.000002  -0.000000   0.000252
    18  H    0.000001   0.000005   0.000001   0.000003  -0.000001  -0.000086
    19  H    0.000000   0.000000  -0.000000   0.000000  -0.000000   0.000001
    20  H   -0.000000  -0.000119   0.000002  -0.000003  -0.000001   0.000002
    21  H   -0.000002   0.004766   0.000005   0.000002  -0.000008   0.000001
    22  H   -0.000113   0.000236   0.000089   0.004641  -0.000117  -0.000074
    23  H    0.000565   0.000852   0.000007  -0.000188   0.001813   0.000000
    24  H   -0.020166  -0.023699   0.000729  -0.000199   0.000155  -0.000002
    25  H    0.485112  -0.023646   0.000726   0.000549   0.002089   0.000008
    26  H   -0.023646   0.519626   0.000035  -0.000207   0.000074   0.000002
    27  H    0.000726   0.000035   0.530953  -0.026537  -0.022707   0.000625
    28  H    0.000549  -0.000207  -0.026537   0.515829  -0.021500  -0.000611
    29  H    0.002089   0.000074  -0.022707  -0.021500   0.489859  -0.000023
    30  H    0.000008   0.000002   0.000625  -0.000611  -0.000023   0.305735
          Atomic-Atomic Spin Densities.
               1          2          3          4          5          6
     1  C    0.016297   0.009385   0.001281  -0.006201   0.000285  -0.000351
     2  C    0.009385   0.000136   0.003136   0.023096   0.001918   0.000515
     3  C    0.001281   0.003136   0.004360  -0.004992   0.000057  -0.000076
     4  C   -0.006201   0.023096  -0.004992   0.099004  -0.008214   0.004299
     5  C    0.000285   0.001918   0.000057  -0.008214  -0.004116  -0.008157
     6  C   -0.000351   0.000515  -0.000076   0.004299  -0.008157   0.097089
     7  C    0.000388   0.002785  -0.000031   0.000794   0.001617   0.023277
     8  C    0.000345   0.000535   0.000019  -0.000510   0.000488  -0.006214
     9  C    0.000015  -0.000019   0.000005  -0.000080   0.000049  -0.005249
    10  N   -0.004472  -0.040348  -0.000779  -0.016554   0.003427  -0.016402
    11  O    0.000083   0.002807  -0.000124   0.001908  -0.000125   0.001923
    12  H   -0.000662   0.000115  -0.000117   0.000540  -0.000033   0.000007
    13  H   -0.002919  -0.001864  -0.000244   0.000507  -0.000036   0.000049
    14  H   -0.000035   0.000404   0.000012  -0.000222   0.000056  -0.000045
    15  H   -0.001340  -0.000809  -0.000646   0.000625  -0.000004   0.000005
    16  H    0.000275   0.000067   0.001007  -0.000936  -0.000003  -0.000005
    17  H   -0.000126   0.000083  -0.000423   0.000265  -0.000005   0.000011
    18  H    0.000076   0.001138   0.000246  -0.001709  -0.000396  -0.000101
    19  H    0.000854  -0.001550   0.000569  -0.000892  -0.000158  -0.000081
    20  H   -0.000021  -0.000009  -0.000012  -0.003534   0.008885  -0.003497
    21  H    0.000084   0.000005   0.000009  -0.000466   0.000295  -0.000471
    22  H    0.000005   0.000067   0.000006  -0.000129  -0.000413  -0.001726
    23  H    0.000011  -0.000034   0.000001  -0.000085  -0.000243  -0.000817
    24  H   -0.000277  -0.000341  -0.000010   0.000122  -0.000078   0.000517
    25  H   -0.000006  -0.000010  -0.000000   0.000008  -0.000014   0.000532
    26  H   -0.000000   0.000009  -0.000000  -0.000015  -0.000040  -0.000104
    27  H   -0.000006  -0.000028  -0.000001   0.000011  -0.000007   0.000587
    28  H   -0.000000  -0.000004   0.000000   0.000002  -0.000006  -0.000032
    29  H   -0.000000   0.000001  -0.000000   0.000000  -0.000003   0.000098
    30  H    0.000081   0.000611   0.000212  -0.000267   0.000019  -0.000267
               7          8          9         10         11         12
     1  C    0.000388   0.000345   0.000015  -0.004472   0.000083  -0.000662
     2  C    0.002785   0.000535  -0.000019  -0.040348   0.002807   0.000115
     3  C   -0.000031   0.000019   0.000005  -0.000779  -0.000124  -0.000117
     4  C    0.000794  -0.000510  -0.000080  -0.016554   0.001908   0.000540
     5  C    0.001617   0.000488   0.000049   0.003427  -0.000125  -0.000033
     6  C    0.023277  -0.006214  -0.005249  -0.016402   0.001923   0.000007
     7  C    0.000563   0.008527   0.004865  -0.041833   0.002946  -0.000001
     8  C    0.008527   0.015979   0.001249  -0.004248   0.000071  -0.000010
     9  C    0.004865   0.001249   0.004898  -0.001196  -0.000159  -0.000000
    10  N   -0.041833  -0.004248  -0.001196   0.847982  -0.055627   0.000037
    11  O    0.002946   0.000071  -0.000159  -0.055627   0.119118  -0.000001
    12  H   -0.000001  -0.000010  -0.000000   0.000037  -0.000001  -0.000780
    13  H   -0.000158  -0.000238  -0.000005   0.002892  -0.000052   0.000690
    14  H   -0.000009   0.000091   0.000002   0.000006  -0.000000  -0.000045
    15  H   -0.000010  -0.000004  -0.000000   0.000949  -0.000050   0.000239
    16  H    0.000002   0.000001   0.000000   0.000034  -0.000039  -0.000097
    17  H   -0.000022  -0.000002  -0.000001   0.000437  -0.000052   0.000013
    18  H    0.000038   0.000008   0.000005   0.001354  -0.000617  -0.000012
    19  H   -0.000046   0.000020   0.000001   0.000549  -0.000032  -0.000317
    20  H    0.000025  -0.000038  -0.000010  -0.000448   0.000029   0.000004
    21  H   -0.000045   0.000203   0.000009   0.000351  -0.000004  -0.000020
    22  H    0.001237   0.000077   0.000229   0.001440  -0.000646  -0.000000
    23  H   -0.001682   0.000842   0.000634   0.000578  -0.000035  -0.000000
    24  H   -0.001473  -0.002840  -0.000208   0.002800  -0.000044   0.000015
    25  H   -0.000263  -0.000911  -0.000422   0.000267  -0.000004   0.000000
    26  H    0.000404   0.000098   0.000014  -0.000031  -0.000000  -0.000001
    27  H   -0.001739  -0.000750  -0.002058   0.002342  -0.000193   0.000000
    28  H    0.000248  -0.000015   0.000128   0.000038  -0.000179  -0.000000
    29  H    0.000301   0.000034  -0.000113  -0.000014  -0.000001  -0.000000
    30  H    0.000649   0.000075   0.000290  -0.012815   0.006388  -0.000001
              13         14         15         16         17         18
     1  C   -0.002919  -0.000035  -0.001340   0.000275  -0.000126   0.000076
     2  C   -0.001864   0.000404  -0.000809   0.000067   0.000083   0.001138
     3  C   -0.000244   0.000012  -0.000646   0.001007  -0.000423   0.000246
[...]
 .00001926,-0.00003396,-0.00000072,-0.00008961,-0.00000296,0.00002481,0
 .00003551,0.00001914,-0.00009379,0.00000147,-0.00000919,0.00031204,0.0
 0013550,-0.00022063,0.00273387,-0.00129208,-0.00084985,-0.00758579,-0.
 00457954,-0.01238056,-0.10059859,-0.08067841,-0.22098296,-0.00116596,-
 0.00029934,0.00026791,-0.00119592,0.00057088,-0.00058293,0.00038902,0.
 00107337,0.00117408,0.00000808,-0.00000383,0.00000402,-0.00001313,0.00
 007154,0.00002615,0.00004337,-0.00005996,0.00006659,0.00001050,-0.0000
 1353,0.00001859,0.00000060,0.00001140,-0.00000359,-0.00000072,-0.00000
 781,-0.00000879,-0.00002579,0.00003988,-0.00000792,0.00002427,-0.00003
 328,0.00005644,-0.00010542,-0.00004229,0.00007840,-0.00017188,-0.00005
 367,0.00010513,-0.00045109,-0.00074610,-0.00040120,0.00027411,-0.00000
 475,0.00048374,0.10964273,0.08966916,0.23726872,-0.00065433,0.00014688
 ,0.00023005,-0.00036353,-0.00049401,-0.00020222,0.00015854,0.00017874,
 -0.00005892,-0.00011606,0.00003033,-0.00014436,-0.00029655,-0.00007089
 ,-0.00005826,0.00020847,-0.00095565,-0.00057434,-0.00704123,0.01577591
 ,-0.01113857,-0.06523338,0.05119446,-0.04183649,0.00061561,-0.00026984
 ,-0.00042980,-0.00203811,0.00329405,0.00234677,-0.00039405,-0.00007444
 ,-0.00056155,0.00026150,-0.00017052,-0.00004701,0.00000128,-0.00000247
 ,-0.00000151,0.00042717,-0.00001504,-0.00000780,-0.00000744,-0.0000352
 2,0.00002507,-0.00003746,0.00006594,-0.00001509,0.00002154,-0.00002908
 ,-0.00001038,0.00001679,-0.00000778,-0.00000523,0.00003057,0.00001879,
 0.00005796,0.00008424,-0.00009803,-0.00005180,0.00016190,-0.00009169,-
 0.00001864,-0.00004533,-0.00018875,-0.00000297,0.00045496,-0.00020520,
 0.00007826,-0.00426479,0.01181148,-0.00859878,0.06884961,-0.00014137,-
 0.00033334,-0.00010162,-0.00003511,0.00061707,0.00030602,-0.00010483,-
 0.00011854,-0.00004831,0.00023533,0.00013952,0.00017570,-0.00035788,-0
 .00014693,-0.00012187,0.00003934,0.00034114,0.00118254,0.00635868,-0.0
 1661344,0.01110846,0.05207946,-0.20347905,0.12499462,-0.00118086,0.000
 94491,0.00097475,0.00155324,-0.00246644,-0.00284434,0.00016939,0.00085
 899,0.00065838,0.00004253,0.00002392,0.00014166,0.00001698,-0.00001990
 ,0.00003345,0.00016105,-0.00003469,-0.00002674,-0.00000818,0.00002255,
 -0.00001662,0.00002743,-0.00003736,0.00002488,0.00002166,-0.00000211,0
 .00000130,-0.00001084,-0.00002303,-0.00005219,-0.00004768,0.00003043,-
 0.00008324,0.00005539,-0.00002405,-0.00005454,0.00013522,-0.00006128,0
 .00001532,-0.00017848,0.00044695,-0.00015203,-0.00041450,-0.00002175,-
 0.00096132,-0.00360527,0.01159675,-0.00810808,-0.05914681,0.21854765,0
 .00039744,-0.00046443,-0.00018900,-0.00022302,0.00051705,0.00043559,-0
 .00005070,-0.00007112,-0.00000593,0.00013004,0.00000090,0.00020035,0.0
 0010916,-0.00000380,-0.00004990,-0.00004020,-0.00013389,0.00066165,0.0
 0625952,-0.01439499,0.00819773,-0.04339897,0.12588541,-0.14673244,-0.0
 0010718,-0.00003038,0.00048751,0.00082096,-0.00279789,-0.00274929,0.00
 091324,0.00105139,0.00172483,-0.00015832,0.00016192,0.00020657,0.00004
 912,-0.00006688,0.00009824,-0.00023500,-0.00001375,-0.00009366,0.00001
 057,0.00001851,-0.00001840,0.00001273,-0.00003731,0.00000977,-0.000006
 55,0.00001892,0.00001066,-0.00000238,0.00001963,-0.00001035,-0.0000375
 0,-0.00000688,-0.00005912,-0.00004093,0.00001030,0.00000619,-0.0000812
 1,0.00001919,-0.00001022,0.00003402,0.00022827,0.00017346,-0.00002430,
 -0.00031058,-0.00029250,-0.00553212,0.02009002,-0.01443388,0.04370675,
 -0.13461313,0.15800778,-0.00094470,-0.00041057,0.00031379,-0.00066319,
 0.00023157,0.00010427,0.00011889,0.00008729,-0.00008033,0.00006979,0.0
 0011888,-0.00005796,-0.00019379,-0.00028552,-0.00009080,0.00007677,-0.
 00068866,-0.00090853,-0.01514008,-0.00692561,0.00519067,-0.24004274,-0
 .10832823,0.06775286,-0.00167779,0.00309705,0.00141913,0.00053190,-0.0
 0131432,0.00061930,-0.00018004,0.00042072,-0.00032233,0.00039461,-0.00
 028707,0.00002922,-0.00005109,0.00010038,-0.00007685,0.00114961,-0.000
 11881,0.00004845,-0.00001627,-0.00001501,0.00001433,-0.00001981,0.0000
 4275,-0.00000441,0.00005050,-0.00005062,-0.00001326,0.00003288,-0.0000
 8217,-0.00003166,0.00001400,0.00002772,0.00001763,0.00021262,-0.000024
 03,-0.00018427,0.00076141,-0.00038270,-0.00044973,-0.00001504,-0.00003
 731,-0.00006038,0.00009322,0.00011220,0.00016406,-0.01139508,-0.006701
 02,0.00477735,0.00927358,0.00418756,-0.00294208,0.25738578,0.00020515,
 -0.00070606,0.00024160,0.00039540,-0.00014246,-0.00015630,-0.00007895,
 -0.00006470,0.00005437,0.00003285,-0.00014831,0.00000336,0.00033349,-0
 .00054791,-0.00045318,-0.00044111,0.00092274,0.00078144,0.01955018,0.0
 0939572,-0.00603971,-0.11034557,-0.11062117,0.03908937,0.00215820,-0.0
 0246715,-0.00201936,-0.00056696,0.00207457,-0.00076501,0.00012033,-0.0
 0014392,0.00038210,-0.00003889,-0.00002685,-0.00003950,-0.00015420,0.0
 0015366,-0.00004169,-0.00002604,-0.00105512,0.00094689,-0.00000168,0.0
 0000752,-0.00000605,0.00001055,-0.00001836,0.00000622,-0.00002775,0.00
 003232,0.00000080,-0.00003176,0.00002859,0.00002007,-0.00000405,-0.000
 01264,-0.00000677,-0.00017098,0.00011845,0.00010165,-0.00037442,-0.000
 94551,-0.00070595,0.00007551,0.00007192,0.00024920,-0.00024508,-0.0000
 1408,0.00000708,-0.00859698,-0.00570345,0.00444439,-0.02098056,-0.0104
 1645,0.00564363,0.11802236,0.11959674,-0.00022521,0.00043294,-0.000309
 54,0.00036881,-0.00001996,0.00031251,-0.00002616,-0.00007720,-0.000144
 81,0.00001576,-0.00003107,0.00033507,0.00061739,-0.00044948,-0.0004477
 0,0.00036941,0.00081679,0.00071909,0.01230478,0.00825930,-0.00610409,0
 .06739918,0.03787678,-0.07407772,0.00212944,-0.00310156,-0.00101299,-0
 .00088455,0.00010973,-0.00026397,-0.00009328,0.00015885,0.00021816,0.0
 0003719,-0.00006830,-0.00007247,-0.00007301,0.00005482,-0.00011135,0.0
 0004529,0.00083022,0.00004081,-0.00004047,0.00001976,-0.00001823,0.000
 01624,-0.00001618,0.00002613,0.00003697,-0.00000814,0.00000003,-0.0001
 0783,0.00008092,-0.00010797,-0.00001214,0.00002540,-0.00003163,-0.0002
 5572,0.00014301,0.00011376,-0.00070349,-0.00078204,0.00019101,-0.00017
 926,0.00014656,0.00011291,-0.00002130,0.00012349,-0.00033184,-0.022799
 79,-0.01242068,0.00992012,0.01707893,0.00836189,-0.00535538,-0.0760143
 7,-0.04086149,0.07619108,0.00003121,0.00007958,0.00001297,0.00019215,-
 0.00005835,-0.00009698,0.00000154,0.00003202,0.00007160,-0.00019730,0.
 00017645,-0.00007802,-0.00022044,-0.00021316,-0.00190626,-0.00314156,-
 0.00321792,0.00412067,-0.01052406,-0.01261585,-0.01823797,0.00135646,-
 0.00056080,-0.00132140,-0.09237349,-0.06363820,-0.06531548,-0.00142245
 ,-0.00005087,-0.00140421,0.00137313,0.00239721,0.00001991,0.00000274,0
 .00000924,-0.00000803,0.00000020,-0.00001427,0.00004969,-0.00000806,-0
 .00003156,-0.00002815,0.00004428,-0.00002841,0.00002801,0.00000857,0.0
 0000919,-0.00000032,-0.00000017,-0.00001239,0.00000227,0.00002861,-0.0
 0001254,0.00000720,0.00005963,-0.00005727,0.00007094,-0.00033491,-0.00
 048988,0.00025356,-0.00004629,0.00003930,0.00006866,0.00015695,-0.0000
 2418,-0.00003755,0.00022496,0.00017343,0.00008763,-0.00020088,0.000149
 59,0.00087640,-0.00030722,0.00009549,-0.00012619,0.00030858,0.00022537
 ,0.00013603,0.09632338,-0.00002149,0.00020400,0.00008162,0.00018580,-0
 .00038404,-0.00003070,0.00008735,0.00004837,0.00001970,-0.00002490,0.0
 0017328,-0.00019084,-0.00041537,0.00039205,-0.00095217,-0.00154255,-0.
 00120064,0.00212563,-0.00503560,-0.01014966,-0.01041169,0.00154301,0.0
 0039876,-0.00039027,-0.06622585,-0.15064814,-0.10991867,-0.00256820,-0
 .00051900,-0.00220329,0.00217383,0.00227750,0.00069098,0.00004712,-0.0
 0001201,-0.00003798,-0.00002516,-0.00001551,0.00006554,0.00002416,-0.0
 0002061,-0.00002000,0.00002326,-0.00004341,0.00006548,0.00000352,0.000
 02935,0.00000678,-0.00001845,-0.00002112,-0.00001635,0.00001872,0.0000
 2294,0.00003531,0.00002458,-0.00000060,0.00008212,-0.00015995,-0.00024
 057,0.00017687,-0.00009084,-0.00009036,0.00004855,0.00005584,0.0001805
 4,0.00039922,-0.00030965,0.00003944,-0.00012446,-0.00011139,0.00056140
 ,0.00045614,0.00003795,0.00007142,0.00016369,0.00021232,-0.00009581,0.
 00019596,0.07381508,0.16217939,-0.00003880,0.00002104,0.00003784,0.000
 23156,0.00010659,0.00015020,0.00001367,-0.00004934,-0.00000402,-0.0001
 1408,-0.00002649,-0.00016500,0.00037639,0.00042444,0.00080417,0.001151
 21,0.00022120,-0.00080089,0.00607125,0.00918187,0.00892924,-0.00039287
 ,0.00034997,0.00125826,-0.06595216,-0.10611593,-0.15943182,-0.00117589
 ,-0.00050863,0.00006551,0.00076849,0.00283380,-0.00171773,0.00000886,-
 0.00000487,-0.00000916,-0.00001710,-0.00000325,0.00001506,0.00001451,-
 0.00000154,-0.00000557,0.00000334,-0.00001981,0.00003200,0.00001013,0.
 00000252,0.00000344,-0.00001139,0.00000307,-0.00000691,-0.00000183,0.0
 0003302,0.00000914,0.00002314,-0.00000686,0.00007175,0.00008859,0.0001
 6327,-0.00006422,-0.00013048,-0.00017357,0.00004196,-0.00002587,0.0004
 9167,0.00023338,0.00031624,0.00007553,0.00010323,-0.00009508,0.0001284
 7,0.00006120,-0.00008462,-0.00021723,-0.00006868,-0.00014592,0.0001794
 9,0.00012338,0.07468619,0.11467063,0.17552070,-0.00003518,0.00000448,-
 0.00004343,-0.00006498,-0.00003610,0.00008885,-0.00004083,-0.00001209,
 -0.00000192,-0.00002882,0.00006160,0.00009195,0.00024467,-0.00038711,-
 0.00029041,0.00038922,0.00129952,0.00130031,-0.01592790,0.01474655,0.0
 0745556,-0.00345309,-0.00331692,0.00144072,-0.18273601,0.11375887,0.06
 987775,0.00054631,0.00096794,-0.00152242,0.00051934,0.00012458,0.00058
 959,0.00002850,-0.00001970,0.00000736,-0.00000412,0.00000828,-0.000011
 77,0.00005923,0.00003207,-0.00000609,0.00000381,0.00000368,-0.00001318
 ,0.00001633,-0.00000543,-0.00000389,0.00004660,-0.00003371,-0.00000015
 ,0.00001956,-0.00007267,-0.00002721,0.00002277,-0.00000997,-0.00002541
 ,-0.00003459,-0.00005322,0.00000817,0.00017903,0.00017817,-0.00008290,
 -0.00002807,-0.00070733,-0.00086747,0.00009870,-0.00009373,0.00002761,
 0.00006564,-0.00001086,0.00020984,0.00033898,-0.00034358,-0.00025553,-
 0.00044356,0.00090529,0.00096903,0.01213113,-0.00905681,-0.00524911,0.
 19538774,-0.00001903,0.00000278,-0.00000651,-0.00022806,-0.00001710,-0
 .00006912,0.00002119,0.00004416,0.00002036,-0.00004097,0.00003410,0.00
 001166,0.00006192,0.00000068,0.00003773,0.00021782,0.00087924,0.000899
 07,-0.01375150,0.01070516,0.00747021,-0.00228098,-0.00179565,0.0010577
 0,0.11555042,-0.15247561,-0.06385877,-0.00003331,0.00182450,-0.0003588
 5,-0.00024165,0.00016713,0.00020474,0.00000871,-0.00000538,-0.00000063
 ,0.00000773,-0.00000247,-0.00000485,0.00002527,0.00000740,-0.00001404,
 0.00001299,-0.00000498,-0.00000694,-0.00000228,0.00001152,-0.00001075,
 0.00002149,-0.00003250,0.00000986,0.00000229,-0.00003488,-0.00001761,0
 .00001638,-0.00001150,-0.00000895,0.00001026,-0.00000517,-0.00000900,0
 .00001281,0.00003298,0.00001249,0.00007500,0.00001909,-0.00010556,-0.0
 0007943,-0.00001684,-0.00003024,-0.00002930,-0.00006851,0.00021697,-0.
 00026375,0.00004890,-0.00019422,-0.00068038,0.00081169,0.00058211,0.01
 351265,-0.01094469,-0.00482637,-0.12392569,0.16192457,0.00003858,-0.00
 008674,-0.00003873,0.00017388,0.00011755,0.00001243,-0.00003136,-0.000
 08397,-0.00004467,0.00002043,-0.00005699,0.00009278,0.00010551,-0.0000
 5329,-0.00007071,-0.00112824,0.00041495,-0.00000746,0.00879063,-0.0056
 8816,-0.00752458,0.00249951,0.00209038,-0.00086879,0.06934806,-0.06336
 649,-0.08635829,0.00135278,-0.00117366,0.00162417,-0.00133893,-0.00026
 226,-0.00023816,-0.00003747,0.00001834,0.00002064,0.00000925,-0.000005
 85,-0.00001547,-0.00005339,-0.00000701,0.00001829,-0.00000177,0.000025
 84,-0.00003126,-0.00001807,-0.00002161,0.00002282,-0.00002071,0.000077
 61,0.00003642,-0.00000469,0.00001034,0.00000952,-0.00002018,-0.0000073
 5,-0.00002490,-0.00003054,0.00002713,-0.00000119,-0.00004052,0.0000115
 6,0.00000333,-0.00021076,-0.00019679,0.00032408,-0.00015313,-0.0001095
 9,0.00009312,-0.00023250,0.00013477,0.00033854,-0.00010885,-0.00015857
 ,0.00015354,0.00057849,-0.00063268,-0.00003491,0.01558454,-0.01190305,
 -0.00797819,-0.07827734,0.06727189,0.09047102,0.00002320,-0.00001723,-
 0.00004422,0.00128722,0.00006715,0.00056875,-0.00042484,-0.00033551,0.
 00003883,0.00019159,0.00007760,0.00016094,0.00003695,0.00019901,0.0002
 1937,0.00086823,-0.00056580,0.00047982,0.00763877,-0.01477763,0.019924
 27,0.00077201,0.00003941,-0.00021188,-0.08023769,0.05766634,-0.0736735
 4,-0.00524719,-0.00447369,0.00161466,0.00080532,0.00030080,-0.00014877
 ,-0.00003797,-0.00000179,0.00002771,-0.00001676,-0.00000167,0.00000245
 ,-0.00002500,0.00001591,0.00001895,-0.00000240,0.00000513,0.00000603,0
 .00017081,-0.00008651,0.00003773,0.00001817,-0.00001745,-0.00001936,-0
 .00001378,-0.00002154,-0.00002082,-0.00003578,0.00002387,-0.00005834,0
 .00004008,0.00007567,-0.00004787,0.00001557,-0.00000486,-0.00000950,0.
 00006972,0.00016879,-0.00015115,-0.00048823,-0.00015391,-0.00012969,-0
 .00011468,-0.00002709,0.00000346,-0.00044600,0.00023114,0.00039743,0.0
 0006742,0.00003427,-0.00033397,-0.00492765,0.00755409,-0.01003802,-0.0
 0736016,0.01163676,-0.01787044,0.08811240,-0.00002250,-0.00011087,-0.0
 0001351,0.00080718,0.00035427,0.00044046,-0.00023464,-0.00018733,-0.00
 003191,0.00023776,0.00012271,0.00007415,-0.00006410,-0.00002503,-0.000
 18884,0.00077272,0.00063025,0.00053127,0.00489478,-0.01126540,0.012506
 24,0.00060267,0.00004041,-0.00088509,0.05588640,-0.13413246,0.11723792
 ,-0.00379143,-0.00268359,0.00089744,0.00051441,0.00171310,-0.00080398,
 -0.00003740,0.00000131,0.00004088,-0.00001811,-0.00000133,-0.00000538,
 -0.00002248,0.00002244,0.00002736,-0.00000060,0.00000393,0.00000248,0.
 00007812,-0.00004597,0.00004567,0.00000557,0.00002337,0.00000334,-0.00
 001476,-0.00001764,-0.00000463,-0.00006339,0.00004661,-0.00006455,-0.0
 0000022,0.00003106,0.00000019,0.00009126,0.00009901,-0.00006729,0.0001
 6176,-0.00044329,-0.00013718,-0.00069448,0.00006307,-0.00018937,0.0000
 5414,0.00013290,-0.00010039,0.00014941,0.00056817,-0.00009622,-0.00009
 052,-0.00000021,-0.00015330,-0.00794323,0.01242220,-0.01752287,0.00611
 180,-0.01060252,0.01476189,-0.05736254,0.14515654,-0.00004939,0.000100
 70,0.00003291,-0.00037520,-0.00031214,-0.00015968,0.00020048,0.0000968
 5,-0.00001460,-0.00005574,-0.00007480,-0.00004279,0.00019862,0.0000133
 1,-0.00012721,-0.00136729,-0.00129374,0.00050650,-0.00360756,0.0072038
 4,-0.00938081,-0.00066840,-0.00001645,0.00000674,-0.07163530,0.1185350
 3,-0.20030937,0.00066616,0.00039160,-0.00102248,0.00072633,0.00104709,
 0.00038608,0.00004193,-0.00001331,-0.00002138,-0.00000811,-0.00000336,
 0.00001818,0.00003868,0.00000085,-0.00001025,0.00000828,-0.00002197,0.
 00001720,-0.00004658,0.00003616,0.00000585,-0.00000720,0.00000145,0.00
 000665,0.00001720,0.00000390,0.00001987,0.00003231,-0.00001234,0.00004
 479,-0.00002605,-0.00006782,0.00000887,0.00000002,0.00000325,-0.000015
 87,0.00016653,-0.00005273,0.00016587,0.00013586,-0.00006605,0.00054179
 ,0.00013193,0.00010156,0.00006764,0.00076206,-0.00041078,-0.00006509,0
 .00011443,-0.00026096,0.00036533,-0.00847695,0.01197778,-0.01723697,0.
 00440631,-0.00817600,0.01141437,0.07822858,-0.12761595,0.21372858,0.00
 031670,0.00114102,-0.00005537,-0.00093144,-0.00040018,-0.00736653,0.00
 026371,0.00058181,-0.00038902,-0.00026895,-0.00148342,0.00130530,0.000
 07405,-0.00014398,0.00028457,0.00001543,-0.00111559,0.00024410,-0.0021
 9862,0.00025537,-0.00017452,-0.00081639,-0.00044279,-0.00080618,0.0013
 6363,0.00048783,-0.00060983,-0.02263348,-0.03938969,0.00736057,-0.0697
 0870,-0.11159937,0.01636130,0.00018157,-0.00004314,-0.00015865,-0.0000
 5264,-0.00006469,0.00022448,-0.00011808,-0.00006926,0.00004248,0.00029
 551,-0.00003698,0.00036386,0.00003416,0.00013475,0.00025390,0.00000984
 ,-0.00001887,0.00008220,-0.00004811,-0.00006047,-0.00001945,-0.0001764
 7,-0.00009143,-0.00058431,0.00004179,0.00011633,-0.00002713,-0.0000950
 3,0.00003258,-0.00003944,0.00005645,0.00015818,0.00021934,0.00020058,0
 .00031987,0.00027118,-0.00060282,0.00113667,0.00070037,0.00034076,0.00
 016551,0.00042118,0.00024163,0.00001601,0.00024614,0.00146096,-0.00020
 040,-0.00029030,0.00005973,0.00038262,0.00107723,-0.00073934,-0.000007
 59,0.00044804,0.09343357,-0.00048065,0.00073536,0.00079320,-0.00004508
 ,0.00148943,-0.00153198,0.00030619,0.00042238,0.00035621,-0.00065952,0
 .00006504,-0.00001197,-0.00024077,-0.00001577,-0.00022255,-0.00013319,
 -0.00155507,0.00059777,0.00349134,0.00221819,-0.00160342,-0.00027591,0
 .00015348,0.00295098,0.00271154,0.00621044,0.00258181,-0.01035007,-0.0
 1463779,-0.00016387,-0.14342175,-0.35742577,0.11654658,0.00029776,-0.0
 0010623,-0.00017508,-0.00007421,-0.00000738,0.00018533,0.00016633,-0.0
 0001417,-0.00007309,-0.00013674,-0.00009185,-0.00010679,-0.00013195,0.
 00011957,-0.00023538,0.00004166,-0.00014820,-0.00007921,0.00003468,-0.
 00002917,0.00007953,0.00005588,0.00004945,-0.00006492,-0.00000957,-0.0
 0008232,0.00004791,-0.00001417,-0.00004323,-0.00002438,-0.00003287,0.0
 0016425,0.00002410,0.00027193,0.00027068,0.00037074,0.00034470,-0.0001
 8899,-0.00059428,0.00039580,-0.00046001,-0.00059336,-0.00023828,-0.000
 08377,-0.00022913,-0.00174572,-0.00461446,0.00059018,-0.00011791,-0.00
 049611,-0.00114819,-0.00024873,-0.00191571,-0.00111498,0.15023928,0.37
 001775,-0.00002874,-0.00116619,-0.00023258,-0.00469032,0.00253053,-0.0
 0260245,-0.00015523,0.00084374,-0.00053183,-0.00061075,-0.00113505,0.0
 0086974,0.00024984,-0.00019605,0.00055528,0.00056931,0.00052122,-0.000
 53157,-0.00393387,-0.00187938,-0.00022132,0.00051093,0.00079345,0.0003
 3788,-0.00063096,-0.00445765,-0.00043529,-0.01612093,-0.03991714,0.007
 37629,0.04203769,0.15567701,-0.08353717,-0.00018318,0.00011237,0.00029
 429,-0.00010241,0.00015506,0.00018565,0.00003423,0.00007361,0.00005357
 ,0.00018203,-0.00002967,0.00027807,0.00006049,0.00001966,0.00008730,0.
 00011397,-0.00008919,0.00000788,0.00002099,-0.00003336,-0.00009934,-0.
 00022847,-0.00015757,-0.00044686,0.00006826,0.00018677,-0.00010880,0.0
 0005808,0.00005130,-0.00005194,-0.00001982,-0.00019688,-0.00013598,-0.
 00009170,0.00000361,-0.00003204,0.00017079,-0.00053935,-0.00003799,-0.
 00032866,-0.00000836,-0.00024004,0.00023888,-0.00016300,-0.00024481,0.
 00096124,0.00493745,0.00002870,0.00020519,-0.00009638,-0.00139774,0.00
 102860,0.00131120,0.00106929,-0.01938548,-0.11715177,0.07974381\\-0.00
 001821,0.00000242,0.00001677,0.00002089,0.00001190,-0.00002255,-0.0000
 1751,0.00000041,0.00000839,-0.00000168,0.00000294,0.00000480,-0.000001
 34,-0.00000039,0.00000397,0.00000492,0.00000342,0.00000639,-0.00000466
 ,-0.00001017,0.00000270,-0.00001025,0.00000618,0.00000239,0.00000129,0
 .00000269,0.00000263,0.00000435,-0.00000103,0.00000877,-0.00000740,0.0
 0000109,-0.00000843,0.00000225,0.00000003,-0.00000329,0.00000268,0.000
 00021,-0.00000405,0.00000126,-0.00000250,-0.00000164,0.00000210,-0.000
 00070,0.00000068,0.00000444,-0.00000035,0.00000028,0.00000581,-0.00000
 160,0.00000185,0.00000332,-0.00000175,0.00000007,0.00000273,0.00000033
 ,0.00000020,0.00000074,0.00000061,-0.00000298,0.00000014,-0.00000110,-
 0.00000099,0.00000149,-0.00000196,-0.00000177,0.00000057,-0.00000177,-
 0.00000108,-0.00000071,0.00000034,-0.00000197,0.00000293,-0.00000219,-
 0.00000239,0.00000097,-0.00000089,-0.00000344,-0.00000059,-0.00000335,
 0.00000059,0.00000297,0.00000062,-0.00000230,0.00000164,-0.00000180,-0
 .00000248,-0.00000511,-0.00000165,-0.00000113\\\@


 NEVER TEACH A PIG TO SING.
 IT WASTES YOUR TIME AND ANNOYS THE PIG.
     -- SEEN ON A GREETING CARD
 Job cpu time:       0 days  0 hours 39 minutes 56.4 seconds.
 Elapsed time:       0 days  0 hours  1 minutes 40.6 seconds.
 File lengths (MBytes):  RWF=    287 Int=      0 D2E=      0 Chk=      7 Scr=      1
 Normal termination of Gaussian 16 at Mon Oct 14 02:26:34 2019.
real 351.38
user 8182.55
sys 27.85
Machine:
brown-a265
brown-a265
brown-a265
brown-a265
brown-a265
brown-a265
brown-a265
brown-a265
brown-a265
brown-a265
brown-a265
brown-a265
brown-a265
brown-a265
brown-a265
brown-a265
brown-a265
brown-a265
brown-a265
brown-a265
brown-a265
brown-a265
brown-a265
brown-a265
