Title Card Required                                                     
Freq      UB3LYP                                                      6-31G(d)            
Number of atoms                            I               30
Info1-9                                    I   N=           9
          70          70        1002           0           0         100
           6          18        -502
Full Title                                 C   N=           2
Title Card Required     
Route                                      C   N=           6
#p opt freq b3lyp/6-31g(d) geom=connectivity temperature=0.0
01          
Charge                                     I                1
Multiplicity                               I                2
Number of electrons                        I               87
Number of alpha electrons                  I               44
Number of beta electrons                   I               43
Number of basis functions                  I              203
Number of independent functions            I              203
Number of point charges in /Mol/           I                0
Number of translation vectors              I                0
Atomic numbers                             I   N=          30
           6           6           6           6           6           6
           6           6           6           7           8           1
           1           1           1           1           1           1
           1           1           1           1           1           1
           1           1           1           1           1           1
Nuclear charges                            R   N=          30
  6.00000000E+00  6.00000000E+00  6.00000000E+00  6.00000000E+00  6.00000000E+00
  6.00000000E+00  6.00000000E+00  6.00000000E+00  6.00000000E+00  7.00000000E+00
  8.00000000E+00  1.00000000E+00  1.00000000E+00  1.00000000E+00  1.00000000E+00
  1.00000000E+00  1.00000000E+00  1.00000000E+00  1.00000000E+00  1.00000000E+00
  1.00000000E+00  1.00000000E+00  1.00000000E+00  1.00000000E+00  1.00000000E+00
  1.00000000E+00  1.00000000E+00  1.00000000E+00  1.00000000E+00  1.00000000E+00
Current cartesian coordinates              R   N=          90
 -3.36709470E+00 -2.56799040E-01  2.78045138E+00 -2.57867307E+00 -1.00243780E-01
 -3.38386021E-02 -4.43971869E+00 -1.61250498E+00 -1.68191631E+00 -2.39054788E+00
  2.65657751E+00 -9.77821942E-01 -3.12591007E-02  4.06224108E+00 -7.46785310E-02
  2.34113902E+00  2.68693205E+00 -9.91957389E-01  2.55995784E+00 -5.83595965E-02
 -2.47177739E-02  3.33708398E+00 -1.75784976E-01  2.79357179E+00  4.46194964E+00
 -1.54355992E+00 -1.65911050E+00 -3.06500609E-03 -1.28095543E+00 -2.80345719E-01
 -1.07789471E-01 -3.80499178E+00 -1.43136295E-01 -5.32177263E+00  4.01600340E-01
  2.92215461E+00 -3.29137238E+00 -2.20361813E+00  3.46721404E+00 -2.20187840E+00
  9.35771004E-01  3.99728219E+00 -4.77327383E+00 -3.51122153E+00 -9.47420857E-01
 -6.24009858E+00 -5.96805654E-01 -1.68531334E+00 -3.77870983E+00 -1.74891251E+00
 -3.63608896E+00 -2.42627304E+00  2.65020798E+00 -3.05077771E+00 -4.11319177E+00
  3.61988500E+00 -3.58399662E-01 -4.14989103E-02  5.98093414E+00 -8.46869031E-01
 -2.46433381E-02  4.27169578E+00  1.98634767E+00  2.35883194E+00  2.66471962E+00
 -3.06515944E+00  4.05817182E+00  3.67281454E+00 -3.90812248E-01  3.26316008E+00
 -2.10756383E+00  3.52913896E+00  5.28848782E+00  4.91253895E-01  2.94450796E+00
  2.15365863E+00  1.02428443E+00  3.98224085E+00  4.99716330E+00 -3.38434437E+00
 -8.59075653E-01  3.78794546E+00 -1.79662566E+00 -3.59769281E+00  6.21428656E+00
 -4.51028827E-01 -1.73879429E+00  1.61775565E+00 -4.45741401E+00 -3.24864556E-01
Number of symbols in /Mol/                 I                0
Force Field                                I                0
Atom Types                                 C   N=          30
                                                            
                                                            
                                                            
                                                            
                                                            
                                                            
Int Atom Types                             I   N=          30
           0           0           0           0           0           0
           0           0           0           0           0           0
           0           0           0           0           0           0
           0           0           0           0           0           0
           0           0           0           0           0           0
MM charges                                 R   N=          30
  0.00000000E+00  0.00000000E+00  0.00000000E+00  0.00000000E+00  0.00000000E+00
  0.00000000E+00  0.00000000E+00  0.00000000E+00  0.00000000E+00  0.00000000E+00
  0.00000000E+00  0.00000000E+00  0.00000000E+00  0.00000000E+00  0.00000000E+00
  0.00000000E+00  0.00000000E+00  0.00000000E+00  0.00000000E+00  0.00000000E+00
  0.00000000E+00  0.00000000E+00  0.00000000E+00  0.00000000E+00  0.00000000E+00
  0.00000000E+00  0.00000000E+00  0.00000000E+00  0.00000000E+00  0.00000000E+00
Integer atomic weights                     I   N=          30
          12          12          12          12          12          12
          12          12          12          14          16           1
           1           1           1           1           1           1
           1           1           1           1           1           1
           1           1           1           1           1           1
Real atomic weights                        R   N=          30
  1.20000000E+01  1.20000000E+01  1.20000000E+01  1.20000000E+01  1.20000000E+01
  1.20000000E+01  1.20000000E+01  1.20000000E+01  1.20000000E+01  1.40030740E+01
  1.59949146E+01  1.00782504E+00  1.00782504E+00  1.00782504E+00  1.00782504E+00
  1.00782504E+00  1.00782504E+00  1.00782504E+00  1.00782504E+00  1.00782504E+00
  1.00782504E+00  1.00782504E+00  1.00782504E+00  1.00782504E+00  1.00782504E+00
  1.00782504E+00  1.00782504E+00  1.00782504E+00  1.00782504E+00  1.00782504E+00
Atom fragment info                         I   N=          30
           0           0           0           0           0           0
           0           0           0           0           0           0
           0           0           0           0           0           0
           0           0           0           0           0           0
           0           0           0           0           0           0
Atom residue num                           I   N=          30
           0           0           0           0           0           0
           0           0           0           0           0           0
           0           0           0           0           0           0
           0           0           0           0           0           0
           0           0           0           0           0           0
Nuclear spins                              I   N=          30
           0           0           0           0           0           0
           0           0           0           2           0           1
           1           1           1           1           1           1
           1           1           1           1           1           1
           1           1           1           1           1           1
Nuclear ZEff                               R   N=          30
 -3.60000000E+00 -3.60000000E+00 -3.60000000E+00 -3.60000000E+00 -3.60000000E+00
 -3.60000000E+00 -3.60000000E+00 -3.60000000E+00 -3.60000000E+00 -4.55000000E+00
 -5.60000000E+00 -1.00000000E+00 -1.00000000E+00 -1.00000000E+00 -1.00000000E+00
 -1.00000000E+00 -1.00000000E+00 -1.00000000E+00 -1.00000000E+00 -1.00000000E+00
 -1.00000000E+00 -1.00000000E+00 -1.00000000E+00 -1.00000000E+00 -1.00000000E+00
 -1.00000000E+00 -1.00000000E+00 -1.00000000E+00 -1.00000000E+00 -1.00000000E+00
Nuclear ZNuc                               R   N=          30
  6.00000000E+00  6.00000000E+00  6.00000000E+00  6.00000000E+00  6.00000000E+00
  6.00000000E+00  6.00000000E+00  6.00000000E+00  6.00000000E+00  7.00000000E+00
  8.00000000E+00  1.00000000E+00  1.00000000E+00  1.00000000E+00  1.00000000E+00
  1.00000000E+00  1.00000000E+00  1.00000000E+00  1.00000000E+00  1.00000000E+00
  1.00000000E+00  1.00000000E+00  1.00000000E+00  1.00000000E+00  1.00000000E+00
  1.00000000E+00  1.00000000E+00  1.00000000E+00  1.00000000E+00  1.00000000E+00
Nuclear QMom                               R   N=          30
  0.00000000E+00  0.00000000E+00  0.00000000E+00  0.00000000E+00  0.00000000E+00
  0.00000000E+00  0.00000000E+00  0.00000000E+00  0.00000000E+00  2.04400000E+00
  0.00000000E+00  0.00000000E+00  0.00000000E+00  0.00000000E+00  0.00000000E+00
  0.00000000E+00  0.00000000E+00  0.00000000E+00  0.00000000E+00  0.00000000E+00
  0.00000000E+00  0.00000000E+00  0.00000000E+00  0.00000000E+00  0.00000000E+00
  0.00000000E+00  0.00000000E+00  0.00000000E+00  0.00000000E+00  0.00000000E+00
Nuclear GFac                               R   N=          30
  0.00000000E+00  0.00000000E+00  0.00000000E+00  0.00000000E+00  0.00000000E+00
  0.00000000E+00  0.00000000E+00  0.00000000E+00  0.00000000E+00  4.03761000E-01
  0.00000000E+00  2.79284600E+00  2.79284600E+00  2.79284600E+00  2.79284600E+00
  2.79284600E+00  2.79284600E+00  2.79284600E+00  2.79284600E+00  2.79284600E+00
  2.79284600E+00  2.79284600E+00  2.79284600E+00  2.79284600E+00  2.79284600E+00
  2.79284600E+00  2.79284600E+00  2.79284600E+00  2.79284600E+00  2.79284600E+00
MicOpt                                     I   N=          30
          -1          -1          -1          -1          -1          -1
          -1          -1          -1          -1          -1          -1
          -1          -1          -1          -1          -1          -1
          -1          -1          -1          -1          -1          -1
          -1          -1          -1          -1          -1          -1
Number of residues                         I                0
Number of secondary structures             I                0
Redundant internal dimensions              I   N=           4
         174          30          58          86
Redundant internal coordinate indices      I   N=         696
           1           2           0           0           1          12
           0           0           1          13           0           0
           1          14           0           0           2           3
           0           0           2           4           0           0
           2          10           0           0           3          15
           0           0           3          16           0           0
           3          17           0           0           4           5
           0           0           4          18           0           0
           4          19           0           0           5           6
           0           0           5          20           0           0
           5          21           0           0           6           7
           0           0           6          22           0           0
           6          23           0           0           7           8
           0           0           7           9           0           0
           7          10           0           0           8          24
           0           0           8          25           0           0
           8          26           0           0           9          27
           0           0           9          28           0           0
           9          29           0           0          10          11
           0           0          11          30           0           0
           2           1          12           0           2           1
          13           0           2           1          14           0
          12           1          13           0          12           1
          14           0          13           1          14           0
           1           2           3           0           1           2
           4           0           1           2          10           0
           3           2           4           0           3           2
          10           0           4           2          10           0
           2           3          15           0           2           3
          16           0           2           3          17           0
          15           3          16           0          15           3
          17           0          16           3          17           0
           2           4           5           0           2           4
          18           0           2           4          19           0
           5           4          18           0           5           4
          19           0          18           4          19           0
           4           5           6           0           4           5
          20           0           4           5          21           0
           6           5          20           0           6           5
          21           0          20           5          21           0
           5           6           7           0           5           6
          22           0           5           6          23           0
           7           6          22           0           7           6
          23           0          22           6          23           0
           6           7           8           0           6           7
           9           0           6           7          10           0
           8           7           9           0           8           7
          10           0           9           7          10           0
           7           8          24           0           7           8
          25           0           7           8          26           0
          24           8          25           0          24           8
          26           0          25           8          26           0
           7           9          27           0           7           9
          28           0           7           9          29           0
          27           9          28           0          27           9
          29           0          28           9          29           0
           2          10           7           0           2          10
          11           0           7          10          11           0
          10          11          30           0          12           1
           2           3          12           1           2           4
          12           1           2          10          13           1
           2           3          13           1           2           4
          13           1           2          10          14           1
           2           3          14           1           2           4
          14           1           2          10           1           2
           3          15           1           2           3          16
           1           2           3          17           4           2
           3          15           4           2           3          16
           4           2           3          17          10           2
           3          15          10           2           3          16
          10           2           3          17           1           2
           4           5           1           2           4          18
           1           2           4          19           3           2
           4           5           3           2           4          18
           3           2           4          19          10           2
           4           5          10           2           4          18
          10           2           4          19           1           2
          10           7           1           2          10          11
           3           2          10           7           3           2
          10          11           4           2          10           7
           4           2          10          11           2           4
           5           6           2           4           5          20
           2           4           5          21          18           4
           5           6          18           4           5          20
          18           4           5          21          19           4
           5           6          19           4           5          20
          19           4           5          21           4           5
           6           7           4           5           6          22
           4           5           6          23          20           5
           6           7          20           5           6          22
          20           5           6          23          21           5
           6           7          21           5           6          22
          21           5           6          23           5           6
           7           8           5           6           7           9
           5           6           7          10          22           6
           7           8          22           6           7           9
          22           6           7          10          23           6
           7           8          23           6           7           9
          23           6           7          10           6           7
           8          24           6           7           8          25
           6           7           8          26           9           7
           8          24           9           7           8          25
           9           7           8          26          10           7
           8          24          10           7           8          25
          10           7           8          26           6           7
           9          27           6           7           9          28
           6           7           9          29           8           7
           9          27           8           7           9          28
           8           7           9          29          10           7
           9          27          10           7           9          28
          10           7           9          29           6           7
          10           2           6           7          10          11
           8           7          10           2           8           7
          10          11           9           7          10           2
           9           7          10          11           2          10
          11          30           7          10          11          30
Redundant internal coordinates             R   N=         174
  2.92683213E+00  2.06744658E+00  2.06578833E+00  2.06412925E+00  2.90973966E+00
  2.92002727E+00  2.84404688E+00  2.06297532E+00  2.06712951E+00  2.06744540E+00
  2.89098627E+00  2.07327337E+00  2.06860998E+00  2.89156502E+00  2.06827611E+00
  2.07165249E+00  2.91891424E+00  2.07339653E+00  2.06918858E+00  2.92582806E+00
  2.91455527E+00  2.85117034E+00  2.06840358E+00  2.06777647E+00  2.06242486E+00
  2.07725704E+00  2.06795195E+00  2.06655713E+00  2.52993145E+00  1.85369520E+00
  1.87921717E+00  1.93927613E+00  1.96478602E+00  1.88808331E+00  1.88527184E+00
  1.90478378E+00  1.92253441E+00  1.95919099E+00  1.88082639E+00  1.92706155E+00
  1.89058519E+00  1.88134726E+00  1.96069656E+00  1.87823381E+00  1.94460838E+00
  1.88809122E+00  1.90445227E+00  1.88528499E+00  1.99394293E+00  1.89570136E+00
  1.86418503E+00  1.90488447E+00  1.93866720E+00  1.86134115E+00  1.91686042E+00
  1.90750589E+00  1.94181299E+00  1.90377029E+00  1.94020804E+00  1.85215132E+00
  1.98637972E+00  1.90635063E+00  1.94125520E+00  1.89718351E+00  1.86464727E+00
  1.86347522E+00  1.95718804E+00  1.92023367E+00  1.88199456E+00  1.92449991E+00
  1.88380018E+00  1.89425134E+00  1.95038693E+00  1.88391325E+00  1.95994595E+00
  1.88498970E+00  1.89438455E+00  1.88781459E+00  1.98639376E+00  1.95557303E+00
  1.88134386E+00  1.91407755E+00  1.83885657E+00  1.88065148E+00  2.25016196E+00
  1.95195549E+00  2.04896497E+00  1.88313828E+00 -9.70937356E-01  1.18412827E+00
 -3.03012379E+00  1.09370138E+00 -3.03441830E+00 -9.65485052E-01 -3.04697292E+00
 -8.91907300E-01  1.17702595E+00 -8.60662810E-01  1.21579100E+00 -3.00371748E+00
 -3.03432643E+00 -9.57872622E-01  1.10580421E+00  1.19249679E+00 -3.01423470E+00
 -9.50557873E-01  1.31924147E+00 -2.83315729E+00 -8.31618354E-01 -2.81141526E+00
 -6.80628717E-01  1.32091022E+00 -7.49384588E-01  1.38140196E+00 -2.90024442E+00
 -1.55351037E+00  1.30739761E+00  2.65001166E+00 -7.72265669E-01  5.64669111E-01
 -2.85760822E+00  1.04174221E+00  3.12961440E+00 -1.11395819E+00 -1.08400724E+00
  1.00386496E+00  3.04347767E+00 -3.13140379E+00 -1.04353160E+00  9.96081114E-01
 -1.04823806E+00  1.07533024E+00  3.12778082E+00 -3.13838980E+00 -1.01482150E+00
  1.03762909E+00  1.10840202E+00 -3.05121498E+00 -9.98764399E-01 -1.30732468E+00
  2.82718809E+00  7.64194546E-01  2.84721537E+00  6.98542826E-01 -1.36445072E+00
  8.42233056E-01 -1.30643948E+00  2.91375228E+00  3.01934784E+00 -1.19363651E+00
  8.85708222E-01 -1.11757089E+00  9.52630061E-01  3.03197480E+00  9.48894532E-01
  3.01909548E+00 -1.18474509E+00  2.93991200E+00 -1.15910492E+00  9.07185235E-01
  7.72192988E-01  2.95636138E+00 -1.26053377E+00 -1.28785574E+00  8.96312651E-01
  2.96260281E+00 -5.73749960E-01  2.86166954E+00  1.54410626E+00 -1.30365955E+00
 -2.65335804E+00  7.82061453E-01  3.13612421E+00 -2.50651507E-01
ZRed-IntVec                                I   N=         174
           0           0           0           0           0           0
           0           0           0           0           0           0
           0           0           0           0           0           0
           0           0           0           0           0           0
           0           0           0           0           0           0
           0           0           0           0           0           0
           0           0           0           0           0           0
           0           0           0           0           0           0
           0           0           0           0           0           0
           0           0           0           0           0           0
           0           0           0           0           0           0
           0           0           0           0           0           0
           0           0           0           0           0           0
           0           0           0           0           0           0
           0           0           0           0           0           0
           0           0           0           0           0           0
           0           0           0           0           0           0
           0           0           0           0           0           0
           0           0           0           0           0           0
           0           0           0           0           0           0
           0           0           0           0           0           0
           0           0           0           0           0           0
           0           0           0           0           0           0
           0           0           0           0           0           0
           0           0           0           0           0           0
           0           0           0           0           0           0
           0           0           0           0           0           0
           0           0           0           0           0           0
           0           0           0           0           0           0
ZRed-FPVec                                 R   N=         174
  0.00000000E+00  0.00000000E+00  0.00000000E+00  0.00000000E+00  0.00000000E+00
  0.00000000E+00  0.00000000E+00  0.00000000E+00  0.00000000E+00  0.00000000E+00
  0.00000000E+00  0.00000000E+00  0.00000000E+00  0.00000000E+00  0.00000000E+00
  0.00000000E+00  0.00000000E+00  0.00000000E+00  0.00000000E+00  0.00000000E+00
  0.00000000E+00  0.00000000E+00  0.00000000E+00  0.00000000E+00  0.00000000E+00
  0.00000000E+00  0.00000000E+00  0.00000000E+00  0.00000000E+00  0.00000000E+00
  0.00000000E+00  0.00000000E+00  0.00000000E+00  0.00000000E+00  0.00000000E+00
  0.00000000E+00  0.00000000E+00  0.00000000E+00  0.00000000E+00  0.00000000E+00
  0.00000000E+00  0.00000000E+00  0.00000000E+00  0.00000000E+00  0.00000000E+00
  0.00000000E+00  0.00000000E+00  0.00000000E+00  0.00000000E+00  0.00000000E+00
  0.00000000E+00  0.00000000E+00  0.00000000E+00  0.00000000E+00  0.00000000E+00
  0.00000000E+00  0.00000000E+00  0.00000000E+00  0.00000000E+00  0.00000000E+00
  0.00000000E+00  0.00000000E+00  0.00000000E+00  0.00000000E+00  0.00000000E+00
  0.00000000E+00  0.00000000E+00  0.00000000E+00  0.00000000E+00  0.00000000E+00
  0.00000000E+00  0.00000000E+00  0.00000000E+00  0.00000000E+00  0.00000000E+00
  0.00000000E+00  0.00000000E+00  0.00000000E+00  0.00000000E+00  0.00000000E+00
  0.00000000E+00  0.00000000E+00  0.00000000E+00  0.00000000E+00  0.00000000E+00
  0.00000000E+00  0.00000000E+00  0.00000000E+00  0.00000000E+00  0.00000000E+00
  0.00000000E+00  0.00000000E+00  0.00000000E+00  0.00000000E+00  0.00000000E+00
  0.00000000E+00  0.00000000E+00  0.00000000E+00  0.00000000E+00  0.00000000E+00
  0.00000000E+00  0.00000000E+00  0.00000000E+00  0.00000000E+00  0.00000000E+00
  0.00000000E+00  0.00000000E+00  0.00000000E+00  0.00000000E+00  0.00000000E+00
  0.00000000E+00  0.00000000E+00  0.00000000E+00  0.00000000E+00  0.00000000E+00
  0.00000000E+00  0.00000000E+00  0.00000000E+00  0.00000000E+00  0.00000000E+00
  0.00000000E+00  0.00000000E+00  0.00000000E+00  0.00000000E+00  0.00000000E+00
  0.00000000E+00  0.00000000E+00  0.00000000E+00  0.00000000E+00  0.00000000E+00
  0.00000000E+00  0.00000000E+00  0.00000000E+00  0.00000000E+00  0.00000000E+00
  0.00000000E+00  0.00000000E+00  0.00000000E+00  0.00000000E+00  0.00000000E+00
  0.00000000E+00  0.00000000E+00  0.00000000E+00  0.00000000E+00  0.00000000E+00
  0.00000000E+00  0.00000000E+00  0.00000000E+00  0.00000000E+00  0.00000000E+00
  0.00000000E+00  0.00000000E+00  0.00000000E+00  0.00000000E+00  0.00000000E+00
  0.00000000E+00  0.00000000E+00  0.00000000E+00  0.00000000E+00  0.00000000E+00
  0.00000000E+00  0.00000000E+00  0.00000000E+00  0.00000000E+00  0.00000000E+00
  0.00000000E+00  0.00000000E+00  0.00000000E+00  0.00000000E+00  0.00000000E+00
  0.00000000E+00  0.00000000E+00  0.00000000E+00  0.00000000E+00
ZRed-Constraint1                           R   N=         174
  2.92683213E+00  2.06744658E+00  2.06578833E+00  2.06412925E+00  2.90973966E+00
  2.92002727E+00  2.84404688E+00  2.06297532E+00  2.06712951E+00  2.06744540E+00
  2.89098627E+00  2.07327337E+00  2.06860998E+00  2.89156502E+00  2.06827611E+00
  2.07165249E+00  2.91891424E+00  2.07339653E+00  2.06918858E+00  2.92582806E+00
  2.91455527E+00  2.85117034E+00  2.06840358E+00  2.06777647E+00  2.06242486E+00
  2.07725704E+00  2.06795195E+00  2.06655713E+00  2.52993145E+00  1.85369520E+00
  1.87921717E+00  1.93927613E+00  1.96478602E+00  1.88808331E+00  1.88527184E+00
  1.90478378E+00  1.92253441E+00  1.95919099E+00  1.88082639E+00  1.92706155E+00
  1.89058519E+00  1.88134726E+00  1.96069656E+00  1.87823381E+00  1.94460838E+00
  1.88809122E+00  1.90445227E+00  1.88528499E+00  1.99394293E+00  1.89570136E+00
  1.86418503E+00  1.90488447E+00  1.93866720E+00  1.86134115E+00  1.91686042E+00
  1.90750589E+00  1.94181299E+00  1.90377029E+00  1.94020804E+00  1.85215132E+00
  1.98637972E+00  1.90635063E+00  1.94125520E+00  1.89718351E+00  1.86464727E+00
  1.86347522E+00  1.95718804E+00  1.92023367E+00  1.88199456E+00  1.92449991E+00
  1.88380018E+00  1.89425134E+00  1.95038693E+00  1.88391325E+00  1.95994595E+00
  1.88498970E+00  1.89438455E+00  1.88781459E+00  1.98639376E+00  1.95557303E+00
  1.88134386E+00  1.91407755E+00  1.83885657E+00  1.88065148E+00  2.25016196E+00
  1.95195549E+00  2.04896497E+00  1.88313828E+00 -9.70937356E-01  1.18412827E+00
 -3.03012379E+00  1.09370138E+00 -3.03441830E+00 -9.65485052E-01 -3.04697292E+00
 -8.91907300E-01  1.17702595E+00 -8.60662810E-01  1.21579100E+00 -3.00371748E+00
 -3.03432643E+00 -9.57872622E-01  1.10580421E+00  1.19249679E+00 -3.01423470E+00
 -9.50557873E-01  1.31924147E+00 -2.83315729E+00 -8.31618354E-01 -2.81141526E+00
 -6.80628717E-01  1.32091022E+00 -7.49384588E-01  1.38140196E+00 -2.90024442E+00
 -1.55351037E+00  1.30739761E+00  2.65001166E+00 -7.72265669E-01  5.64669111E-01
 -2.85760822E+00  1.04174221E+00  3.12961440E+00 -1.11395819E+00 -1.08400724E+00
  1.00386496E+00  3.04347767E+00 -3.13140379E+00 -1.04353160E+00  9.96081114E-01
 -1.04823806E+00  1.07533024E+00  3.12778082E+00 -3.13838980E+00 -1.01482150E+00
  1.03762909E+00  1.10840202E+00 -3.05121498E+00 -9.98764399E-01 -1.30732468E+00
  2.82718809E+00  7.64194546E-01  2.84721537E+00  6.98542826E-01 -1.36445072E+00
  8.42233056E-01 -1.30643948E+00  2.91375228E+00  3.01934784E+00 -1.19363651E+00
  8.85708222E-01 -1.11757089E+00  9.52630061E-01  3.03197480E+00  9.48894532E-01
  3.01909548E+00 -1.18474509E+00  2.93991200E+00 -1.15910492E+00  9.07185235E-01
  7.72192988E-01  2.95636138E+00 -1.26053377E+00 -1.28785574E+00  8.96312651E-01
  2.96260281E+00 -5.73749960E-01  2.86166954E+00  1.54410626E+00 -1.30365955E+00
 -2.65335804E+00  7.82061453E-01  3.13612421E+00 -2.50651507E-01
ZRed-Constraint2                           R   N=         174
  2.96570673E+00  2.05992496E+00  2.05973507E+00  2.05960227E+00  2.97514480E+00
  2.96433471E+00  2.87141524E+00  2.05989060E+00  2.05987243E+00  2.05978865E+00
  2.93025856E+00  2.05980510E+00  2.05972954E+00  2.93081836E+00  2.05989105E+00