Title Card Required                                                     
Freq      RB3LYP                                                      6-31G(d)            
Number of atoms                            I               24
Info1-9                                    I   N=           9
          58          58        1002           0           0         100
           6          18        -502
Full Title                                 C   N=           2
Title Card Required     
Route                                      C   N=           6
#P opt freq b3lyp/6-31g(d) geom=connectivity temperature=0.0
01          
Charge                                     I                0
Multiplicity                               I                1
Number of electrons                        I              100
Number of alpha electrons                  I               50
Number of beta electrons                   I               50
Number of basis functions                  I              230
Number of independent functions            I              230
Number of point charges in /Mol/           I                0
Number of translation vectors              I                0
Atomic numbers                             I   N=          24
           6           8           6           7           6           6
           6           6           6           6           6           6
           7           8           1           1           1           1
           1           1           1           1           1           1
Nuclear charges                            R   N=          24
  6.00000000E+00  8.00000000E+00  6.00000000E+00  7.00000000E+00  6.00000000E+00
  6.00000000E+00  6.00000000E+00  6.00000000E+00  6.00000000E+00  6.00000000E+00
  6.00000000E+00  6.00000000E+00  7.00000000E+00  8.00000000E+00  1.00000000E+00
  1.00000000E+00  1.00000000E+00  1.00000000E+00  1.00000000E+00  1.00000000E+00
  1.00000000E+00  1.00000000E+00  1.00000000E+00  1.00000000E+00
Current cartesian coordinates              R   N=          72
 -2.89674113E+00 -6.63902154E+00 -4.75040845E-02 -3.24869829E+00 -3.95711780E+00
  1.12686526E-01 -1.13149454E+00 -2.56851396E+00  7.02169967E-02  1.14458387E+00
 -3.47846341E+00 -8.46324880E-02  2.74313608E+00 -1.34471489E+00 -6.99886878E-02
  5.36715013E+00 -1.34992274E+00 -1.88627626E-01  6.63649223E+00  9.71404211E-01
 -1.25890362E-01  5.30833154E+00  3.24790379E+00  6.88079934E-02  2.66430889E+00
  3.26109708E+00  1.95262943E-01  1.37709255E+00  9.64396181E-01  1.01167839E-01
 -1.27852497E+00  2.05394872E-01  1.62562006E-01 -3.48115994E+00  1.51485483E+00
  1.92271689E-01 -3.69567905E+00  4.10145942E+00  3.17784773E-01 -6.03580555E+00
  5.02021451E+00 -6.21298747E-01 -1.75927746E+00 -7.31578996E+00  1.54006750E+00
 -4.79063677E+00 -7.45130098E+00  1.30755248E-02 -1.94197618E+00 -7.13994410E+00
 -1.81107146E+00  6.38874890E+00 -3.12461521E+00 -3.19657804E-01  8.68824523E+00
  1.00283081E+00 -2.15375282E-01  6.33381760E+00  5.02525701E+00  1.39123179E-01
  1.67809266E+00  5.05172563E+00  4.13684086E-01 -5.27964799E+00  5.28886982E-01
  2.21853999E-01 -2.27742411E+00  5.09080889E+00 -5.22199020E-01 -6.75778992E+00
  5.88912827E+00  8.27658791E-01
Number of symbols in /Mol/                 I                0
Force Field                                I                0
Atom Types                                 C   N=          24
                                                            
                                                            
                                                            
                                                            
                                                
Int Atom Types                             I   N=          24
           0           0           0           0           0           0
           0           0           0           0           0           0
           0           0           0           0           0           0
           0           0           0           0           0           0
MM charges                                 R   N=          24
  0.00000000E+00  0.00000000E+00  0.00000000E+00  0.00000000E+00  0.00000000E+00
  0.00000000E+00  0.00000000E+00  0.00000000E+00  0.00000000E+00  0.00000000E+00
  0.00000000E+00  0.00000000E+00  0.00000000E+00  0.00000000E+00  0.00000000E+00
  0.00000000E+00  0.00000000E+00  0.00000000E+00  0.00000000E+00  0.00000000E+00
  0.00000000E+00  0.00000000E+00  0.00000000E+00  0.00000000E+00
Integer atomic weights                     I   N=          24
          12          16          12          14          12          12
          12          12          12          12          12          12
          14          16           1           1           1           1
           1           1           1           1           1           1
Real atomic weights                        R   N=          24
  1.20000000E+01  1.59949146E+01  1.20000000E+01  1.40030740E+01  1.20000000E+01
  1.20000000E+01  1.20000000E+01  1.20000000E+01  1.20000000E+01  1.20000000E+01
  1.20000000E+01  1.20000000E+01  1.40030740E+01  1.59949146E+01  1.00782504E+00
  1.00782504E+00  1.00782504E+00  1.00782504E+00  1.00782504E+00  1.00782504E+00
  1.00782504E+00  1.00782504E+00  1.00782504E+00  1.00782504E+00
Atom fragment info                         I   N=          24
           0           0           0           0           0           0
           0           0           0           0           0           0
           0           0           0           0           0           0
           0           0           0           0           0           0
Atom residue num                           I   N=          24
           0           0           0           0           0           0
           0           0           0           0           0           0
           0           0           0           0           0           0
           0           0           0           0           0           0
Nuclear spins                              I   N=          24
           0           0           0           2           0           0
           0           0           0           0           0           0
           2           0           1           1           1           1
           1           1           1           1           1           1
Nuclear ZEff                               R   N=          24
 -3.60000000E+00 -5.60000000E+00 -3.60000000E+00 -4.55000000E+00 -3.60000000E+00
 -3.60000000E+00 -3.60000000E+00 -3.60000000E+00 -3.60000000E+00 -3.60000000E+00
 -3.60000000E+00 -3.60000000E+00 -4.55000000E+00 -5.60000000E+00 -1.00000000E+00
 -1.00000000E+00 -1.00000000E+00 -1.00000000E+00 -1.00000000E+00 -1.00000000E+00
 -1.00000000E+00 -1.00000000E+00 -1.00000000E+00 -1.00000000E+00
Nuclear ZNuc                               R   N=          24
  6.00000000E+00  8.00000000E+00  6.00000000E+00  7.00000000E+00  6.00000000E+00
  6.00000000E+00  6.00000000E+00  6.00000000E+00  6.00000000E+00  6.00000000E+00
  6.00000000E+00  6.00000000E+00  7.00000000E+00  8.00000000E+00  1.00000000E+00
  1.00000000E+00  1.00000000E+00  1.00000000E+00  1.00000000E+00  1.00000000E+00
  1.00000000E+00  1.00000000E+00  1.00000000E+00  1.00000000E+00
Nuclear QMom                               R   N=          24
  0.00000000E+00  0.00000000E+00  0.00000000E+00  2.04400000E+00  0.00000000E+00
  0.00000000E+00  0.00000000E+00  0.00000000E+00  0.00000000E+00  0.00000000E+00
  0.00000000E+00  0.00000000E+00  2.04400000E+00  0.00000000E+00  0.00000000E+00
  0.00000000E+00  0.00000000E+00  0.00000000E+00  0.00000000E+00  0.00000000E+00
  0.00000000E+00  0.00000000E+00  0.00000000E+00  0.00000000E+00
Nuclear GFac                               R   N=          24
  0.00000000E+00  0.00000000E+00  0.00000000E+00  4.03761000E-01  0.00000000E+00
  0.00000000E+00  0.00000000E+00  0.00000000E+00  0.00000000E+00  0.00000000E+00
  0.00000000E+00  0.00000000E+00  4.03761000E-01  0.00000000E+00  2.79284600E+00
  2.79284600E+00  2.79284600E+00  2.79284600E+00  2.79284600E+00  2.79284600E+00
  2.79284600E+00  2.79284600E+00  2.79284600E+00  2.79284600E+00
MicOpt                                     I   N=          24
          -1          -1          -1          -1          -1          -1
          -1          -1          -1          -1          -1          -1
          -1          -1          -1          -1          -1          -1
          -1          -1          -1          -1          -1          -1
Number of residues                         I                0
Number of secondary structures             I                0
Redundant internal dimensions              I   N=           4
         115          25          39          51
Redundant internal coordinate indices      I   N=         460
           1           2           0           0           1          15
           0           0           1          16           0           0
           1          17           0           0           2           3
           0           0           3           4           0           0
           3          11           0           0           4           5
           0           0           5           6           0           0
           5          10           0           0           6           7
           0           0           6          18           0           0
           7           8           0           0           7          19
           0           0           8           9           0           0
           8          20           0           0           9          10
           0           0           9          21           0           0
          10          11           0           0          11          12
           0           0          12          13           0           0
          12          22           0           0          13          14
           0           0          13          23           0           0
          14          24           0           0           2           1
          15           0           2           1          16           0
           2           1          17           0          15           1
          16           0          15           1          17           0
          16           1          17           0           1           2
           3           0           2           3           4           0
           2           3          11           0           4           3
          11           0           3           4           5           0
           4           5           6           0           4           5
          10           0           6           5          10           0
           5           6           7           0           5           6
          18           0           7           6          18           0
           6           7           8           0           6           7
          19           0           8           7          19           0
           7           8           9           0           7           8
          20           0           9           8          20           0
           8           9          10           0           8           9
          21           0          10           9          21           0
           5          10           9           0           5          10
          11           0           9          10          11           0
           3          11          10           0           3          11
          12           0          10          11          12           0
          11          12          13           0          11          12
          22           0          13          12          22           0
          12          13          14           0          12          13
          23           0          14          13          23           0
          13          14          24           0          15           1
           2           3          16           1           2           3
          17           1           2           3           1           2
           3           4           1           2           3          11
           2           3           4           5          11           3
           4           5           2           3          11          10
           2           3          11          12           4           3
          11          10           4           3          11          12
           3           4           5           6           3           4
           5          10           4           5           6           7
           4           5           6          18          10           5
           6           7          10           5           6          18
           4           5          10           9           4           5
          10          11           6           5          10           9
           6           5          10          11           5           6
           7           8           5           6           7          19
          18           6           7           8          18           6
           7          19           6           7           8           9
           6           7           8          20          19           7
           8           9          19           7           8          20
           7           8           9          10           7           8
           9          21          20           8           9          10
          20           8           9          21           8           9
          10           5           8           9          10          11
          21           9          10           5          21           9
          10          11           5          10          11           3
           5          10          11          12           9          10
          11           3           9          10          11          12
           3          11          12          13           3          11
          12          22          10          11          12          13
          10          11          12          22          11          12
          13          14          11          12          13          23
          22          12          13          14          22          12
          13          23          12          13          14          24
          23          13          14          24
Redundant internal coordinates             R   N=         115
  2.70963882E+00  2.06693557E+00  2.06162763E+00  2.06704363E+00  2.53230646E+00
  2.45611875E+00  2.77933729E+00  2.66617072E+00  2.62669984E+00  2.68837561E+00
  2.64645502E+00  2.05191772E+00  2.64279560E+00  2.05394390E+00  2.64707776E+00
  2.05318055E+00  2.63450466E+00  2.05588931E+00  2.76263582E+00  2.56264879E+00
  2.59851790E+00  2.05123547E+00  2.68368791E+00  1.92245474E+00  1.83732156E+00
  1.92852470E+00  1.84305340E+00  1.92867999E+00  1.93260454E+00  1.89840094E+00
  1.93254319E+00  2.01878364E+00  2.18058182E+00  2.09728148E+00  2.00520852E+00
  1.83254835E+00  2.21070317E+00  1.96393774E+00  2.10852747E+00  2.06728193E+00
  2.09666564E+00  2.11923124E+00  2.11328814E+00  2.08462496E+00  2.08524237E+00
  2.10573892E+00  2.09115406E+00  2.08625639E+00  2.07371382E+00  2.08124146E+00
  2.12787451E+00  2.09762293E+00  1.82748750E+00  2.35800867E+00  1.79528833E+00
  2.16016425E+00  2.32689928E+00  2.18971304E+00  2.10384652E+00  1.98819917E+00
  1.97780315E+00  2.01557846E+00  1.89042427E+00  1.80143177E+00  1.05100423E+00
 -3.14158782E+00 -1.05098465E+00 -8.48167123E-03  3.11606709E+00  3.14058059E+00
  1.52324936E-02  3.13325598E+00 -4.70143592E-02 -2.37392749E-02  3.07917570E+00
  3.13523397E+00 -9.55746075E-05 -3.13060855E+00  7.16456449E-03  4.24817684E-03
 -3.14116402E+00  3.11679565E+00 -1.42234150E-02 -1.89475198E-02  3.13321872E+00
  7.53952213E-03  3.14078645E+00 -3.13018191E+00  3.06501811E-03 -4.87089430E-03
  3.12756850E+00 -3.13811491E+00 -5.67551397E-03 -9.74634801E-03  3.10374971E+00
  3.14097405E+00 -2.87151907E-02  2.13499424E-02 -3.13473263E+00 -3.09136062E+00
  3.57421187E-02  2.08649428E-02 -3.07652946E+00 -3.10777833E+00  7.80125759E-02
  3.12274734E+00  4.21298848E-02 -7.06856571E-02  3.13188219E+00  2.74771423E+00
  5.52640619E-01 -4.51322163E-01 -2.64639578E+00  2.09930814E+00 -1.92350669E+00
ZRed-IntVec                                I   N=         115
           0           0           0           0           0           0
           0           0           0           0           0           0
           0           0           0           0           0           0
           0           0           0           0           0           0
           0           0           0           0           0           0
           0           0           0           0           0           0
           0           0           0           0           0           0
           0           0           0           0           0           0
           0           0           0           0           0           0
           0           0           0           0           0           0
           0           0           0           0           0           0
           0           0           0           0           0           0
           0           0           0           0           0           0
           0           0           0           0           0           0
           0           0           0           0           0           0
           0           0           0           0           0           0
           0           0           0           0           0           0
           0           0           0           0           0           0
           0           0           0           0           0           0
           0
ZRed-FPVec                                 R   N=         115
  0.00000000E+00  0.00000000E+00  0.00000000E+00  0.00000000E+00  0.00000000E+00
  0.00000000E+00  0.00000000E+00  0.00000000E+00  0.00000000E+00  0.00000000E+00
  0.00000000E+00  0.00000000E+00  0.00000000E+00  0.00000000E+00  0.00000000E+00
  0.00000000E+00  0.00000000E+00  0.00000000E+00  0.00000000E+00  0.00000000E+00
  0.00000000E+00  0.00000000E+00  0.00000000E+00  0.00000000E+00  0.00000000E+00
  0.00000000E+00  0.00000000E+00  0.00000000E+00  0.00000000E+00  0.00000000E+00
  0.00000000E+00  0.00000000E+00  0.00000000E+00  0.00000000E+00  0.00000000E+00
  0.00000000E+00  0.00000000E+00  0.00000000E+00  0.00000000E+00  0.00000000E+00
  0.00000000E+00  0.00000000E+00  0.00000000E+00  0.00000000E+00  0.00000000E+00
  0.00000000E+00  0.00000000E+00  0.00000000E+00  0.00000000E+00  0.00000000E+00
  0.00000000E+00  0.00000000E+00  0.00000000E+00  0.00000000E+00  0.00000000E+00
  0.00000000E+00  0.00000000E+00  0.00000000E+00  0.00000000E+00  0.00000000E+00
  0.00000000E+00  0.00000000E+00  0.00000000E+00  0.00000000E+00  0.00000000E+00
  0.00000000E+00  0.00000000E+00  0.00000000E+00  0.00000000E+00  0.00000000E+00
  0.00000000E+00  0.00000000E+00  0.00000000E+00  0.00000000E+00  0.00000000E+00
  0.00000000E+00  0.00000000E+00  0.00000000E+00  0.00000000E+00  0.00000000E+00
  0.00000000E+00  0.00000000E+00  0.00000000E+00  0.00000000E+00  0.00000000E+00
  0.00000000E+00  0.00000000E+00  0.00000000E+00  0.00000000E+00  0.00000000E+00
  0.00000000E+00  0.00000000E+00  0.00000000E+00  0.00000000E+00  0.00000000E+00
  0.00000000E+00  0.00000000E+00  0.00000000E+00  0.00000000E+00  0.00000000E+00
  0.00000000E+00  0.00000000E+00  0.00000000E+00  0.00000000E+00  0.00000000E+00
  0.00000000E+00  0.00000000E+00  0.00000000E+00  0.00000000E+00  0.00000000E+00
  0.00000000E+00  0.00000000E+00  0.00000000E+00  0.00000000E+00  0.00000000E+00
ZRed-Constraint1                           R   N=         115
  2.70963882E+00  2.06693557E+00  2.06162763E+00  2.06704363E+00  2.53230646E+00
  2.45611875E+00  2.77933729E+00  2.66617072E+00  2.62669984E+00  2.68837561E+00
  2.64645502E+00  2.05191772E+00  2.64279560E+00  2.05394390E+00  2.64707776E+00
  2.05318055E+00  2.63450466E+00  2.05588931E+00  2.76263582E+00  2.56264879E+00
  2.59851790E+00  2.05123547E+00  2.68368791E+00  1.92245474E+00  1.83732156E+00
  1.92852470E+00  1.84305340E+00  1.92867999E+00  1.93260454E+00  1.89840094E+00
  1.93254319E+00  2.01878364E+00  2.18058182E+00  2.09728148E+00  2.00520852E+00
  1.83254835E+00  2.21070317E+00  1.96393774E+00  2.10852747E+00  2.06728193E+00
  2.09666564E+00  2.11923124E+00  2.11328814E+00  2.08462496E+00  2.08524237E+00
  2.10573892E+00  2.09115406E+00  2.08625639E+00  2.07371382E+00  2.08124146E+00
  2.12787451E+00  2.09762293E+00  1.82748750E+00  2.35800867E+00  1.79528833E+00
  2.16016425E+00  2.32689928E+00  2.18971304E+00  2.10384652E+00  1.98819917E+00
  1.97780315E+00  2.01557846E+00  1.89042427E+00  1.80143177E+00  1.05100423E+00
 -3.14158782E+00 -1.05098465E+00 -8.48167123E-03  3.11606709E+00  3.14058059E+00
  1.52324936E-02  3.13325598E+00 -4.70143592E-02 -2.37392749E-02  3.07917570E+00
  3.13523397E+00 -9.55746064E-05 -3.13060855E+00  7.16456449E-03  4.24817684E-03
 -3.14116402E+00  3.11679565E+00 -1.42234150E-02 -1.89475198E-02  3.13321872E+00
  7.53952213E-03  3.14078645E+00 -3.13018191E+00  3.06501811E-03 -4.87089430E-03
  3.12756850E+00 -3.13811491E+00 -5.67551397E-03 -9.74634801E-03  3.10374971E+00
  3.14097405E+00 -2.87151907E-02  2.13499424E-02 -3.13473263E+00 -3.09136062E+00
  3.57421187E-02  2.08649428E-02 -3.07652946E+00 -3.10777833E+00  7.80125759E-02
  3.12274734E+00  4.21298848E-02 -7.06856571E-02  3.13188219E+00  2.74771423E+00
  5.52640619E-01 -4.51322163E-01 -2.64639578E+00  2.09930814E+00 -1.92350669E+00
ZRed-Constraint2                           R   N=         115
  2.72128495E+00  2.05977397E+00  2.05974785E+00  2.05980977E+00  2.53502303E+00
  2.42438216E+00  2.57057947E+00  2.46568034E+00  2.65729408E+00  2.63407536E+00
  2.66463717E+00  2.05980148E+00  2.66764634E+00  2.05975014E+00  2.66613493E+00
  2.05979443E+00  2.67242055E+00  2.05990104E+00  2.60576531E+00  2.54525468E+00
  2.49849176E+00  2.05970567E+00  2.46479735E+00  1.90856349E+00  1.81404134E+00
  1.91070001E+00  1.91064499E+00  1.91061192E+00  1.91058321E+00  1.91059388E+00
  1.91066540E+00  1.97926862E+00  2.12644842E+00  2.19825931E+00  1.95787294E+00
  1.88942967E+00  2.24765424E+00  1.90746915E+00  2.12783725E+00  2.06657736E+00
  2.10606640E+00  2.11054154E+00  2.09934470E+00  2.09099145E+00  2.09284916E+00
  2.10445773E+00  2.08973372E+00  2.08899386E+00  2.07686846E+00  2.10115352E+00
  2.10516332E+00  2.09073506E+00  1.83959216E+00  2.35275191E+00  1.82800303E+00
  2.17602411E+00  2.27870186E+00  2.16543502E+00  2.07631058E+00  2.04143971E+00
  2.12100329E+00  2.09322512E+00  2.06895690E+00  1.91072944E+00  5.51580709E-01
  2.64596263E+00 -1.54279402E+00  1.52251619E+00 -1.65942807E+00 -3.14059696E+00
  3.62686345E-02  3.11550987E+00 -5.56067217E-02 -6.31010195E-02  3.04896769E+00
  3.12518450E+00  6.35917796E-03 -3.09790671E+00  4.37704019E-02  1.83690180E-02
 -3.12313918E+00  3.08375371E+00 -4.44191895E-02 -3.69301016E-02  3.11808231E+00
  7.03183184E-03 -3.13458363E+00 -3.13464551E+00  6.92433682E-03 -1.36068609E-02
  3.12787555E+00  3.12800863E+00 -1.36942705E-02 -4.70994078E-03  3.13702647E+00
  3.13699291E+00 -4.45598743E-03  2.94808259E-02 -3.13034654E+00 -3.11225592E+00
  1.11020177E-02  6.21142710E-02 -3.04751910E+00 -3.06306415E+00  1.10487790E-01
 -3.06783414E+00  7.38151967E-02  3.61721691E-02 -3.10536380E+00 -3.13401899E+00
  7.55938949E-03  7.51802491E-03 -3.13408891E+00  2.74184254E+00 -3.99736033E-01
SymInf integers                            I   N=          26
           1           1           1           1           1           0
           0           0           0           0           0           0
           0           0           0           0           0           0
           0           0           0           0           0           0
           0           0
RotTr to input orientation                 R   N=          12
 -2.39738196E-01  9.39432565E-01  2.44932751E-01 -4.94950290E-01 -3.35309864E-01
  8.01618055E-01  8.35194473E-01  7.09489300E-02  5.45359002E-01 -1.37734703E+00
  1.05682854E+00  5.15201390E+00
Number of contracted shells                I               76
Number of primitive shells                 I              194
Pure/Cartesian d shells                    I                1
Pure/Cartesian f shells                    I                0
Highest angular momentum                   I                2
Largest degree of contraction              I                6
Shell types                                I   N=          76
           0          -1          -1           2           0          -1
          -1           2           0          -1          -1           2
           0          -1          -1           2           0          -1
          -1           2           0          -1          -1           2
           0          -1          -1           2           0          -1
          -1           2           0          -1          -1           2
           0          -1          -1           2           0          -1
          -1           2           0          -1          -1           2
           0          -1          -1           2           0          -1
          -1           2           0           0           0           0
           0           0           0           0           0           0
           0           0           0           0           0           0
           0           0           0           0
Number of primitives per shell             I   N=          76
           6           3           1           1           6           3
           1           1           6           3           1           1
           6           3           1           1           6           3
           1           1           6           3           1           1
           6           3           1           1           6           3
           1           1           6           3           1           1
           6           3           1           1           6           3
           1           1           6           3           1           1
           6           3           1           1           6           3
           1           1           3           1           3           1
           3           1           3           1           3           1
           3           1           3           1           3           1
           3           1           3           1
Shell to atom map                          I   N=          76
           1           1           1           1           2           2
           2           2           3           3           3           3
           4           4           4           4           5           5
           5           5           6           6           6           6
           7           7           7           7           8           8
           8           8           9           9           9           9
          10          10          10          10          11          11
          11          11          12          12          12          12
          13          13          13          13          14          14
          14          14          15          15          16          16
          17          17          18          18          19          19
          20          20          21          21          22          22
          23          23          24          24
Primitive exponents                        R   N=         194
  3.04752488E+03  4.57369518E+02  1.03948685E+02  2.92101553E+01  9.28666296E+00
  3.16392696E+00  7.86827235E+00  1.88128854E+00  5.44249258E-01  1.68714478E-01
  8.00000000E-01  5.48467166E+03  8.25234946E+02  1.88046958E+02  5.29645000E+01
  1.68975704E+01  5.79963534E+00  1.55396162E+01  3.59993359E+00  1.01376175E+00
  2.70005823E-01  8.00000000E-01  3.04752488E+03  4.57369518E+02  1.03948685E+02
  2.92101553E+01  9.28666296E+00  3.16392696E+00  7.86827235E+00  1.88128854E+00
  5.44249258E-01  1.68714478E-01  8.00000000E-01  4.17351146E+03  6.27457911E+02
  1.42902093E+02  4.02343293E+01  1.28202129E+01  4.39043701E+00  1.16263619E+01
  2.71627981E+00  7.72218397E-01  2.12031498E-01  8.00000000E-01  3.04752488E+03
  4.57369518E+02  1.03948685E+02  2.92101553E+01  9.28666296E+00  3.16392696E+00
  7.86827235E+00  1.88128854E+00  5.44249258E-01  1.68714478E-01  8.00000000E-01
  3.04752488E+03  4.57369518E+02  1.03948685E+02  2.92101553E+01  9.28666296E+00
  3.16392696E+00  7.86827235E+00  1.88128854E+00  5.44249258E-01  1.68714478E-01
  8.00000000E-01  3.04752488E+03  4.57369518E+02  1.03948685E+02  2.92101553E+01
  9.28666296E+00  3.16392696E+00  7.86827235E+00  1.88128854E+00  5.44249258E-01
  1.68714478E-01  8.00000000E-01  3.04752488E+03  4.57369518E+02  1.03948685E+02
  2.92101553E+01  9.28666296E+00  3.16392696E+00  7.86827235E+00  1.88128854E+00
  5.44249258E-01  1.68714478E-01  8.00000000E-01  3.04752488E+03  4.57369518E+02
  1.03948685E+02  2.92101553E+01  9.28666296E+00  3.16392696E+00  7.86827235E+00
  1.88128854E+00  5.44249258E-01  1.68714478E-01  8.00000000E-01  3.04752488E+03
  4.57369518E+02  1.03948685E+02  2.92101553E+01  9.28666296E+00  3.16392696E+00
  7.86827235E+00  1.88128854E+00  5.44249258E-01  1.68714478E-01  8.00000000E-01
  3.04752488E+03  4.57369518E+02  1.03948685E+02  2.92101553E+01  9.28666296E+00
  3.16392696E+00  7.86827235E+00  1.88128854E+00  5.44249258E-01  1.68714478E-01
  8.00000000E-01  3.04752488E+03  4.57369518E+02  1.03948685E+02  2.92101553E+01
  9.28666296E+00  3.16392696E+00  7.86827235E+00  1.88128854E+00  5.44249258E-01
  1.68714478E-01  8.00000000E-01  4.17351146E+03  6.27457911E+02  1.42902093E+02
  4.02343293E+01  1.28202129E+01  4.39043701E+00  1.16263619E+01  2.71627981E+00
  7.72218397E-01  2.12031498E-01  8.00000000E-01  5.48467166E+03  8.25234946E+02