 Entering Gaussian System, Link 0=/apps/cent7/gaussian/g16-A.03/g16-haswell/g16/g16
 Initial command:
 /apps/cent7/gaussian/g16-A.03/g16-haswell/g16/l1.exe "/scratch/brown/finej/gaussian/Gau-292125.inp" -scrdir="/scratch/brown/finej/gaussian/"
 Entering Link 1 = /apps/cent7/gaussian/g16-A.03/g16-haswell/g16/l1.exe PID=    292126.
  
 Copyright (c) 1988,1990,1992,1993,1995,1998,2003,2009,2016,
            Gaussian, Inc.  All Rights Reserved.
  
 This is part of the Gaussian(R) 16 program.  It is based on
 the Gaussian(R) 09 system (copyright 2009, Gaussian, Inc.),
 the Gaussian(R) 03 system (copyright 2003, Gaussian, Inc.),
 the Gaussian(R) 98 system (copyright 1998, Gaussian, Inc.),
 the Gaussian(R) 94 system (copyright 1995, Gaussian, Inc.),
 the Gaussian 92(TM) system (copyright 1992, Gaussian, Inc.),
 the Gaussian 90(TM) system (copyright 1990, Gaussian, Inc.),
 the Gaussian 88(TM) system (copyright 1988, Gaussian, Inc.),
 the Gaussian 86(TM) system (copyright 1986, Carnegie Mellon
 University), and the Gaussian 82(TM) system (copyright 1983,
 Carnegie Mellon University). Gaussian is a federally registered
 trademark of Gaussian, Inc.
  
 This software contains proprietary and confidential information,
 including trade secrets, belonging to Gaussian, Inc.
  
 This software is provided under written license and may be
 used, copied, transmitted, or stored only in accord with that
 written license.
  
 The following legend is applicable only to US Government
 contracts under FAR:
  
                    RESTRICTED RIGHTS LEGEND
  
 Use, reproduction and disclosure by the US Government is
 subject to restrictions as set forth in subparagraphs (a)
 and (c) of the Commercial Computer Software - Restricted
 Rights clause in FAR 52.227-19.
  
 Gaussian, Inc.
 340 Quinnipiac St., Bldg. 40, Wallingford CT 06492
  
  
 ---------------------------------------------------------------
 Warning -- This program may not be used in any manner that
 competes with the business of Gaussian, Inc. or will provide
 assistance to any competitor of Gaussian, Inc.  The licensee
 of this program is prohibited from giving any competitor of
 Gaussian, Inc. access to this program.  By using this program,
 the user acknowledges that Gaussian, Inc. is engaged in the
 business of creating and licensing software in the field of
 computational chemistry and represents and warrants to the
 licensee that it is not a competitor of Gaussian, Inc. and that
 it will not use this program in any manner prohibited above.
 ---------------------------------------------------------------
  

 Cite this work as:
 Gaussian 16, Revision A.03,
 M. J. Frisch, G. W. Trucks, H. B. Schlegel, G. E. Scuseria, 
 M. A. Robb, J. R. Cheeseman, G. Scalmani, V. Barone, 
 G. A. Petersson, H. Nakatsuji, X. Li, M. Caricato, A. V. Marenich, 
 J. Bloino, B. G. Janesko, R. Gomperts, B. Mennucci, H. P. Hratchian, 
 J. V. Ortiz, A. F. Izmaylov, J. L. Sonnenberg, D. Williams-Young, 
 F. Ding, F. Lipparini, F. Egidi, J. Goings, B. Peng, A. Petrone, 
 T. Henderson, D. Ranasinghe, V. G. Zakrzewski, J. Gao, N. Rega, 
 G. Zheng, W. Liang, M. Hada, M. Ehara, K. Toyota, R. Fukuda, 
 J. Hasegawa, M. Ishida, T. Nakajima, Y. Honda, O. Kitao, H. Nakai, 
 T. Vreven, K. Throssell, J. A. Montgomery, Jr., J. E. Peralta, 
 F. Ogliaro, M. J. Bearpark, J. J. Heyd, E. N. Brothers, K. N. Kudin, 
 V. N. Staroverov, T. A. Keith, R. Kobayashi, J. Normand, 
 K. Raghavachari, A. P. Rendell, J. C. Burant, S. S. Iyengar, 
 J. Tomasi, M. Cossi, J. M. Millam, M. Klene, C. Adamo, R. Cammi, 
 J. W. Ochterski, R. L. Martin, K. Morokuma, O. Farkas, 
 J. B. Foresman, and D. J. Fox, Gaussian, Inc., Wallingford CT, 2016.
 
 ******************************************
 Gaussian 16:  ES64L-G16RevA.03 25-Dec-2016
                14-Oct-2019 
 ******************************************
 %chk=7.chk
 %nprocshared=24
 Will use up to   24 processors via shared memory.
 %mem=80GB
 --------------------------------------------------------------
 #P opt freq b3lyp/6-31g(d) geom=connectivity temperature=0.001
 --------------------------------------------------------------
 1/18=20,19=15,26=3,38=1,57=2,112=-1000/1,3;
 2/9=110,12=2,17=6,18=5,40=1/2;
 3/5=1,6=6,7=1,11=2,25=1,30=1,71=1,74=-5/1,2,3;
 4//1;
 5/5=2,38=5/2;
 6/7=2,8=2,9=2,10=2,28=1/1;
 7//1,2,3,16;
 1/18=20,19=15,26=3/3(2);
 2/9=110/2;
 99//99;
 2/9=110/2;
 3/5=1,6=6,7=1,11=2,25=1,30=1,71=1,74=-5/1,2,3;
 4/5=5,16=3,69=1/1;
 5/5=2,38=5/2;
 7//1,2,3,16;
 1/18=20,19=15,26=3/3(-5);
 2/9=110/2;
 6/7=2,8=2,9=2,10=2,19=2,28=1/1;
 99/9=1/99;
 Leave Link    1 at Mon Oct 14 02:20:51 2019, MaxMem= 10737418240 cpu:               1.0 elap:               0.1
 (Enter /apps/cent7/gaussian/g16-A.03/g16-haswell/g16/l101.exe)
 -------------------
 Title Card Required
 -------------------
 Symbolic Z-matrix:
 Charge =  0 Multiplicity = 1
 C                     1.4992   -0.0165   -0.0225 
 O                     0.0612   -0.0286    0.0532 
 C                    -0.4212    0.6125    1.1283 
 N                    -0.6533    1.8742    1.1162 
 C                    -1.1114    2.2168    2.2889 
 C                    -1.4857    3.4913    2.7503 
 C                    -1.9067    3.6229    4.0896 
 C                    -1.9391    2.4963    4.9396 
 C                    -1.5675    1.2232    4.4583 
 C                    -1.167     1.0907    3.1085 
 C                    -0.7612    0.0392    2.3141 
 C                    -0.7193   -1.2833    2.5658 
 N                    -1.128    -1.8356    3.6954 
 O                    -1.0569   -3.1234    3.8897 
 H                     1.9161   -0.013     0.9846 
 H                     1.8425   -0.9036   -0.5547 
 H                     1.8275    0.8763   -0.5547 
 H                    -1.4505    4.3553    2.0867 
 H                    -2.2082    4.5991    4.4693 
 H                    -2.2538    2.6106    5.9769 
 H                    -1.5896    0.3561    5.1185 
 H                    -0.3269   -1.9539    1.8014 
 H                    -1.5057   -1.2566    4.4317 
 H                    -1.0468   -3.3048    4.8323 
 
 ITRead=  0  0  0  0  0  0  0  0  0  0  0  0  0  0  0  0  0  0  0  0
 ITRead=  0  0  0  0
 MicOpt= -1 -1 -1 -1 -1 -1 -1 -1 -1 -1 -1 -1 -1 -1 -1 -1 -1 -1 -1 -1
 MicOpt= -1 -1 -1 -1
 NAtoms=     24 NQM=       24 NQMF=       0 NMMI=      0 NMMIF=      0
                NMic=       0 NMicF=      0.
                    Isotopes and Nuclear Properties:
 (Nuclear quadrupole moments (NQMom) in fm**2, nuclear magnetic moments (NMagM)
  in nuclear magnetons)

  Atom         1           2           3           4           5           6           7           8           9          10
 IAtWgt=          12          16          12          14          12          12          12          12          12          12
 AtmWgt=  12.0000000  15.9949146  12.0000000  14.0030740  12.0000000  12.0000000  12.0000000  12.0000000  12.0000000  12.0000000
 NucSpn=           0           0           0           2           0           0           0           0           0           0
 AtZEff=  -0.0000000  -0.0000000  -0.0000000  -0.0000000  -0.0000000  -0.0000000  -0.0000000  -0.0000000  -0.0000000  -0.0000000
 NQMom=    0.0000000   0.0000000   0.0000000   2.0440000   0.0000000   0.0000000   0.0000000   0.0000000   0.0000000   0.0000000
 NMagM=    0.0000000   0.0000000   0.0000000   0.4037610   0.0000000   0.0000000   0.0000000   0.0000000   0.0000000   0.0000000
 AtZNuc=   6.0000000   8.0000000   6.0000000   7.0000000   6.0000000   6.0000000   6.0000000   6.0000000   6.0000000   6.0000000

  Atom        11          12          13          14          15          16          17          18          19          20
 IAtWgt=          12          12          14          16           1           1           1           1           1           1
 AtmWgt=  12.0000000  12.0000000  14.0030740  15.9949146   1.0078250   1.0078250   1.0078250   1.0078250   1.0078250   1.0078250
 NucSpn=           0           0           2           0           1           1           1           1           1           1
 AtZEff=  -0.0000000  -0.0000000  -0.0000000  -0.0000000  -0.0000000  -0.0000000  -0.0000000  -0.0000000  -0.0000000  -0.0000000
 NQMom=    0.0000000   0.0000000   2.0440000   0.0000000   0.0000000   0.0000000   0.0000000   0.0000000   0.0000000   0.0000000
 NMagM=    0.0000000   0.0000000   0.4037610   0.0000000   2.7928460   2.7928460   2.7928460   2.7928460   2.7928460   2.7928460
 AtZNuc=   6.0000000   6.0000000   7.0000000   8.0000000   1.0000000   1.0000000   1.0000000   1.0000000   1.0000000   1.0000000

  Atom        21          22          23          24
 IAtWgt=           1           1           1           1
 AtmWgt=   1.0078250   1.0078250   1.0078250   1.0078250
 NucSpn=           1           1           1           1
 AtZEff=  -0.0000000  -0.0000000  -0.0000000  -0.0000000
 NQMom=    0.0000000   0.0000000   0.0000000   0.0000000
 NMagM=    2.7928460   2.7928460   2.7928460   2.7928460
 AtZNuc=   1.0000000   1.0000000   1.0000000   1.0000000
 Leave Link  101 at Mon Oct 14 02:20:51 2019, MaxMem= 10737418240 cpu:               9.1 elap:               0.4
 (Enter /apps/cent7/gaussian/g16-A.03/g16-haswell/g16/l103.exe)

 GradGradGradGradGradGradGradGradGradGradGradGradGradGradGradGradGradGrad
 Berny optimization.
 Initialization pass.
                           ----------------------------
                           !    Initial Parameters    !
                           ! (Angstroms and Degrees)  !
 --------------------------                            --------------------------
 ! Name  Definition              Value          Derivative Info.                !
 --------------------------------------------------------------------------------
 ! R1    R(1,2)                  1.44           estimate D2E/DX2                !
 ! R2    R(1,15)                 1.09           estimate D2E/DX2                !
 ! R3    R(1,16)                 1.09           estimate D2E/DX2                !
 ! R4    R(1,17)                 1.09           estimate D2E/DX2                !
 ! R5    R(2,3)                  1.3415         estimate D2E/DX2                !
 ! R6    R(3,4)                  1.2829         estimate D2E/DX2                !
 ! R7    R(3,11)                 1.3603         estimate D2E/DX2                !
 ! R8    R(4,5)                  1.3048         estimate D2E/DX2                !
 ! R9    R(5,6)                  1.4062         estimate D2E/DX2                !
 ! R10   R(5,10)                 1.3939         estimate D2E/DX2                !
 ! R11   R(6,7)                  1.4101         estimate D2E/DX2                !
 ! R12   R(6,18)                 1.09           estimate D2E/DX2                !
 ! R13   R(7,8)                  1.4117         estimate D2E/DX2                !
 ! R14   R(7,19)                 1.09           estimate D2E/DX2                !
 ! R15   R(8,9)                  1.4109         estimate D2E/DX2                !
 ! R16   R(8,20)                 1.09           estimate D2E/DX2                !
 ! R17   R(9,10)                 1.4142         estimate D2E/DX2                !
 ! R18   R(9,21)                 1.0901         estimate D2E/DX2                !
 ! R19   R(10,11)                1.3789         estimate D2E/DX2                !
 ! R20   R(11,12)                1.3469         estimate D2E/DX2                !
 ! R21   R(12,13)                1.3221         estimate D2E/DX2                !
 ! R22   R(12,22)                1.0899         estimate D2E/DX2                !
 ! R23   R(13,14)                1.3043         estimate D2E/DX2                !
 ! R24   R(13,23)                1.01           estimate D2E/DX2                !
 ! R25   R(14,24)                0.9599         estimate D2E/DX2                !
 ! A1    A(2,1,15)             109.475          estimate D2E/DX2                !
 ! A2    A(2,1,16)             109.4719         estimate D2E/DX2                !
 ! A3    A(2,1,17)             109.47           estimate D2E/DX2                !
 ! A4    A(15,1,16)            109.4684         estimate D2E/DX2                !
 ! A5    A(15,1,17)            109.469          estimate D2E/DX2                !
 ! A6    A(16,1,17)            109.4731         estimate D2E/DX2                !
 ! A7    A(1,2,3)              113.4037         estimate D2E/DX2                !
 ! A8    A(2,3,4)              121.8365         estimate D2E/DX2                !
 ! A9    A(2,3,11)             125.951          estimate D2E/DX2                !
 ! A10   A(4,3,11)             112.1779         estimate D2E/DX2                !
 ! A11   A(3,4,5)              108.2563         estimate D2E/DX2                !
 ! A12   A(4,5,6)              128.7811         estimate D2E/DX2                !
 ! A13   A(4,5,10)             109.2899         estimate D2E/DX2                !
 ! A14   A(6,5,10)             121.9161         estimate D2E/DX2                !
 ! A15   A(5,6,7)              118.4062         estimate D2E/DX2                !
 ! A16   A(5,6,18)             120.6687         estimate D2E/DX2                !
 ! A17   A(7,6,18)             120.9251         estimate D2E/DX2                !
 ! A18   A(6,7,8)              120.2836         estimate D2E/DX2                !
 ! A19   A(6,7,19)             119.805          estimate D2E/DX2                !
 ! A20   A(8,7,19)             119.9114         estimate D2E/DX2                !
 ! A21   A(7,8,9)              120.5765         estimate D2E/DX2                !
 ! A22   A(7,8,20)             119.7329         estimate D2E/DX2                !
 ! A23   A(9,8,20)             119.6905         estimate D2E/DX2                !
 ! A24   A(8,9,10)             118.9958         estimate D2E/DX2                !
 ! A25   A(8,9,21)             120.3872         estimate D2E/DX2                !
 ! A26   A(10,9,21)            120.617          estimate D2E/DX2                !
 ! A27   A(5,10,9)             119.7903         estimate D2E/DX2                !
 ! A28   A(5,10,11)            105.4009         estimate D2E/DX2                !
 ! A29   A(9,10,11)            134.8028         estimate D2E/DX2                !
 ! A30   A(3,11,10)            104.7369         estimate D2E/DX2                !
 ! A31   A(3,11,12)            124.677          estimate D2E/DX2                !
 ! A32   A(10,11,12)           130.56           estimate D2E/DX2                !
 ! A33   A(11,12,13)           124.0703         estimate D2E/DX2                !
 ! A34   A(11,12,22)           118.9638         estimate D2E/DX2                !
 ! A35   A(13,12,22)           116.9659         estimate D2E/DX2                !
 ! A36   A(12,13,14)           121.5245         estimate D2E/DX2                !
 ! A37   A(12,13,23)           119.933          estimate D2E/DX2                !
 ! A38   A(14,13,23)           118.5425         estimate D2E/DX2                !
 ! A39   A(13,14,24)           109.4767         estimate D2E/DX2                !
 ! D1    D(15,1,2,3)            31.6032         estimate D2E/DX2                !
 ! D2    D(16,1,2,3)           151.6025         estimate D2E/DX2                !
 ! D3    D(17,1,2,3)           -88.3956         estimate D2E/DX2                !
 ! D4    D(1,2,3,4)             87.2338         estimate D2E/DX2                !
 ! D5    D(1,2,3,11)           -95.0782         estimate D2E/DX2                !
 ! D6    D(2,3,4,5)           -179.943          estimate D2E/DX2                !
 ! D7    D(11,3,4,5)             2.078          estimate D2E/DX2                !
 ! D8    D(2,3,11,10)          178.5056         estimate D2E/DX2                !
 ! D9    D(2,3,11,12)           -3.186          estimate D2E/DX2                !
 ! D10   D(4,3,11,10)           -3.6154         estimate D2E/DX2                !
 ! D11   D(4,3,11,12)          174.693          estimate D2E/DX2                !
 ! D12   D(3,4,5,6)            179.0599         estimate D2E/DX2                !
 ! D13   D(3,4,5,10)             0.3644         estimate D2E/DX2                !
 ! D14   D(4,5,6,7)           -177.497          estimate D2E/DX2                !
 ! D15   D(4,5,6,18)             2.5079         estimate D2E/DX2                !
 ! D16   D(10,5,6,7)             1.0525         estimate D2E/DX2                !
 ! D17   D(10,5,6,18)         -178.9427         estimate D2E/DX2                !
 ! D18   D(4,5,10,9)           176.6861         estimate D2E/DX2                !
 ! D19   D(4,5,10,11)           -2.545          estimate D2E/DX2                !
 ! D20   D(6,5,10,9)            -2.1159         estimate D2E/DX2                !
 ! D21   D(6,5,10,11)          178.653          estimate D2E/DX2                !
 ! D22   D(5,6,7,8)              0.4029         estimate D2E/DX2                !
 ! D23   D(5,6,7,19)          -179.5984         estimate D2E/DX2                !
 ! D24   D(18,6,7,8)          -179.602          estimate D2E/DX2                !
 ! D25   D(18,6,7,19)            0.3967         estimate D2E/DX2                !
 ! D26   D(6,7,8,9)             -0.7796         estimate D2E/DX2                !
 ! D27   D(6,7,8,20)           179.2141         estimate D2E/DX2                !
 ! D28   D(19,7,8,9)           179.2217         estimate D2E/DX2                !
 ! D29   D(19,7,8,20)           -0.7846         estimate D2E/DX2                !
 ! D30   D(7,8,9,10)            -0.2699         estimate D2E/DX2                !
 ! D31   D(7,8,9,21)           179.7384         estimate D2E/DX2                !
 ! D32   D(20,8,9,10)          179.7365         estimate D2E/DX2                !
 ! D33   D(20,8,9,21)           -0.2553         estimate D2E/DX2                !
 ! D34   D(8,9,10,5)             1.6891         estimate D2E/DX2                !
 ! D35   D(8,9,10,11)         -179.3556         estimate D2E/DX2                !
 ! D36   D(21,9,10,5)         -178.3191         estimate D2E/DX2                !
 ! D37   D(21,9,10,11)           0.6361         estimate D2E/DX2                !
 ! D38   D(5,10,11,3)            3.5589         estimate D2E/DX2                !
 ! D39   D(5,10,11,12)        -174.61           estimate D2E/DX2                !
 ! D40   D(9,10,11,3)         -175.5006         estimate D2E/DX2                !
 ! D41   D(9,10,11,12)           6.3305         estimate D2E/DX2                !
 ! D42   D(3,11,12,13)        -175.7739         estimate D2E/DX2                !
 ! D43   D(3,11,12,22)           4.2293         estimate D2E/DX2                !
 ! D44   D(10,11,12,13)          2.0725         estimate D2E/DX2                !
 ! D45   D(10,11,12,22)       -177.9242         estimate D2E/DX2                !
 ! D46   D(11,12,13,14)       -179.5661         estimate D2E/DX2                !
 ! D47   D(11,12,13,23)          0.4331         estimate D2E/DX2                !
 ! D48   D(22,12,13,14)          0.4308         estimate D2E/DX2                !
 ! D49   D(22,12,13,23)       -179.5701         estimate D2E/DX2                !
 ! D50   D(12,13,14,24)        157.096          estimate D2E/DX2                !
 ! D51   D(23,13,14,24)        -22.9032         estimate D2E/DX2                !
 --------------------------------------------------------------------------------
 Trust Radius=3.00D-01 FncErr=1.00D-07 GrdErr=1.00D-06 EigMax=2.50D+02 EigMin=1.00D-04
 Number of steps in this run=    125 maximum allowed number of steps=    144.
 GradGradGradGradGradGradGradGradGradGradGradGradGradGradGradGradGradGrad

 Leave Link  103 at Mon Oct 14 02:20:51 2019, MaxMem= 10737418240 cpu:               0.4 elap:               0.0
 (Enter /apps/cent7/gaussian/g16-A.03/g16-haswell/g16/l202.exe)
                          Input orientation:                          
 ---------------------------------------------------------------------
 Center     Atomic      Atomic             Coordinates (Angstroms)
 Number     Number       Type             X           Y           Z
 ---------------------------------------------------------------------
      1          6           0        1.499200   -0.016500   -0.022500
      2          8           0        0.061200   -0.028600    0.053200
      3          6           0       -0.421200    0.612500    1.128300
      4          7           0       -0.653300    1.874200    1.116200
      5          6           0       -1.111400    2.216800    2.288900
      6          6           0       -1.485700    3.491300    2.750300
      7          6           0       -1.906700    3.622900    4.089600
      8          6           0       -1.939100    2.496300    4.939600
      9          6           0       -1.567500    1.223200    4.458300
     10          6           0       -1.167000    1.090700    3.108500
     11          6           0       -0.761200    0.039200    2.314100
     12          6           0       -0.719300   -1.283300    2.565800
     13          7           0       -1.128000   -1.835600    3.695400
     14          8           0       -1.056900   -3.123400    3.889700
     15          1           0        1.916100   -0.013000    0.984600
     16          1           0        1.842500   -0.903600   -0.554700
     17          1           0        1.827500    0.876300   -0.554700
     18          1           0       -1.450500    4.355300    2.086700
     19          1           0       -2.208200    4.599100    4.469300
     20          1           0       -2.253800    2.610600    5.976900
     21          1           0       -1.589600    0.356100    5.118500
     22          1           0       -0.326900   -1.953900    1.801400
     23          1           0       -1.505700   -1.256600    4.431700
     24          1           0       -1.046800   -3.304800    4.832300
 ---------------------------------------------------------------------
                    Distance matrix (angstroms):
                    1          2          3          4          5
     1  C    0.000000
     2  O    1.440042   0.000000
     3  C    2.325493   1.341476   0.000000
     4  N    3.082960   2.293715   1.282928   0.000000
     5  C    4.140704   3.378634   2.096938   1.304782   0.000000
     6  C    5.376124   4.696482   3.471532   2.445033   1.406179
     7  C    6.461792   5.787798   4.476440   3.670160   2.419120
     8  C    6.538999   5.852625   4.514281   4.081504   2.790953
     9  C    5.569477   4.860512   3.574333   3.525506   2.429314
    10  C    4.258835   3.477954   2.169351   2.201595   1.393893
    11  C    3.251494   2.406784   1.360292   2.194045   2.205724
    12  C    3.636732   2.914895   2.397776   3.474982   3.532862
    13  N    4.902457   4.236162   3.617010   4.543152   4.289576
    14  O    5.611754   5.054371   4.688965   5.729852   5.575237
    15  H    1.089985   2.075669   2.423813   3.190714   3.979819
    16  H    1.089972   2.075620   3.202403   4.091100   5.152522
    17  H    1.090004   2.075621   2.821122   3.153106   4.303503
    18  H    5.679973   5.063491   3.998317   2.780873   2.174639
    19  H    7.431342   6.787321   5.499875   4.591957   3.410640
    20  H    7.548474   6.885842   5.555155   5.170134   3.880915
    21  H    6.009110   5.341385   4.165645   4.381745   3.420163
    22  H    3.227192   2.629373   2.654876   3.902613   4.271748
    23  H    5.514270   4.809826   3.947420   4.639077   4.100192
    24  H    6.392505   5.899233   5.427359   6.386414   6.079566
                    6          7          8          9         10
     6  C    0.000000
     7  C    1.410065   0.000000
     8  C    2.447168   1.411658   0.000000
     9  C    2.840463   2.451440   1.410858   0.000000
    10  C    2.448011   2.814560   2.434086   1.414184   0.000000
    11  C    3.554176   4.160225   3.783918   2.578676   1.378912
    12  C    4.839237   5.272825   4.626901   3.253236   2.476052
    13  N    5.421903   5.527838   4.579440   3.182991   2.984829
    14  O    6.725798   6.802550   5.784600   4.413270   4.287311
    15  H    5.193270   6.121650   6.066397   5.072499   3.903154
    16  H    6.427681   7.491010   7.486465   6.425072   5.143283
    17  H    5.360834   6.561828   6.855582   6.064366   4.736247
    18  H    1.090000   2.180857   3.440007   3.930423   3.432501
    19  H    2.168914   1.089973   2.171489   3.436178   3.904452
    20  H    3.431699   2.169592   1.089996   2.168417   3.423295
    21  H    3.930476   3.439647   2.175916   1.090053   2.181359
    22  H    5.647427   6.231559   5.679064   4.323444   3.418167
    23  H    5.036870   4.907887   3.811831   2.480713   2.715768
    24  H    7.121400   7.020261   5.870304   4.573160   4.722960
                   11         12         13         14         15
    11  C    0.000000
    12  C    1.346891   0.000000
    13  N    2.357415   1.322145   0.000000
    14  O    3.545701   2.291867   1.304315   0.000000
    15  H    2.989687   3.325536   4.465070   5.191620   0.000000
    16  H    3.987247   4.055183   5.268382   5.752106   1.779896
    17  H    3.953747   4.570293   5.844034   6.638528   1.779929
    18  H    4.376707   5.705962   6.404621   7.703031   5.624115
    19  H    5.247036   6.359463   6.570473   7.829332   7.101018
    20  H    4.717633   5.399329   5.122632   6.218338   7.013872
    21  H    2.941315   3.156158   2.653646   3.728356   5.432798
    22  H    2.103313   1.089949   2.059852   2.502324   3.076573
    23  H    2.591835   2.025024   1.009968   1.995026   5.013757
    24  H    4.195859   3.054626   1.859485   0.959949   5.866815
                   16         17         18         19         20
    16  H    0.000000
    17  H    1.779963   0.000000
    18  H    6.743654   5.461293   0.000000
    19  H    8.481064   7.442223   2.512037   0.000000
    20  H    8.472961   7.894720   4.338540   2.495810   0.000000
    21  H    6.749174   6.643221   5.020434   4.336724   2.502156
    22  H    3.370554   4.266460   6.414817   7.321119   6.479383
    23  H    6.016580   6.365820   6.082392   5.897808   4.231138
    24  H    6.567616   7.400200   8.147296   7.997015   6.144828
                   21         22         23         24
    21  H    0.000000
    22  H    4.234816   0.000000
    23  H    1.754860   2.965514   0.000000
    24  H    3.711971   3.395518   2.136865   0.000000
 Stoichiometry    C10H10N2O2
 Framework group  C1[X(C10H10N2O2)]
 Deg. of freedom    66
 Full point group                 C1      NOp   1
 Largest Abelian subgroup         C1      NOp   1
 Largest concise Abelian subgroup C1      NOp   1
                         Standard orientation:                         
 ---------------------------------------------------------------------
 Center     Atomic      Atomic             Coordinates (Angstroms)
 Number     Number       Type             X           Y           Z
 ---------------------------------------------------------------------
      1          6           0       -2.208801   -2.673728    0.796729
      2          8           0       -1.750146   -2.099200   -0.441526
      3          6           0       -0.651515   -1.341993   -0.302935
      4          7           0        0.527759   -1.844418   -0.355715
      5          6           0        1.390742   -0.880098   -0.188976
      6          6           0        2.794650   -0.951095   -0.152335
      7          6           0        3.519901    0.232402    0.095918
      8          6           0        2.841221    1.451623    0.309629
      9          6           0        1.432248    1.506665    0.261805
     10          6           0        0.708747    0.322224   -0.009413
     11          6           0       -0.627556    0.008349   -0.140468
     12          6           0       -1.716106    0.801414   -0.155356
     13          7           0       -1.672642    2.120478   -0.076317
     14          8           0       -2.760144    2.840521   -0.086940
     15          1           0       -1.973144   -1.998999    1.619696
     16          1           0       -3.287032   -2.826043    0.749221
     17          1           0       -1.713372   -3.631049    0.958577
     18          1           0        3.307751   -1.899364   -0.312370
     19          1           0        4.609192    0.204739    0.122753
     20          1           0        3.410347    2.358609    0.513498
     21          1           0        0.911168    2.448947    0.431496
     22          1           0       -2.701764    0.343387   -0.237087
     23          1           0       -0.782319    2.592048   -0.005721
     24          1           0       -2.585493    3.690157    0.324299
 ---------------------------------------------------------------------
 Rotational constants (GHZ):           0.8677988           0.6233909           0.3745132
 Leave Link  202 at Mon Oct 14 02:20:52 2019, MaxMem= 10737418240 cpu:               0.5 elap:               0.0
 (Enter /apps/cent7/gaussian/g16-A.03/g16-haswell/g16/l301.exe)
 Standard basis: 6-31G(d) (6D, 7F)
 Ernie: Thresh=  0.10000D-02 Tol=  0.10000D-05 Strict=F.
 There are   230 symmetry adapted cartesian basis functions of A   symmetry.
 There are   230 symmetry adapted basis functions of A   symmetry.
   230 basis functions,   432 primitive gaussians,   230 cartesian basis functions
    50 alpha electrons       50 beta electrons
       nuclear repulsion energy       861.1567443376 Hartrees.
 IExCor=  402 DFT=T Ex+Corr=B3LYP ExCW=0 ScaHFX=  0.200000
 ScaDFX=  0.800000  0.720000  1.000000  0.810000 ScalE2=  1.000000  1.000000
 IRadAn=      5 IRanWt=     -1 IRanGd=            0 ICorTp=0 IEmpDi=  4
 NAtoms=   24 NActive=   24 NUniq=   24 SFac= 1.00D+00 NAtFMM=   60 NAOKFM=F Big=F
 Integral buffers will be    131072 words long.
 Raffenetti 2 integral format.
 Two-electron integral symmetry is turned on.
 Leave Link  301 at Mon Oct 14 02:20:52 2019, MaxMem= 10737418240 cpu:               1.3 elap:               0.1
 (Enter /apps/cent7/gaussian/g16-A.03/g16-haswell/g16/l302.exe)
 NPDir=0 NMtPBC=     1 NCelOv=     1 NCel=       1 NClECP=     1 NCelD=      1
         NCelK=      1 NCelE2=     1 NClLst=     1 CellRange=     0.0.
 One-electron integrals computed using PRISM.
 One-electron integral symmetry used in STVInt
 NBasis=   230 RedAO= T EigKep=  3.09D-04  NBF=   230
 NBsUse=   230 1.00D-06 EigRej= -1.00D+00 NBFU=   230
 Precomputing XC quadrature grid using
 IXCGrd= 4 IRadAn=           5 IRanWt=          -1 IRanGd=           0 AccXCQ= 0.00D+00.
 Generated NRdTot=       0 NPtTot=           0 NUsed=           0 NTot=          32
 NSgBfM=   229   229   229   229   229 MxSgAt=    24 MxSgA2=    24.
 Leave Link  302 at Mon Oct 14 02:20:52 2019, MaxMem= 10737418240 cpu:               5.0 elap:               0.2
 (Enter /apps/cent7/gaussian/g16-A.03/g16-haswell/g16/l303.exe)
 DipDrv:  MaxL=1.
 Leave Link  303 at Mon Oct 14 02:20:52 2019, MaxMem= 10737418240 cpu:               0.7 elap:               0.1
 (Enter /apps/cent7/gaussian/g16-A.03/g16-haswell/g16/l401.exe)
 ExpMin= 1.61D-01 ExpMax= 5.48D+03 ExpMxC= 8.25D+02 IAcc=3 IRadAn=         5 AccDes= 0.00D+00
 Harris functional with IExCor=  402 and IRadAn=       5 diagonalized for initial guess.
 HarFok:  IExCor=  402 AccDes= 0.00D+00 IRadAn=         5 IDoV= 1 UseB2=F ITyADJ=14
 ICtDFT=  3500011 ScaDFX=  1.000000  1.000000  1.000000  1.000000
 FoFCou: FMM=F IPFlag=           0 FMFlag=      100000 FMFlg1=           0
         NFxFlg=           0 DoJE=T BraDBF=F KetDBF=T FulRan=T
         wScrn=  0.000000 ICntrl=       500 IOpCl=  0 I1Cent=   200000004 NGrid=           0
         NMat0=    1 NMatS0=      1 NMatT0=    0 NMatD0=    1 NMtDS0=    0 NMtDT0=    0
 Petite list used in FoFCou.
 Harris En= -646.930555178287    
 JPrj=0 DoOrth=F DoCkMO=F.
 Leave Link  401 at Mon Oct 14 02:20:52 2019, MaxMem= 10737418240 cpu:              10.3 elap:               0.5
 (Enter /apps/cent7/gaussian/g16-A.03/g16-haswell/g16/l502.exe)
 Integral symmetry usage will be decided dynamically.
 Closed shell SCF:
 Using DIIS extrapolation, IDIIS=  1040.
 NGot= 10737418240 LenX= 10737304318 LenY= 10737250977
 Requested convergence on RMS density matrix=1.00D-08 within 128 cycles.
 Requested convergence on MAX density matrix=1.00D-06.
 Requested convergence on             energy=1.00D-06.
 No special actions if energy rises.
 Fock matrices will be formed incrementally for  20 cycles.
 Integral accuracy reduced to 1.0D-05 until final iterations.

 Cycle   1  Pass 0  IDiag  1:
 FoFJK:  IHMeth= 1 ICntrl=       0 DoSepK=F KAlg= 0 I1Cent=           0 FoldK=F
 IRaf= 870000000 NMat=       1 IRICut=       1 DoRegI=T DoRafI=F ISym2E= 0 IDoP0=0 IntGTp=1.
 FoFCou: FMM=F IPFlag=           0 FMFlag=      100000 FMFlg1=           0
         NFxFlg=           0 DoJE=F BraDBF=F KetDBF=F FulRan=T
         wScrn=  0.000000 ICntrl=         0 IOpCl=  0 I1Cent=           0 NGrid=           0
         NMat0=    1 NMatS0=      1 NMatT0=    0 NMatD0=    1 NMtDS0=    0 NMtDT0=    0
 Symmetry not used in FoFCou.
 E= -646.513017527266    
 DIIS: error= 3.23D-02 at cycle   1 NSaved=   1.
 NSaved= 1 IEnMin= 1 EnMin= -646.513017527266     IErMin= 1 ErrMin= 3.23D-02
 ErrMax= 3.23D-02  0.00D+00 EMaxC= 1.00D-01 BMatC= 3.43D-01 BMatP= 3.43D-01
 IDIUse=3 WtCom= 6.77D-01 WtEn= 3.23D-01
 Coeff-Com:  0.100D+01
 Coeff-En:   0.100D+01
 Coeff:      0.100D+01
 Gap=     0.254 Goal=   None    Shift=    0.000
 GapD=    0.254 DampG=1.000 DampE=0.500 DampFc=0.5000 IDamp=-1.
 Damping current iteration by 5.00D-01
 RMSDP=2.07D-02 MaxDP=1.30D+00              OVMax= 9.63D-01

 Cycle   2  Pass 0  IDiag  1:
 RMSU=  1.03D-02    CP:  9.69D-01
 E= -646.045090770296     Delta-E=        0.467926756970 Rises=F Damp=T
 DIIS: error= 2.23D-02 at cycle   2 NSaved=   2.
 NSaved= 2 IEnMin= 1 EnMin= -646.513017527266     IErMin= 2 ErrMin= 2.23D-02
 ErrMax= 2.23D-02  0.00D+00 EMaxC= 1.00D-01 BMatC= 2.28D-01 BMatP= 3.43D-01
 IDIUse=3 WtCom= 7.77D-01 WtEn= 2.23D-01
 Coeff-Com:  0.425D+00 0.575D+00
 Coeff-En:   0.755D+00 0.245D+00
 Coeff:      0.498D+00 0.502D+00
 Gap=    -0.108 Goal=   None    Shift=    0.000
 RMSDP=1.04D-02 MaxDP=6.31D-01 DE= 4.68D-01 OVMax= 5.67D-01

 Cycle   3  Pass 0  IDiag  1:
 RMSU=  4.44D-03    CP:  9.45D-01  9.04D-02
 E= -646.585949037410     Delta-E=       -0.540858267113 Rises=F Damp=F
 DIIS: error= 2.41D-02 at cycle   3 NSaved=   3.
 NSaved= 3 IEnMin= 3 EnMin= -646.585949037410     IErMin= 2 ErrMin= 2.23D-02
 ErrMax= 2.41D-02  0.00D+00 EMaxC= 1.00D-01 BMatC= 2.75D-01 BMatP= 2.28D-01
 IDIUse=2 WtCom= 0.00D+00 WtEn= 1.00D+00
 EnCoef did     3 forward-backward iterations
 Coeff-En:   0.249D+00 0.191D+00 0.561D+00
 Coeff:      0.249D+00 0.191D+00 0.561D+00
 Gap=     0.174 Goal=   None    Shift=    0.000
 RMSDP=6.03D-03 MaxDP=2.08D-01 DE=-5.41D-01 OVMax= 4.89D-01

 Cycle   4  Pass 0  IDiag  1:
 RMSU=  5.32D-03    CP:  9.51D-01  1.59D-01  3.84D-01
 E= -646.603472645195     Delta-E=       -0.017523607786 Rises=F Damp=F
 DIIS: error= 2.28D-02 at cycle   4 NSaved=   4.
 NSaved= 4 IEnMin= 4 EnMin= -646.603472645195     IErMin= 2 ErrMin= 2.23D-02
 ErrMax= 2.28D-02  0.00D+00 EMaxC= 1.00D-01 BMatC= 2.70D-01 BMatP= 2.28D-01
 IDIUse=2 WtCom= 0.00D+00 WtEn= 1.00D+00
 Coeff-En:   0.000D+00 0.000D+00 0.489D+00 0.511D+00
 Coeff:      0.000D+00 0.000D+00 0.489D+00 0.511D+00
 Gap=     0.185 Goal=   None    Shift=    0.000
 RMSDP=3.64D-03 MaxDP=1.11D-01 DE=-1.75D-02 OVMax= 2.63D-01

 Cycle   5  Pass 0  IDiag  1:
 RMSU=  1.44D-03    CP:  9.50D-01  8.57D-02  5.56D-01  4.04D-01
 E= -646.864929549945     Delta-E=       -0.261456904750 Rises=F Damp=F
 DIIS: error= 5.65D-03 at cycle   5 NSaved=   5.
 NSaved= 5 IEnMin= 5 EnMin= -646.864929549945     IErMin= 5 ErrMin= 5.65D-03
 ErrMax= 5.65D-03  0.00D+00 EMaxC= 1.00D-01 BMatC= 2.78D-02 BMatP= 2.28D-01
 IDIUse=3 WtCom= 9.44D-01 WtEn= 5.65D-02
 Coeff-Com: -0.817D-02 0.810D-01 0.226D+00 0.202D+00 0.500D+00
 Coeff-En:   0.000D+00 0.000D+00 0.000D+00 0.342D-01 0.966D+00
 Coeff:     -0.771D-02 0.764D-01 0.213D+00 0.192D+00 0.526D+00
 Gap=     0.147 Goal=   None    Shift=    0.000
 RMSDP=1.00D-03 MaxDP=3.08D-02 DE=-2.61D-01 OVMax= 4.72D-02

 Cycle   6  Pass 0  IDiag  1:
 RMSU=  6.55D-04    CP:  9.50D-01  1.08D-01  6.22D-01  4.33D-01  5.56D-01
 E= -646.887946261315     Delta-E=       -0.023016711369 Rises=F Damp=F
 DIIS: error= 2.39D-03 at cycle   6 NSaved=   6.
 NSaved= 6 IEnMin= 6 EnMin= -646.887946261315     IErMin= 6 ErrMin= 2.39D-03
 ErrMax= 2.39D-03  0.00D+00 EMaxC= 1.00D-01 BMatC= 3.82D-03 BMatP= 2.78D-02
 IDIUse=3 WtCom= 9.76D-01 WtEn= 2.39D-02
 Coeff-Com: -0.483D-01 0.404D-01 0.614D-02 0.163D-01 0.338D+00 0.648D+00
 Coeff-En:   0.000D+00 0.000D+00 0.000D+00 0.000D+00 0.227D-01 0.977D+00
 Coeff:     -0.471D-01 0.394D-01 0.599D-02 0.160D-01 0.330D+00 0.656D+00
 Gap=     0.151 Goal=   None    Shift=    0.000
 RMSDP=3.06D-04 MaxDP=1.05D-02 DE=-2.30D-02 OVMax= 1.42D-02

 Cycle   7  Pass 0  IDiag  1:
 RMSU=  1.66D-04    CP:  9.49D-01  1.05D-01  6.18D-01  4.44D-01  6.74D-01
                    CP:  7.28D-01
 E= -646.890623898637     Delta-E=       -0.002677637322 Rises=F Damp=F
 DIIS: error= 1.34D-03 at cycle   7 NSaved=   7.
 NSaved= 7 IEnMin= 7 EnMin= -646.890623898637     IErMin= 7 ErrMin= 1.34D-03
 ErrMax= 1.34D-03  0.00D+00 EMaxC= 1.00D-01 BMatC= 5.39D-04 BMatP= 3.82D-03
 IDIUse=3 WtCom= 9.87D-01 WtEn= 1.34D-02
 Coeff-Com: -0.263D-01 0.214D-01-0.141D-01 0.563D-02 0.141D+00 0.330D+00
 Coeff-Com:  0.542D+00
 Coeff-En:   0.000D+00 0.000D+00 0.000D+00 0.000D+00 0.000D+00 0.000D+00
 Coeff-En:   0.100D+01
 Coeff:     -0.259D-01 0.211D-01-0.140D-01 0.555D-02 0.139D+00 0.326D+00
 Coeff:      0.548D+00
 Gap=     0.151 Goal=   None    Shift=    0.000
 RMSDP=1.24D-04 MaxDP=5.39D-03 DE=-2.68D-03 OVMax= 1.20D-02

 Cycle   8  Pass 0  IDiag  1:
 RMSU=  7.61D-05    CP:  9.49D-01  1.07D-01  6.12D-01  4.57D-01  6.78D-01
                    CP:  7.70D-01  6.65D-01
 E= -646.891215531162     Delta-E=       -0.000591632525 Rises=F Damp=F
 DIIS: error= 4.48D-04 at cycle   8 NSaved=   8.
 NSaved= 8 IEnMin= 8 EnMin= -646.891215531162     IErMin= 8 ErrMin= 4.48D-04
 ErrMax= 4.48D-04  0.00D+00 EMaxC= 1.00D-01 BMatC= 1.13D-04 BMatP= 5.39D-04
 IDIUse=3 WtCom= 9.96D-01 WtEn= 4.48D-03
 Coeff-Com: -0.102D-01 0.989D-02-0.130D-01 0.234D-02 0.324D-01 0.817D-01
 Coeff-Com:  0.326D+00 0.571D+00
 Coeff-En:   0.000D+00 0.000D+00 0.000D+00 0.000D+00 0.000D+00 0.000D+00
 Coeff-En:   0.000D+00 0.100D+01
 Coeff:     -0.101D-01 0.985D-02-0.130D-01 0.233D-02 0.322D-01 0.814D-01
 Coeff:      0.324D+00 0.573D+00
 Gap=     0.150 Goal=   None    Shift=    0.000
 RMSDP=5.45D-05 MaxDP=1.95D-03 DE=-5.92D-04 OVMax= 4.49D-03

 Cycle   9  Pass 0  IDiag  1:
 RMSU=  3.35D-05    CP:  9.49D-01  1.08D-01  6.10D-01  4.63D-01  6.83D-01
                    CP:  7.78D-01  7.63D-01  7.66D-01
 E= -646.891322367993     Delta-E=       -0.000106836831 Rises=F Damp=F
 DIIS: error= 2.43D-04 at cycle   9 NSaved=   9.
 NSaved= 9 IEnMin= 9 EnMin= -646.891322367993     IErMin= 9 ErrMin= 2.43D-04
 ErrMax= 2.43D-04  0.00D+00 EMaxC= 1.00D-01 BMatC= 1.76D-05 BMatP= 1.13D-04
 IDIUse=3 WtCom= 9.98D-01 WtEn= 2.43D-03
 Coeff-Com: -0.118D-02 0.191D-02-0.487D-02 0.184D-02-0.925D-02-0.351D-01
 Coeff-Com:  0.520D-01 0.276D+00 0.718D+00
 Coeff-En:   0.000D+00 0.000D+00 0.000D+00 0.000D+00 0.000D+00 0.000D+00
 Coeff-En:   0.000D+00 0.000D+00 0.100D+01
 Coeff:     -0.117D-02 0.190D-02-0.486D-02 0.184D-02-0.923D-02-0.350D-01
 Coeff:      0.519D-01 0.275D+00 0.719D+00
 Gap=     0.150 Goal=   None    Shift=    0.000
 RMSDP=3.09D-05 MaxDP=8.08D-04 DE=-1.07D-04 OVMax= 2.31D-03

 Cycle  10  Pass 0  IDiag  1:
 RMSU=  1.64D-05    CP:  9.49D-01  1.08D-01  6.09D-01  4.66D-01  6.86D-01
                    CP:  7.76D-01  7.88D-01  9.59D-01  8.13D-01
 E= -646.891341837637     Delta-E=       -0.000019469644 Rises=F Damp=F
 DIIS: error= 7.62D-05 at cycle  10 NSaved=  10.
 NSaved=10 IEnMin=10 EnMin= -646.891341837637     IErMin=10 ErrMin= 7.62D-05
 ErrMax= 7.62D-05  0.00D+00 EMaxC= 1.00D-01 BMatC= 2.30D-06 BMatP= 1.76D-05
 IDIUse=1 WtCom= 1.00D+00 WtEn= 0.00D+00
 Coeff-Com:  0.275D-03-0.140D-03-0.816D-03 0.104D-02-0.667D-02-0.298D-01
 Coeff-Com: -0.190D-01 0.502D-01 0.437D+00 0.568D+00
 Coeff:      0.275D-03-0.140D-03-0.816D-03 0.104D-02-0.667D-02-0.298D-01
 Coeff:     -0.190D-01 0.502D-01 0.437D+00 0.568D+00
 Gap=     0.150 Goal=   None    Shift=    0.000
 RMSDP=9.33D-06 MaxDP=3.18D-04 DE=-1.95D-05 OVMax= 7.73D-04

 Initial convergence to 1.0D-05 achieved.  Increase integral accuracy.
 Cycle  11  Pass 1  IDiag  1:
 E= -646.891357206990     Delta-E=       -0.000015369353 Rises=F Damp=F
 DIIS: error= 2.13D-05 at cycle   1 NSaved=   1.
 NSaved= 1 IEnMin= 1 EnMin= -646.891357206990     IErMin= 1 ErrMin= 2.13D-05
 ErrMax= 2.13D-05  0.00D+00 EMaxC= 1.00D-01 BMatC= 3.03D-07 BMatP= 3.03D-07
 IDIUse=1 WtCom= 1.00D+00 WtEn= 0.00D+00
 Coeff-Com:  0.100D+01
 Coeff:      0.100D+01
 Gap=     0.150 Goal=   None    Shift=    0.000
 RMSDP=9.33D-06 MaxDP=3.18D-04 DE=-1.54D-05 OVMax= 6.00D-04

 Cycle  12  Pass 1  IDiag  1:
 RMSU=  1.78D-05    CP:  1.00D+00
 E= -646.891356570860     Delta-E=        0.000000636130 Rises=F Damp=F
 DIIS: error= 4.34D-05 at cycle   2 NSaved=   2.
 NSaved= 2 IEnMin= 1 EnMin= -646.891357206990     IErMin= 1 ErrMin= 2.13D-05
 ErrMax= 4.34D-05  0.00D+00 EMaxC= 1.00D-01 BMatC= 8.39D-07 BMatP= 3.03D-07
 IDIUse=1 WtCom= 1.00D+00 WtEn= 0.00D+00
 Coeff-Com:  0.636D+00 0.364D+00
 Coeff:      0.636D+00 0.364D+00
 Gap=     0.150 Goal=   None    Shift=    0.000
 RMSDP=5.53D-06 MaxDP=1.72D-04 DE= 6.36D-07 OVMax= 4.49D-04

 Cycle  13  Pass 1  IDiag  1:
 RMSU=  5.11D-06    CP:  1.00D+00  8.82D-01
 E= -646.891357495658     Delta-E=       -0.000000924798 Rises=F Damp=F
 DIIS: error= 7.83D-06 at cycle   3 NSaved=   3.
 NSaved= 3 IEnMin= 3 EnMin= -646.891357495658     IErMin= 3 ErrMin= 7.83D-06
 ErrMax= 7.83D-06  0.00D+00 EMaxC= 1.00D-01 BMatC= 2.32D-08 BMatP= 3.03D-07
 IDIUse=1 WtCom= 1.00D+00 WtEn= 0.00D+00
 Coeff-Com:  0.142D+00 0.162D+00 0.696D+00
 Coeff:      0.142D+00 0.162D+00 0.696D+00
 Gap=     0.150 Goal=   None    Shift=    0.000
 RMSDP=1.32D-06 MaxDP=3.87D-05 DE=-9.25D-07 OVMax= 8.81D-05

 Cycle  14  Pass 1  IDiag  1:
 RMSU=  9.84D-07    CP:  1.00D+00  9.05D-01  8.49D-01
 E= -646.891357510059     Delta-E=       -0.000000014401 Rises=F Damp=F
 DIIS: error= 4.56D-06 at cycle   4 NSaved=   4.
 NSaved= 4 IEnMin= 4 EnMin= -646.891357510059     IErMin= 4 ErrMin= 4.56D-06
 ErrMax= 4.56D-06  0.00D+00 EMaxC= 1.00D-01 BMatC= 1.10D-08 BMatP= 2.32D-08
 IDIUse=1 WtCom= 1.00D+00 WtEn= 0.00D+00
 Coeff-Com:  0.683D-02 0.597D-01 0.474D+00 0.459D+00
 Coeff:      0.683D-02 0.597D-01 0.474D+00 0.459D+00
 Gap=     0.150 Goal=   None    Shift=    0.000
 RMSDP=6.21D-07 MaxDP=1.83D-05 DE=-1.44D-08 OVMax= 4.29D-05

 Cycle  15  Pass 1  IDiag  1:
 RMSU=  2.28D-07    CP:  1.00D+00  9.04D-01  8.81D-01  4.39D-01
 E= -646.891357520528     Delta-E=       -0.000000010469 Rises=F Damp=F
 DIIS: error= 8.36D-07 at cycle   5 NSaved=   5.
 NSaved= 5 IEnMin= 5 EnMin= -646.891357520528     IErMin= 5 ErrMin= 8.36D-07
 ErrMax= 8.36D-07  0.00D+00 EMaxC= 1.00D-01 BMatC= 5.05D-10 BMatP= 1.10D-08
 IDIUse=1 WtCom= 1.00D+00 WtEn= 0.00D+00
 Coeff-Com: -0.154D-02 0.311D-01 0.267D+00 0.293D+00 0.411D+00
 Coeff:     -0.154D-02 0.311D-01 0.267D+00 0.293D+00 0.411D+00
 Gap=     0.150 Goal=   None    Shift=    0.000
 RMSDP=1.28D-07 MaxDP=4.05D-06 DE=-1.05D-08 OVMax= 8.73D-06

 Cycle  16  Pass 1  IDiag  1:
 RMSU=  5.46D-08    CP:  1.00D+00  9.04D-01  8.82D-01  4.79D-01  5.25D-01
 E= -646.891357521021     Delta-E=       -0.000000000493 Rises=F Damp=F
 DIIS: error= 1.51D-07 at cycle   6 NSaved=   6.
 NSaved= 6 IEnMin= 6 EnMin= -646.891357521021     IErMin= 6 ErrMin= 1.51D-07
 ErrMax= 1.51D-07  0.00D+00 EMaxC= 1.00D-01 BMatC= 1.68D-11 BMatP= 5.05D-10
 IDIUse=1 WtCom= 1.00D+00 WtEn= 0.00D+00
 Coeff-Com: -0.142D-02 0.134D-01 0.115D+00 0.134D+00 0.201D+00 0.539D+00
 Coeff:     -0.142D-02 0.134D-01 0.115D+00 0.134D+00 0.201D+00 0.539D+00
 Gap=     0.150 Goal=   None    Shift=    0.000
 RMSDP=2.53D-08 MaxDP=1.02D-06 DE=-4.93D-10 OVMax= 1.61D-06

 Cycle  17  Pass 1  IDiag  1:
 RMSU=  2.03D-08    CP:  1.00D+00  9.04D-01  8.82D-01  4.85D-01  5.60D-01
                    CP:  7.97D-01
 E= -646.891357521032     Delta-E=       -0.000000000011 Rises=F Damp=F
 DIIS: error= 9.82D-08 at cycle   7 NSaved=   7.
 NSaved= 7 IEnMin= 7 EnMin= -646.891357521032     IErMin= 7 ErrMin= 9.82D-08
 ErrMax= 9.82D-08  0.00D+00 EMaxC= 1.00D-01 BMatC= 4.24D-12 BMatP= 1.68D-11
 IDIUse=1 WtCom= 1.00D+00 WtEn= 0.00D+00
 Coeff-Com: -0.620D-03 0.400D-02 0.318D-01 0.425D-01 0.556D-01 0.348D+00
 Coeff-Com:  0.519D+00
 Coeff:     -0.620D-03 0.400D-02 0.318D-01 0.425D-01 0.556D-01 0.348D+00
 Coeff:      0.519D+00
 Gap=     0.150 Goal=   None    Shift=    0.000
 RMSDP=1.15D-08 MaxDP=3.96D-07 DE=-1.07D-11 OVMax= 7.36D-07

 Cycle  18  Pass 1  IDiag  1:
 RMSU=  7.14D-09    CP:  1.00D+00  9.04D-01  8.81D-01  4.86D-01  5.39D-01
                    CP:  8.90D-01  7.58D-01
 E= -646.891357521030     Delta-E=        0.000000000001 Rises=F Damp=F
 DIIS: error= 2.14D-08 at cycle   8 NSaved=   8.
 NSaved= 8 IEnMin= 7 EnMin= -646.891357521032     IErMin= 8 ErrMin= 2.14D-08
 ErrMax= 2.14D-08  0.00D+00 EMaxC= 1.00D-01 BMatC= 2.80D-13 BMatP= 4.24D-12
 IDIUse=1 WtCom= 1.00D+00 WtEn= 0.00D+00
 Coeff-Com: -0.136D-03 0.440D-03 0.182D-02 0.577D-02-0.663D-03 0.114D+00
 Coeff-Com:  0.251D+00 0.628D+00
 Coeff:     -0.136D-03 0.440D-03 0.182D-02 0.577D-02-0.663D-03 0.114D+00
 Coeff:      0.251D+00 0.628D+00
 Gap=     0.150 Goal=   None    Shift=    0.000
 RMSDP=3.62D-09 MaxDP=1.05D-07 DE= 1.36D-12 OVMax= 1.97D-07

 SCF Done:  E(RB3LYP) =  -646.891357521     A.U. after   18 cycles
            NFock= 18  Conv=0.36D-08     -V/T= 2.0075
 KE= 6.420481831776D+02 PE=-3.229802005566D+03 EE= 1.079705720530D+03
 Leave Link  502 at Mon Oct 14 02:20:59 2019, MaxMem= 10737418240 cpu:             155.5 elap:               6.5
 (Enter /apps/cent7/gaussian/g16-A.03/g16-haswell/g16/l601.exe)
 Copying SCF densities to generalized density rwf, IOpCl= 0 IROHF=0.

 **********************************************************************

            Population analysis using the SCF density.

 **********************************************************************

 Orbital symmetries:
       Occupied  (A) (A) (A) (A) (A) (A) (A) (A) (A) (A) (A) (A)
                 (A) (A) (A) (A) (A) (A) (A) (A) (A) (A) (A) (A)
                 (A) (A) (A) (A) (A) (A) (A) (A) (A) (A) (A) (A)
                 (A) (A) (A) (A) (A) (A) (A) (A) (A) (A) (A) (A)
                 (A) (A)
       Virtual   (A) (A) (A) (A) (A) (A) (A) (A) (A) (A) (A) (A)
                 (A) (A) (A) (A) (A) (A) (A) (A) (A) (A) (A) (A)
                 (A) (A) (A) (A) (A) (A) (A) (A) (A) (A) (A) (A)
                 (A) (A) (A) (A) (A) (A) (A) (A) (A) (A) (A) (A)
                 (A) (A) (A) (A) (A) (A) (A) (A) (A) (A) (A) (A)
                 (A) (A) (A) (A) (A) (A) (A) (A) (A) (A) (A) (A)
                 (A) (A) (A) (A) (A) (A) (A) (A) (A) (A) (A) (A)
                 (A) (A) (A) (A) (A) (A) (A) (A) (A) (A) (A) (A)
                 (A) (A) (A) (A) (A) (A) (A) (A) (A) (A) (A) (A)
                 (A) (A) (A) (A) (A) (A) (A) (A) (A) (A) (A) (A)
                 (A) (A) (A) (A) (A) (A) (A) (A) (A) (A) (A) (A)
                 (A) (A) (A) (A) (A) (A) (A) (A) (A) (A) (A) (A)
                 (A) (A) (A) (A) (A) (A) (A) (A) (A) (A) (A) (A)
                 (A) (A) (A) (A) (A) (A) (A) (A) (A) (A) (A) (A)
                 (A) (A) (A) (A) (A) (A) (A) (A) (A) (A) (A) (A)
 The electronic state is 1-A.
 Alpha  occ. eigenvalues --  -19.24040 -19.15462 -14.45696 -14.27404 -10.25971
 Alpha  occ. eigenvalues --  -10.23661 -10.23002 -10.18712 -10.17812 -10.17570
 Alpha  occ. eigenvalues --  -10.17395 -10.16835 -10.16771 -10.16382  -1.18319
 Alpha  occ. eigenvalues --   -1.05680  -0.95896  -0.92559  -0.81585  -0.78765
 Alpha  occ. eigenvalues --   -0.72694  -0.72070  -0.69061  -0.67286  -0.65834
 Alpha  occ. eigenvalues --   -0.59585  -0.58536  -0.55020  -0.52338  -0.50467
 Alpha  occ. eigenvalues --   -0.49131  -0.48972  -0.46529  -0.46039  -0.43680
 Alpha  occ. eigenvalues --   -0.42844  -0.41325  -0.41157  -0.40282  -0.39894
 Alpha  occ. eigenvalues --   -0.34784  -0.34695  -0.33595  -0.33052  -0.30235
 Alpha  occ. eigenvalues --   -0.27013  -0.25421  -0.23549  -0.19935  -0.19259
 Alpha virt. eigenvalues --   -0.04262   0.00621   0.01208   0.05975   0.06731
 Alpha virt. eigenvalues --    0.09994   0.12350   0.12719   0.13296   0.16035
 Alpha virt. eigenvalues --    0.16674   0.16866   0.18162   0.19331   0.19746
 Alpha virt. eigenvalues --    0.21043   0.23279   0.24875   0.27694   0.29521
 Alpha virt. eigenvalues --    0.30206   0.32651   0.36941   0.38255   0.39508
 Alpha virt. eigenvalues --    0.41032   0.45535   0.49479   0.49576   0.50341
 Alpha virt. eigenvalues --    0.51396   0.53220   0.54424   0.55097   0.56376
 Alpha virt. eigenvalues --    0.57518   0.57969   0.58263   0.60036   0.60964
 Alpha virt. eigenvalues --    0.62316   0.62498   0.63086   0.63264   0.64980
 Alpha virt. eigenvalues --    0.66869   0.67259   0.68544   0.70990   0.71433
 Alpha virt. eigenvalues --    0.74928   0.76284   0.76416   0.76699   0.81154
 Alpha virt. eigenvalues --    0.82027   0.83615   0.84136   0.85268   0.85448
 Alpha virt. eigenvalues --    0.86829   0.86956   0.89114   0.90120   0.91172
 Alpha virt. eigenvalues --    0.91235   0.93581   0.94419   0.95012   0.96121
 Alpha virt. eigenvalues --    0.98079   0.99996   1.00762   1.02160   1.05524
 Alpha virt. eigenvalues --    1.08570   1.09761   1.11049   1.11990   1.16765
 Alpha virt. eigenvalues --    1.16833   1.19762   1.21941   1.23900   1.25311
 Alpha virt. eigenvalues --    1.27557   1.29618   1.32286   1.35113   1.36629
 Alpha virt. eigenvalues --    1.37875   1.38576   1.40032   1.44347   1.47403
 Alpha virt. eigenvalues --    1.47961   1.49533   1.49621   1.51386   1.53556
 Alpha virt. eigenvalues --    1.54234   1.57454   1.59866   1.64008   1.65984
 Alpha virt. eigenvalues --    1.71126   1.74870   1.78168   1.81653   1.83596
 Alpha virt. eigenvalues --    1.84940   1.86658   1.86949   1.89879   1.91748
 Alpha virt. eigenvalues --    1.95010   1.95475   1.98292   2.00329   2.02230
 Alpha virt. eigenvalues --    2.03465   2.05082   2.05407   2.08368   2.09673
 Alpha virt. eigenvalues --    2.13116   2.13412   2.16537   2.17610   2.20569
 Alpha virt. eigenvalues --    2.22867   2.24532   2.26678   2.27099   2.28531
 Alpha virt. eigenvalues --    2.30281   2.33638   2.34904   2.39099   2.44099
 Alpha virt. eigenvalues --    2.46585   2.48227   2.49787   2.52564   2.56573
 Alpha virt. eigenvalues --    2.59562   2.64416   2.64537   2.66817   2.69600
 Alpha virt. eigenvalues --    2.71535   2.73473   2.75983   2.77859   2.80901
 Alpha virt. eigenvalues --    2.85157   2.87700   2.90778   2.91612   2.99362
 Alpha virt. eigenvalues --    3.01630   3.12933   3.23810   3.32787   3.44379
 Alpha virt. eigenvalues --    3.51463   3.65506   3.89565   4.06898   4.09920
 Alpha virt. eigenvalues --    4.13473   4.15457   4.19100   4.25501   4.32980
 Alpha virt. eigenvalues --    4.38358   4.46084   4.59170   4.70044   4.90450
          Condensed to atoms (all electrons):
               1          2          3          4          5          6
     1  C    4.904162   0.251075  -0.040361  -0.002268   0.000599   0.000003
     2  O    0.251075   8.256726   0.278989  -0.076319  -0.001733  -0.000189
     3  C   -0.040361   0.278989   4.769505   0.505667  -0.168343   0.000340
     4  N   -0.002268  -0.076319   0.505667   6.994530   0.395359  -0.086469
     5  C    0.000599  -0.001733  -0.168343   0.395359   4.671963   0.469160
     6  C    0.000003  -0.000189   0.000340  -0.086469   0.469160   5.102244
     7  C   -0.000000   0.000001  -0.000129   0.005486   0.001896   0.500665
     8  C   -0.000000  -0.000000  -0.000227  -0.000439  -0.043457  -0.022474
     9  C    0.000003   0.000001   0.022928   0.017167  -0.052757  -0.059213
    10  C    0.000206   0.008343   0.057403  -0.103796   0.418198  -0.046430
    11  C   -0.006993  -0.103784   0.297578  -0.144250   0.054623   0.019581
    12  C   -0.001347   0.003637  -0.106789   0.017693   0.019959  -0.000494
    13  N    0.000009   0.000280   0.004323  -0.000210  -0.000450  -0.000001
    14  O   -0.000001   0.000000  -0.000058   0.000000   0.000003  -0.000000
    15  H    0.353304  -0.038509   0.001380  -0.001049   0.000616   0.000016
    16  H    0.375243  -0.030648   0.002491  -0.000116  -0.000011  -0.000000
    17  H    0.375798  -0.039019  -0.000052   0.004075  -0.000145   0.000002
    18  H    0.000001  -0.000004   0.000166  -0.000801  -0.032097   0.341204
    19  H   -0.000000  -0.000000   0.000002  -0.000101   0.002708  -0.038168
    20  H    0.000000  -0.000000   0.000004   0.000002   0.000970   0.004055
    21  H    0.000000  -0.000001  -0.000371  -0.000267   0.003881   0.000639
    22  H   -0.000268   0.013749  -0.007727   0.000559  -0.000178   0.000005
    23  H   -0.000002   0.000001  -0.000152  -0.000025  -0.000077   0.000015
    24  H   -0.000000  -0.000000   0.000000  -0.000000  -0.000000   0.000000
               7          8          9         10         11         12
     1  C   -0.000000  -0.000000   0.000003   0.000206  -0.006993  -0.001347
     2  O    0.000001  -0.000000   0.000001   0.008343  -0.103784   0.003637
     3  C   -0.000129  -0.000227   0.022928   0.057403   0.297578  -0.106789
     4  N    0.005486  -0.000439   0.017167  -0.103796  -0.144250   0.017693
     5  C    0.001896  -0.043457  -0.052757   0.418198   0.054623   0.019959
     6  C    0.500665  -0.022474  -0.059213  -0.046430   0.019581  -0.000494
     7  C    4.899588   0.530371  -0.027145  -0.041164   0.000221   0.000029
     8  C    0.530371   4.893697   0.505056   0.000552   0.008342  -0.000127
     9  C   -0.027145   0.505056   5.261630   0.421634  -0.133283  -0.030268
    10  C   -0.041164   0.000552   0.421634   5.119190   0.275282  -0.136545
    11  C    0.000221   0.008342  -0.133283   0.275282   5.324720   0.337588
    12  C    0.000029  -0.000127  -0.030268  -0.136545   0.337588   5.302837
    13  N   -0.000002   0.000202   0.002846  -0.008595   0.005428   0.283797
    14  O    0.000000  -0.000001  -0.000007   0.000153   0.000894  -0.036452
    15  H   -0.000000   0.000000  -0.000018  -0.001513   0.010296   0.002041
    16  H    0.000000   0.000000  -0.000000   0.000020   0.000812  -0.000359
    17  H   -0.000000   0.000000  -0.000001  -0.000011  -0.000826   0.000197
    18  H   -0.048216   0.004625   0.000269   0.007101  -0.000250   0.000002
    19  H    0.357251  -0.042030   0.004552   0.000725   0.000015   0.000000
    20  H   -0.039380   0.354390  -0.040083   0.002465  -0.000238  -0.000003
    21  H    0.004031  -0.037641   0.317227  -0.052040  -0.007214   0.000638
    22  H   -0.000000   0.000004  -0.000071   0.005721  -0.023194   0.345878
    23  H    0.000012  -0.000155   0.011541  -0.000438   0.003496  -0.039257
    24  H   -0.000000  -0.000001   0.000011  -0.000005  -0.000301   0.003847
              13         14         15         16         17         18
     1  C    0.000009  -0.000001   0.353304   0.375243   0.375798   0.000001
     2  O    0.000280   0.000000  -0.038509  -0.030648  -0.039019  -0.000004
     3  C    0.004323  -0.000058   0.001380   0.002491  -0.000052   0.000166
     4  N   -0.000210   0.000000  -0.001049  -0.000116   0.004075  -0.000801
     5  C   -0.000450   0.000003   0.000616  -0.000011  -0.000145  -0.032097
     6  C   -0.000001  -0.000000   0.000016  -0.000000   0.000002   0.341204
     7  C   -0.000002   0.000000  -0.000000   0.000000  -0.000000  -0.048216
     8  C    0.000202  -0.000001   0.000000   0.000000   0.000000   0.004625
     9  C    0.002846  -0.000007  -0.000018  -0.000000  -0.000001   0.000269
    10  C   -0.008595   0.000153  -0.001513   0.000020  -0.000011   0.007101
    11  C    0.005428   0.000894   0.010296   0.000812  -0.000826  -0.000250
    12  C    0.283797  -0.036452   0.002041  -0.000359   0.000197   0.000002
    13  N    6.713853   0.098387  -0.000069  -0.000004   0.000001   0.000000
    14  O    0.098387   8.189176   0.000001   0.000000  -0.000000  -0.000000
    15  H   -0.000069   0.000001   0.600995  -0.031199  -0.037878   0.000000
    16  H   -0.000004   0.000000  -0.031199   0.567387  -0.038851  -0.000000
    17  H    0.000001  -0.000000  -0.037878  -0.038851   0.567209   0.000001
    18  H    0.000000  -0.000000   0.000000  -0.000000   0.000001   0.604570
    19  H    0.000000  -0.000000  -0.000000  -0.000000   0.000000  -0.005124
    20  H    0.000001   0.000000   0.000000  -0.000000  -0.000000  -0.000156
    21  H   -0.003827   0.000047  -0.000000   0.000000  -0.000000   0.000023
    22  H   -0.053619   0.000991  -0.000596  -0.000162   0.000109  -0.000000
    23  H    0.290666  -0.022998   0.000002  -0.000000   0.000000   0.000000
    24  H   -0.025436   0.240531   0.000000   0.000000   0.000000   0.000000
              19         20         21         22         23         24
     1  C   -0.000000   0.000000   0.000000  -0.000268  -0.000002  -0.000000
     2  O   -0.000000  -0.000000  -0.000001   0.013749   0.000001  -0.000000
     3  C    0.000002   0.000004  -0.000371  -0.007727  -0.000152   0.000000
     4  N   -0.000101   0.000002  -0.000267   0.000559  -0.000025  -0.000000
     5  C    0.002708   0.000970   0.003881  -0.000178  -0.000077  -0.000000
     6  C   -0.038168   0.004055   0.000639   0.000005   0.000015   0.000000
     7  C    0.357251  -0.039380   0.004031  -0.000000   0.000012  -0.000000
     8  C   -0.042030   0.354390  -0.037641   0.000004  -0.000155  -0.000001
     9  C    0.004552  -0.040083   0.317227  -0.000071   0.011541   0.000011
    10  C    0.000725   0.002465  -0.052040   0.005721  -0.000438  -0.000005
    11  C    0.000015  -0.000238  -0.007214  -0.023194   0.003496  -0.000301
    12  C    0.000000  -0.000003   0.000638   0.345878  -0.039257   0.003847
    13  N    0.000000   0.000001  -0.003827  -0.053619   0.290666  -0.025436
    14  O   -0.000000   0.000000   0.000047   0.000991  -0.022998   0.240531
    15  H   -0.000000   0.000000  -0.000000  -0.000596   0.000002   0.000000
    16  H   -0.000000  -0.000000   0.000000  -0.000162  -0.000000   0.000000
    17  H    0.000000  -0.000000  -0.000000   0.000109   0.000000   0.000000
    18  H   -0.005124  -0.000156   0.000023  -0.000000   0.000000   0.000000
    19  H    0.605393  -0.005144  -0.000192   0.000000  -0.000000  -0.000000
    20  H   -0.005144   0.614403  -0.004861  -0.000000  -0.000024   0.000000
    21  H   -0.000192  -0.004861   0.679125  -0.000087   0.022621  -0.000096
    22  H    0.000000  -0.000000  -0.000087   0.521811   0.004312  -0.000159
    23  H   -0.000000  -0.000024   0.022621   0.004312   0.362237  -0.004672
    24  H   -0.000000   0.000000  -0.000096  -0.000159  -0.004672   0.355916
 Mulliken charges:
               1
     1  C   -0.209167
     2  O   -0.522596
     3  C    0.383434
     4  N   -0.524429
     5  C    0.259313
     6  C   -0.184491
     7  C   -0.143515
     8  C   -0.150687
     9  C   -0.222017
    10  C    0.073543
    11  C    0.081455
    12  C    0.033494
    13  N   -0.307581
    14  O   -0.470664
    15  H    0.142180
    16  H    0.155397
    17  H    0.169392
    18  H    0.128684
    19  H    0.120114
    20  H    0.113597
    21  H    0.078362
    22  H    0.192921
    23  H    0.372897
    24  H    0.430363
 Sum of Mulliken charges =  -0.00000
 Mulliken charges with hydrogens summed into heavy atoms:
               1
     1  C    0.257802
     2  O   -0.522596
     3  C    0.383434
     4  N   -0.524429
     5  C    0.259313
     6  C   -0.055807
     7  C   -0.023401
     8  C   -0.037090
     9  C   -0.143655
    10  C    0.073543
    11  C    0.081455
    12  C    0.226416
    13  N    0.065316
    14  O   -0.040301
 Electronic spatial extent (au):  <R**2>=           2866.6186
 Charge=             -0.0000 electrons
 Dipole moment (field-independent basis, Debye):
    X=             -3.2318    Y=              5.6919    Z=              2.3890  Tot=              6.9677
 Quadrupole moment (field-independent basis, Debye-Ang):
   XX=            -74.7226   YY=            -64.7312   ZZ=            -82.9786
   XY=             -3.3845   XZ=             -4.5058   YZ=             -1.1340
 Traceless Quadrupole moment (field-independent basis, Debye-Ang):
   XX=             -0.5784   YY=              9.4129   ZZ=             -8.8344
   XY=             -3.3845   XZ=             -4.5058   YZ=             -1.1340
 Octapole moment (field-independent basis, Debye-Ang**2):
  XXX=            -20.1494  YYY=             88.8522  ZZZ=             -1.5098  XYY=            -45.7776
  XXY=              0.4394  XXZ=             10.7905  XZZ=            -16.3179  YZZ=              0.7729
  YYZ=             24.6777  XYZ=              1.6608
 Hexadecapole moment (field-independent basis, Debye-Ang**3):
 XXXX=          -2000.2913 YYYY=          -1141.9212 ZZZZ=           -142.6666 XXXY=            -18.0047
 XXXZ=            -21.1294 YYYX=           -135.8400 YYYZ=             14.6619 ZZZX=             -2.9468
 ZZZY=             -0.5677 XXYY=           -502.9969 XXZZ=           -397.2565 YYZZ=           -269.7429
 XXYZ=             12.6440 YYXZ=            -44.6735 ZZXY=            -11.3668
 N-N= 8.611567443376D+02 E-N=-3.229801999327D+03  KE= 6.420481831776D+02
 No NMR shielding tensors so no spin-rotation constants.
 Leave Link  601 at Mon Oct 14 02:20:59 2019, MaxMem= 10737418240 cpu:               2.4 elap:               0.1
 (Enter /apps/cent7/gaussian/g16-A.03/g16-haswell/g16/l701.exe)
 ... and contract with generalized density number  0.
 Compute integral first derivatives.
 Leave Link  701 at Mon Oct 14 02:20:59 2019, MaxMem= 10737418240 cpu:               2.9 elap:               0.1
 (Enter /apps/cent7/gaussian/g16-A.03/g16-haswell/g16/l702.exe)
 L702 exits ... SP integral derivatives will be done elsewhere.
 Leave Link  702 at Mon Oct 14 02:20:59 2019, MaxMem= 10737418240 cpu:               1.2 elap:               0.1
 (Enter /apps/cent7/gaussian/g16-A.03/g16-haswell/g16/l703.exe)
 Integral derivatives from FoFJK, PRISM(SPDF).
 Compute integral first derivatives, UseDBF=F ICtDFT=           0.
 Calling FoFJK, ICntrl=      2127 FMM=F ISym2X=0 I1Cent= 0 IOpClX= 0 NMat=1 NMatS=1 NMatT=0.
 FoFJK:  IHMeth= 1 ICntrl=    2127 DoSepK=F KAlg= 0 I1Cent=           0 FoldK=F
 IRaf=         0 NMat=       1 IRICut=       1 DoRegI=T DoRafI=F ISym2E= 0 IDoP0=0 IntGTp=1.
 FoFCou: FMM=F IPFlag=           0 FMFlag=      100000 FMFlg1=         800
         NFxFlg=           0 DoJE=F BraDBF=F KetDBF=F FulRan=T
         wScrn=  0.000000 ICntrl=      2127 IOpCl=  0 I1Cent=           0 NGrid=           0
         NMat0=    1 NMatS0=      1 NMatT0=    0 NMatD0=    1 NMtDS0=    0 NMtDT0=    0
 Symmetry not used in FoFCou.
 Leave Link  703 at Mon Oct 14 02:21:01 2019, MaxMem= 10737418240 cpu:              35.6 elap:               1.5
 (Enter /apps/cent7/gaussian/g16-A.03/g16-haswell/g16/l716.exe)
 Dipole        =-1.27149655D+00 2.23934998D+00 9.39890653D-01
 ***** Axes restored to original set *****
 -------------------------------------------------------------------
 Center     Atomic                   Forces (Hartrees/Bohr)
 Number     Number              X              Y              Z
 -------------------------------------------------------------------
      1        6          -0.005862800    0.004630852   -0.000320322
      2        8           0.012588006   -0.022344335   -0.013592363
      3        6           0.011280533    0.018762996   -0.056891025
      4        7           0.027591224    0.029285266   -0.090338443
      5        6          -0.022861228    0.039635444    0.053211932
      6        6          -0.003712914    0.000069991    0.011663698
      7        6           0.003839527   -0.007592100   -0.009414860
      8        6           0.002353814   -0.006738158   -0.003745323
      9        6          -0.002782345    0.009461073   -0.008723359
     10        6          -0.031555571    0.026908109    0.078908146
     11        6           0.000620157   -0.050372062    0.030491629
     12        6           0.010428223   -0.026758290   -0.007261549
     13        7          -0.001112852    0.072254852    0.001881796
     14        8          -0.002050433   -0.082912100   -0.002867310
     15        1           0.004131185   -0.000550352    0.002690346
     16        1          -0.003128767   -0.002680536   -0.002032696
     17        1           0.002340324    0.003163266   -0.000965317
     18        1           0.000761346   -0.003032576    0.000863723
     19        1           0.000902551   -0.002333376   -0.000384562
     20        1           0.000778531   -0.000451416   -0.002066780
     21        1          -0.000578511    0.004890200    0.005276853
     22        1          -0.003129367   -0.002799142    0.003768718
     23        1          -0.005268329   -0.001258065   -0.000166229
     24        1           0.004427697    0.000760460    0.010013298
 -------------------------------------------------------------------
 Cartesian Forces:  Max     0.090338443 RMS     0.024885858
 Leave Link  716 at Mon Oct 14 02:21:01 2019, MaxMem= 10737418240 cpu:               0.5 elap:               0.0
 (Enter /apps/cent7/gaussian/g16-A.03/g16-haswell/g16/l103.exe)

 GradGradGradGradGradGradGradGradGradGradGradGradGradGradGradGradGradGrad
 Berny optimization.
 FormGI is forming the generalized inverse of G from B-inverse, IUseBI=4.
 GSVD:  received Info=                   1 from GESDD.
 Internal  Forces:  Max     0.089042381 RMS     0.017519237
 Search for a local minimum.
 Step number   1 out of a maximum of  125
 All quantities printed in internal units (Hartrees-Bohrs-Radians)
 RMS Force = .17519D-01 SwitMx=.10000D-02 MixMth= 1
 Mixed Optimization -- RFO/linear search
 Second derivative matrix not updated -- first step.
 ITU=  0
     Eigenvalues ---    0.01162   0.01921   0.01935   0.01940   0.01946
     Eigenvalues ---    0.01961   0.01983   0.02142   0.02236   0.02308
     Eigenvalues ---    0.02466   0.02561   0.02572   0.02669   0.02711
     Eigenvalues ---    0.02722   0.02757   0.02791   0.02887   0.10293
     Eigenvalues ---    0.10293   0.16000   0.16000   0.16000   0.16000
     Eigenvalues ---    0.16000   0.16000   0.16000   0.16000   0.16000
     Eigenvalues ---    0.16000   0.22000   0.22000   0.22000   0.22601
     Eigenvalues ---    0.24515   0.24964   0.24973   0.24989   0.24991
     Eigenvalues ---    0.25000   0.34807   0.34812   0.34813   0.34813
     Eigenvalues ---    0.34814   0.34816   0.34816   0.34818   0.38883
     Eigenvalues ---    0.39580   0.40190   0.43395   0.43599   0.43889
     Eigenvalues ---    0.44373   0.45978   0.46498   0.50657   0.55484
     Eigenvalues ---    0.55688   0.56875   0.61400   0.62837   0.66009
     Eigenvalues ---    0.68547
 RFO step:  Lambda=-5.99476056D-02 EMin= 1.16210178D-02
 Linear search not attempted -- first point.
 Maximum step size (   0.300) exceeded in Quadratic search.
    -- Step size scaled by   0.921
 Iteration  1 RMS(Cart)=  0.10524266 RMS(Int)=  0.00172162
 Iteration  2 RMS(Cart)=  0.00389064 RMS(Int)=  0.00016111
 Iteration  3 RMS(Cart)=  0.00000874 RMS(Int)=  0.00016106
 Iteration  4 RMS(Cart)=  0.00000000 RMS(Int)=  0.00016106
 ITry= 1 IFail=0 DXMaxC= 4.85D-01 DCOld= 1.00D+10 DXMaxT= 3.00D-01 DXLimC= 3.00D+00 Rises=F
 Variable       Old X    -DE/DX   Delta X   Delta X   Delta X     New X
                                 (Linear)    (Quad)   (Total)
    R1        2.72128  -0.00245   0.00000  -0.00494  -0.00494   2.71634
    R2        2.05977   0.00406   0.00000   0.00917   0.00917   2.06894
    R3        2.05975   0.00219   0.00000   0.00494   0.00494   2.06469
    R4        2.05981   0.00377   0.00000   0.00850   0.00850   2.06831
    R5        2.53502   0.02352   0.00000   0.03443   0.03443   2.56946
    R6        2.42438   0.03729   0.00000   0.04566   0.04566   2.47004
    R7        2.57058   0.08761   0.00000   0.13783   0.13789   2.70847
    R8        2.46568   0.08904   0.00000   0.11465   0.11460   2.58028
    R9        2.65729  -0.00633   0.00000  -0.01025  -0.01022   2.64707
   R10        2.63408   0.03854   0.00000   0.06759   0.06753   2.70160
   R11        2.66464  -0.01291   0.00000  -0.02488  -0.02482   2.63982
   R12        2.05980  -0.00291   0.00000  -0.00655  -0.00655   2.05325
   R13        2.66765  -0.00607   0.00000  -0.01357  -0.01354   2.65411
   R14        2.05975  -0.00247   0.00000  -0.00558  -0.00558   2.05417
   R15        2.66613  -0.01417   0.00000  -0.02743  -0.02745   2.63868
   R16        2.05979  -0.00224   0.00000  -0.00505  -0.00505   2.05474
   R17        2.67242  -0.00681   0.00000  -0.01160  -0.01166   2.66076
   R18        2.05990  -0.00068   0.00000  -0.00154  -0.00154   2.05836
   R19        2.60577   0.07027   0.00000   0.11502   0.11504   2.72080
   R20        2.54525   0.04108   0.00000   0.06131   0.06131   2.60657
   R21        2.49849   0.01347   0.00000   0.01840   0.01840   2.51689
   R22        2.05971  -0.00205   0.00000  -0.00462  -0.00462   2.05509
   R23        2.46480   0.08231   0.00000   0.10523   0.10523   2.57003
   R24        1.90856   0.00113   0.00000   0.00200   0.00200   1.91056
   R25        1.81404   0.00973   0.00000   0.01458   0.01458   1.82862
    A1        1.91070   0.00522   0.00000   0.02280   0.02275   1.93345
    A2        1.91064  -0.00754   0.00000  -0.03297  -0.03293   1.87772
    A3        1.91061   0.00233   0.00000   0.01023   0.01013   1.92074
    A4        1.91058   0.00038   0.00000   0.00067   0.00077   1.91135
    A5        1.91059  -0.00140   0.00000  -0.00307  -0.00324   1.90735
    A6        1.91067   0.00101   0.00000   0.00234   0.00233   1.91300
    A7        1.97927   0.00724   0.00000   0.02150   0.02150   2.00077
    A8        2.12645   0.00446   0.00000   0.01048   0.01048   2.13692
    A9        2.19826  -0.00939   0.00000  -0.03070  -0.03073   2.16753
   A10        1.95787   0.00495   0.00000   0.02042   0.02044   1.97831
   A11        1.88943  -0.01452   0.00000  -0.03457  -0.03471   1.85472
   A12        2.24765  -0.00733   0.00000  -0.02363  -0.02357   2.22409
   A13        1.90747   0.01775   0.00000   0.04924   0.04913   1.95660
   A14        2.12784  -0.01041   0.00000  -0.02549  -0.02545   2.10239
   A15        2.06658   0.00229   0.00000   0.00675   0.00683   2.07341
   A16        2.10607  -0.00256   0.00000  -0.00932  -0.00936   2.09671
   A17        2.11054   0.00028   0.00000   0.00257   0.00253   2.11307
   A18        2.09934   0.00649   0.00000   0.01404   0.01412   2.11347
   A19        2.09099  -0.00280   0.00000  -0.00514  -0.00519   2.08580
   A20        2.09285  -0.00369   0.00000  -0.00889  -0.00894   2.08391
   A21        2.10446   0.00326   0.00000   0.00314   0.00314   2.10760
   A22        2.08973  -0.00138   0.00000  -0.00054  -0.00054   2.08920
   A23        2.08899  -0.00188   0.00000  -0.00261  -0.00261   2.08638
   A24        2.07687   0.00077   0.00000   0.00115   0.00103   2.07790
   A25        2.10115  -0.00757   0.00000  -0.03066  -0.03063   2.07052
   A26        2.10516   0.00680   0.00000   0.02951   0.02953   2.13469
   A27        2.09074  -0.00240   0.00000   0.00043   0.00036   2.09109
   A28        1.83959  -0.00671   0.00000  -0.02814  -0.02817   1.81142
   A29        2.35275   0.00910   0.00000   0.02760   0.02767   2.38042
   A30        1.82800  -0.00132   0.00000  -0.00534  -0.00534   1.82266
   A31        2.17602  -0.01045   0.00000  -0.03048  -0.03048   2.14554
   A32        2.27870   0.01173   0.00000   0.03539   0.03530   2.31401
   A33        2.16544   0.01313   0.00000   0.04319   0.04314   2.20858
   A34        2.07631  -0.00145   0.00000  -0.00018  -0.00023   2.07608
   A35        2.04144  -0.01168   0.00000  -0.04301  -0.04306   1.99838
   A36        2.12100  -0.00554   0.00000  -0.01823  -0.01839   2.10261
   A37        2.09323   0.00437   0.00000   0.01579   0.01562   2.10885
   A38        2.06896   0.00118   0.00000   0.00243   0.00227   2.07123
   A39        1.91073  -0.00436   0.00000  -0.01823  -0.01823   1.89250
    D1        0.55158   0.00259   0.00000   0.02399   0.02421   0.57579
    D2        2.64596   0.00163   0.00000   0.01857   0.01848   2.66444
    D3       -1.54279  -0.00033   0.00000   0.00752   0.00739  -1.53541
    D4        1.52252  -0.00334   0.00000  -0.03635  -0.03646   1.48605
    D5       -1.65943  -0.00269   0.00000  -0.02925  -0.02913  -1.68856
    D6       -3.14060  -0.00098   0.00000  -0.00755  -0.00714   3.13545
    D7        0.03627  -0.00123   0.00000  -0.01267  -0.01267   0.02360
    D8        3.11551   0.00114   0.00000   0.01427   0.01428   3.12979
    D9       -0.05561   0.00012   0.00000   0.00116   0.00168  -0.05392
   D10       -0.06310   0.00176   0.00000   0.02072   0.02094  -0.04216
   D11        3.04897   0.00074   0.00000   0.00761   0.00835   3.05732
   D12        3.12518   0.00041   0.00000   0.00517   0.00526   3.13044
   D13        0.00636   0.00002   0.00000  -0.00102  -0.00116   0.00520
   D14       -3.09791  -0.00081   0.00000  -0.00834  -0.00846  -3.10637
   D15        0.04377  -0.00090   0.00000  -0.00911  -0.00916   0.03461
   D16        0.01837  -0.00006   0.00000  -0.00062  -0.00072   0.01765
   D17       -3.12314  -0.00015   0.00000  -0.00138  -0.00142  -3.12456
   D18        3.08375   0.00052   0.00000   0.00681   0.00723   3.09098
   D19       -0.04442   0.00109   0.00000   0.01405   0.01414  -0.03028
   D20       -0.03693   0.00015   0.00000   0.00118   0.00138  -0.03555
   D21        3.11808   0.00072   0.00000   0.00842   0.00830   3.12638
   D22        0.00703  -0.00011   0.00000  -0.00022  -0.00025   0.00678
   D23       -3.13458  -0.00036   0.00000  -0.00310  -0.00305  -3.13763
   D24       -3.13465  -0.00002   0.00000   0.00054   0.00045  -3.13419
   D25        0.00692  -0.00027   0.00000  -0.00233  -0.00234   0.00458
   D26       -0.01361  -0.00011   0.00000  -0.00015  -0.00006  -0.01367
   D27        3.12788  -0.00046   0.00000  -0.00445  -0.00433   3.12354
   D28        3.12801   0.00014   0.00000   0.00272   0.00273   3.13074
   D29       -0.01369  -0.00021   0.00000  -0.00157  -0.00154  -0.01523
   D30       -0.00471  -0.00004   0.00000   0.00034   0.00035  -0.00436
   D31        3.13703  -0.00114   0.00000  -0.01276  -0.01257   3.12445
   D32        3.13699   0.00031   0.00000   0.00464   0.00462  -3.14157
   D33       -0.00446  -0.00079   0.00000  -0.00847  -0.00831  -0.01276
   D34        0.02948  -0.00007   0.00000  -0.00087  -0.00103   0.02845
   D35       -3.13035  -0.00105   0.00000  -0.01135  -0.01143   3.14141
   D36       -3.11226   0.00104   0.00000   0.01226   0.01239  -3.09987
   D37        0.01110   0.00006   0.00000   0.00178   0.00199   0.01309
   D38        0.06211  -0.00219   0.00000  -0.02195  -0.02151   0.04060
   D39       -3.04752  -0.00054   0.00000  -0.00612  -0.00546  -3.05298
   D40       -3.06306  -0.00132   0.00000  -0.01265  -0.01235  -3.07541
   D41        0.11049   0.00034   0.00000   0.00319   0.00371   0.11420
   D42       -3.06783   0.00190   0.00000   0.02010   0.02016  -3.04767
   D43        0.07382   0.00006   0.00000   0.00068   0.00055   0.07436
   D44        0.03617   0.00022   0.00000   0.00221   0.00234   0.03851
   D45       -3.10536  -0.00163   0.00000  -0.01721  -0.01727  -3.12264
   D46       -3.13402  -0.00265   0.00000  -0.02807  -0.02801   3.12116
   D47        0.00756   0.00058   0.00000   0.00632   0.00646   0.01402
   D48        0.00752  -0.00084   0.00000  -0.00901  -0.00915  -0.00163
   D49       -3.13409   0.00240   0.00000   0.02538   0.02532  -3.10877
   D50        2.74184  -0.00222   0.00000  -0.02409  -0.02419   2.71766
   D51       -0.39974  -0.00541   0.00000  -0.05801  -0.05792  -0.45766
         Item               Value     Threshold  Converged?
 Maximum Force            0.089042     0.000450     NO 
 RMS     Force            0.017519     0.000300     NO 
 Maximum Displacement     0.484817     0.001800     NO 
 RMS     Displacement     0.106148     0.001200     NO 
 Predicted change in Energy=-3.283997D-02
 Lowest energy point so far.  Saving SCF results.
 GradGradGradGradGradGradGradGradGradGradGradGradGradGradGradGradGradGrad

 Leave Link  103 at Mon Oct 14 02:21:01 2019, MaxMem= 10737418240 cpu:               3.4 elap:               0.2
 (Enter /apps/cent7/gaussian/g16-A.03/g16-haswell/g16/l202.exe)
                          Input orientation:                          
 ---------------------------------------------------------------------
 Center     Atomic      Atomic             Coordinates (Angstroms)
 Number     Number       Type             X           Y           Z
 ---------------------------------------------------------------------
      1          6           0        1.511160   -0.039266   -0.058690
      2          8           0        0.078761   -0.050581    0.060900
      3          6           0       -0.406447    0.639660    1.127164
      4          7           0       -0.628081    1.927191    1.086849
      5          6           0       -1.113411    2.270441    2.316085
      6          6           0       -1.485571    3.546308    2.758597
      7          6           0       -1.922973    3.700503    4.076295
      8          6           0       -1.984791    2.604912    4.952911
      9          6           0       -1.624767    1.325855    4.523803
     10          6           0       -1.201633    1.144894    3.193120
     11          6           0       -0.761067    0.041181    2.380282
     12          6           0       -0.700366   -1.318233    2.605842
     13          7           0       -1.104739   -1.959208    3.701077
     14          8           0       -1.008057   -3.313295    3.782972
     15          1           0        1.983181   -0.014573    0.928859
     16          1           0        1.805992   -0.952300   -0.581360
     17          1           0        1.832718    0.833936   -0.634930
     18          1           0       -1.431420    4.395343    2.082759
     19          1           0       -2.218122    4.684817    4.430735
     20          1           0       -2.312704    2.753664    5.978883
     21          1           0       -1.670348    0.503923    5.237099
     22          1           0       -0.303577   -1.964037    1.825993
     23          1           0       -1.516004   -1.454577    4.474627
     24          1           0       -0.970033   -3.561354    4.717527
 ---------------------------------------------------------------------
                    Distance matrix (angstroms):
                    1          2          3          4          5
     1  C    0.000000
     2  O    1.437427   0.000000
     3  C    2.354656   1.359698   0.000000
     4  N    3.123389   2.337472   1.307089   0.000000
     5  C    4.226426   3.448808   2.138405   1.365426   0.000000
     6  C    5.456541   4.760495   3.503524   2.480237   1.400770
     7  C    6.548072   5.848160   4.512869   3.709201   2.408071
     8  C    6.658040   5.936469   4.581455   4.152880   2.797146
     9  C    5.718114   4.971326   3.673189   3.628725   2.455146
    10  C    4.397243   3.588784   2.270629   2.318907   1.429625
    11  C    3.334377   2.468454   1.433261   2.290783   2.257845
    12  C    3.691387   2.948001   2.471078   3.584040   3.623968
    13  N    4.966382   4.277197   3.723809   4.708024   4.450641
    14  O    5.641284   5.067573   4.800116   5.905604   5.774163
    15  H    1.094837   2.093195   2.485491   3.257928   4.090790
    16  H    1.092584   2.051566   3.216874   4.122996   5.225338
    17  H    1.094502   2.083966   2.855972   3.196131   4.410409
    18  H    5.736754   5.112221   4.008602   2.780102   2.161199
    19  H    7.508624   6.840696   5.528023   4.616742   3.394310
    20  H    7.672984   6.971759   5.625123   5.239563   3.884314
    21  H    6.201808   5.491802   4.302027   4.509610   3.458769
    22  H    3.248083   2.631169   2.697811   3.974077   4.338989
    23  H    5.631855   4.898517   4.101519   4.868450   4.324019
[...]
 ,0.00010164,-0.00042315,0.00006796,0.00014675,0.00003764,0.00384421,-0
 .00772450,-0.00352705,-0.07174152,0.10953519,0.13688037,-0.19805793,0.
 08764183,-0.10597930,0.01503446,-0.00935983,0.01482984,0.00218916,-0.0
 0160515,-0.00045466,0.00013257,0.00134302,0.00088472,-0.00039064,-0.00
 043128,-0.00006117,0.00001648,0.00002624,-0.00000939,0.00001833,0.0000
 4206,-0.00002015,0.00002724,-0.00005392,-0.00002261,-0.00004807,-0.000
 01242,0.00005611,-0.00001117,-0.00008623,-0.00004771,-0.00059688,-0.00
 037604,-0.00002772,0.00003071,0.00015389,-0.00003698,-0.00000822,-0.00
 001940,0.00019199,0.00000378,-0.00002706,0.00000242,-0.01461165,0.0107
 8624,-0.01073633,-0.00787507,0.00347675,-0.00666161,0.20418493,0.08509
 780,-0.10314718,0.05996940,0.00451888,-0.00914738,0.01747419,0.0015140
 6,-0.00090520,-0.00274256,-0.00074774,0.00066277,0.00008786,0.00049892
 ,-0.00002642,-0.00016174,-0.00003590,-0.00000330,0.00005120,-0.0000465
 1,-0.00006580,0.00004256,-0.00006276,0.00012175,0.00007450,0.00003419,
 -0.00004110,-0.00012036,-0.00021714,-0.00000706,0.00025875,-0.00026416
 ,-0.00023276,0.00027480,0.00013899,0.00022489,-0.00019398,-0.00003874,
 0.00001722,0.00023075,-0.00005958,-0.00010850,-0.00001037,-0.01595083,
 0.01134913,-0.01278920,0.01707078,-0.00835653,0.01248025,-0.09151083,0
 .10955768,-0.09913775,0.05684789,-0.12135924,-0.00826520,0.01726168,-0
 .03036913,-0.00482778,0.00697097,0.00383959,-0.00016463,-0.00204391,0.
 00058194,0.00040526,-0.00048696,0.00028605,0.00002096,0.00009277,-0.00
 001611,0.00003814,0.00000486,-0.00007169,0.00002046,-0.00005332,-0.000
 01269,0.00000024,-0.00010231,0.00004621,-0.00006948,0.00014638,0.00014
 489,0.00076272,0.00019790,-0.00040809,-0.00017343,-0.00029844,0.000214
 17,0.00004381,-0.00005028,-0.00028646,0.00004682,0.00007841,-0.0000028
 1,-0.00919205,0.00374147,-0.00352092,0.01240177,-0.00721233,0.01251790
 ,0.10815753,-0.07491406,0.13829792,-0.00001608,0.00001549,0.00001775,0
 .00026434,-0.00006012,0.00011625,-0.00032349,0.00010547,-0.00024271,-0
 .00240974,-0.00139940,-0.00224828,0.00667691,0.00659991,-0.00558269,-0
 .06040156,-0.05101113,0.05388430,-0.00140683,-0.01392926,0.00833866,0.
 00333279,0.00217341,0.00506007,-0.00006086,0.00058154,0.00026046,0.004
 19984,0.00227104,0.00305923,0.00035885,0.00040046,-0.00014952,-0.00017
 728,0.00013792,-0.00001294,0.00002000,-0.00001059,0.00011277,-0.000013
 97,-0.00002283,-0.00001018,-0.00001595,-0.00001071,-0.00001700,0.00000
 154,-0.00001374,0.00000128,-0.00000756,0.00002299,0.00000623,0.0532570
 8,-0.00003733,-0.00011617,0.00009269,0.00012991,0.00014401,-0.00016478
 ,-0.00005124,-0.00037535,0.00003139,-0.00096576,0.00282724,-0.00011596
 ,-0.00959268,-0.01825409,0.02135310,-0.05074981,-0.22122972,0.12965676
 ,0.00190663,0.00860833,-0.00485645,0.00157739,0.00116446,-0.00123368,0
 .00064907,-0.00043043,-0.00090553,0.00279245,-0.00320567,-0.00224764,-
 0.00056843,-0.00076700,0.00117084,0.00038393,-0.00016971,-0.00058603,0
 .00003466,0.00007772,0.00007777,-0.00003581,-0.00007305,-0.00000138,0.
 00002567,-0.00000378,-0.00000444,0.00000753,0.00002004,-0.00001793,-0.
 00001085,-0.00000538,-0.00002408,0.05537618,0.23086386,0.00003485,0.00
 000672,-0.00006010,0.00005684,0.00016788,0.00019030,-0.00020984,-0.000
 25940,-0.00004335,-0.00232278,0.00070167,-0.00038359,-0.00146155,-0.00
 592633,0.00812778,0.05359453,0.13024400,-0.15544554,0.00454266,0.02113
 669,-0.01117666,0.00518966,-0.00222403,-0.00120767,0.00020468,-0.00057
 731,-0.00000728,0.00312424,-0.00111287,0.00159354,0.00006958,-0.000299
 50,0.00028263,-0.00004176,-0.00021864,0.00000650,0.00003152,0.00002867
 ,-0.00012913,0.00001657,0.00004308,0.00001987,0.00001073,-0.00002175,0
 .00000160,-0.00000438,0.00001765,0.00000304,-0.00002055,-0.00000716,-0
 .00000522,-0.06039445,-0.14213681,0.15924647,0.00005895,0.00003388,-0.
 00009149,-0.00022241,0.00020736,0.00005213,-0.00011133,-0.00030785,0.0
 0022881,0.00011730,0.00106293,0.00018037,0.00360100,-0.00005025,0.0055
 7120,-0.00198579,0.01648761,0.00264618,-0.06363671,0.07608748,0.029718
 88,0.00472613,-0.00812883,-0.00257120,0.00445134,-0.00061600,0.0035471
 3,-0.00059660,-0.00027698,0.00022663,-0.00050385,-0.00006450,-0.000481
 62,0.00007613,-0.00001778,0.00006950,-0.00026707,0.00012086,-0.0001235
 1,0.00005828,0.00006261,0.00008217,-0.00000152,-0.00000997,0.00000753,
 -0.00000703,0.00000708,0.00000784,0.00000347,-0.00001357,-0.00000083,-
 0.00239400,-0.00076732,-0.00213594,0.05853552,-0.00007839,-0.00006388,
 0.00014856,0.00017890,-0.00019467,-0.00028114,-0.00004263,0.00036365,-
 0.00002478,0.00012441,-0.00046437,0.00001818,0.00071491,0.00201768,0.0
 0007202,0.00031276,-0.00122129,0.00030665,0.07605487,-0.30015373,-0.05
 832082,0.00793409,-0.01818376,-0.00814227,-0.00119489,-0.00147228,0.00
 413849,-0.00042858,0.00057615,0.00045813,-0.00009261,-0.00005391,-0.00
 006461,0.00004556,0.00009005,-0.00009271,-0.00005499,0.00003348,0.0001
 4681,-0.00002532,-0.00011766,-0.00001901,0.00000311,0.00002131,-0.0000
 0650,0.00001182,-0.00000940,-0.00001728,0.00000042,0.00002013,-0.00000
 996,-0.00033333,0.00073131,-0.00058973,-0.08290836,0.31825074,-0.00006
 675,-0.00004264,0.00012655,0.00007908,-0.00034706,-0.00019330,0.000176
 73,0.00037362,-0.00038796,0.00038089,-0.00155231,0.00013888,0.00542608
 ,0.00117510,-0.00218693,0.00656663,-0.02640670,-0.00214082,0.02976747,
 -0.05847872,-0.06849807,-0.00652604,0.01892890,0.00804829,0.00361307,0
 .00307864,-0.00048901,0.00017530,0.00031419,-0.00089824,-0.00042815,-0
 .00031232,-0.00004800,0.00011971,0.00018195,-0.00015314,-0.00014148,0.
 00002298,0.00016419,-0.00002770,0.00001822,0.00006419,-0.00000278,0.00
 001628,-0.00000026,0.00000723,-0.00000922,-0.00001053,0.00000231,0.000
 01443,-0.00000499,-0.00224067,0.00012995,-0.00014435,-0.03487881,0.062
 69554,0.06668493,-0.00004872,0.00001620,-0.00010140,-0.00022117,-0.000
 01653,0.00006450,0.00002690,0.00012342,-0.00009607,-0.00039978,-0.0000
 4012,-0.00012347,-0.00031084,-0.00002566,-0.00070984,0.00510850,-0.000
 86313,0.00283508,-0.00234527,0.00222866,0.00508065,-0.11406489,0.03015
 434,0.13306899,-0.00291467,-0.00036475,0.00593613,0.00457401,0.0023690
 4,0.00228644,0.00068306,-0.00010729,0.00061163,-0.00006097,-0.00012229
 ,0.00025428,-0.00001966,-0.00000536,-0.00025811,0.00003946,0.00007077,
 0.00000047,-0.00000797,-0.00001554,0.00001925,-0.00000393,0.00000473,0
 .00001230,0.00000468,-0.00000310,-0.00000967,0.00021840,0.00019911,0.0
 0046113,-0.00256990,-0.00070433,-0.00202348,0.11470972,-0.00002086,-0.
 00005617,0.00002240,0.00009476,0.00014381,-0.00023616,0.00001282,-0.00
 064334,0.00010858,-0.00006496,0.00042317,-0.00011827,-0.00003205,-0.00
 136763,0.00025383,-0.00013520,-0.00349686,0.00276491,-0.01365475,0.008
 57171,0.02121528,0.02970456,-0.06828137,-0.04022506,0.01580604,-0.0013
 2402,-0.02653450,0.00175805,-0.00554064,0.00025867,0.00056986,0.000686
 64,-0.00094568,0.00014312,0.00020632,-0.00024872,0.00001198,-0.0000150
 1,0.00020228,-0.00006625,-0.00006481,0.00001842,0.00000587,0.00000534,
 -0.00000465,0.00001133,0.00000561,-0.00001905,0.00000263,0.00000606,-0
 .00001241,-0.00063946,0.00031363,0.00108254,-0.00031417,0.00089776,-0.
 00072045,-0.03245194,0.06854946,-0.00009100,-0.00004524,0.00005864,0.0
 0005390,-0.00006810,-0.00024565,-0.00007700,-0.00002036,0.00010978,-0.
 00011774,-0.00019479,-0.00021264,-0.00075296,0.00066154,0.00032379,0.0
 0271270,0.00391071,0.00096858,0.00901128,-0.00615327,-0.01269056,0.133
 34431,-0.04017701,-0.24696947,0.00190247,0.00050089,-0.00307009,0.0022
 6268,-0.00077160,0.00277890,0.00043475,0.00008985,0.00020803,0.0001643
 5,0.00020700,-0.00031938,0.00000570,-0.00002576,0.00034369,-0.00008639
 ,-0.00011862,-0.00002727,-0.00000480,0.00001073,0.00000003,0.00001183,
 -0.00000825,-0.00001326,0.00000797,0.00001853,-0.00001361,0.00071828,-
 0.00030321,-0.00055278,-0.00210152,-0.00008479,-0.00026169,-0.14553449
 ,0.04322002,0.25982237,0.00003142,-0.00000053,0.00001480,0.00003961,0.
 00013835,0.00001315,-0.00039385,-0.00090562,0.00013515,-0.00081628,-0.
 00024392,0.00090053,0.00458847,0.00255666,0.00483259,-0.00034498,0.000
 60183,0.00063554,0.00460886,0.00243982,0.00252762,0.00436367,0.0058542
 7,-0.00647070,-0.05298633,-0.04061114,0.05044123,-0.00144370,-0.013736
 59,0.00940822,-0.00146439,-0.00034763,-0.00237282,-0.00063828,-0.00026
 226,0.00040226,-0.00060655,0.00038463,-0.00092086,0.00012758,0.0000389
 1,0.00007720,0.00002223,-0.00000997,-0.00001063,0.00000168,0.00001723,
 0.00000137,-0.00001526,-0.00000183,-0.00000662,-0.00104243,-0.00026866
 ,-0.00070544,0.00047031,0.00041769,-0.00006068,-0.00241975,-0.00075140
 ,-0.00186740,0.04606997,0.00008046,0.00006638,-0.00011740,-0.00020760,
 0.00017119,0.00031368,-0.00013766,-0.00032292,0.00019045,0.00000172,0.
 00067709,-0.00015531,0.00200038,0.00093303,-0.00103421,0.00031355,0.00
 017151,-0.00069064,0.00360610,-0.00405197,-0.00272801,-0.00927853,-0.0
 1816111,0.02180869,-0.04113584,-0.20518904,0.12776576,0.00122088,0.007
 64574,-0.00386488,-0.00067218,0.00050325,-0.00019552,-0.00031190,-0.00
 035180,0.00063201,-0.00041114,-0.00102190,-0.00068572,0.00037170,-0.00
 012131,-0.00013145,-0.00000294,-0.00002503,0.00000200,-0.00001293,0.00
 000645,0.00001931,-0.00000341,-0.00001882,0.00001109,-0.00028510,-0.00
 000074,0.00001147,-0.00042276,-0.00114934,0.00111135,-0.00047859,0.001
 05029,-0.00071488,0.04526037,0.22062709,-0.00002305,-0.00001175,0.0000
 6869,0.00010594,-0.00031347,-0.00005127,0.00012906,0.00158018,-0.00074
 718,0.00098056,-0.00010204,-0.00174447,0.00440506,-0.00273646,0.000495
 54,0.00042154,-0.00070046,-0.00059144,0.00258713,-0.00131753,0.0022631
 9,-0.00190776,-0.00608219,0.00706168,0.05142521,0.13084644,-0.16495152
 ,0.00394603,0.02256444,-0.01178230,-0.00236897,-0.00164956,0.00097588,
 0.00097512,0.00122116,-0.00242021,0.00011473,-0.00028400,0.00147243,-0
 .00044472,0.00055768,0.00033486,-0.00002873,0.00001061,-0.00000370,0.0
 0000987,-0.00003239,-0.00000448,0.00000535,0.00002399,0.00002726,-0.00
 062903,0.00007507,-0.00031109,0.00005269,-0.00031740,0.00028271,-0.001
 89248,0.00000427,-0.00018218,-0.05755229,-0.14085594,0.17008289,-0.000
 11606,0.00002249,0.00009317,-0.00000926,-0.00038388,0.00022741,-0.0048
 3104,-0.00087089,-0.00272627,0.00137782,0.00048418,0.00095364,-0.00019
 055,-0.00008095,-0.00055475,-0.00057677,-0.00015533,-0.00031448,0.0001
 0569,-0.00002038,0.00015719,-0.00062339,0.00002163,-0.00035961,-0.0002
 2854,-0.00014254,0.00001170,0.00641816,-0.00039309,0.00421238,0.006391
 20,-0.00055171,-0.00089431,-0.10391740,0.08862985,0.08515384,-0.006114
 61,0.00687023,0.01236035,0.00041848,0.00291783,-0.00224073,-0.00000825
 ,-0.00002173,-0.00001546,0.00002545,-0.00000559,0.00003407,0.00001338,
 0.00007355,-0.00009159,-0.00006906,-0.00004144,-0.00005159,0.00006846,
 0.00001314,0.00004291,0.00001901,0.00000124,0.00000723,0.00042852,0.00
 011593,0.00019121,0.10047472,-0.00044553,0.00028228,0.00067931,-0.0003
 6085,0.00101037,0.00035371,0.00086726,-0.00154841,-0.00210271,-0.00055
 042,0.00117122,0.00092417,0.00139377,-0.00105538,-0.00208518,-0.000454
 59,-0.00006006,0.00069236,0.00009084,0.00012503,-0.00015739,0.00002424
 ,-0.00011684,-0.00013833,-0.00013357,-0.00010862,0.00031617,-0.0013948
 5,-0.00166763,0.00339528,0.01466895,-0.01650049,-0.01810462,0.09270947
 ,-0.18523160,-0.11507951,-0.00844897,0.00889996,0.01044257,-0.00029202
 ,0.00197243,0.00045657,0.00010540,0.00009136,-0.00013680,0.00000390,-0
 .00004751,0.00001465,0.00004895,0.00008681,-0.00016987,0.00004073,-0.0
 0017816,-0.00003811,0.00000809,-0.00001170,-0.00000049,0.00002994,-0.0
 0006847,-0.00001928,0.00005752,0.00001741,-0.00009390,-0.09634211,0.19
 382988,0.00010529,-0.00009611,-0.00030459,0.00037715,0.00025456,-0.000
 41668,-0.00390896,0.00017285,-0.00120851,0.00122075,-0.00016800,0.0003
 8297,-0.00055115,-0.00001383,0.00027896,-0.00037562,-0.00000747,-0.000
 29961,0.00010990,0.00002984,0.00005730,-0.00044854,-0.00002555,-0.0002
 0440,0.00000589,0.00002073,-0.00048727,0.00445609,0.00223010,0.0024567
 3,-0.00249278,0.00386809,0.00948018,0.08398406,-0.10818587,-0.15126831
 ,0.01861172,-0.01888085,-0.01810207,-0.00242051,-0.00011053,0.00221089
 ,-0.00008668,-0.00009167,0.00010466,0.00004302,0.00002366,-0.00002286,
 -0.00002480,-0.00001483,0.00005888,-0.00005996,0.00004957,-0.00003230,
 0.00004121,0.00000615,0.00003313,-0.00000115,0.00002996,0.00002284,0.0
 0025204,-0.00005325,0.00031552,-0.10010593,0.11784700,0.15960677,0.000
 18180,0.00003641,-0.00009604,-0.00031299,0.00011052,0.00020603,0.00114
 732,0.00082418,-0.00061033,0.00020424,-0.00057144,-0.00055700,-0.00036
 118,0.00050465,0.00044529,0.00049585,-0.00045224,-0.00065907,-0.000365
 07,-0.00023153,0.00068228,-0.00029270,0.00081567,-0.00071870,-0.000875
 65,-0.00076373,0.00126245,-0.00053315,-0.00131939,-0.00067804,0.000421
 86,-0.00075952,0.00156991,-0.00915716,0.00930863,-0.00463028,-0.301054
 37,0.15139618,0.14739086,0.01430286,-0.01665334,-0.01207094,-0.0000115
 3,-0.00001572,0.00000290,-0.00001406,0.00000823,0.00001599,-0.00002738
 ,-0.00001619,0.00003746,0.00000769,0.00001160,0.00000754,0.00012184,0.
 00005621,0.00003030,0.00000078,-0.00000006,-0.00000967,0.00142452,0.00
 039315,-0.00055982,0.00091785,-0.00151535,0.00076203,0.29412732,0.0001
 4826,-0.00001596,-0.00005176,-0.00005166,-0.00020703,0.00013795,0.0000
 1095,0.00138724,-0.00198971,0.00083400,-0.00160043,-0.00054684,-0.0008
 9382,-0.00056215,0.00176458,-0.00000979,0.00035173,-0.00000451,0.00001
 918,0.00022865,-0.00023206,0.00141930,-0.00014371,-0.00025962,0.000011
 66,-0.00129255,0.00082433,-0.00069013,0.00245562,0.00102200,-0.0014531
 3,-0.00364874,0.00090339,-0.00959577,0.01775419,0.00435345,0.13067774,
 -0.13117428,-0.05795496,0.02119367,-0.03400726,-0.00599033,-0.00001376
 ,-0.00000343,0.00001056,-0.00000162,0.00000451,0.00000361,-0.00003003,
 -0.00000653,0.00004749,-0.00001715,0.00003962,-0.00001507,-0.00015469,
 0.00006838,-0.00018744,0.00001531,-0.00000769,0.00005507,-0.00061492,-
 0.00139315,-0.00238181,-0.00034826,-0.00107220,0.00303761,-0.14143232,
 0.15752046,0.00024323,0.00016049,-0.00021422,-0.00083303,0.00068200,0.
 00110462,0.00069602,0.00116303,-0.00439688,0.00089405,-0.00181932,-0.0
 0015463,-0.00097068,0.00003299,0.00118827,0.00034128,-0.00017216,-0.00
 048754,-0.00020341,-0.00031508,0.00041539,0.00042095,0.00072992,-0.000
 37329,-0.00058505,-0.00171546,0.00086766,-0.00047018,0.00289699,0.0009
 8780,-0.00259760,-0.00694460,0.00302445,0.03097328,-0.00950537,-0.0240
 8630,0.10091939,-0.04466972,-0.05806801,0.00077456,-0.00591827,-0.0033
 2625,-0.00001107,-0.00003158,0.00001763,-0.00004234,0.00001825,0.00007
 389,-0.00003095,-0.00002707,0.00003575,0.00001528,-0.00002613,0.000020
 37,-0.00004877,0.00000041,-0.00011485,0.00009571,-0.00009085,-0.000050
 18,0.00031180,-0.00067535,-0.00065075,0.00419121,0.00254661,-0.0023973
 6,-0.13243522,0.06115799,0.08633365,0.00002477,-0.00000069,-0.00001981
 ,-0.00013732,0.00011739,0.00013623,0.00006467,-0.00045080,-0.00028924,
 -0.00006284,0.00002807,0.00022913,0.00003771,0.00002842,-0.00009719,-0
 .00000765,-0.00001442,0.00000883,-0.00000183,-0.00000316,-0.00000246,-
 0.00005369,-0.00001741,0.00000943,0.00000137,0.00003676,-0.00006575,0.
 00010703,-0.00003195,-0.00000490,-0.00123785,0.00018122,0.00078938,0.0
 0104345,-0.00534505,0.00090766,0.00619128,-0.01627327,0.01414380,-0.15
 184879,0.11904149,-0.20248537,-0.00000044,-0.00001275,0.00000814,-0.00
 000691,0.00000210,0.00002288,-0.00000936,-0.00000131,-0.00000239,0.000
 00136,-0.00000482,0.00000374,0.00000750,-0.00000448,0.00000884,0.00000
 299,0.00000884,0.00000552,-0.00000503,-0.00000365,0.00005735,0.0000261
 7,-0.00011081,0.00050694,-0.00034866,0.00097699,-0.00164845,0.14621207
 ,-0.00009550,-0.00005254,0.00026196,0.00037120,-0.00022517,-0.00054708
 ,-0.00119654,-0.00080509,0.00083573,-0.00004034,0.00059671,0.00032710,
 0.00029274,-0.00002767,-0.00049017,-0.00011931,0.00008777,0.00019113,0
 .00004892,0.00013439,-0.00011858,0.00010041,-0.00012897,0.00000713,-0.
 00014677,0.00012234,0.00010859,0.00022031,-0.00048146,-0.00023858,-0.0
 0068205,0.00177514,-0.00017471,0.00126882,-0.00757157,0.00287626,0.015
 79293,-0.03541627,0.02297921,0.08185795,-0.11681288,0.11930937,0.00001
 413,0.00002572,-0.00003434,0.00002510,-0.00001780,-0.00003538,0.000004
 41,0.00002551,-0.00002298,0.00000766,0.00001902,-0.00001362,-0.0000248
 6,0.00002535,-0.00000379,-0.00001288,0.00000623,0.00003081,-0.00001282
 ,-0.00006230,-0.00000493,0.00020783,0.00018033,0.00007783,0.00026538,-
 0.00467529,0.00252227,-0.09814672,0.16327849,0.00007179,0.00006538,-0.
 00013040,-0.00014720,-0.00000132,0.00027986,0.00041015,0.00049578,-0.0
 0076731,0.00010808,-0.00058219,-0.00007131,-0.00023277,-0.00001189,0.0
 0035683,0.00004404,-0.00002909,-0.00009409,-0.00000562,-0.00008311,0.0
 0003934,0.00001344,0.00005598,0.00000877,0.00001807,-0.00012135,-0.000
 08179,-0.00011531,0.00053638,0.00025713,0.00000056,-0.00135785,0.00068
 610,0.00005299,0.00255466,-0.00242061,0.00636708,-0.01399507,0.0094754
 7,-0.19470703,0.16361307,-0.26695024,-0.00000873,-0.00001650,0.0000146
 3,-0.00000929,0.00000802,0.00001037,-0.00000430,-0.00001990,0.00002040
 ,-0.00000313,-0.00001313,0.00000694,0.00000143,-0.00001992,-0.00001072
 ,0.00002360,-0.00002536,-0.00002789,0.00001392,0.00003675,0.00005993,-
 0.00028158,0.00045779,-0.00026486,0.00061211,-0.00370389,0.00025078,0.
 18777769,-0.14784324,0.25935265\\0.00000385,-0.00000807,0.00000346,-0.
 00000656,0.00001557,0.00001230,0.00000003,0.00006794,-0.00001225,0.000
 04547,-0.00009648,-0.00003985,-0.00006236,0.00001180,0.00010007,0.0000
 2148,-0.00000843,-0.00003324,-0.00001506,-0.00000533,0.00002321,0.0000
 0185,0.00001542,-0.00000734,-0.00000920,-0.00001000,0.00001516,0.00005
 481,0.00002329,-0.00005982,-0.00002312,-0.00002275,-0.00001729,-0.0000
 3361,0.00000577,0.00007310,0.00001272,-0.00001672,-0.00005818,0.000026
 77,0.00001225,0.00002388,-0.00000292,-0.00000230,-0.00000237,0.0000013
 3,0.00000273,-0.00000240,-0.00000033,-0.00000129,0.00000128,-0.0000039
 8,0.00000298,0.00000391,0.00000336,0.00000244,-0.00000449,0.00000030,-
 0.00000314,0.00000226,-0.00000377,0.00000084,-0.00000307,0.00000604,0.
 00000603,-0.00001400,0.00000406,0.00000193,0.00000407,-0.00002116,0.00
 000551,-0.00000841\\\@


 NOBODY LOSES ALL THE TIME
 I HAD AN UNCLE NAMED
 SOL WHO WAS A BORN FAILURE AND
 NEARLY EVERYBODY SAID HE SHOULD HAVE GONE
 INTO VAUDEVILLE PERHAPS BECAUSE MY UNCLE SOL COULD
 SING MCCANN HE WAS A DIVER ON XMAS EVE LIKE HELL ITSELF WHICH
 MAY OR MAY NOT ACCOUNT FOR THE FACT THAT MY UNCLE
 SOL INDULGED IN THAT POSSIBLY MOST INEXCUSABLE
 OF ALL TO USE A HIGHFALOOTIN PHRASE
 LUXURIES THAT IS OR TO
 WIT FARMING AND BE
 IT NEEDLESSLY
 ADDED
 MY UNCLE SOL'S FARM     
 FAILED BECAUSE THE CHICKENS
 ATE THE VEGETABLES SO
 MY UNCLE SOL HAD A
 CHICKEN FARM TILL THE
 SKUNKS ATE THE CHICKENS WHEN 
 MY UNCLE SOL
 HAD A SKUNK FARM BUT
 THE SKUNKS CAUGHT COLD AND
 DIED AND SO
 MY UNCLE SOL IMITATED THE
 SKUNKS IN A SUBTLE MANNER
 OR BY DROWNING HIMSELF IN THE WATERTANK
 BUT SOMEBODY WHO'D GIVEN MY UNCLE SOL A VICTOR     
 VICTROLA AND RECORDS WHILE HE LIVED PRESENTED TO
 HIM UPON THE AUSPICIOUS OCCASION OF HIS DECEASE A
 SCRUMPTIOUS NOT TO MENTION SPLENDIFEROUS FUNERAL WITH
 TALL BOYS IN BLACK GLOVES AND FLOWERS AND EVERYTHING AND
 I REMEMBER WE ALL CRIED LIKE THE MISSOURI
 WHEN MY UNCLE SOL'S COFFIN LURCHED BECAUSE     
 SOMEBODY PRESSED A BUTTON
 (AND DOWN WENT
 MY UNCLE
 SOL
 AND STARTED A WORM FARM)
           E. E. CUMMINGS
 Job cpu time:       0 days  0 hours 20 minutes 10.0 seconds.
 Elapsed time:       0 days  0 hours  0 minutes 51.1 seconds.
 File lengths (MBytes):  RWF=    158 Int=      0 D2E=      0 Chk=      6 Scr=      1
 Normal termination of Gaussian 16 at Mon Oct 14 02:23:24 2019.
real 153.46
user 3498.56
sys 20.40
Machine:
brown-a117
brown-a117
brown-a117
brown-a117
brown-a117
brown-a117
brown-a117
brown-a117
brown-a117
brown-a117
brown-a117
brown-a117
brown-a117
brown-a117
brown-a117
brown-a117
brown-a117
brown-a117
brown-a117
brown-a117
brown-a117
brown-a117
brown-a117
brown-a117
