Title Card Required                                                     
Freq      RB3LYP                                                      6-31G(d)            
Number of atoms                            I               25
Info1-9                                    I   N=           9
          60          60        1002           0           0         100
           6          18        -502
Full Title                                 C   N=           2
Title Card Required     
Route                                      C   N=           6
#P opt freq b3lyp/6-31g(d) geom=connectivity temperature=0.0
01          
Charge                                     I                1
Multiplicity                               I                1
Number of electrons                        I              100
Number of alpha electrons                  I               50
Number of beta electrons                   I               50
Number of basis functions                  I              232
Number of independent functions            I              232
Number of point charges in /Mol/           I                0
Number of translation vectors              I                0
Atomic numbers                             I   N=          25
           6           8           6           7           6           6
           6           6           6           6           6           6
           7           8           1           1           1           1
           1           1           1           1           1           1
           1
Nuclear charges                            R   N=          25
  6.00000000E+00  8.00000000E+00  6.00000000E+00  7.00000000E+00  6.00000000E+00
  6.00000000E+00  6.00000000E+00  6.00000000E+00  6.00000000E+00  6.00000000E+00
  6.00000000E+00  6.00000000E+00  7.00000000E+00  8.00000000E+00  1.00000000E+00
  1.00000000E+00  1.00000000E+00  1.00000000E+00  1.00000000E+00  1.00000000E+00
  1.00000000E+00  1.00000000E+00  1.00000000E+00  1.00000000E+00  1.00000000E+00
Current cartesian coordinates              R   N=          75
 -7.07306953E+00 -2.44387759E+00 -1.94683959E-01 -5.28942422E+00 -3.62480162E-01
 -1.06168906E-01 -2.87394271E+00 -9.79134421E-01 -5.09944126E-02 -1.90181489E+00
 -3.20893406E+00 -4.74766016E-02  7.58108298E-01 -2.83871839E+00  2.06172787E-02
  2.58714512E+00 -4.70499953E+00  1.31142163E-02  5.13595124E+00 -3.95449994E+00
  1.72989572E-02  5.83765621E+00 -1.40624753E+00 -1.13698297E-02  3.98889788E+00
  4.81945603E-01 -1.83424048E-02  1.44965354E+00 -2.42879728E-01  5.94408865E-02
 -9.38098146E-01  1.11399549E+00  1.19714084E-01 -1.58574034E+00  3.54028994E+00
  4.95640207E-01  3.68328674E-01  5.41315110E+00  9.76970553E-01  1.28848886E+00
  6.47664485E+00 -1.36873284E+00 -6.84841513E+00 -3.62311987E+00  1.48409400E+00
 -8.93024402E+00 -1.56080815E+00 -2.43378848E-01 -6.73787922E+00 -3.57195416E+00
 -1.88981512E+00  2.05727048E+00 -6.68462448E+00 -1.40353107E-02  6.59808358E+00
 -5.39427296E+00  1.23050110E-03  7.82121746E+00 -8.92711966E-01 -7.60864688E-02
  4.56565585E+00  2.44815247E+00 -2.04768863E-01 -3.49111740E+00  4.27731488E+00
  4.64560124E-01 -3.37750980E-01  6.85357432E+00  2.07419783E+00  2.45569114E+00
  7.84013069E+00 -8.97800757E-01  1.87000534E+00  4.57023904E+00  1.89194904E+00
Number of symbols in /Mol/                 I                0
Force Field                                I                0
Atom Types                                 C   N=          25
                                                            
                                                            
                                                            
                                                            
                                                            
Int Atom Types                             I   N=          25
           0           0           0           0           0           0
           0           0           0           0           0           0
           0           0           0           0           0           0
           0           0           0           0           0           0
           0
MM charges                                 R   N=          25
  0.00000000E+00  0.00000000E+00  0.00000000E+00  0.00000000E+00  0.00000000E+00
  0.00000000E+00  0.00000000E+00  0.00000000E+00  0.00000000E+00  0.00000000E+00
  0.00000000E+00  0.00000000E+00  0.00000000E+00  0.00000000E+00  0.00000000E+00
  0.00000000E+00  0.00000000E+00  0.00000000E+00  0.00000000E+00  0.00000000E+00
  0.00000000E+00  0.00000000E+00  0.00000000E+00  0.00000000E+00  0.00000000E+00
Integer atomic weights                     I   N=          25
          12          16          12          14          12          12
          12          12          12          12          12          12
          14          16           1           1           1           1
           1           1           1           1           1           1
           1
Real atomic weights                        R   N=          25
  1.20000000E+01  1.59949146E+01  1.20000000E+01  1.40030740E+01  1.20000000E+01
  1.20000000E+01  1.20000000E+01  1.20000000E+01  1.20000000E+01  1.20000000E+01
  1.20000000E+01  1.20000000E+01  1.40030740E+01  1.59949146E+01  1.00782504E+00
  1.00782504E+00  1.00782504E+00  1.00782504E+00  1.00782504E+00  1.00782504E+00
  1.00782504E+00  1.00782504E+00  1.00782504E+00  1.00782504E+00  1.00782504E+00
Atom fragment info                         I   N=          25
           0           0           0           0           0           0
           0           0           0           0           0           0
           0           0           0           0           0           0
           0           0           0           0           0           0
           0
Atom residue num                           I   N=          25
           0           0           0           0           0           0
           0           0           0           0           0           0
           0           0           0           0           0           0
           0           0           0           0           0           0
           0
Nuclear spins                              I   N=          25
           0           0           0           2           0           0
           0           0           0           0           0           0
           2           0           1           1           1           1
           1           1           1           1           1           1
           1
Nuclear ZEff                               R   N=          25
 -3.60000000E+00 -5.60000000E+00 -3.60000000E+00 -4.55000000E+00 -3.60000000E+00
 -3.60000000E+00 -3.60000000E+00 -3.60000000E+00 -3.60000000E+00 -3.60000000E+00
 -3.60000000E+00 -3.60000000E+00 -4.55000000E+00 -5.60000000E+00 -1.00000000E+00
 -1.00000000E+00 -1.00000000E+00 -1.00000000E+00 -1.00000000E+00 -1.00000000E+00
 -1.00000000E+00 -1.00000000E+00 -1.00000000E+00 -1.00000000E+00 -1.00000000E+00
Nuclear ZNuc                               R   N=          25
  6.00000000E+00  8.00000000E+00  6.00000000E+00  7.00000000E+00  6.00000000E+00
  6.00000000E+00  6.00000000E+00  6.00000000E+00  6.00000000E+00  6.00000000E+00
  6.00000000E+00  6.00000000E+00  7.00000000E+00  8.00000000E+00  1.00000000E+00
  1.00000000E+00  1.00000000E+00  1.00000000E+00  1.00000000E+00  1.00000000E+00
  1.00000000E+00  1.00000000E+00  1.00000000E+00  1.00000000E+00  1.00000000E+00
Nuclear QMom                               R   N=          25
  0.00000000E+00  0.00000000E+00  0.00000000E+00  2.04400000E+00  0.00000000E+00
  0.00000000E+00  0.00000000E+00  0.00000000E+00  0.00000000E+00  0.00000000E+00
  0.00000000E+00  0.00000000E+00  2.04400000E+00  0.00000000E+00  0.00000000E+00
  0.00000000E+00  0.00000000E+00  0.00000000E+00  0.00000000E+00  0.00000000E+00
  0.00000000E+00  0.00000000E+00  0.00000000E+00  0.00000000E+00  0.00000000E+00
Nuclear GFac                               R   N=          25
  0.00000000E+00  0.00000000E+00  0.00000000E+00  4.03761000E-01  0.00000000E+00
  0.00000000E+00  0.00000000E+00  0.00000000E+00  0.00000000E+00  0.00000000E+00
  0.00000000E+00  0.00000000E+00  4.03761000E-01  0.00000000E+00  2.79284600E+00
  2.79284600E+00  2.79284600E+00  2.79284600E+00  2.79284600E+00  2.79284600E+00
  2.79284600E+00  2.79284600E+00  2.79284600E+00  2.79284600E+00  2.79284600E+00
MicOpt                                     I   N=          25
          -1          -1          -1          -1          -1          -1
          -1          -1          -1          -1          -1          -1
          -1          -1          -1          -1          -1          -1
          -1          -1          -1          -1          -1          -1
          -1
Number of residues                         I                0
Number of secondary structures             I                0
Redundant internal dimensions              I   N=           4
         122          26          42          54
Redundant internal coordinate indices      I   N=         488
           1           2           0           0           1          15
           0           0           1          16           0           0
           1          17           0           0           2           3
           0           0           3           4           0           0
           3          11           0           0           4           5
           0           0           5           6           0           0
           5          10           0           0           6           7
           0           0           6          18           0           0
           7           8           0           0           7          19
           0           0           8           9           0           0
           8          20           0           0           9          10
           0           0           9          21           0           0
          10          11           0           0          11          12
           0           0          12          13           0           0
          12          22           0           0          13          14
           0           0          13          23           0           0
          13          25           0           0          14          24
           0           0           2           1          15           0
           2           1          16           0           2           1
          17           0          15           1          16           0
          15           1          17           0          16           1
          17           0           1           2           3           0
           2           3           4           0           2           3
          11           0           4           3          11           0
           3           4           5           0           4           5
           6           0           4           5          10           0
           6           5          10           0           5           6
           7           0           5           6          18           0
           7           6          18           0           6           7
           8           0           6           7          19           0
           8           7          19           0           7           8
           9           0           7           8          20           0
           9           8          20           0           8           9
          10           0           8           9          21           0
          10           9          21           0           5          10
           9           0           5          10          11           0
           9          10          11           0           3          11
          10           0           3          11          12           0
          10          11          12           0          11          12
          13           0          11          12          22           0
          13          12          22           0          12          13
          14           0          12          13          23           0
          12          13          25           0          14          13
          23           0          14          13          25           0
          23          13          25           0          13          14
          24           0          15           1           2           3
          16           1           2           3          17           1
           2           3           1           2           3           4
           1           2           3          11           2           3
           4           5          11           3           4           5
           2           3          11          10           2           3
          11          12           4           3          11          10
           4           3          11          12           3           4
           5           6           3           4           5          10
           4           5           6           7           4           5
           6          18          10           5           6           7
          10           5           6          18           4           5
          10           9           4           5          10          11
           6           5          10           9           6           5
          10          11           5           6           7           8
           5           6           7          19          18           6
           7           8          18           6           7          19
           6           7           8           9           6           7
           8          20          19           7           8           9
          19           7           8          20           7           8
           9          10           7           8           9          21
          20           8           9          10          20           8
           9          21           8           9          10           5
           8           9          10          11          21           9
          10           5          21           9          10          11
           5          10          11           3           5          10
          11          12           9          10          11           3
           9          10          11          12           3          11
          12          13           3          11          12          22
          10          11          12          13          10          11
          12          22          11          12          13          14
          11          12          13          23          11          12
          13          25          22          12          13          14
          22          12          13          23          22          12
          13          25          12          13          14          24
          23          13          14          24          25          13
          14          24
Redundant internal coordinates             R   N=         122
  2.74252452E+00  2.06382591E+00  2.05700751E+00  2.06358401E+00  2.49356324E+00
  2.43249898E+00  2.85619124E+00  2.68642659E+00  2.61312787E+00  2.68665600E+00
  2.65700579E+00  2.04949242E+00  2.64325597E+00  2.05208077E+00  2.64258004E+00
  2.04998104E+00  2.64181449E+00  2.05751647E+00  2.74701681E+00  2.53922540E+00
  2.74912233E+00  2.04319198E+00  2.73496583E+00  1.94352134E+00  1.95005620E+00
  1.85559473E+00  1.91409711E+00  1.83603494E+00  1.91319881E+00  1.94209913E+00
  1.91575461E+00  1.94108557E+00  2.02977404E+00  2.23172551E+00  2.06762551E+00
  1.98320827E+00  1.84357610E+00  2.20749036E+00  1.96966728E+00  2.10589844E+00
  2.05974946E+00  2.10472938E+00  2.11865851E+00  2.12580510E+00  2.07750896E+00
  2.07963491E+00  2.09803611E+00  2.09291173E+00  2.09192436E+00  2.06726236E+00
  2.07938456E+00  2.13446663E+00  2.10839263E+00  1.82743311E+00  2.34702376E+00
  1.79859750E+00  2.13675628E+00  2.34189469E+00  2.08930764E+00  2.18986716E+00
  2.00399038E+00  1.93251792E+00  1.92359066E+00  1.91244384E+00  1.89466904E+00
  1.88748506E+00  1.91264581E+00  1.85426370E+00  1.05841477E+00 -3.13455665E+00
 -1.04600345E+00 -9.69706019E-03 -3.11063404E+00  3.14060377E+00 -3.99991908E-02
 -3.11238940E+00  1.30862733E-01  6.42324350E-02 -2.97570074E+00 -3.12486149E+00
 -5.90964366E-04  3.11125076E+00 -1.99617584E-02 -1.17855676E-02  3.14018722E+00
 -3.07726155E+00  4.03153573E-02  4.81397888E-02 -3.11746861E+00 -1.78289184E-02
 -3.13585301E+00  3.11329638E+00 -4.72770761E-03  1.18402217E-02 -3.10282629E+00
  3.12983641E+00  1.51698960E-02  2.39079913E-02 -3.05016138E+00  3.13858979E+00
  6.45204176E-02 -5.33585571E-02  3.12079062E+00  3.01845992E+00 -9.05762092E-02
 -5.73202331E-02  2.96454021E+00  3.05536248E+00 -2.05962389E-01  2.99939740E+00
 -1.49382918E-01 -3.89909310E-03  3.13050590E+00  1.55034581E+00 -2.63624268E+00
 -5.30176637E-01 -1.58479735E+00  5.11799469E-01  2.61786551E+00  3.03799754E+00
  9.24205370E-01 -1.14967771E+00
ZRed-IntVec                                I   N=         122
           0           0           0           0           0           0
           0           0           0           0           0           0
           0           0           0           0           0           0
           0           0           0           0           0           0
           0           0           0           0           0           0
           0           0           0           0           0           0
           0           0           0           0           0           0
           0           0           0           0           0           0
           0           0           0           0           0           0
           0           0           0           0           0           0
           0           0           0           0           0           0
           0           0           0           0           0           0
           0           0           0           0           0           0
           0           0           0           0           0           0
           0           0           0           0           0           0
           0           0           0           0           0           0
           0           0           0           0           0           0
           0           0           0           0           0           0
           0           0           0           0           0           0
           0           0           0           0           0           0
           0           0
ZRed-FPVec                                 R   N=         122
  0.00000000E+00  0.00000000E+00  0.00000000E+00  0.00000000E+00  0.00000000E+00
  0.00000000E+00  0.00000000E+00  0.00000000E+00  0.00000000E+00  0.00000000E+00
  0.00000000E+00  0.00000000E+00  0.00000000E+00  0.00000000E+00  0.00000000E+00
  0.00000000E+00  0.00000000E+00  0.00000000E+00  0.00000000E+00  0.00000000E+00
  0.00000000E+00  0.00000000E+00  0.00000000E+00  0.00000000E+00  0.00000000E+00
  0.00000000E+00  0.00000000E+00  0.00000000E+00  0.00000000E+00  0.00000000E+00
  0.00000000E+00  0.00000000E+00  0.00000000E+00  0.00000000E+00  0.00000000E+00
  0.00000000E+00  0.00000000E+00  0.00000000E+00  0.00000000E+00  0.00000000E+00
  0.00000000E+00  0.00000000E+00  0.00000000E+00  0.00000000E+00  0.00000000E+00
  0.00000000E+00  0.00000000E+00  0.00000000E+00  0.00000000E+00  0.00000000E+00
  0.00000000E+00  0.00000000E+00  0.00000000E+00  0.00000000E+00  0.00000000E+00
  0.00000000E+00  0.00000000E+00  0.00000000E+00  0.00000000E+00  0.00000000E+00
  0.00000000E+00  0.00000000E+00  0.00000000E+00  0.00000000E+00  0.00000000E+00
  0.00000000E+00  0.00000000E+00  0.00000000E+00  0.00000000E+00  0.00000000E+00
  0.00000000E+00  0.00000000E+00  0.00000000E+00  0.00000000E+00  0.00000000E+00
  0.00000000E+00  0.00000000E+00  0.00000000E+00  0.00000000E+00  0.00000000E+00
  0.00000000E+00  0.00000000E+00  0.00000000E+00  0.00000000E+00  0.00000000E+00
  0.00000000E+00  0.00000000E+00  0.00000000E+00  0.00000000E+00  0.00000000E+00
  0.00000000E+00  0.00000000E+00  0.00000000E+00  0.00000000E+00  0.00000000E+00
  0.00000000E+00  0.00000000E+00  0.00000000E+00  0.00000000E+00  0.00000000E+00
  0.00000000E+00  0.00000000E+00  0.00000000E+00  0.00000000E+00  0.00000000E+00
  0.00000000E+00  0.00000000E+00  0.00000000E+00  0.00000000E+00  0.00000000E+00
  0.00000000E+00  0.00000000E+00  0.00000000E+00  0.00000000E+00  0.00000000E+00
  0.00000000E+00  0.00000000E+00  0.00000000E+00  0.00000000E+00  0.00000000E+00
  0.00000000E+00  0.00000000E+00
ZRed-Constraint1                           R   N=         122
  2.74252452E+00  2.06382591E+00  2.05700751E+00  2.06358401E+00  2.49356324E+00
  2.43249898E+00  2.85619124E+00  2.68642659E+00  2.61312787E+00  2.68665600E+00
  2.65700579E+00  2.04949242E+00  2.64325597E+00  2.05208077E+00  2.64258004E+00
  2.04998104E+00  2.64181449E+00  2.05751647E+00  2.74701681E+00  2.53922540E+00
  2.74912233E+00  2.04319198E+00  2.73496583E+00  1.94352134E+00  1.95005620E+00
  1.85559473E+00  1.91409711E+00  1.83603494E+00  1.91319881E+00  1.94209913E+00
  1.91575461E+00  1.94108557E+00  2.02977404E+00  2.23172551E+00  2.06762551E+00
  1.98320827E+00  1.84357610E+00  2.20749036E+00  1.96966728E+00  2.10589844E+00
  2.05974946E+00  2.10472938E+00  2.11865851E+00  2.12580510E+00  2.07750896E+00
  2.07963491E+00  2.09803611E+00  2.09291173E+00  2.09192436E+00  2.06726236E+00
  2.07938456E+00  2.13446663E+00  2.10839263E+00  1.82743311E+00  2.34702376E+00
  1.79859750E+00  2.13675628E+00  2.34189469E+00  2.08930764E+00  2.18986716E+00
  2.00399038E+00  1.93251792E+00  1.92359066E+00  1.91244384E+00  1.89466904E+00
  1.88748506E+00  1.91264581E+00  1.85426370E+00  1.05841477E+00 -3.13455665E+00
 -1.04600345E+00 -9.69706019E-03 -3.11063404E+00  3.14060377E+00 -3.99991908E-02
 -3.11238940E+00  1.30862733E-01  6.42324350E-02 -2.97570074E+00 -3.12486149E+00
 -5.90964366E-04  3.11125076E+00 -1.99617584E-02 -1.17855676E-02  3.14018722E+00
 -3.07726155E+00  4.03153573E-02  4.81397888E-02 -3.11746861E+00 -1.78289184E-02
 -3.13585301E+00  3.11329638E+00 -4.72770761E-03  1.18402217E-02 -3.10282629E+00
  3.12983641E+00  1.51698960E-02  2.39079913E-02 -3.05016138E+00  3.13858979E+00
  6.45204176E-02 -5.33585571E-02  3.12079062E+00  3.01845992E+00 -9.05762092E-02
 -5.73202331E-02  2.96454021E+00  3.05536248E+00 -2.05962389E-01  2.99939740E+00
 -1.49382918E-01 -3.89909310E-03  3.13050590E+00  1.55034581E+00 -2.63624268E+00
 -5.30176637E-01 -1.58479735E+00  5.11799469E-01  2.61786551E+00  3.03799754E+00
  9.24205370E-01 -1.14967771E+00
ZRed-Constraint2                           R   N=         122
  2.72128495E+00  2.05977397E+00  2.05974785E+00  2.05980977E+00  2.53502303E+00
  2.42438216E+00  2.57057947E+00  2.46568034E+00  2.65729408E+00  2.63407536E+00
  2.66463717E+00  2.05980148E+00  2.66764634E+00  2.05975014E+00  2.66613493E+00
  2.05979443E+00  2.67242055E+00  2.05990104E+00  2.60576531E+00  2.54525468E+00
  2.49849176E+00  2.05970567E+00  2.46479735E+00  1.88972613E+00  1.88972612E+00
  1.81404134E+00  1.91070001E+00  1.91064499E+00  1.91061192E+00  1.91058321E+00
  1.91059388E+00  1.91066540E+00  1.97926862E+00  2.12644842E+00  2.19825931E+00
  1.95787294E+00  1.88942967E+00  2.24765424E+00  1.90746915E+00  2.12783725E+00
  2.06657736E+00  2.10606640E+00  2.11054154E+00  2.09934470E+00  2.09099145E+00
  2.09284916E+00  2.10445773E+00  2.08973372E+00  2.08899386E+00  2.07686846E+00
  2.10115352E+00  2.10516332E+00  2.09073506E+00  1.83959216E+00  2.35275191E+00
  1.82800303E+00  2.17602411E+00  2.27870186E+00  2.16543502E+00  2.07631058E+00
  2.04143971E+00  2.12100329E+00  1.86450781E+00  1.86450782E+00  1.86450782E+00
  1.86450782E+00  1.87271925E+00  1.91072944E+00  5.51580709E-01  2.64596263E+00
 -1.54279402E+00  1.52251619E+00 -1.65942807E+00 -3.14059696E+00  3.62686345E-02
  3.11550987E+00 -5.56067217E-02 -6.31010195E-02  3.04896769E+00  3.12518450E+00
  6.35917796E-03 -3.09790671E+00  4.37704019E-02  1.83690180E-02 -3.12313918E+00
  3.08375371E+00 -4.44191895E-02 -3.69301016E-02  3.11808231E+00  7.03183184E-03
 -3.13458363E+00 -3.13464551E+00  6.92433682E-03 -1.36068609E-02  3.12787555E+00
  3.12800863E+00 -1.36942705E-02 -4.70994078E-03  3.13702647E+00  3.13699291E+00
 -4.45598743E-03  2.94808259E-02 -3.13034654E+00 -3.11225592E+00  1.11020177E-02
  6.21142710E-02 -3.04751910E+00 -3.06306415E+00  1.10487790E-01 -3.06783414E+00
  7.38151967E-02  3.61721691E-02 -3.10536380E+00 -3.13401899E+00 -9.92368132E-01
  1.00751546E+00  7.51802491E-03  2.14916888E+00 -2.13413283E+00  2.74184254E+00
  6.00191683E-01 -1.39969191E+00
SymInf integers                            I   N=          26
           1           1           1           1           1           0
           0           0           0           0           0           0
           0           0           0           0           0           0
           0           0           0           0           0           0
           0           0
RotTr to input orientation                 R   N=          12
 -5.66390129E-01  3.68717301E-01  7.37054797E-01 -1.29499721E-01 -9.23042937E-01
  3.62245164E-01  8.13899284E-01  1.09723694E-01  5.70551195E-01 -1.44434105E+00
  1.07983912E+00  5.10281345E+00
Number of contracted shells                I               78
Number of primitive shells                 I              198
Pure/Cartesian d shells                    I                1
Pure/Cartesian f shells                    I                0
Highest angular momentum                   I                2
Largest degree of contraction              I                6
Shell types                                I   N=          78
           0          -1          -1           2           0          -1
          -1           2           0          -1          -1           2
           0          -1          -1           2           0          -1
          -1           2           0          -1          -1           2
           0          -1          -1           2           0          -1
          -1           2           0          -1          -1           2
           0          -1          -1           2           0          -1
          -1           2           0          -1          -1           2
           0          -1          -1           2           0          -1
          -1           2           0           0           0           0
           0           0           0           0           0           0
           0           0           0           0           0           0
           0           0           0           0           0           0
Number of primitives per shell             I   N=          78
           6           3           1           1           6           3
           1           1           6           3           1           1
           6           3           1           1           6           3
           1           1           6           3           1           1
           6           3           1           1           6           3
           1           1           6           3           1           1
           6           3           1           1           6           3
           1           1           6           3           1           1
           6           3           1           1           6           3
           1           1           3           1           3           1
           3           1           3           1           3           1
           3           1           3           1           3           1
           3           1           3           1           3           1
Shell to atom map                          I   N=          78
           1           1           1           1           2           2
           2           2           3           3           3           3
           4           4           4           4           5           5
           5           5           6           6           6           6
           7           7           7           7           8           8
           8           8           9           9           9           9
          10          10          10          10          11          11
          11          11          12          12          12          12
          13          13          13          13          14          14
          14          14          15          15          16          16
          17          17          18          18          19          19
          20          20          21          21          22          22
          23          23          24          24          25          25
Primitive exponents                        R   N=         198
  3.04752488E+03  4.57369518E+02  1.03948685E+02  2.92101553E+01  9.28666296E+00
  3.16392696E+00  7.86827235E+00  1.88128854E+00  5.44249258E-01  1.68714478E-01
  8.00000000E-01  5.48467166E+03  8.25234946E+02  1.88046958E+02  5.29645000E+01
  1.68975704E+01  5.79963534E+00  1.55396162E+01  3.59993359E+00  1.01376175E+00
  2.70005823E-01  8.00000000E-01  3.04752488E+03  4.57369518E+02  1.03948685E+02
  2.92101553E+01  9.28666296E+00  3.16392696E+00  7.86827235E+00  1.88128854E+00
  5.44249258E-01  1.68714478E-01  8.00000000E-01  4.17351146E+03  6.27457911E+02
  1.42902093E+02  4.02343293E+01  1.28202129E+01  4.39043701E+00  1.16263619E+01
  2.71627981E+00  7.72218397E-01  2.12031498E-01  8.00000000E-01  3.04752488E+03
  4.57369518E+02  1.03948685E+02  2.92101553E+01  9.28666296E+00  3.16392696E+00
  7.86827235E+00  1.88128854E+00  5.44249258E-01  1.68714478E-01  8.00000000E-01
  3.04752488E+03  4.57369518E+02  1.03948685E+02  2.92101553E+01  9.28666296E+00
  3.16392696E+00  7.86827235E+00  1.88128854E+00  5.44249258E-01  1.68714478E-01
  8.00000000E-01  3.04752488E+03  4.57369518E+02  1.03948685E+02  2.92101553E+01