 Entering Gaussian System, Link 0=/apps/cent7/gaussian/g16-A.03/g16-haswell/g16/g16
 Initial command:
 /apps/cent7/gaussian/g16-A.03/g16-haswell/g16/l1.exe "/scratch/brown/finej/gaussian/Gau-337423.inp" -scrdir="/scratch/brown/finej/gaussian/"
 Entering Link 1 = /apps/cent7/gaussian/g16-A.03/g16-haswell/g16/l1.exe PID=    337425.
  
 Copyright (c) 1988,1990,1992,1993,1995,1998,2003,2009,2016,
            Gaussian, Inc.  All Rights Reserved.
  
 This is part of the Gaussian(R) 16 program.  It is based on
 the Gaussian(R) 09 system (copyright 2009, Gaussian, Inc.),
 the Gaussian(R) 03 system (copyright 2003, Gaussian, Inc.),
 the Gaussian(R) 98 system (copyright 1998, Gaussian, Inc.),
 the Gaussian(R) 94 system (copyright 1995, Gaussian, Inc.),
 the Gaussian 92(TM) system (copyright 1992, Gaussian, Inc.),
 the Gaussian 90(TM) system (copyright 1990, Gaussian, Inc.),
 the Gaussian 88(TM) system (copyright 1988, Gaussian, Inc.),
 the Gaussian 86(TM) system (copyright 1986, Carnegie Mellon
 University), and the Gaussian 82(TM) system (copyright 1983,
 Carnegie Mellon University). Gaussian is a federally registered
 trademark of Gaussian, Inc.
  
 This software contains proprietary and confidential information,
 including trade secrets, belonging to Gaussian, Inc.
  
 This software is provided under written license and may be
 used, copied, transmitted, or stored only in accord with that
 written license.
  
 The following legend is applicable only to US Government
 contracts under FAR:
  
                    RESTRICTED RIGHTS LEGEND
  
 Use, reproduction and disclosure by the US Government is
 subject to restrictions as set forth in subparagraphs (a)
 and (c) of the Commercial Computer Software - Restricted
 Rights clause in FAR 52.227-19.
  
 Gaussian, Inc.
 340 Quinnipiac St., Bldg. 40, Wallingford CT 06492
  
  
 ---------------------------------------------------------------
 Warning -- This program may not be used in any manner that
 competes with the business of Gaussian, Inc. or will provide
 assistance to any competitor of Gaussian, Inc.  The licensee
 of this program is prohibited from giving any competitor of
 Gaussian, Inc. access to this program.  By using this program,
 the user acknowledges that Gaussian, Inc. is engaged in the
 business of creating and licensing software in the field of
 computational chemistry and represents and warrants to the
 licensee that it is not a competitor of Gaussian, Inc. and that
 it will not use this program in any manner prohibited above.
 ---------------------------------------------------------------
  

 Cite this work as:
 Gaussian 16, Revision A.03,
 M. J. Frisch, G. W. Trucks, H. B. Schlegel, G. E. Scuseria, 
 M. A. Robb, J. R. Cheeseman, G. Scalmani, V. Barone, 
 G. A. Petersson, H. Nakatsuji, X. Li, M. Caricato, A. V. Marenich, 
 J. Bloino, B. G. Janesko, R. Gomperts, B. Mennucci, H. P. Hratchian, 
 J. V. Ortiz, A. F. Izmaylov, J. L. Sonnenberg, D. Williams-Young, 
 F. Ding, F. Lipparini, F. Egidi, J. Goings, B. Peng, A. Petrone, 
 T. Henderson, D. Ranasinghe, V. G. Zakrzewski, J. Gao, N. Rega, 
 G. Zheng, W. Liang, M. Hada, M. Ehara, K. Toyota, R. Fukuda, 
 J. Hasegawa, M. Ishida, T. Nakajima, Y. Honda, O. Kitao, H. Nakai, 
 T. Vreven, K. Throssell, J. A. Montgomery, Jr., J. E. Peralta, 
 F. Ogliaro, M. J. Bearpark, J. J. Heyd, E. N. Brothers, K. N. Kudin, 
 V. N. Staroverov, T. A. Keith, R. Kobayashi, J. Normand, 
 K. Raghavachari, A. P. Rendell, J. C. Burant, S. S. Iyengar, 
 J. Tomasi, M. Cossi, J. M. Millam, M. Klene, C. Adamo, R. Cammi, 
 J. W. Ochterski, R. L. Martin, K. Morokuma, O. Farkas, 
 J. B. Foresman, and D. J. Fox, Gaussian, Inc., Wallingford CT, 2016.
 
 ******************************************
 Gaussian 16:  ES64L-G16RevA.03 25-Dec-2016
                14-Oct-2019 
 ******************************************
 %chk=7_p.chk
 %nprocshared=24
 Will use up to   24 processors via shared memory.
 %mem=80GB
 --------------------------------------------------------------
 #P opt freq b3lyp/6-31g(d) geom=connectivity temperature=0.001
 --------------------------------------------------------------
 1/18=20,19=15,26=3,38=1,57=2,112=-1000/1,3;
 2/9=110,12=2,17=6,18=5,40=1/2;
 3/5=1,6=6,7=1,11=2,25=1,30=1,71=1,74=-5/1,2,3;
 4//1;
 5/5=2,38=5/2;
 6/7=2,8=2,9=2,10=2,28=1/1;
 7//1,2,3,16;
 1/18=20,19=15,26=3/3(2);
 2/9=110/2;
 99//99;
 2/9=110/2;
 3/5=1,6=6,7=1,11=2,25=1,30=1,71=1,74=-5/1,2,3;
 4/5=5,16=3,69=1/1;
 5/5=2,38=5/2;
 7//1,2,3,16;
 1/18=20,19=15,26=3/3(-5);
 2/9=110/2;
 6/7=2,8=2,9=2,10=2,19=2,28=1/1;
 99/9=1/99;
 Leave Link    1 at Mon Oct 14 02:21:56 2019, MaxMem= 10737418240 cpu:               1.2 elap:               0.1
 (Enter /apps/cent7/gaussian/g16-A.03/g16-haswell/g16/l101.exe)
 -------------------
 Title Card Required
 -------------------
 Symbolic Z-matrix:
 Charge =  1 Multiplicity = 1
 C                     1.4992   -0.0165   -0.0225 
 O                     0.0612   -0.0286    0.0532 
 C                    -0.4212    0.6125    1.1283 
 N                    -0.6533    1.8742    1.1162 
 C                    -1.1114    2.2168    2.2889 
 C                    -1.4857    3.4913    2.7503 
 C                    -1.9067    3.6229    4.0896 
 C                    -1.9391    2.4963    4.9396 
 C                    -1.5675    1.2232    4.4583 
 C                    -1.167     1.0907    3.1085 
 C                    -0.7612    0.0392    2.3141 
 C                    -0.7193   -1.2833    2.5658 
 N                    -1.128    -1.8356    3.6954 
 O                    -1.0569   -3.1234    3.8897 
 H                     1.9161   -0.013     0.9846 
 H                     1.8425   -0.9036   -0.5547 
 H                     1.8275    0.8763   -0.5547 
 H                    -1.4505    4.3553    2.0867 
 H                    -2.2082    4.5991    4.4693 
 H                    -2.2538    2.6106    5.9769 
 H                    -1.5896    0.3561    5.1185 
 H                    -0.3269   -1.9539    1.8014 
 H                    -0.6104   -1.40247   4.4333 
 H                    -1.0468   -3.3048    4.8323 
 H                    -2.08687  -1.5775    3.81352 
 
 ITRead=  0  0  0  0  0  0  0  0  0  0  0  0  0  0  0  0  0  0  0  0
 ITRead=  0  0  0  0  0
 MicOpt= -1 -1 -1 -1 -1 -1 -1 -1 -1 -1 -1 -1 -1 -1 -1 -1 -1 -1 -1 -1
 MicOpt= -1 -1 -1 -1 -1
 NAtoms=     25 NQM=       25 NQMF=       0 NMMI=      0 NMMIF=      0
                NMic=       0 NMicF=      0.
                    Isotopes and Nuclear Properties:
 (Nuclear quadrupole moments (NQMom) in fm**2, nuclear magnetic moments (NMagM)
  in nuclear magnetons)

  Atom         1           2           3           4           5           6           7           8           9          10
 IAtWgt=          12          16          12          14          12          12          12          12          12          12
 AtmWgt=  12.0000000  15.9949146  12.0000000  14.0030740  12.0000000  12.0000000  12.0000000  12.0000000  12.0000000  12.0000000
 NucSpn=           0           0           0           2           0           0           0           0           0           0
 AtZEff=  -0.0000000  -0.0000000  -0.0000000  -0.0000000  -0.0000000  -0.0000000  -0.0000000  -0.0000000  -0.0000000  -0.0000000
 NQMom=    0.0000000   0.0000000   0.0000000   2.0440000   0.0000000   0.0000000   0.0000000   0.0000000   0.0000000   0.0000000
 NMagM=    0.0000000   0.0000000   0.0000000   0.4037610   0.0000000   0.0000000   0.0000000   0.0000000   0.0000000   0.0000000
 AtZNuc=   6.0000000   8.0000000   6.0000000   7.0000000   6.0000000   6.0000000   6.0000000   6.0000000   6.0000000   6.0000000

  Atom        11          12          13          14          15          16          17          18          19          20
 IAtWgt=          12          12          14          16           1           1           1           1           1           1
 AtmWgt=  12.0000000  12.0000000  14.0030740  15.9949146   1.0078250   1.0078250   1.0078250   1.0078250   1.0078250   1.0078250
 NucSpn=           0           0           2           0           1           1           1           1           1           1
 AtZEff=  -0.0000000  -0.0000000  -0.0000000  -0.0000000  -0.0000000  -0.0000000  -0.0000000  -0.0000000  -0.0000000  -0.0000000
 NQMom=    0.0000000   0.0000000   2.0440000   0.0000000   0.0000000   0.0000000   0.0000000   0.0000000   0.0000000   0.0000000
 NMagM=    0.0000000   0.0000000   0.4037610   0.0000000   2.7928460   2.7928460   2.7928460   2.7928460   2.7928460   2.7928460
 AtZNuc=   6.0000000   6.0000000   7.0000000   8.0000000   1.0000000   1.0000000   1.0000000   1.0000000   1.0000000   1.0000000

  Atom        21          22          23          24          25
 IAtWgt=           1           1           1           1           1
 AtmWgt=   1.0078250   1.0078250   1.0078250   1.0078250   1.0078250
 NucSpn=           1           1           1           1           1
 AtZEff=  -0.0000000  -0.0000000  -0.0000000  -0.0000000  -0.0000000
 NQMom=    0.0000000   0.0000000   0.0000000   0.0000000   0.0000000
 NMagM=    2.7928460   2.7928460   2.7928460   2.7928460   2.7928460
 AtZNuc=   1.0000000   1.0000000   1.0000000   1.0000000   1.0000000
 Leave Link  101 at Mon Oct 14 02:21:57 2019, MaxMem= 10737418240 cpu:              15.9 elap:               0.7
 (Enter /apps/cent7/gaussian/g16-A.03/g16-haswell/g16/l103.exe)

 GradGradGradGradGradGradGradGradGradGradGradGradGradGradGradGradGradGrad
 Berny optimization.
 Initialization pass.
                           ----------------------------
                           !    Initial Parameters    !
                           ! (Angstroms and Degrees)  !
 --------------------------                            --------------------------
 ! Name  Definition              Value          Derivative Info.                !
 --------------------------------------------------------------------------------
 ! R1    R(1,2)                  1.44           estimate D2E/DX2                !
 ! R2    R(1,15)                 1.09           estimate D2E/DX2                !
 ! R3    R(1,16)                 1.09           estimate D2E/DX2                !
 ! R4    R(1,17)                 1.09           estimate D2E/DX2                !
 ! R5    R(2,3)                  1.3415         estimate D2E/DX2                !
 ! R6    R(3,4)                  1.2829         estimate D2E/DX2                !
 ! R7    R(3,11)                 1.3603         estimate D2E/DX2                !
 ! R8    R(4,5)                  1.3048         estimate D2E/DX2                !
 ! R9    R(5,6)                  1.4062         estimate D2E/DX2                !
 ! R10   R(5,10)                 1.3939         estimate D2E/DX2                !
 ! R11   R(6,7)                  1.4101         estimate D2E/DX2                !
 ! R12   R(6,18)                 1.09           estimate D2E/DX2                !
 ! R13   R(7,8)                  1.4117         estimate D2E/DX2                !
 ! R14   R(7,19)                 1.09           estimate D2E/DX2                !
 ! R15   R(8,9)                  1.4109         estimate D2E/DX2                !
 ! R16   R(8,20)                 1.09           estimate D2E/DX2                !
 ! R17   R(9,10)                 1.4142         estimate D2E/DX2                !
 ! R18   R(9,21)                 1.0901         estimate D2E/DX2                !
 ! R19   R(10,11)                1.3789         estimate D2E/DX2                !
 ! R20   R(11,12)                1.3469         estimate D2E/DX2                !
 ! R21   R(12,13)                1.3221         estimate D2E/DX2                !
 ! R22   R(12,22)                1.0899         estimate D2E/DX2                !
 ! R23   R(13,14)                1.3043         estimate D2E/DX2                !
 ! R24   R(13,23)                1.0            estimate D2E/DX2                !
 ! R25   R(13,25)                1.0            estimate D2E/DX2                !
 ! R26   R(14,24)                0.9599         estimate D2E/DX2                !
 ! A1    A(2,1,15)             109.475          estimate D2E/DX2                !
 ! A2    A(2,1,16)             109.4719         estimate D2E/DX2                !
 ! A3    A(2,1,17)             109.47           estimate D2E/DX2                !
 ! A4    A(15,1,16)            109.4684         estimate D2E/DX2                !
 ! A5    A(15,1,17)            109.469          estimate D2E/DX2                !
 ! A6    A(16,1,17)            109.4731         estimate D2E/DX2                !
 ! A7    A(1,2,3)              113.4037         estimate D2E/DX2                !
 ! A8    A(2,3,4)              121.8365         estimate D2E/DX2                !
 ! A9    A(2,3,11)             125.951          estimate D2E/DX2                !
 ! A10   A(4,3,11)             112.1779         estimate D2E/DX2                !
 ! A11   A(3,4,5)              108.2563         estimate D2E/DX2                !
 ! A12   A(4,5,6)              128.7811         estimate D2E/DX2                !
 ! A13   A(4,5,10)             109.2899         estimate D2E/DX2                !
 ! A14   A(6,5,10)             121.9161         estimate D2E/DX2                !
 ! A15   A(5,6,7)              118.4062         estimate D2E/DX2                !
 ! A16   A(5,6,18)             120.6687         estimate D2E/DX2                !
 ! A17   A(7,6,18)             120.9251         estimate D2E/DX2                !
 ! A18   A(6,7,8)              120.2836         estimate D2E/DX2                !
 ! A19   A(6,7,19)             119.805          estimate D2E/DX2                !
 ! A20   A(8,7,19)             119.9114         estimate D2E/DX2                !
 ! A21   A(7,8,9)              120.5765         estimate D2E/DX2                !
 ! A22   A(7,8,20)             119.7329         estimate D2E/DX2                !
 ! A23   A(9,8,20)             119.6905         estimate D2E/DX2                !
 ! A24   A(8,9,10)             118.9958         estimate D2E/DX2                !
 ! A25   A(8,9,21)             120.3872         estimate D2E/DX2                !
 ! A26   A(10,9,21)            120.617          estimate D2E/DX2                !
 ! A27   A(5,10,9)             119.7903         estimate D2E/DX2                !
 ! A28   A(5,10,11)            105.4009         estimate D2E/DX2                !
 ! A29   A(9,10,11)            134.8028         estimate D2E/DX2                !
 ! A30   A(3,11,10)            104.7369         estimate D2E/DX2                !
 ! A31   A(3,11,12)            124.677          estimate D2E/DX2                !
 ! A32   A(10,11,12)           130.56           estimate D2E/DX2                !
 ! A33   A(11,12,13)           124.0703         estimate D2E/DX2                !
 ! A34   A(11,12,22)           118.9638         estimate D2E/DX2                !
 ! A35   A(13,12,22)           116.9659         estimate D2E/DX2                !
 ! A36   A(12,13,14)           121.5245         estimate D2E/DX2                !
 ! A37   A(12,13,23)           106.8284         estimate D2E/DX2                !
 ! A38   A(12,13,25)           106.8284         estimate D2E/DX2                !
 ! A39   A(14,13,23)           106.8284         estimate D2E/DX2                !
 ! A40   A(14,13,25)           106.8284         estimate D2E/DX2                !
 ! A41   A(23,13,25)           107.2989         estimate D2E/DX2                !
 ! A42   A(13,14,24)           109.4767         estimate D2E/DX2                !
 ! D1    D(15,1,2,3)            31.6032         estimate D2E/DX2                !
 ! D2    D(16,1,2,3)           151.6025         estimate D2E/DX2                !
 ! D3    D(17,1,2,3)           -88.3956         estimate D2E/DX2                !
 ! D4    D(1,2,3,4)             87.2338         estimate D2E/DX2                !
 ! D5    D(1,2,3,11)           -95.0782         estimate D2E/DX2                !
 ! D6    D(2,3,4,5)           -179.943          estimate D2E/DX2                !
 ! D7    D(11,3,4,5)             2.078          estimate D2E/DX2                !
 ! D8    D(2,3,11,10)          178.5056         estimate D2E/DX2                !
 ! D9    D(2,3,11,12)           -3.186          estimate D2E/DX2                !
 ! D10   D(4,3,11,10)           -3.6154         estimate D2E/DX2                !
 ! D11   D(4,3,11,12)          174.693          estimate D2E/DX2                !
 ! D12   D(3,4,5,6)            179.0599         estimate D2E/DX2                !
 ! D13   D(3,4,5,10)             0.3644         estimate D2E/DX2                !
 ! D14   D(4,5,6,7)           -177.497          estimate D2E/DX2                !
 ! D15   D(4,5,6,18)             2.5079         estimate D2E/DX2                !
 ! D16   D(10,5,6,7)             1.0525         estimate D2E/DX2                !
 ! D17   D(10,5,6,18)         -178.9427         estimate D2E/DX2                !
 ! D18   D(4,5,10,9)           176.6861         estimate D2E/DX2                !
 ! D19   D(4,5,10,11)           -2.545          estimate D2E/DX2                !
 ! D20   D(6,5,10,9)            -2.1159         estimate D2E/DX2                !
 ! D21   D(6,5,10,11)          178.653          estimate D2E/DX2                !
 ! D22   D(5,6,7,8)              0.4029         estimate D2E/DX2                !
 ! D23   D(5,6,7,19)          -179.5984         estimate D2E/DX2                !
 ! D24   D(18,6,7,8)          -179.602          estimate D2E/DX2                !
 ! D25   D(18,6,7,19)            0.3967         estimate D2E/DX2                !
 ! D26   D(6,7,8,9)             -0.7796         estimate D2E/DX2                !
 ! D27   D(6,7,8,20)           179.2141         estimate D2E/DX2                !
 ! D28   D(19,7,8,9)           179.2217         estimate D2E/DX2                !
 ! D29   D(19,7,8,20)           -0.7846         estimate D2E/DX2                !
 ! D30   D(7,8,9,10)            -0.2699         estimate D2E/DX2                !
 ! D31   D(7,8,9,21)           179.7384         estimate D2E/DX2                !
 ! D32   D(20,8,9,10)          179.7365         estimate D2E/DX2                !
 ! D33   D(20,8,9,21)           -0.2553         estimate D2E/DX2                !
 ! D34   D(8,9,10,5)             1.6891         estimate D2E/DX2                !
 ! D35   D(8,9,10,11)         -179.3556         estimate D2E/DX2                !
 ! D36   D(21,9,10,5)         -178.3191         estimate D2E/DX2                !
 ! D37   D(21,9,10,11)           0.6361         estimate D2E/DX2                !
 ! D38   D(5,10,11,3)            3.5589         estimate D2E/DX2                !
 ! D39   D(5,10,11,12)        -174.61           estimate D2E/DX2                !
 ! D40   D(9,10,11,3)         -175.5006         estimate D2E/DX2                !
 ! D41   D(9,10,11,12)           6.3305         estimate D2E/DX2                !
 ! D42   D(3,11,12,13)        -175.7739         estimate D2E/DX2                !
 ! D43   D(3,11,12,22)           4.2293         estimate D2E/DX2                !
 ! D44   D(10,11,12,13)          2.0725         estimate D2E/DX2                !
 ! D45   D(10,11,12,22)       -177.9242         estimate D2E/DX2                !
 ! D46   D(11,12,13,14)       -179.5661         estimate D2E/DX2                !
 ! D47   D(11,12,13,23)        -56.8585         estimate D2E/DX2                !
 ! D48   D(11,12,13,25)         57.7264         estimate D2E/DX2                !
 ! D49   D(22,12,13,14)          0.4308         estimate D2E/DX2                !
 ! D50   D(22,12,13,23)        123.1383         estimate D2E/DX2                !
 ! D51   D(22,12,13,25)       -122.2768         estimate D2E/DX2                !
 ! D52   D(12,13,14,24)        157.096          estimate D2E/DX2                !
 ! D53   D(23,13,14,24)         34.3885         estimate D2E/DX2                !
 ! D54   D(25,13,14,24)        -80.1964         estimate D2E/DX2                !
 --------------------------------------------------------------------------------
 Trust Radius=3.00D-01 FncErr=1.00D-07 GrdErr=1.00D-06 EigMax=2.50D+02 EigMin=1.00D-04
 Number of steps in this run=    132 maximum allowed number of steps=    150.
 GradGradGradGradGradGradGradGradGradGradGradGradGradGradGradGradGradGrad

 Leave Link  103 at Mon Oct 14 02:21:57 2019, MaxMem= 10737418240 cpu:               0.7 elap:               0.1
 (Enter /apps/cent7/gaussian/g16-A.03/g16-haswell/g16/l202.exe)
                          Input orientation:                          
 ---------------------------------------------------------------------
 Center     Atomic      Atomic             Coordinates (Angstroms)
 Number     Number       Type             X           Y           Z
 ---------------------------------------------------------------------
      1          6           0        1.499200   -0.016500   -0.022500
      2          8           0        0.061200   -0.028600    0.053200
      3          6           0       -0.421200    0.612500    1.128300
      4          7           0       -0.653300    1.874200    1.116200
      5          6           0       -1.111400    2.216800    2.288900
      6          6           0       -1.485700    3.491300    2.750300
      7          6           0       -1.906700    3.622900    4.089600
      8          6           0       -1.939100    2.496300    4.939600
      9          6           0       -1.567500    1.223200    4.458300
     10          6           0       -1.167000    1.090700    3.108500
     11          6           0       -0.761200    0.039200    2.314100
     12          6           0       -0.719300   -1.283300    2.565800
     13          7           0       -1.128000   -1.835600    3.695400
     14          8           0       -1.056900   -3.123400    3.889700
     15          1           0        1.916100   -0.013000    0.984600
     16          1           0        1.842500   -0.903600   -0.554700
     17          1           0        1.827500    0.876300   -0.554700
     18          1           0       -1.450500    4.355300    2.086700
     19          1           0       -2.208200    4.599100    4.469300
     20          1           0       -2.253800    2.610600    5.976900
     21          1           0       -1.589600    0.356100    5.118500
     22          1           0       -0.326900   -1.953900    1.801400
     23          1           0       -0.610402   -1.402472    4.433297
     24          1           0       -1.046800   -3.304800    4.832300
     25          1           0       -2.086870   -1.577498    3.813521
 ---------------------------------------------------------------------
                    Distance matrix (angstroms):
                    1          2          3          4          5
     1  C    0.000000
     2  O    1.440042   0.000000
     3  C    2.325493   1.341476   0.000000
     4  N    3.082960   2.293715   1.282928   0.000000
     5  C    4.140704   3.378634   2.096938   1.304782   0.000000
     6  C    5.376124   4.696482   3.471532   2.445033   1.406179
     7  C    6.461792   5.787798   4.476440   3.670160   2.419120
     8  C    6.538999   5.852625   4.514281   4.081504   2.790953
     9  C    5.569477   4.860512   3.574333   3.525506   2.429314
    10  C    4.258835   3.477954   2.169351   2.201595   1.393893
    11  C    3.251494   2.406784   1.360292   2.194045   2.205724
    12  C    3.636732   2.914895   2.397776   3.474982   3.532862
    13  N    4.902457   4.236162   3.617010   4.543152   4.289576
    14  O    5.611754   5.054371   4.688965   5.729852   5.575237
    15  H    1.089985   2.075669   2.423813   3.190714   3.979819
    16  H    1.089972   2.075620   3.202403   4.091100   5.152522
    17  H    1.090004   2.075621   2.821122   3.153106   4.303503
    18  H    5.679973   5.063491   3.998317   2.780873   2.174639
    19  H    7.431342   6.787321   5.499875   4.591957   3.410640
    20  H    7.548474   6.885842   5.555155   5.170134   3.880915
    21  H    6.009110   5.341385   4.165645   4.381745   3.420163
    22  H    3.227192   2.629373   2.654876   3.902613   4.271748
    23  H    5.121081   4.639378   3.875425   4.662784   4.236575
    24  H    6.392505   5.899233   5.427359   6.386414   6.079566
    25  H    5.478291   4.599272   3.844601   4.609217   4.203892
                    6          7          8          9         10
     6  C    0.000000
     7  C    1.410065   0.000000
     8  C    2.447168   1.411658   0.000000
     9  C    2.840463   2.451440   1.410858   0.000000
    10  C    2.448011   2.814560   2.434086   1.414184   0.000000
    11  C    3.554176   4.160225   3.783918   2.578676   1.378912
    12  C    4.839237   5.272825   4.626901   3.253236   2.476052
    13  N    5.421903   5.527838   4.579440   3.182991   2.984829
    14  O    6.725798   6.802550   5.784600   4.413270   4.287311
    15  H    5.193270   6.121650   6.066397   5.072499   3.903154
    16  H    6.427681   7.491010   7.486465   6.425072   5.143283
    17  H    5.360834   6.561828   6.855582   6.064366   4.736247
    18  H    1.090000   2.180857   3.440007   3.930423   3.432501
    19  H    2.168914   1.089973   2.171489   3.436178   3.904452
    20  H    3.431699   2.169592   1.089996   2.168417   3.423295
    21  H    3.930476   3.439647   2.175916   1.090053   2.181359
    22  H    5.647427   6.231559   5.679064   4.323444   3.418167
    23  H    5.248583   5.201238   4.149964   2.794783   2.877637
    24  H    7.121400   7.020261   5.870304   4.573160   4.722960
    25  H    5.213882   5.210837   4.229152   2.920513   2.909037
                   11         12         13         14         15
    11  C    0.000000
    12  C    1.346891   0.000000
    13  N    2.357415   1.322145   0.000000
    14  O    3.545701   2.291867   1.304315   0.000000
    15  H    2.989687   3.325536   4.465070   5.191620   0.000000
    16  H    3.987247   4.055183   5.268382   5.752106   1.779896
    17  H    3.953747   4.570293   5.844034   6.638528   1.779929
    18  H    4.376707   5.705962   6.404621   7.703031   5.624115
    19  H    5.247036   6.359463   6.570473   7.829332   7.101018
    20  H    4.717633   5.399329   5.122632   6.218338   7.013872
    21  H    2.941315   3.156158   2.653646   3.728356   5.432798
    22  H    2.103313   1.089949   2.059852   2.502324   3.076573
    23  H    2.567519   1.874462   1.000000   1.859154   4.495260
    24  H    4.195859   3.054626   1.859485   0.959949   5.866815
    25  H    2.572815   1.874462   1.000000   1.859154   5.145310
                   16         17         18         19         20
    16  H    0.000000
    17  H    1.779963   0.000000
    18  H    6.743654   5.461293   0.000000
    19  H    8.481064   7.442223   2.512037   0.000000
    20  H    8.472961   7.894720   4.338540   2.495810   0.000000
    21  H    6.749174   6.643221   5.020434   4.336724   2.502156
    22  H    3.370554   4.266460   6.414817   7.321119   6.479383
    23  H    5.580835   6.001357   6.274091   6.210726   4.603065
    24  H    6.567616   7.400200   8.147296   7.997015   6.144828
    25  H    5.914004   6.358048   6.211680   6.212498   4.716804
                   21         22         23         24         25
    21  H    0.000000
    22  H    4.234816   0.000000
    23  H    2.126242   2.703947   0.000000
    24  H    3.711971   3.395518   1.992109   0.000000
    25  H    2.385173   2.699593   1.610811   2.259032   0.000000
 Stoichiometry    C10H11N2O2(1+)
 Framework group  C1[X(C10H11N2O2)]
 Deg. of freedom    69
 Full point group                 C1      NOp   1
 Largest Abelian subgroup         C1      NOp   1
 Largest concise Abelian subgroup C1      NOp   1
                         Standard orientation:                         
 ---------------------------------------------------------------------
 Center     Atomic      Atomic             Coordinates (Angstroms)
 Number     Number       Type             X           Y           Z
 ---------------------------------------------------------------------
      1          6           0       -2.115438   -2.757938    0.795387
      2          8           0       -1.673539   -2.169535   -0.442445
      3          6           0       -0.597115   -1.381175   -0.303310
      4          7           0        0.596107   -1.849464   -0.356496
      5          6           0        1.431030   -0.860868   -0.189051
      6          6           0        2.836400   -0.891519   -0.152498
      7          6           0        3.527353    0.312144    0.096631
      8          6           0        2.813926    1.511196    0.311277
      9          6           0        1.403952    1.525763    0.263528
     10          6           0        0.714774    0.321223   -0.008566
     11          6           0       -0.611963   -0.030824   -0.139825
     12          6           0       -1.722855    0.730642   -0.154089
     13          7           0       -1.717310    2.050351   -0.074056
     14          8           0       -2.825056    2.738853   -0.084110
     15          1           0       -1.899231   -2.077336    1.618857
     16          1           0       -3.188848   -2.941141    0.747791
     17          1           0       -1.592696   -3.700749    0.956502
     18          1           0        3.376533   -1.824531   -0.313260
     19          1           0        4.616990    0.315774    0.123418
     20          1           0        3.356763    2.434009    0.515817
     21          1           0        0.856016    2.452553    0.433943
     22          1           0       -2.694947    0.244542   -0.236142
     23          1           0       -1.236909    2.287161    0.770417
     24          1           0       -2.674874    3.592847    0.327766
     25          1           0       -1.161989    2.384249   -0.835719
 ---------------------------------------------------------------------
 Rotational constants (GHZ):           0.8594804           0.6205097           0.3726372
 Leave Link  202 at Mon Oct 14 02:21:57 2019, MaxMem= 10737418240 cpu:               0.6 elap:               0.0
 (Enter /apps/cent7/gaussian/g16-A.03/g16-haswell/g16/l301.exe)
 Standard basis: 6-31G(d) (6D, 7F)
 Ernie: Thresh=  0.10000D-02 Tol=  0.10000D-05 Strict=F.
 There are   232 symmetry adapted cartesian basis functions of A   symmetry.
 There are   232 symmetry adapted basis functions of A   symmetry.
   232 basis functions,   436 primitive gaussians,   232 cartesian basis functions
    50 alpha electrons       50 beta electrons
       nuclear repulsion energy       879.6788930694 Hartrees.
 IExCor=  402 DFT=T Ex+Corr=B3LYP ExCW=0 ScaHFX=  0.200000
 ScaDFX=  0.800000  0.720000  1.000000  0.810000 ScalE2=  1.000000  1.000000
 IRadAn=      5 IRanWt=     -1 IRanGd=            0 ICorTp=0 IEmpDi=  4
 NAtoms=   25 NActive=   25 NUniq=   25 SFac= 1.00D+00 NAtFMM=   60 NAOKFM=F Big=F
 Integral buffers will be    131072 words long.
 Raffenetti 2 integral format.
 Two-electron integral symmetry is turned on.
 Leave Link  301 at Mon Oct 14 02:21:57 2019, MaxMem= 10737418240 cpu:               1.3 elap:               0.1
 (Enter /apps/cent7/gaussian/g16-A.03/g16-haswell/g16/l302.exe)
 NPDir=0 NMtPBC=     1 NCelOv=     1 NCel=       1 NClECP=     1 NCelD=      1
         NCelK=      1 NCelE2=     1 NClLst=     1 CellRange=     0.0.
 One-electron integrals computed using PRISM.
 One-electron integral symmetry used in STVInt
 NBasis=   232 RedAO= T EigKep=  3.15D-04  NBF=   232
 NBsUse=   232 1.00D-06 EigRej= -1.00D+00 NBFU=   232
 Precomputing XC quadrature grid using
 IXCGrd= 4 IRadAn=           5 IRanWt=          -1 IRanGd=           0 AccXCQ= 0.00D+00.
 Generated NRdTot=       0 NPtTot=           0 NUsed=           0 NTot=          32
 NSgBfM=   231   231   231   231   231 MxSgAt=    25 MxSgA2=    25.
 Leave Link  302 at Mon Oct 14 02:21:57 2019, MaxMem= 10737418240 cpu:               4.8 elap:               0.2
 (Enter /apps/cent7/gaussian/g16-A.03/g16-haswell/g16/l303.exe)
 DipDrv:  MaxL=1.
 Leave Link  303 at Mon Oct 14 02:21:58 2019, MaxMem= 10737418240 cpu:               0.7 elap:               0.1
 (Enter /apps/cent7/gaussian/g16-A.03/g16-haswell/g16/l401.exe)
 ExpMin= 1.61D-01 ExpMax= 5.48D+03 ExpMxC= 8.25D+02 IAcc=3 IRadAn=         5 AccDes= 0.00D+00
 Harris functional with IExCor=  402 and IRadAn=       5 diagonalized for initial guess.
 HarFok:  IExCor=  402 AccDes= 0.00D+00 IRadAn=         5 IDoV= 1 UseB2=F ITyADJ=14
 ICtDFT=  3500011 ScaDFX=  1.000000  1.000000  1.000000  1.000000
 FoFCou: FMM=F IPFlag=           0 FMFlag=      100000 FMFlg1=           0
         NFxFlg=           0 DoJE=T BraDBF=F KetDBF=T FulRan=T
         wScrn=  0.000000 ICntrl=       500 IOpCl=  0 I1Cent=   200000004 NGrid=           0
         NMat0=    1 NMatS0=      1 NMatT0=    0 NMatD0=    1 NMtDS0=    0 NMtDT0=    0
 Petite list used in FoFCou.
 Harris En= -647.248460816884    
 JPrj=0 DoOrth=F DoCkMO=F.
 Leave Link  401 at Mon Oct 14 02:21:58 2019, MaxMem= 10737418240 cpu:              10.1 elap:               0.5
 (Enter /apps/cent7/gaussian/g16-A.03/g16-haswell/g16/l502.exe)
 Integral symmetry usage will be decided dynamically.
 Closed shell SCF:
 Using DIIS extrapolation, IDIIS=  1040.
 NGot= 10737418240 LenX= 10737302375 LenY= 10737248110
 Requested convergence on RMS density matrix=1.00D-08 within 128 cycles.
 Requested convergence on MAX density matrix=1.00D-06.
 Requested convergence on             energy=1.00D-06.
 No special actions if energy rises.
 Fock matrices will be formed incrementally for  20 cycles.
 Integral accuracy reduced to 1.0D-05 until final iterations.

 Cycle   1  Pass 0  IDiag  1:
 FoFJK:  IHMeth= 1 ICntrl=       0 DoSepK=F KAlg= 0 I1Cent=           0 FoldK=F
 IRaf= 870000000 NMat=       1 IRICut=       1 DoRegI=T DoRafI=F ISym2E= 0 IDoP0=0 IntGTp=1.
 FoFCou: FMM=F IPFlag=           0 FMFlag=      100000 FMFlg1=           0
         NFxFlg=           0 DoJE=F BraDBF=F KetDBF=F FulRan=T
         wScrn=  0.000000 ICntrl=         0 IOpCl=  0 I1Cent=           0 NGrid=           0
         NMat0=    1 NMatS0=      1 NMatT0=    0 NMatD0=    1 NMtDS0=    0 NMtDT0=    0
 Symmetry not used in FoFCou.
 E= -646.841808215299    
 DIIS: error= 3.18D-02 at cycle   1 NSaved=   1.
 NSaved= 1 IEnMin= 1 EnMin= -646.841808215299     IErMin= 1 ErrMin= 3.18D-02
 ErrMax= 3.18D-02  0.00D+00 EMaxC= 1.00D-01 BMatC= 3.12D-01 BMatP= 3.12D-01
 IDIUse=3 WtCom= 6.82D-01 WtEn= 3.18D-01
 Coeff-Com:  0.100D+01
 Coeff-En:   0.100D+01
 Coeff:      0.100D+01
 Gap=    -0.054 Goal=   None    Shift=    0.000
 GapD=   -0.054 DampG=0.250 DampE=0.500 DampFc=0.2500 IDamp=-1.
 Damping current iteration by 2.50D-01
 RMSDP=2.07D-02 MaxDP=1.32D+00              OVMax= 9.18D-01

 Cycle   2  Pass 0  IDiag  1:
 RMSU=  5.16D-03    CP:  9.89D-01
 E= -646.857876899360     Delta-E=       -0.016068684062 Rises=F Damp=T
 DIIS: error= 1.46D-02 at cycle   2 NSaved=   2.
 NSaved= 2 IEnMin= 2 EnMin= -646.857876899360     IErMin= 2 ErrMin= 1.46D-02
 ErrMax= 1.46D-02  0.00D+00 EMaxC= 1.00D-01 BMatC= 6.82D-02 BMatP= 3.12D-01
 IDIUse=3 WtCom= 8.54D-01 WtEn= 1.46D-01
 Coeff-Com: -0.191D+00 0.119D+01
 Coeff-En:   0.462D+00 0.538D+00
 Coeff:     -0.957D-01 0.110D+01
 Gap=     0.023 Goal=   None    Shift=    0.000
 RMSDP=5.98D-03 MaxDP=3.14D-01 DE=-1.61D-02 OVMax= 9.11D-01

 Cycle   3  Pass 0  IDiag  1:
 RMSU=  3.93D-03    CP:  9.43D-01  1.51D-01
 E= -647.009968982698     Delta-E=       -0.152092083337 Rises=F Damp=F
 DIIS: error= 3.26D-02 at cycle   3 NSaved=   3.
 NSaved= 3 IEnMin= 3 EnMin= -647.009968982698     IErMin= 2 ErrMin= 1.46D-02
 ErrMax= 3.26D-02  0.00D+00 EMaxC= 1.00D-01 BMatC= 1.34D-01 BMatP= 6.82D-02
 IDIUse=2 WtCom= 0.00D+00 WtEn= 1.00D+00
 Coeff-En:   0.000D+00 0.187D+00 0.813D+00
 Coeff:      0.000D+00 0.187D+00 0.813D+00
 Gap=     0.015 Goal=   None    Shift=    0.000
 RMSDP=5.94D-03 MaxDP=2.93D-01 DE=-1.52D-01 OVMax= 5.12D-01

 Cycle   4  Pass 0  IDiag  1:
 RMSU=  5.40D-03    CP:  9.53D-01  5.42D-01  6.38D-01
 E= -646.538111038208     Delta-E=        0.471857944490 Rises=F Damp=F
 DIIS: error= 4.07D-02 at cycle   4 NSaved=   4.
 NSaved= 4 IEnMin= 3 EnMin= -647.009968982698     IErMin= 2 ErrMin= 1.46D-02
 ErrMax= 4.07D-02  0.00D+00 EMaxC= 1.00D-01 BMatC= 5.16D-01 BMatP= 6.82D-02
 IDIUse=2 WtCom= 0.00D+00 WtEn= 1.00D+00
 Coeff-En:   0.000D+00 0.000D+00 0.730D+00 0.270D+00
 Coeff:      0.000D+00 0.000D+00 0.730D+00 0.270D+00
 Gap=     0.044 Goal=   None    Shift=    0.000
 RMSDP=3.67D-03 MaxDP=1.63D-01 DE= 4.72D-01 OVMax= 4.65D-01

 Cycle   5  Pass 0  IDiag  1:
 RMSU=  1.53D-03    CP:  9.53D-01  2.98D-01  7.33D-01  4.33D-01
 E= -647.147011529207     Delta-E=       -0.608900490999 Rises=F Damp=F
 DIIS: error= 9.05D-03 at cycle   5 NSaved=   5.
 NSaved= 5 IEnMin= 5 EnMin= -647.147011529207     IErMin= 5 ErrMin= 9.05D-03
 ErrMax= 9.05D-03  0.00D+00 EMaxC= 1.00D-01 BMatC= 4.07D-02 BMatP= 6.82D-02
 IDIUse=3 WtCom= 9.09D-01 WtEn= 9.05D-02
 Coeff-Com: -0.113D+00 0.316D+00 0.386D+00 0.463D-01 0.366D+00
 Coeff-En:   0.000D+00 0.000D+00 0.186D+00 0.000D+00 0.814D+00
 Coeff:     -0.103D+00 0.287D+00 0.368D+00 0.421D-01 0.406D+00
 Gap=     0.098 Goal=   None    Shift=    0.000
 RMSDP=1.45D-03 MaxDP=5.34D-02 DE=-6.09D-01 OVMax= 9.60D-02

 Cycle   6  Pass 0  IDiag  1:
 RMSU=  8.32D-04    CP:  9.49D-01  2.33D-01  8.29D-01  2.88D-01  5.17D-01
 E= -647.177483660701     Delta-E=       -0.030472131494 Rises=F Damp=F
 DIIS: error= 6.25D-03 at cycle   6 NSaved=   6.
 NSaved= 6 IEnMin= 6 EnMin= -647.177483660701     IErMin= 6 ErrMin= 6.25D-03
 ErrMax= 6.25D-03  0.00D+00 EMaxC= 1.00D-01 BMatC= 8.31D-03 BMatP= 4.07D-02
 IDIUse=3 WtCom= 9.38D-01 WtEn= 6.25D-02
 Coeff-Com: -0.897D-01 0.133D+00 0.108D+00-0.325D-01 0.328D+00 0.553D+00
 Coeff-En:   0.000D+00 0.000D+00 0.000D+00 0.000D+00 0.206D+00 0.794D+00
 Coeff:     -0.841D-01 0.125D+00 0.101D+00-0.305D-01 0.321D+00 0.568D+00
 Gap=     0.099 Goal=   None    Shift=    0.000
 RMSDP=5.08D-04 MaxDP=1.73D-02 DE=-3.05D-02 OVMax= 4.40D-02

 Cycle   7  Pass 0  IDiag  1:
 RMSU=  2.15D-04    CP:  9.50D-01  2.48D-01  8.16D-01  3.05D-01  6.91D-01
                    CP:  5.77D-01
 E= -647.186444849359     Delta-E=       -0.008961188658 Rises=F Damp=F
 DIIS: error= 1.02D-03 at cycle   7 NSaved=   7.
 NSaved= 7 IEnMin= 7 EnMin= -647.186444849359     IErMin= 7 ErrMin= 1.02D-03
 ErrMax= 1.02D-03  0.00D+00 EMaxC= 1.00D-01 BMatC= 5.36D-04 BMatP= 8.31D-03
 IDIUse=3 WtCom= 9.90D-01 WtEn= 1.02D-02
 Coeff-Com: -0.569D-01 0.774D-01 0.381D-01-0.267D-01 0.185D+00 0.361D+00
 Coeff-Com:  0.422D+00
 Coeff-En:   0.000D+00 0.000D+00 0.000D+00 0.000D+00 0.000D+00 0.000D+00
 Coeff-En:   0.100D+01
 Coeff:     -0.564D-01 0.766D-01 0.377D-01-0.264D-01 0.183D+00 0.357D+00
 Coeff:      0.428D+00
 Gap=     0.100 Goal=   None    Shift=    0.000
 RMSDP=1.16D-04 MaxDP=3.36D-03 DE=-8.96D-03 OVMax= 8.94D-03

 Cycle   8  Pass 0  IDiag  1:
 RMSU=  8.39D-05    CP:  9.50D-01  2.49D-01  8.17D-01  3.09D-01  7.00D-01
                    CP:  6.42D-01  7.51D-01
 E= -647.186955624850     Delta-E=       -0.000510775491 Rises=F Damp=F
 DIIS: error= 5.75D-04 at cycle   8 NSaved=   8.
 NSaved= 8 IEnMin= 8 EnMin= -647.186955624850     IErMin= 8 ErrMin= 5.75D-04
 ErrMax= 5.75D-04  0.00D+00 EMaxC= 1.00D-01 BMatC= 4.46D-05 BMatP= 5.36D-04
 IDIUse=3 WtCom= 9.94D-01 WtEn= 5.75D-03
 Coeff-Com: -0.949D-02 0.114D-01-0.573D-02-0.288D-02 0.375D-02-0.269D-01
 Coeff-Com: -0.950D-02 0.104D+01
 Coeff-En:   0.000D+00 0.000D+00 0.000D+00 0.000D+00 0.000D+00 0.000D+00
 Coeff-En:   0.000D+00 0.100D+01
 Coeff:     -0.943D-02 0.113D-01-0.569D-02-0.286D-02 0.372D-02-0.268D-01
 Coeff:     -0.945D-02 0.104D+01
 Gap=     0.101 Goal=   None    Shift=    0.000
 RMSDP=5.92D-05 MaxDP=1.86D-03 DE=-5.11D-04 OVMax= 4.42D-03

 Cycle   9  Pass 0  IDiag  1:
 RMSU=  3.35D-05    CP:  9.50D-01  2.52D-01  8.16D-01  3.14D-01  7.17D-01
                    CP:  6.30D-01  8.38D-01  1.22D+00
 E= -647.187017005817     Delta-E=       -0.000061380967 Rises=F Damp=F
 DIIS: error= 1.50D-04 at cycle   9 NSaved=   9.
 NSaved= 9 IEnMin= 9 EnMin= -647.187017005817     IErMin= 9 ErrMin= 1.50D-04
 ErrMax= 1.50D-04  0.00D+00 EMaxC= 1.00D-01 BMatC= 1.30D-05 BMatP= 4.46D-05
 IDIUse=3 WtCom= 9.99D-01 WtEn= 1.50D-03
 Coeff-Com: -0.228D-02 0.276D-02-0.432D-02 0.240D-03-0.876D-02-0.428D-01
 Coeff-Com: -0.667D-01 0.607D+00 0.515D+00
 Coeff-En:   0.000D+00 0.000D+00 0.000D+00 0.000D+00 0.000D+00 0.000D+00
 Coeff-En:   0.000D+00 0.000D+00 0.100D+01
 Coeff:     -0.227D-02 0.276D-02-0.432D-02 0.240D-03-0.875D-02-0.427D-01
 Coeff:     -0.666D-01 0.606D+00 0.516D+00
 Gap=     0.100 Goal=   None    Shift=    0.000
 RMSDP=2.11D-05 MaxDP=6.29D-04 DE=-6.14D-05 OVMax= 1.48D-03

 Cycle  10  Pass 0  IDiag  1:
 RMSU=  1.41D-05    CP:  9.50D-01  2.52D-01  8.17D-01  3.14D-01  7.19D-01
                    CP:  6.33D-01  8.36D-01  1.31D+00  6.20D-01
 E= -647.187029368374     Delta-E=       -0.000012362558 Rises=F Damp=F
 DIIS: error= 5.50D-05 at cycle  10 NSaved=  10.
 NSaved=10 IEnMin=10 EnMin= -647.187029368374     IErMin=10 ErrMin= 5.50D-05
 ErrMax= 5.50D-05  0.00D+00 EMaxC= 1.00D-01 BMatC= 1.38D-06 BMatP= 1.30D-05
 IDIUse=1 WtCom= 1.00D+00 WtEn= 0.00D+00
 Coeff-Com: -0.261D-03 0.374D-03-0.121D-02 0.339D-03-0.354D-02-0.181D-01
 Coeff-Com: -0.417D-01 0.192D+00 0.289D+00 0.584D+00
 Coeff:     -0.261D-03 0.374D-03-0.121D-02 0.339D-03-0.354D-02-0.181D-01
 Coeff:     -0.417D-01 0.192D+00 0.289D+00 0.584D+00
 Gap=     0.100 Goal=   None    Shift=    0.000
 RMSDP=7.03D-06 MaxDP=2.86D-04 DE=-1.24D-05 OVMax= 5.26D-04

 Initial convergence to 1.0D-05 achieved.  Increase integral accuracy.
 Cycle  11  Pass 1  IDiag  1:
 E= -647.187023132664     Delta-E=        0.000006235710 Rises=F Damp=F
 DIIS: error= 2.18D-05 at cycle   1 NSaved=   1.
 NSaved= 1 IEnMin= 1 EnMin= -647.187023132664     IErMin= 1 ErrMin= 2.18D-05
 ErrMax= 2.18D-05  0.00D+00 EMaxC= 1.00D-01 BMatC= 2.93D-07 BMatP= 2.93D-07
 IDIUse=1 WtCom= 1.00D+00 WtEn= 0.00D+00
 Coeff-Com:  0.100D+01
 Coeff:      0.100D+01
 Gap=     0.100 Goal=   None    Shift=    0.000
 RMSDP=7.03D-06 MaxDP=2.86D-04 DE= 6.24D-06 OVMax= 3.93D-04

 Cycle  12  Pass 1  IDiag  1:
 RMSU=  1.71D-05    CP:  1.00D+00
 E= -647.187022686711     Delta-E=        0.000000445953 Rises=F Damp=F
 DIIS: error= 4.81D-05 at cycle   2 NSaved=   2.
 NSaved= 2 IEnMin= 1 EnMin= -647.187023132664     IErMin= 1 ErrMin= 2.18D-05
 ErrMax= 4.81D-05  0.00D+00 EMaxC= 1.00D-01 BMatC= 7.65D-07 BMatP= 2.93D-07
 IDIUse=1 WtCom= 1.00D+00 WtEn= 0.00D+00
 Coeff-Com:  0.629D+00 0.371D+00
 Coeff:      0.629D+00 0.371D+00
 Gap=     0.100 Goal=   None    Shift=    0.000
 RMSDP=4.86D-06 MaxDP=2.25D-04 DE= 4.46D-07 OVMax= 3.53D-04

 Cycle  13  Pass 1  IDiag  1:
 RMSU=  4.62D-06    CP:  1.00D+00  9.12D-01
 E= -647.187023361187     Delta-E=       -0.000000674476 Rises=F Damp=F
 DIIS: error= 9.18D-06 at cycle   3 NSaved=   3.
 NSaved= 3 IEnMin= 3 EnMin= -647.187023361187     IErMin= 3 ErrMin= 9.18D-06
 ErrMax= 9.18D-06  0.00D+00 EMaxC= 1.00D-01 BMatC= 3.50D-08 BMatP= 2.93D-07
 IDIUse=1 WtCom= 1.00D+00 WtEn= 0.00D+00
 Coeff-Com:  0.161D+00 0.196D+00 0.643D+00
 Coeff:      0.161D+00 0.196D+00 0.643D+00
 Gap=     0.100 Goal=   None    Shift=    0.000
 RMSDP=1.43D-06 MaxDP=4.76D-05 DE=-6.74D-07 OVMax= 1.13D-04

 Cycle  14  Pass 1  IDiag  1:
 RMSU=  1.04D-06    CP:  1.00D+00  9.32D-01  8.02D-01
 E= -647.187023381450     Delta-E=       -0.000000020263 Rises=F Damp=F
 DIIS: error= 8.01D-06 at cycle   4 NSaved=   4.
 NSaved= 4 IEnMin= 4 EnMin= -647.187023381450     IErMin= 4 ErrMin= 8.01D-06
 ErrMax= 8.01D-06  0.00D+00 EMaxC= 1.00D-01 BMatC= 1.31D-08 BMatP= 3.50D-08
 IDIUse=1 WtCom= 1.00D+00 WtEn= 0.00D+00
 Coeff-Com:  0.862D-02 0.786D-01 0.451D+00 0.461D+00
 Coeff:      0.862D-02 0.786D-01 0.451D+00 0.461D+00
 Gap=     0.100 Goal=   None    Shift=    0.000
 RMSDP=6.36D-07 MaxDP=3.41D-05 DE=-2.03D-08 OVMax= 8.38D-05

 Cycle  15  Pass 1  IDiag  1:
 RMSU=  2.76D-07    CP:  1.00D+00  9.33D-01  8.41D-01  4.78D-01
 E= -647.187023395512     Delta-E=       -0.000000014062 Rises=F Damp=F
 DIIS: error= 1.92D-06 at cycle   5 NSaved=   5.
 NSaved= 5 IEnMin= 5 EnMin= -647.187023395512     IErMin= 5 ErrMin= 1.92D-06
 ErrMax= 1.92D-06  0.00D+00 EMaxC= 1.00D-01 BMatC= 8.04D-10 BMatP= 1.31D-08
 IDIUse=1 WtCom= 1.00D+00 WtEn= 0.00D+00
 Coeff-Com: -0.442D-02 0.413D-01 0.253D+00 0.298D+00 0.413D+00
 Coeff:     -0.442D-02 0.413D-01 0.253D+00 0.298D+00 0.413D+00
 Gap=     0.100 Goal=   None    Shift=    0.000
 RMSDP=1.52D-07 MaxDP=8.81D-06 DE=-1.41D-08 OVMax= 1.94D-05

 Cycle  16  Pass 1  IDiag  1:
 RMSU=  1.05D-07    CP:  1.00D+00  9.33D-01  8.43D-01  5.34D-01  6.68D-01
 E= -647.187023396384     Delta-E=       -0.000000000872 Rises=F Damp=F
 DIIS: error= 3.18D-07 at cycle   6 NSaved=   6.
 NSaved= 6 IEnMin= 6 EnMin= -647.187023396384     IErMin= 6 ErrMin= 3.18D-07
 ErrMax= 3.18D-07  0.00D+00 EMaxC= 1.00D-01 BMatC= 3.20D-11 BMatP= 8.04D-10
 IDIUse=1 WtCom= 1.00D+00 WtEn= 0.00D+00
 Coeff-Com: -0.242D-02 0.146D-01 0.775D-01 0.102D+00 0.181D+00 0.627D+00
 Coeff:     -0.242D-02 0.146D-01 0.775D-01 0.102D+00 0.181D+00 0.627D+00
 Gap=     0.100 Goal=   None    Shift=    0.000
 RMSDP=4.76D-08 MaxDP=1.66D-06 DE=-8.72D-10 OVMax= 6.50D-06

 Cycle  17  Pass 1  IDiag  1:
 RMSU=  4.04D-08    CP:  1.00D+00  9.34D-01  8.42D-01  5.34D-01  7.57D-01
                    CP:  9.87D-01
 E= -647.187023396415     Delta-E=       -0.000000000031 Rises=F Damp=F
 DIIS: error= 1.43D-07 at cycle   7 NSaved=   7.
 NSaved= 7 IEnMin= 7 EnMin= -647.187023396415     IErMin= 7 ErrMin= 1.43D-07
 ErrMax= 1.43D-07  0.00D+00 EMaxC= 1.00D-01 BMatC= 1.25D-11 BMatP= 3.20D-11
 IDIUse=1 WtCom= 1.00D+00 WtEn= 0.00D+00
 Coeff-Com: -0.449D-03-0.462D-03-0.174D-01-0.105D-01-0.111D-02 0.397D+00
 Coeff-Com:  0.632D+00
 Coeff:     -0.449D-03-0.462D-03-0.174D-01-0.105D-01-0.111D-02 0.397D+00
 Coeff:      0.632D+00
 Gap=     0.100 Goal=   None    Shift=    0.000
 RMSDP=2.59D-08 MaxDP=5.99D-07 DE=-3.09D-11 OVMax= 3.19D-06

 Cycle  18  Pass 1  IDiag  1:
 RMSU=  1.63D-08    CP:  1.00D+00  9.34D-01  8.41D-01  5.41D-01  7.83D-01
                    CP:  1.15D+00  9.22D-01
 E= -647.187023396435     Delta-E=       -0.000000000020 Rises=F Damp=F
 DIIS: error= 1.20D-07 at cycle   8 NSaved=   8.
 NSaved= 8 IEnMin= 8 EnMin= -647.187023396435     IErMin= 8 ErrMin= 1.20D-07
 ErrMax= 1.20D-07  0.00D+00 EMaxC= 1.00D-01 BMatC= 2.17D-12 BMatP= 1.25D-11
 IDIUse=1 WtCom= 1.00D+00 WtEn= 0.00D+00
 Coeff-Com:  0.227D-03-0.291D-02-0.272D-01-0.270D-01-0.398D-01 0.142D+00
 Coeff-Com:  0.395D+00 0.560D+00
 Coeff:      0.227D-03-0.291D-02-0.272D-01-0.270D-01-0.398D-01 0.142D+00
 Coeff:      0.395D+00 0.560D+00
 Gap=     0.100 Goal=   None    Shift=    0.000
 RMSDP=1.27D-08 MaxDP=3.47D-07 DE=-1.98D-11 OVMax= 1.77D-06

 Cycle  19  Pass 1  IDiag  1:
 RMSU=  6.59D-09    CP:  1.00D+00  9.34D-01  8.41D-01  5.44D-01  8.04D-01
                    CP:  1.19D+00  1.02D+00  7.06D-01
 E= -647.187023396431     Delta-E=        0.000000000003 Rises=F Damp=F
 DIIS: error= 3.42D-08 at cycle   9 NSaved=   9.
 NSaved= 9 IEnMin= 8 EnMin= -647.187023396435     IErMin= 9 ErrMin= 3.42D-08
 ErrMax= 3.42D-08  0.00D+00 EMaxC= 1.00D-01 BMatC= 3.31D-13 BMatP= 2.17D-12
 IDIUse=1 WtCom= 1.00D+00 WtEn= 0.00D+00
 Coeff-Com:  0.210D-03-0.189D-02-0.158D-01-0.167D-01-0.259D-01 0.330D-01
 Coeff-Com:  0.150D+00 0.356D+00 0.522D+00
 Coeff:      0.210D-03-0.189D-02-0.158D-01-0.167D-01-0.259D-01 0.330D-01
 Coeff:      0.150D+00 0.356D+00 0.522D+00
 Gap=     0.100 Goal=   None    Shift=    0.000
 RMSDP=3.76D-09 MaxDP=7.74D-08 DE= 3.41D-12 OVMax= 4.47D-07

 SCF Done:  E(RB3LYP) =  -647.187023396     A.U. after   19 cycles
            NFock= 19  Conv=0.38D-08     -V/T= 2.0070
 KE= 6.427117480732D+02 PE=-3.250496295996D+03 EE= 1.080918631457D+03
 Leave Link  502 at Mon Oct 14 02:22:06 2019, MaxMem= 10737418240 cpu:             185.8 elap:               7.8
 (Enter /apps/cent7/gaussian/g16-A.03/g16-haswell/g16/l601.exe)
 Copying SCF densities to generalized density rwf, IOpCl= 0 IROHF=0.

 **********************************************************************

            Population analysis using the SCF density.

 **********************************************************************

 Orbital symmetries:
       Occupied  (A) (A) (A) (A) (A) (A) (A) (A) (A) (A) (A) (A)
                 (A) (A) (A) (A) (A) (A) (A) (A) (A) (A) (A) (A)
                 (A) (A) (A) (A) (A) (A) (A) (A) (A) (A) (A) (A)
                 (A) (A) (A) (A) (A) (A) (A) (A) (A) (A) (A) (A)
                 (A) (A)
       Virtual   (A) (A) (A) (A) (A) (A) (A) (A) (A) (A) (A) (A)
                 (A) (A) (A) (A) (A) (A) (A) (A) (A) (A) (A) (A)
                 (A) (A) (A) (A) (A) (A) (A) (A) (A) (A) (A) (A)
                 (A) (A) (A) (A) (A) (A) (A) (A) (A) (A) (A) (A)
                 (A) (A) (A) (A) (A) (A) (A) (A) (A) (A) (A) (A)
                 (A) (A) (A) (A) (A) (A) (A) (A) (A) (A) (A) (A)
                 (A) (A) (A) (A) (A) (A) (A) (A) (A) (A) (A) (A)
                 (A) (A) (A) (A) (A) (A) (A) (A) (A) (A) (A) (A)
                 (A) (A) (A) (A) (A) (A) (A) (A) (A) (A) (A) (A)
                 (A) (A) (A) (A) (A) (A) (A) (A) (A) (A) (A) (A)
                 (A) (A) (A) (A) (A) (A) (A) (A) (A) (A) (A) (A)
                 (A) (A) (A) (A) (A) (A) (A) (A) (A) (A) (A) (A)
                 (A) (A) (A) (A) (A) (A) (A) (A) (A) (A) (A) (A)
                 (A) (A) (A) (A) (A) (A) (A) (A) (A) (A) (A) (A)
                 (A) (A) (A) (A) (A) (A) (A) (A) (A) (A) (A) (A)
                 (A) (A)
 The electronic state is 1-A.
 Alpha  occ. eigenvalues --  -19.42955 -19.29638 -14.73190 -14.45092 -10.42137
 Alpha  occ. eigenvalues --  -10.40583 -10.37741 -10.35775 -10.35096 -10.34535
 Alpha  occ. eigenvalues --  -10.33377 -10.33184 -10.33069 -10.32627  -1.42099
 Alpha  occ. eigenvalues --   -1.20496  -1.17559  -1.12697  -0.98472  -0.97261
 Alpha  occ. eigenvalues --   -0.91219  -0.87999  -0.87335  -0.86731  -0.85161
 Alpha  occ. eigenvalues --   -0.82082  -0.77362  -0.74451  -0.71972  -0.69162
 Alpha  occ. eigenvalues --   -0.66518  -0.64138  -0.62651  -0.61308  -0.60968
 Alpha  occ. eigenvalues --   -0.58166  -0.57510  -0.56236  -0.55891  -0.55639
 Alpha  occ. eigenvalues --   -0.54701  -0.50141  -0.49489  -0.48480  -0.47104
 Alpha  occ. eigenvalues --   -0.45352  -0.40943  -0.40037  -0.38820  -0.35418
 Alpha virt. eigenvalues --   -0.25371  -0.18231  -0.15238  -0.11746  -0.10850
 Alpha virt. eigenvalues --   -0.09715  -0.06390  -0.03021  -0.01878  -0.01132
 Alpha virt. eigenvalues --    0.01620   0.02519   0.03304   0.04267   0.04900
 Alpha virt. eigenvalues --    0.04978   0.05643   0.06876   0.07101   0.11074
 Alpha virt. eigenvalues --    0.13566   0.14500   0.16641   0.20208   0.20629
 Alpha virt. eigenvalues --    0.22032   0.24776   0.29638   0.32844   0.33685
 Alpha virt. eigenvalues --    0.34892   0.35489   0.37425   0.38840   0.40536
 Alpha virt. eigenvalues --    0.41243   0.41592   0.42049   0.42609   0.44350
 Alpha virt. eigenvalues --    0.45071   0.46347   0.47765   0.47858   0.48441
 Alpha virt. eigenvalues --    0.49236   0.50852   0.51208   0.53212   0.54666
 Alpha virt. eigenvalues --    0.55963   0.58344   0.59554   0.60916   0.61521
 Alpha virt. eigenvalues --    0.62503   0.64711   0.66639   0.66694   0.68814
 Alpha virt. eigenvalues --    0.69234   0.70497   0.71473   0.72346   0.73045
 Alpha virt. eigenvalues --    0.74063   0.75065   0.75709   0.76633   0.77724
 Alpha virt. eigenvalues --    0.79055   0.80470   0.82535   0.84107   0.84704
 Alpha virt. eigenvalues --    0.86336   0.87830   0.90320   0.93571   0.95006
 Alpha virt. eigenvalues --    0.96268   0.99475   1.01836   1.03364   1.05630
 Alpha virt. eigenvalues --    1.06715   1.09643   1.11513   1.13175   1.14534
 Alpha virt. eigenvalues --    1.17156   1.18887   1.19475   1.24768   1.27140
 Alpha virt. eigenvalues --    1.28363   1.30415   1.33239   1.33978   1.35523
 Alpha virt. eigenvalues --    1.36766   1.38962   1.39633   1.42428   1.44771
 Alpha virt. eigenvalues --    1.47595   1.50486   1.58012   1.59861   1.62357
 Alpha virt. eigenvalues --    1.65897   1.68223   1.69406   1.70285   1.71345
 Alpha virt. eigenvalues --    1.74591   1.76531   1.78173   1.80154   1.82520
 Alpha virt. eigenvalues --    1.84918   1.87100   1.88207   1.92573   1.93628
 Alpha virt. eigenvalues --    1.94290   1.95695   1.97548   2.00553   2.00574
 Alpha virt. eigenvalues --    2.02049   2.04967   2.06450   2.08108   2.10776
 Alpha virt. eigenvalues --    2.10971   2.13376   2.15754   2.16743   2.20017
 Alpha virt. eigenvalues --    2.22042   2.23712   2.29132   2.30092   2.31447
 Alpha virt. eigenvalues --    2.38270   2.39602   2.42947   2.48147   2.49444
 Alpha virt. eigenvalues --    2.50149   2.53441   2.54246   2.56227   2.57331
 Alpha virt. eigenvalues --    2.58494   2.62467   2.66658   2.71013   2.72756
 Alpha virt. eigenvalues --    2.74760   2.80426   2.85367   2.95870   3.07109
 Alpha virt. eigenvalues --    3.15800   3.25785   3.34728   3.47037   3.74880
 Alpha virt. eigenvalues --    3.90683   3.94151   3.96694   3.99174   4.01494
 Alpha virt. eigenvalues --    4.12006   4.17262   4.21758   4.29035   4.42697
 Alpha virt. eigenvalues --    4.54164   4.73037
          Condensed to atoms (all electrons):
               1          2          3          4          5          6
     1  C    4.919495   0.229487  -0.030527  -0.003110   0.000628   0.000013
     2  O    0.229487   8.227536   0.308568  -0.080021  -0.000644  -0.000161
     3  C   -0.030527   0.308568   4.730724   0.510623  -0.147061   0.001187
     4  N   -0.003110  -0.080021   0.510623   6.942971   0.359373  -0.079859
     5  C    0.000628  -0.000644  -0.147061   0.359373   4.641300   0.495955
     6  C    0.000013  -0.000161   0.001187  -0.079859   0.495955   5.063409
     7  C   -0.000000   0.000001  -0.000179   0.005647   0.000772   0.475161
     8  C    0.000000  -0.000000  -0.000235  -0.000450  -0.041347  -0.023274
     9  C   -0.000005  -0.000004   0.020383   0.014197  -0.046394  -0.053736
    10  C   -0.000243   0.007974   0.024176  -0.100737   0.417736  -0.056280
    11  C   -0.004959  -0.103652   0.243847  -0.127596   0.037262   0.017486
    12  C   -0.000446   0.003841  -0.088451   0.016309   0.019696  -0.000434
    13  N   -0.000015   0.000294   0.003379  -0.000201  -0.000546   0.000000
    14  O   -0.000000   0.000001  -0.000011   0.000000   0.000004  -0.000000
    15  H    0.356909  -0.038824  -0.000695  -0.000657   0.000676   0.000013
    16  H    0.381659  -0.027861   0.001860  -0.000135  -0.000014  -0.000000
    17  H    0.382594  -0.035387  -0.001707   0.003817  -0.000163   0.000000
    18  H    0.000001  -0.000004   0.000118  -0.000771  -0.026870   0.349443
    19  H   -0.000000  -0.000000   0.000001  -0.000086   0.002203  -0.032875
    20  H    0.000000  -0.000000   0.000004   0.000002   0.000851   0.003558
    21  H    0.000000  -0.000000  -0.000323  -0.000219   0.003201   0.000455
    22  H   -0.000353   0.013058  -0.005483   0.000590  -0.000145   0.000004
    23  H    0.000009   0.000001   0.000099  -0.000026  -0.000132   0.000002
    24  H    0.000000  -0.000000  -0.000002  -0.000000  -0.000000   0.000000
    25  H   -0.000002   0.000004  -0.000243   0.000003  -0.000025  -0.000007
               7          8          9         10         11         12
     1  C   -0.000000   0.000000  -0.000005  -0.000243  -0.004959  -0.000446
     2  O    0.000001  -0.000000  -0.000004   0.007974  -0.103652   0.003841
     3  C   -0.000179  -0.000235   0.020383   0.024176   0.243847  -0.088451
     4  N    0.005647  -0.000450   0.014197  -0.100737  -0.127596   0.016309
     5  C    0.000772  -0.041347  -0.046394   0.417736   0.037262   0.019696
     6  C    0.475161  -0.023274  -0.053736  -0.056280   0.017486  -0.000434
     7  C    4.875875   0.531580  -0.026330  -0.039737  -0.000306   0.000016
     8  C    0.531580   4.861626   0.499425  -0.002137   0.008821  -0.000051
     9  C   -0.026330   0.499425   5.205046   0.421174  -0.120697  -0.034937
    10  C   -0.039737  -0.002137   0.421174   5.211837   0.263315  -0.151233
    11  C   -0.000306   0.008821  -0.120697   0.263315   5.272623   0.345636
    12  C    0.000016  -0.000051  -0.034937  -0.151233   0.345636   5.684377
    13  N    0.000003   0.000022   0.003019  -0.002826  -0.010770   0.164515
    14  O    0.000000  -0.000000   0.000102   0.000009   0.001616  -0.032985
    15  H   -0.000000   0.000000  -0.000006  -0.001507   0.006766   0.002142
    16  H    0.000000   0.000000  -0.000000   0.000024   0.000820  -0.000391
    17  H   -0.000000   0.000000  -0.000001   0.000027  -0.000963   0.000158
    18  H   -0.040490   0.003911   0.000314   0.006246  -0.000253   0.000001
    19  H    0.363360  -0.034598   0.004077   0.000744   0.000016   0.000000
    20  H   -0.032602   0.362928  -0.035932   0.002564  -0.000203  -0.000001
    21  H    0.004327  -0.028166   0.339107  -0.067402  -0.005309  -0.003119
    22  H   -0.000000   0.000003  -0.000076   0.005297  -0.009623   0.351312
    23  H    0.000002   0.000017   0.006183   0.001588   0.004038  -0.052061
    24  H    0.000000  -0.000001  -0.000001   0.000018  -0.000349   0.004759
    25  H   -0.000008   0.000012   0.007059   0.004674   0.002989  -0.059031
              13         14         15         16         17         18
     1  C   -0.000015  -0.000000   0.356909   0.381659   0.382594   0.000001
     2  O    0.000294   0.000001  -0.038824  -0.027861  -0.035387  -0.000004
     3  C    0.003379  -0.000011  -0.000695   0.001860  -0.001707   0.000118
     4  N   -0.000201   0.000000  -0.000657  -0.000135   0.003817  -0.000771
     5  C   -0.000546   0.000004   0.000676  -0.000014  -0.000163  -0.026870
     6  C    0.000000  -0.000000   0.000013  -0.000000   0.000000   0.349443
     7  C    0.000003   0.000000  -0.000000   0.000000  -0.000000  -0.040490
     8  C    0.000022  -0.000000   0.000000   0.000000   0.000000   0.003911
     9  C    0.003019   0.000102  -0.000006  -0.000000  -0.000001   0.000314
    10  C   -0.002826   0.000009  -0.001507   0.000024   0.000027   0.006246
    11  C   -0.010770   0.001616   0.006766   0.000820  -0.000963  -0.000253
    12  C    0.164515  -0.032985   0.002142  -0.000391   0.000158   0.000001
    13  N    6.497678   0.100132  -0.000035  -0.000004   0.000001   0.000000
    14  O    0.100132   8.185889  -0.000000  -0.000000   0.000000  -0.000000
    15  H   -0.000035  -0.000000   0.596962  -0.029821  -0.036041   0.000000
    16  H   -0.000004  -0.000000  -0.029821   0.512406  -0.031460  -0.000000
    17  H    0.000001   0.000000  -0.036041  -0.031460   0.515370   0.000001
    18  H    0.000000  -0.000000   0.000000  -0.000000   0.000001   0.520210
    19  H   -0.000000  -0.000000  -0.000000  -0.000000   0.000000  -0.003946
    20  H   -0.000000   0.000000   0.000000  -0.000000  -0.000000  -0.000123
    21  H    0.000900   0.000228  -0.000000   0.000000   0.000000   0.000020
    22  H   -0.047783  -0.000689  -0.000519  -0.000139   0.000090  -0.000000
    23  H    0.297669  -0.026523  -0.000016   0.000000  -0.000000   0.000000
    24  H   -0.017112   0.243148   0.000000   0.000000  -0.000000   0.000000
    25  H    0.305927  -0.034866   0.000003  -0.000000   0.000000   0.000000
              19         20         21         22         23         24
     1  C   -0.000000   0.000000   0.000000  -0.000353   0.000009   0.000000
     2  O   -0.000000  -0.000000  -0.000000   0.013058   0.000001  -0.000000
     3  C    0.000001   0.000004  -0.000323  -0.005483   0.000099  -0.000002
     4  N   -0.000086   0.000002  -0.000219   0.000590  -0.000026  -0.000000
     5  C    0.002203   0.000851   0.003201  -0.000145  -0.000132  -0.000000
     6  C   -0.032875   0.003558   0.000455   0.000004   0.000002   0.000000
     7  C    0.363360  -0.032602   0.004327  -0.000000   0.000002   0.000000
     8  C   -0.034598   0.362928  -0.028166   0.000003   0.000017  -0.000001
     9  C    0.004077  -0.035932   0.339107  -0.000076   0.006183  -0.000001
    10  C    0.000744   0.002564  -0.067402   0.005297   0.001588   0.000018
    11  C    0.000016  -0.000203  -0.005309  -0.009623   0.004038  -0.000349
    12  C    0.000000  -0.000001  -0.003119   0.351312  -0.052061   0.004759
    13  N   -0.000000  -0.000000   0.000900  -0.047783   0.297669  -0.017112
    14  O   -0.000000   0.000000   0.000228  -0.000689  -0.026523   0.243148
    15  H   -0.000000   0.000000  -0.000000  -0.000519  -0.000016   0.000000
    16  H   -0.000000  -0.000000   0.000000  -0.000139   0.000000   0.000000
    17  H    0.000000  -0.000000   0.000000   0.000090  -0.000000  -0.000000
    18  H   -0.003946  -0.000123   0.000020  -0.000000   0.000000   0.000000
    19  H    0.516992  -0.004007  -0.000167   0.000000  -0.000000  -0.000000
    20  H   -0.004007   0.534151  -0.004642  -0.000000  -0.000005   0.000000
    21  H   -0.000167  -0.004642   0.662575  -0.000071   0.007878  -0.000010
    22  H    0.000000  -0.000000  -0.000071   0.433208   0.002758  -0.000013
    23  H   -0.000000  -0.000005   0.007878   0.002758   0.378528  -0.006512
    24  H   -0.000000   0.000000  -0.000010  -0.000013  -0.006512   0.307320
    25  H   -0.000000  -0.000002   0.001893   0.002555  -0.036656  -0.000838
              25
     1  C   -0.000002
     2  O    0.000004
     3  C   -0.000243
     4  N    0.000003
     5  C   -0.000025
     6  C   -0.000007
     7  C   -0.000008
     8  C    0.000012
     9  C    0.007059
    10  C    0.004674
    11  C    0.002989
    12  C   -0.059031
    13  N    0.305927
    14  O   -0.034866
    15  H    0.000003
    16  H   -0.000000
    17  H    0.000000
    18  H    0.000000
    19  H   -0.000000
    20  H   -0.000002
    21  H    0.001893
    22  H    0.002555
    23  H   -0.036656
    24  H   -0.000838
    25  H    0.375118
 Mulliken charges:
               1
     1  C   -0.231136
     2  O   -0.504208
     3  C    0.429945
     4  N   -0.459665
     5  C    0.283684
     6  C   -0.160060
     7  C   -0.117091
     8  C   -0.138087
     9  C   -0.201967
    10  C    0.054701
    11  C    0.179443
    12  C   -0.169622
    13  N   -0.294249
    14  O   -0.436054
    15  H    0.144649
    16  H    0.193057
    17  H    0.203665
    18  H    0.192192
    19  H    0.188288
    20  H    0.173459
    21  H    0.088844
    22  H    0.256019
    23  H    0.423160
    24  H    0.469593
    25  H    0.431440
 Sum of Mulliken charges =   1.00000
 Mulliken charges with hydrogens summed into heavy atoms:
               1
     1  C    0.310236
     2  O   -0.504208
     3  C    0.429945
     4  N   -0.459665
     5  C    0.283684
     6  C    0.032132
     7  C    0.071197
     8  C    0.035372
     9  C   -0.113123
    10  C    0.054701
    11  C    0.179443
    12  C    0.086397
    13  N    0.560351
    14  O    0.033539
 Electronic spatial extent (au):  <R**2>=           2855.8852
 Charge=              1.0000 electrons
 Dipole moment (field-independent basis, Debye):
    X=             -3.7154    Y=              9.4297    Z=              2.3704  Tot=             10.4087
 Quadrupole moment (field-independent basis, Debye-Ang):
   XX=            -48.7418   YY=            -43.0820   ZZ=            -77.9302
   XY=            -10.2981   XZ=             -4.4776   YZ=             -1.3310
 Traceless Quadrupole moment (field-independent basis, Debye-Ang):
   XX=              7.8429   YY=             13.5027   ZZ=            -21.3455
   XY=            -10.2981   XZ=             -4.4776   YZ=             -1.3310
 Octapole moment (field-independent basis, Debye-Ang**2):
  XXX=             16.0055  YYY=            105.4080  ZZZ=             -1.4793  XYY=            -70.6814
  XXY=             20.2143  XXZ=             13.2330  XZZ=            -18.4337  YZZ=              6.9662
  YYZ=             25.9711  XYZ=              4.3866
 Hexadecapole moment (field-independent basis, Debye-Ang**3):
 XXXX=          -1674.6239 YYYY=          -1004.9060 ZZZZ=           -138.3978 XXXY=            -38.5311
 XXXZ=            -20.2848 YYYX=           -174.8851 YYYZ=              2.8197 ZZZX=             -3.2183
 ZZZY=             -1.7311 XXYY=           -385.6041 XXZZ=           -377.2935 YYZZ=           -245.8495
 XXYZ=             16.2050 YYXZ=            -47.5411 ZZXY=            -19.3294
 N-N= 8.796788930694D+02 E-N=-3.250496291955D+03  KE= 6.427117480732D+02
 No NMR shielding tensors so no spin-rotation constants.
 Leave Link  601 at Mon Oct 14 02:22:06 2019, MaxMem= 10737418240 cpu:               2.9 elap:               0.2
 (Enter /apps/cent7/gaussian/g16-A.03/g16-haswell/g16/l701.exe)
 ... and contract with generalized density number  0.
 Compute integral first derivatives.
 Leave Link  701 at Mon Oct 14 02:22:06 2019, MaxMem= 10737418240 cpu:               2.6 elap:               0.1
 (Enter /apps/cent7/gaussian/g16-A.03/g16-haswell/g16/l702.exe)
 L702 exits ... SP integral derivatives will be done elsewhere.
 Leave Link  702 at Mon Oct 14 02:22:06 2019, MaxMem= 10737418240 cpu:               0.5 elap:               0.0
 (Enter /apps/cent7/gaussian/g16-A.03/g16-haswell/g16/l703.exe)
 Integral derivatives from FoFJK, PRISM(SPDF).
 Compute integral first derivatives, UseDBF=F ICtDFT=           0.
 Calling FoFJK, ICntrl=      2127 FMM=F ISym2X=0 I1Cent= 0 IOpClX= 0 NMat=1 NMatS=1 NMatT=0.
 FoFJK:  IHMeth= 1 ICntrl=    2127 DoSepK=F KAlg= 0 I1Cent=           0 FoldK=F
 IRaf=         0 NMat=       1 IRICut=       1 DoRegI=T DoRafI=F ISym2E= 0 IDoP0=0 IntGTp=1.
 FoFCou: FMM=F IPFlag=           0 FMFlag=      100000 FMFlg1=         800
         NFxFlg=           0 DoJE=F BraDBF=F KetDBF=F FulRan=T
         wScrn=  0.000000 ICntrl=      2127 IOpCl=  0 I1Cent=           0 NGrid=           0
         NMat0=    1 NMatS0=      1 NMatT0=    0 NMatD0=    1 NMtDS0=    0 NMtDT0=    0
 Symmetry not used in FoFCou.
 Leave Link  703 at Mon Oct 14 02:22:08 2019, MaxMem= 10737418240 cpu:              36.9 elap:               1.6
 (Enter /apps/cent7/gaussian/g16-A.03/g16-haswell/g16/l716.exe)
 Dipole        =-1.46174654D+00 3.70991263D+00 9.32598616D-01
 ***** Axes restored to original set *****
 -------------------------------------------------------------------
 Center     Atomic                   Forces (Hartrees/Bohr)
 Number     Number              X              Y              Z
 -------------------------------------------------------------------
      1        6           0.005458249    0.003805287   -0.002596960
      2        8          -0.000703292   -0.016998740    0.002857297
      3        6           0.027877520    0.037607316   -0.104670527
      4        7           0.032269931    0.003300506   -0.096134897
      5        6          -0.032530916    0.047768495    0.074480229
      6        6           0.002153094   -0.007208629   -0.002686299
      7        6           0.001380033   -0.012925205    0.001500047
      8        6           0.001095661    0.001602760   -0.002144265
      9        6          -0.000095550    0.002076716   -0.012098213
     10        6          -0.035310457    0.040138805    0.085108175
     11        6          -0.008687468   -0.089528295    0.065043625
     12        6           0.055362253    0.021403155   -0.134871334
     13        7          -0.037665770    0.040989787    0.094481383
     14        8           0.015480764   -0.100757257   -0.026336885
     15        1           0.004385111   -0.000699410    0.002329386
     16        1          -0.004247974   -0.001777994   -0.001453481
     17        1           0.000876912    0.002369130   -0.000595089
     18        1           0.000746490   -0.003592052    0.001229370
     19        1           0.001047486   -0.003255858   -0.000672380
     20        1           0.001194558   -0.000604639   -0.003264181
     21        1          -0.002492338    0.003731044    0.004833730
     22        1          -0.003773980   -0.001900463    0.002588100
     23        1           0.010350257    0.022115788    0.027231402
     24        1          -0.000666826   -0.003369093    0.014201266
     25        1          -0.033503750    0.015708846    0.011640503
 -------------------------------------------------------------------
 Cartesian Forces:  Max     0.134871334 RMS     0.037155096
 Leave Link  716 at Mon Oct 14 02:22:08 2019, MaxMem= 10737418240 cpu:               0.6 elap:               0.0
 (Enter /apps/cent7/gaussian/g16-A.03/g16-haswell/g16/l103.exe)

 GradGradGradGradGradGradGradGradGradGradGradGradGradGradGradGradGradGrad
 Berny optimization.
 FormGI is forming the generalized inverse of G from B-inverse, IUseBI=4.
 GSVD:  received Info=                   1 from GESDD.
 Internal  Forces:  Max     0.128357782 RMS     0.023452544
 Search for a local minimum.
 Step number   1 out of a maximum of  132
 All quantities printed in internal units (Hartrees-Bohrs-Radians)
 RMS Force = .23453D-01 SwitMx=.10000D-02 MixMth= 1
 Mixed Optimization -- RFO/linear search
 Second derivative matrix not updated -- first step.
 ITU=  0
     Eigenvalues ---    0.01162   0.01921   0.01935   0.01940   0.01946
     Eigenvalues ---    0.01961   0.01983   0.02142   0.02236   0.02308
     Eigenvalues ---    0.02466   0.02561   0.02572   0.02711   0.02722
     Eigenvalues ---    0.02750   0.02791   0.02887   0.06275   0.08402
     Eigenvalues ---    0.10293   0.10293   0.13031   0.14804   0.16000
     Eigenvalues ---    0.16000   0.16000   0.16000   0.16000   0.16000
     Eigenvalues ---    0.16000   0.16000   0.16000   0.22000   0.22000
     Eigenvalues ---    0.22254   0.22601   0.24515   0.24964   0.24973
     Eigenvalues ---    0.24989   0.24991   0.25000   0.34807   0.34812
     Eigenvalues ---    0.34813   0.34813   0.34814   0.34816   0.34816
     Eigenvalues ---    0.34818   0.38883   0.39580   0.40190   0.43395
     Eigenvalues ---    0.43599   0.43889   0.44373   0.46498   0.47688
     Eigenvalues ---    0.47688   0.50657   0.55484   0.55688   0.56875
     Eigenvalues ---    0.61400   0.62837   0.66009   0.68547
 RFO step:  Lambda=-1.06320371D-01 EMin= 1.16210178D-02
 Linear search not attempted -- first point.
 Maximum step size (   0.300) exceeded in Quadratic search.
    -- Step size scaled by   0.706
 Iteration  1 RMS(Cart)=  0.06568230 RMS(Int)=  0.00154646
 Iteration  2 RMS(Cart)=  0.00268281 RMS(Int)=  0.00015601
 Iteration  3 RMS(Cart)=  0.00000871 RMS(Int)=  0.00015596
 Iteration  4 RMS(Cart)=  0.00000000 RMS(Int)=  0.00015596
 ITry= 1 IFail=0 DXMaxC= 3.33D-01 DCOld= 1.00D+10 DXMaxT= 3.00D-01 DXLimC= 3.00D+00 Rises=F
 Variable       Old X    -DE/DX   Delta X   Delta X   Delta X     New X
                                 (Linear)    (Quad)   (Total)
    R1        2.72128   0.00661   0.00000   0.00930   0.00930   2.73058
    R2        2.05977   0.00383   0.00000   0.00594   0.00594   2.06572
    R3        2.05975   0.00082   0.00000   0.00127   0.00127   2.06102
    R4        2.05981   0.00250   0.00000   0.00388   0.00388   2.06368
    R5        2.53502   0.00800   0.00000   0.00836   0.00836   2.54338
    R6        2.42438   0.01968   0.00000   0.01796   0.01801   2.44239
    R7        2.57058   0.11206   0.00000   0.12533   0.12537   2.69595
    R8        2.46568   0.10802   0.00000   0.09981   0.09981   2.56549
    R9        2.65729  -0.01649   0.00000  -0.02059  -0.02056   2.63673
   R10        2.63408   0.03104   0.00000   0.03760   0.03753   2.67161
   R11        2.66464  -0.00268   0.00000  -0.00397  -0.00392   2.66072
   R12        2.05980  -0.00357   0.00000  -0.00555  -0.00555   2.05426
   R13        2.66765  -0.01061   0.00000  -0.01473  -0.01472   2.65293
   R14        2.05975  -0.00344   0.00000  -0.00534  -0.00534   2.05441
   R15        2.66613  -0.01105   0.00000  -0.01478  -0.01481   2.65133
   R16        2.05979  -0.00351   0.00000  -0.00546  -0.00546   2.05434
   R17        2.67242  -0.01010   0.00000  -0.01271  -0.01275   2.65967
   R18        2.05990   0.00001   0.00000   0.00002   0.00002   2.05992
   R19        2.60577   0.07311   0.00000   0.08494   0.08490   2.69066
   R20        2.54525   0.00381   0.00000   0.00405   0.00405   2.54931
   R21        2.49849   0.12836   0.00000   0.12574   0.12574   2.62423
   R22        2.05971  -0.00200   0.00000  -0.00311  -0.00311   2.05659
   R23        2.46480   0.10181   0.00000   0.09374   0.09374   2.55853
   R24        1.88973   0.03503   0.00000   0.04238   0.04238   1.93211
   R25        1.88973   0.03755   0.00000   0.04544   0.04544   1.93517
   R26        1.81404   0.01457   0.00000   0.01555   0.01555   1.82960
    A1        1.91070   0.00639   0.00000   0.01759   0.01759   1.92829
    A2        1.91064  -0.00856   0.00000  -0.02347  -0.02346   1.88718
    A3        1.91061   0.00066   0.00000   0.00187   0.00182   1.91243
    A4        1.91058   0.00062   0.00000   0.00136   0.00142   1.91200
    A5        1.91059  -0.00082   0.00000  -0.00062  -0.00068   1.90991
    A6        1.91067   0.00172   0.00000   0.00327   0.00322   1.91389
    A7        1.97927   0.01344   0.00000   0.02662   0.02662   2.00589
    A8        2.12645   0.01418   0.00000   0.02621   0.02618   2.15263
    A9        2.19826  -0.00880   0.00000  -0.01932  -0.01936   2.17890
   A10        1.95787  -0.00540   0.00000  -0.00698  -0.00691   1.95096
   A11        1.88943  -0.00690   0.00000  -0.00930  -0.00924   1.88019
   A12        2.24765  -0.00726   0.00000  -0.01435  -0.01433   2.23333
   A13        1.90747   0.01821   0.00000   0.03361   0.03355   1.94102
   A14        2.12784  -0.01094   0.00000  -0.01918  -0.01916   2.10868
   A15        2.06658   0.00043   0.00000   0.00026   0.00033   2.06691
   A16        2.10607  -0.00168   0.00000  -0.00403  -0.00406   2.10200
   A17        2.11054   0.00126   0.00000   0.00377   0.00373   2.11427
   A18        2.09934   0.00824   0.00000   0.01474   0.01479   2.11414
   A19        2.09099  -0.00358   0.00000  -0.00594  -0.00597   2.08503
   A20        2.09285  -0.00466   0.00000  -0.00880  -0.00883   2.08402
   A21        2.10446   0.00031   0.00000  -0.00236  -0.00239   2.10207
   A22        2.08973   0.00012   0.00000   0.00191   0.00193   2.09166
   A23        2.08899  -0.00043   0.00000   0.00045   0.00046   2.08946
   A24        2.07687  -0.00218   0.00000  -0.00528  -0.00537   2.07149
   A25        2.10115  -0.00569   0.00000  -0.01532  -0.01527   2.08588
   A26        2.10516   0.00787   0.00000   0.02060   0.02065   2.12581
   A27        2.09074   0.00417   0.00000   0.01195   0.01192   2.10266
   A28        1.83959  -0.01001   0.00000  -0.02463  -0.02470   1.81489
   A29        2.35275   0.00584   0.00000   0.01268   0.01278   2.36553
   A30        1.82800   0.00422   0.00000   0.00798   0.00794   1.83594
   A31        2.17602  -0.00957   0.00000  -0.01882  -0.01880   2.15722
   A32        2.27870   0.00530   0.00000   0.01061   0.01061   2.28932
   A33        2.16544  -0.00988   0.00000  -0.02137  -0.02138   2.14406
   A34        2.07631   0.00871   0.00000   0.02068   0.02067   2.09698
   A35        2.04144   0.00117   0.00000   0.00070   0.00070   2.04214
   A36        2.12100  -0.05121   0.00000  -0.10935  -0.10881   2.01219
   A37        1.86451   0.01289   0.00000   0.02701   0.02749   1.89200
   A38        1.86451   0.01446   0.00000   0.02996   0.03011   1.89462
   A39        1.86451   0.01969   0.00000   0.04563   0.04581   1.91032
   A40        1.86451   0.01633   0.00000   0.03475   0.03473   1.89924
   A41        1.87272  -0.00977   0.00000  -0.02332  -0.02420   1.84852
   A42        1.91073   0.00105   0.00000   0.00279   0.00279   1.91352
    D1        0.55158   0.00260   0.00000   0.01220   0.01230   0.56388
    D2        2.64596   0.00203   0.00000   0.01027   0.01018   2.65614
    D3       -1.54279  -0.00070   0.00000   0.00105   0.00103  -1.54176
    D4        1.52252  -0.00332   0.00000  -0.01836  -0.01837   1.50414
    D5       -1.65943  -0.00405   0.00000  -0.02138  -0.02136  -1.68079
    D6       -3.14060  -0.00160   0.00000  -0.00651  -0.00650   3.13609
    D7        0.03627  -0.00081   0.00000  -0.00348  -0.00347   0.03280
    D8        3.11551   0.00160   0.00000   0.00983   0.00980   3.12531
    D9       -0.05561   0.00041   0.00000   0.00289   0.00294  -0.05267
   D10       -0.06310   0.00134   0.00000   0.00777   0.00783  -0.05527
   D11        3.04897   0.00015   0.00000   0.00083   0.00097   3.04994
   D12        3.12518  -0.00004   0.00000   0.00066   0.00066   3.12584
   D13        0.00636  -0.00057   0.00000  -0.00297  -0.00304   0.00332
   D14       -3.09791  -0.00118   0.00000  -0.00593  -0.00591  -3.10382
   D15        0.04377  -0.00115   0.00000  -0.00572  -0.00571   0.03806
   D16        0.01837  -0.00025   0.00000  -0.00130  -0.00130   0.01707
   D17       -3.12314  -0.00022   0.00000  -0.00109  -0.00109  -3.12423
   D18        3.08375   0.00126   0.00000   0.00761   0.00770   3.09145
   D19       -0.04442   0.00129   0.00000   0.00778   0.00783  -0.03659
   D20       -0.03693   0.00075   0.00000   0.00428   0.00429  -0.03264
   D21        3.11808   0.00078   0.00000   0.00444   0.00443   3.12251
   D22        0.00703  -0.00033   0.00000  -0.00137  -0.00135   0.00568
   D23       -3.13458  -0.00024   0.00000  -0.00093  -0.00092  -3.13550
   D24       -3.13465  -0.00037   0.00000  -0.00157  -0.00156  -3.13621
   D25        0.00692  -0.00027   0.00000  -0.00114  -0.00113   0.00580
   D26       -0.01361  -0.00001   0.00000   0.00033   0.00034  -0.01326
   D27        3.12788   0.00006   0.00000   0.00054   0.00055   3.12842
   D28        3.12801  -0.00010   0.00000  -0.00011  -0.00010   3.12791
   D29       -0.01369  -0.00004   0.00000   0.00010   0.00011  -0.01359
   D30       -0.00471   0.00046   0.00000   0.00267   0.00267  -0.00204
   D31        3.13703  -0.00003   0.00000  -0.00011  -0.00009   3.13693
   D32        3.13699   0.00039   0.00000   0.00247   0.00246   3.13946
   D33       -0.00446  -0.00010   0.00000  -0.00032  -0.00030  -0.00475
   D34        0.02948  -0.00084   0.00000  -0.00485  -0.00488   0.02460
   D35       -3.13035  -0.00103   0.00000  -0.00543  -0.00542  -3.13576
   D36       -3.11226  -0.00035   0.00000  -0.00206  -0.00205  -3.11431
   D37        0.01110  -0.00054   0.00000  -0.00264  -0.00260   0.00851
   D38        0.06211  -0.00198   0.00000  -0.00990  -0.00985   0.05227
   D39       -3.04752  -0.00034   0.00000  -0.00168  -0.00155  -3.04907
   D40       -3.06306  -0.00190   0.00000  -0.00961  -0.00959  -3.07265
   D41        0.11049  -0.00025   0.00000  -0.00139  -0.00129   0.10920
   D42       -3.06783  -0.00094   0.00000  -0.00468  -0.00469  -3.07253
   D43        0.07382  -0.00171   0.00000  -0.00876  -0.00879   0.06502
   D44        0.03617  -0.00258   0.00000  -0.01378  -0.01375   0.02242
   D45       -3.10536  -0.00335   0.00000  -0.01786  -0.01785  -3.12321
   D46       -3.13402  -0.00192   0.00000  -0.00859  -0.00859   3.14058
   D47       -0.99237  -0.00115   0.00000  -0.00242  -0.00259  -0.99495
   D48        1.00752   0.00054   0.00000  -0.00231  -0.00213   1.00539
   D49        0.00752  -0.00116   0.00000  -0.00460  -0.00461   0.00291
   D50        2.14917  -0.00039   0.00000   0.00157   0.00139   2.15056
   D51       -2.13413   0.00130   0.00000   0.00168   0.00185  -2.13228
   D52        2.74184   0.00079   0.00000   0.00458   0.00433   2.74617
   D53        0.60019   0.00322   0.00000   0.00718   0.00808   0.60827
   D54       -1.39969  -0.00255   0.00000  -0.00396  -0.00461  -1.40430
         Item               Value     Threshold  Converged?
 Maximum Force            0.128358     0.000450     NO 
 RMS     Force            0.023453     0.000300     NO 
 Maximum Displacement     0.333002     0.001800     NO 
 RMS     Displacement     0.066010     0.001200     NO 
 Predicted change in Energy=-5.347899D-02
 Lowest energy point so far.  Saving SCF results.
 GradGradGradGradGradGradGradGradGradGradGradGradGradGradGradGradGradGrad

 Leave Link  103 at Mon Oct 14 02:22:08 2019, MaxMem= 10737418240 cpu:               1.5 elap:               0.1
 (Enter /apps/cent7/gaussian/g16-A.03/g16-haswell/g16/l202.exe)
                          Input orientation:                          
[...]
 .00017465,-0.00008834,0.00024254,0.00002346,0.00028913,-0.00003990,0.0
 0014497,-0.00026194,-0.00015020,-0.00028782,0.00033435,0.00023837,0.00
 094453,0.00009976,-0.00032747,-0.00002869,-0.00003878,-0.00003274,-0.0
 0012494,-0.00010926,0.00006735,0.00006479,0.00003502,-0.00003662,-0.00
 897727,0.00459518,-0.00390626,0.01204033,-0.00767712,0.01304588,0.1084
 6453,-0.07963146,0.14078302,-0.00000539,0.00003019,-0.00002259,0.00021
 774,-0.00007409,0.00019770,-0.00008066,0.00033642,-0.00026031,-0.00234
 159,-0.00153836,-0.00236813,0.00740697,0.00944121,-0.00582938,-0.06427
 630,-0.05779079,0.05034009,-0.00122470,-0.01516537,0.00899310,0.002596
 01,0.00183612,0.00517251,-0.00027044,0.00031002,0.00025987,0.00381061,
 0.00197191,0.00401959,0.00050430,0.00047010,0.00002657,-0.00043725,0.0
 0008711,-0.00005731,0.00005920,-0.00003530,0.00009706,0.00005751,0.000
 00321,-0.00003023,-0.00002376,-0.00000593,-0.00001030,-0.00000405,-0.0
 0001371,0.00000572,-0.00000408,0.00002348,0.00001303,0.05685131,0.0000
 2601,-0.00003472,-0.00004989,-0.00008572,0.00031754,0.00012883,0.00020
 829,-0.00031938,-0.00021041,-0.00106278,0.00237196,0.00016276,-0.00881
 264,-0.01867061,0.01773839,-0.05724316,-0.24469785,0.12689495,0.001727
 32,0.00853691,-0.00380969,0.00165788,0.00105946,-0.00113915,0.00051999
 ,-0.00021947,-0.00079271,0.00275202,-0.00278078,-0.00183107,-0.0005555
 3,-0.00078694,0.00113899,0.00026168,-0.00020875,-0.00045079,0.00002750
 ,0.00006801,-0.00006126,-0.00002091,-0.00001902,0.00001078,0.00001188,
 -0.00001986,0.00000261,0.00000237,0.00001622,-0.00000678,-0.00000452,-
 0.00001806,-0.00000886,0.06118348,0.25450659,-0.00002268,-0.00004203,0
 .00001864,0.00018627,0.00008871,0.00004744,-0.00014855,-0.00013067,-0.
 00000634,-0.00243405,0.00049475,-0.00065731,-0.00226939,-0.00729388,0.
 00958785,0.05078940,0.12732819,-0.13901939,0.00503535,0.02073465,-0.00
 899312,0.00531383,-0.00149785,-0.00088236,0.00024235,-0.00084633,-0.00
 025282,0.00344813,-0.00129423,0.00203376,0.00023589,-0.00065857,0.0003
 9623,-0.00009727,-0.00013818,-0.00026504,0.00002995,0.00000678,0.00002
 200,0.00003887,0.00001895,-0.00001637,0.00001885,-0.00001728,0.0000011
 0,0.00000233,0.00001517,-0.00000853,-0.00002001,-0.00000481,-0.0000181
 4,-0.05790637,-0.13745418,0.13921915,0.00001330,0.00002581,-0.00009613
 ,-0.00005018,0.00023209,0.00014669,-0.00002730,-0.00018383,0.00035203,
 -0.00053956,0.00097502,-0.00032380,0.00304149,0.00019857,0.00578945,-0
 .00072489,0.01736775,0.00479738,-0.07687037,0.08479834,0.03359314,0.00
 749802,-0.00916977,-0.00133903,0.00414584,-0.00106283,0.00399365,-0.00
 053596,-0.00061762,0.00001922,-0.00076199,0.00020156,-0.00053092,0.000
 04320,-0.00011695,0.00030148,0.00007509,-0.00013533,-0.00032089,0.0000
 2824,0.00006811,0.00003850,0.00000063,-0.00001097,0.00000800,-0.000001
 59,0.00000260,0.00000507,0.00000344,-0.00000460,-0.00000582,-0.0019954
 4,-0.00059724,-0.00218704,0.06901327,-0.00004222,-0.00002661,0.0000604
 5,0.00011105,-0.00009291,-0.00013094,-0.00005024,0.00007719,0.00007955
 ,-0.00015391,-0.00005765,0.00011102,0.00036947,0.00157189,0.00067974,-
 0.00006817,0.00222095,0.00068894,0.08449323,-0.29670961,-0.06769433,0.
 00888486,-0.01734804,-0.00780197,-0.00121128,-0.00227467,0.00330050,-0
 .00065623,0.00068417,0.00063911,0.00008164,-0.00015510,-0.00028762,-0.
 00003247,0.00009815,0.00002310,-0.00005951,-0.00007113,0.00002331,0.00
 008098,-0.00003432,-0.00002774,0.00000253,0.00000659,-0.00000468,0.000
 00387,0.00000026,-0.00000529,0.00000328,0.00000724,-0.00000602,-0.0003
 2717,0.00061252,-0.00042075,-0.09131731,0.31147915,-0.00007004,-0.0000
 3017,0.00007367,0.00012607,-0.00026781,-0.00005541,0.00025563,0.000418
 33,-0.00031555,0.00003785,-0.00146932,-0.00036800,0.00576837,0.0011065
 3,-0.00157349,0.00877048,-0.02410221,-0.00211391,0.03361857,-0.0677671
 4,-0.07461432,-0.00549325,0.01662819,0.00928266,0.00409740,0.00346677,
 0.00083320,0.00017093,0.00020560,-0.00087507,-0.00060864,-0.00003676,-
 0.00021044,0.00003859,-0.00000695,0.00015200,0.00006712,-0.00005239,-0
 .00018372,-0.00004479,0.00008150,0.00006432,-0.00000563,0.00000453,0.0
 0000170,0.00000435,-0.00000429,-0.00000339,0.00000451,0.00001023,-0.00
 000001,-0.00224803,-0.00005648,-0.00037318,-0.04185004,0.07142341,0.07
 087974,-0.00004829,0.00000926,-0.00008445,-0.00015830,0.00000501,0.000
 06980,-0.00000233,0.00021793,-0.00017062,-0.00028626,-0.00006655,-0.00
 027477,-0.00024094,-0.00071277,-0.00060781,0.00440272,-0.00064882,0.00
 317896,-0.00191707,0.00236132,0.00517691,-0.14925640,0.02240701,0.1498
 2052,-0.00367550,0.00025213,0.00634931,0.00447770,0.00194506,0.0020616
 2,0.00063824,0.00001077,0.00087065,-0.00006632,0.00000249,-0.00000957,
 -0.00003549,0.00001156,0.00009506,0.00005964,0.00001340,-0.00006116,-0
 .00000842,-0.00001063,0.00001896,-0.00000210,-0.00000061,0.00000750,0.
 00000319,0.00000164,-0.00000635,-0.00002567,0.00021025,0.00034878,-0.0
 0219901,-0.00041548,-0.00221595,0.15026190,0.00000693,-0.00002888,-0.0
 0002457,0.00001128,0.00024052,-0.00009385,0.00010761,-0.00055615,-0.00
 002169,-0.00003761,0.00041485,-0.00014148,0.00001667,-0.00149499,0.000
 07883,-0.00038035,-0.00391736,0.00270277,-0.01662819,0.00724061,0.0212
 7959,0.02306825,-0.06361363,-0.02625517,0.01848617,-0.00019764,-0.0241
 9082,0.00149524,-0.00529816,-0.00004336,0.00074989,0.00055809,-0.00081
 259,0.00005274,0.00010947,-0.00017034,0.00009415,0.00005423,-0.0000024
 5,-0.00009110,-0.00002060,0.00006933,0.00000068,-0.00000309,-0.0000010
 2,0.00000618,0.00000760,-0.00001032,0.00000282,-0.00000052,-0.00000327
 ,-0.00069210,0.00033846,0.00104903,-0.00025811,0.00088395,-0.00054080,
 -0.02555712,0.06421508,-0.00006341,-0.00001443,-0.00002198,-0.00004776
 ,0.00005252,-0.00006855,-0.00006946,-0.00018584,0.00011086,-0.00026854
 ,0.00005265,-0.00018726,-0.00058480,0.00023588,-0.00000264,0.00303179,
 0.00329290,0.00214579,0.00936626,-0.00313461,-0.00959073,0.14912132,-0
 .02718391,-0.22799782,0.00247305,0.00092893,-0.00204605,0.00270344,-0.
 00102093,0.00276372,0.00047700,0.00057844,0.00047077,0.00003587,-0.000
 18543,0.00004574,0.00015463,0.00006973,-0.00009520,-0.00008163,-0.0000
 5124,0.00003603,-0.00000764,-0.00000336,0.00000564,0.00000350,-0.00000
 099,-0.00000176,0.00001035,0.00000775,-0.00000829,0.00044374,-0.000258
 73,-0.00037724,-0.00233812,-0.00028014,-0.00083744,-0.16227463,0.02732
 676,0.23665324,-0.00003980,0.00000155,-0.00006813,-0.00006558,0.000270
 02,-0.00000908,0.00004292,-0.00104528,0.00053438,-0.00083261,-0.000003
 76,0.00089248,0.00375149,0.00247868,0.00418069,-0.00051178,0.00028350,
 0.00035698,0.00368257,0.00269247,0.00369575,0.00748480,0.00889201,-0.0
 0530535,-0.08028169,-0.07875510,0.06348087,-0.00230916,-0.01659783,0.0
 0665861,-0.00163688,0.00004361,-0.00285100,-0.00045481,0.00021242,0.00
 127569,-0.00045349,0.00011508,-0.00060140,0.00019898,-0.00024242,0.000
 06774,0.00001927,0.00000159,0.00001660,0.00000296,0.00001578,0.0000005
 9,0.00001768,-0.00001599,-0.00002190,-0.00071487,-0.00019821,-0.000598
 39,-0.00011556,0.00040201,-0.00051206,-0.00199150,-0.00048953,-0.00205
 805,0.07614251,0.00004161,0.00004728,-0.00011398,-0.00018649,0.0001240
 6,0.00025035,-0.00003020,-0.00033470,0.00007593,-0.00013111,0.00046284
 ,-0.00005690,0.00077715,0.00092901,-0.00138588,0.00033958,0.00021430,-
 0.00044382,0.00308490,-0.00420872,-0.00311223,-0.01191310,-0.01878594,
 0.01805320,-0.07278984,-0.22742596,0.10701663,0.00106487,0.00700361,-0
 .00224417,0.00034132,-0.00049462,0.00013950,-0.00038082,0.00037339,0.0
 0006797,0.00123294,-0.00235058,-0.00018635,0.00085289,-0.00012036,-0.0
 0008664,0.00000394,-0.00001024,0.00001373,-0.00000625,0.00000266,0.000
 01264,0.00000213,-0.00001873,0.00000032,-0.00008085,0.00003211,0.00010
 728,-0.00063262,-0.00104196,0.00097661,-0.00000894,0.00117631,-0.00021
 917,0.07883347,0.24387493,-0.00007111,-0.00002674,0.00003569,0.0001326
 0,-0.00031805,-0.00015223,-0.00008556,0.00113826,-0.00020332,0.0006080
 6,0.00040266,-0.00159128,0.00599500,-0.00258902,0.00099619,0.00027864,
 -0.00053190,-0.00043411,0.00345179,-0.00129692,0.00317195,-0.00265837,
 -0.00584148,0.00768621,0.06005994,0.10688747,-0.11662587,0.00663468,0.
 02089851,-0.00975991,-0.00275602,0.00089198,-0.00006138,0.00025017,-0.
 00089958,0.00038910,0.00110679,0.00044640,-0.00139051,-0.00090033,0.00
 030636,0.00047298,-0.00001876,0.00001796,0.00000710,0.00000889,-0.0000
 1795,0.00000070,0.00002517,0.00001215,0.00001529,-0.00073511,0.0000282
 8,-0.00042065,-0.00018330,-0.00034770,0.00013380,-0.00234353,-0.000086
 76,-0.00097017,-0.06951297,-0.11889253,0.11705031,-0.00006444,-0.00003
 143,-0.00000699,-0.00030767,0.00004441,0.00036761,-0.00357816,-0.00099
 704,-0.00364870,0.00125076,0.00018734,0.00088915,-0.00014239,0.0004752
 0,0.00031513,-0.00043631,0.00001507,-0.00063897,0.00028698,0.00015704,
 -0.00009421,-0.00072593,-0.00076258,-0.00043032,-0.00042781,0.00035661
 ,0.00033430,0.00716232,0.00063387,0.00241266,0.00069517,0.00415332,0.0
 0100206,-0.09928004,0.10263445,0.09267509,-0.00353874,0.00665918,0.005
 76544,-0.00108003,-0.00066512,0.00107974,-0.00000397,-0.00005338,0.000
 01940,0.00003263,-0.00000562,0.00007241,0.00000218,0.00006774,-0.00005
 765,-0.00013755,0.00000404,-0.00005687,0.00011059,0.00002431,0.0000779
 1,-0.00001673,-0.00001599,-0.00002187,0.00049798,0.00008464,0.00047092
 ,0.09840357,-0.00041645,0.00023316,0.00053333,-0.00036981,0.00088314,0
 .00022336,0.00050578,-0.00093555,-0.00300581,-0.00032412,0.00067004,0.
 00109370,0.00142077,-0.00080696,-0.00168860,-0.00070562,-0.00002075,0.
 00054912,0.00022033,0.00020609,-0.00022921,-0.00008235,-0.00027991,-0.
 00035822,-0.00028753,-0.00016200,0.00027587,0.00017323,-0.00029277,0.0
 0419048,0.01265016,-0.01486811,-0.01580008,0.10918214,-0.20144368,-0.1
 2044460,-0.01080362,0.01078266,0.01671290,0.00022657,-0.00030153,0.000
 55276,0.00006268,0.00004305,-0.00009181,0.00000638,-0.00003481,0.00002
 704,0.00005660,0.00008097,-0.00013166,0.00000762,-0.00013182,-0.000075
 55,0.00005023,0.00000658,0.00002020,0.00000307,-0.00007080,-0.00002368
 ,0.00028032,0.00012605,0.00003271,-0.11058912,0.20570656,0.00019980,-0
 .00008402,-0.00026150,0.00040788,-0.00011252,-0.00086377,-0.00288958,0
 .00004231,-0.00012299,0.00104406,-0.00056460,-0.00008207,-0.00081389,0
 .00009827,0.00130030,-0.00022279,0.00016602,-0.00031875,0.00008106,0.0
 0003262,0.00000849,-0.00033593,0.00007062,-0.00023679,0.00043671,0.000
 12649,-0.00053233,0.00311833,0.00312185,0.00065876,-0.00641202,0.00629
 987,0.01095033,0.08931308,-0.11098459,-0.13952318,0.01415364,-0.015020
 84,-0.02252128,-0.00162693,-0.00013877,-0.00000761,-0.00005596,-0.0000
 8139,0.00006170,0.00006885,0.00004496,-0.00006112,-0.00002825,-0.00002
 140,0.00005534,-0.00009012,0.00008739,-0.00000786,0.00004966,0.0000018
 6,0.00004190,-0.00002444,0.00003859,0.00001643,0.00011928,-0.00014386,
 0.00031843,-0.09914474,0.11611510,0.15384792,0.00022763,0.00007780,-0.
 00015207,-0.00044017,0.00017173,0.00053551,-0.00032311,-0.00059027,-0.
 00153479,0.00011573,-0.00020361,0.00048634,-0.00001948,0.00033545,-0.0
 0026192,0.00023069,-0.00020156,-0.00029792,-0.00006203,-0.00005526,0.0
 0010911,0.00003471,-0.00018330,0.00021881,-0.00015507,-0.00004763,0.00
 034439,0.00061021,-0.00065952,-0.00044482,-0.00065476,0.00151661,0.003
 54209,0.00997796,-0.01288418,0.00634461,-0.15080060,0.14923802,-0.0589
 0146,-0.03549280,0.01106214,-0.01110659,-0.00000466,-0.00003817,0.0000
 1608,-0.00001371,-0.00000112,0.00004453,-0.00004874,-0.00001767,0.0000
 3109,0.00001094,-0.00001191,0.00000646,-0.00003042,-0.00001484,-0.0000
 1548,0.00001123,-0.00002045,-0.00002596,-0.00021887,-0.00013774,-0.000
 08402,0.00016568,-0.00048712,0.00025250,0.17433669,-0.00000863,0.00001
 406,0.00014818,0.00009164,-0.00004207,-0.00016001,-0.00024854,-0.00022
 344,-0.00037933,-0.00012455,-0.00014893,0.00034591,0.00012441,0.000213
 07,-0.00009893,0.00000946,-0.00006960,-0.00003452,-0.00006471,-0.00008
 824,0.00014277,0.00014385,0.00023575,0.00005558,0.00012682,-0.00030577
 ,0.00008205,0.00025192,-0.00000564,-0.00002538,0.00012870,0.00032412,0
 .00222225,0.00172249,-0.00753601,0.00442742,0.14960564,-0.26804042,0.0
 7651007,-0.01589600,0.01412815,-0.00702056,0.00000798,0.00000094,-0.00
 002610,0.00000842,-0.00000248,-0.00001006,-0.00000678,0.00000667,-0.00
 000258,-0.00001281,0.00000355,-0.00000892,-0.00004335,-0.00000587,-0.0
 0002588,0.00000528,-0.00000550,0.00000324,-0.00014533,-0.00019873,-0.0
 0018555,-0.00058546,0.00149943,-0.00126679,-0.14890415,0.27341213,0.00
 000759,0.00000007,-0.00011880,0.00003782,-0.00018142,-0.00005156,0.000
 18400,0.00113758,0.00180325,-0.00007638,0.00055199,-0.00068116,0.00034
 611,0.00009969,-0.00031534,0.00011299,-0.00011953,-0.00008152,-0.00003
 881,-0.00010344,0.00003403,-0.00002781,-0.00004000,0.00035672,0.000233
 07,-0.00010903,-0.00007324,-0.00000682,-0.00089040,-0.00027270,0.00210
 510,0.00024917,-0.00596047,-0.01567603,0.02711150,-0.00748747,-0.06000
 900,0.07820595,-0.10010491,-0.00433713,0.00082243,0.00103239,-0.000012
 28,-0.00000244,0.00001686,0.00000820,0.00001129,-0.00001973,0.00001363
 ,-0.00000745,0.00000422,0.00000836,-0.00001586,-0.00000115,-0.00003191
 ,-0.00002219,0.00000271,0.00002415,-0.00001461,-0.00000589,-0.00025765
 ,-0.00025949,0.00016294,-0.00010364,-0.00048996,0.00030559,0.05921774,
 -0.08601346,0.09671426,-0.00001203,-0.00001983,-0.00005095,-0.00014134
 ,0.00012203,0.00013653,0.00098979,0.00021066,0.00044215,-0.00016808,0.
 00010662,-0.00032005,0.00002955,0.00019750,0.00001539,0.00021137,-0.00
 010304,-0.00020290,-0.00007244,0.00001487,0.00006863,0.00008210,-0.000
 15998,0.00002606,-0.00040997,0.00009675,0.00020408,-0.00003154,-0.0007
 4431,-0.00057900,-0.00129124,0.00158666,0.00022578,-0.00741462,-0.0049
 7645,0.00079731,-0.01346979,-0.01849774,0.04052555,-0.06247842,-0.0372
 5119,0.03694153,-0.00000480,0.00000283,0.00002269,-0.00000931,-0.00000
 303,0.00001278,-0.00000502,-0.00000179,0.00000305,0.00000899,0.0000028
 4,0.00001217,0.00000202,0.00001350,-0.00000502,0.00001885,0.00002237,0
 .00001290,0.00024504,-0.00000877,-0.00028991,-0.00040762,-0.00008323,0
 .00006484,-0.00079712,0.00046041,0.00175974,0.08392159,-0.00008584,-0.
 00005061,0.00015549,0.00023759,-0.00019021,-0.00033263,-0.00013277,0.0
 0040330,0.00032949,0.00017394,-0.00016919,-0.00031106,-0.00015641,0.00
 013722,0.00023028,0.00018130,-0.00012206,-0.00022444,-0.00013489,0.000
 00715,0.00019711,0.00023057,0.00019484,-0.00031666,-0.00046760,-0.0005
 1097,0.00046617,0.00002655,0.00030784,-0.00014685,-0.00022247,0.001139
 94,0.00014594,-0.00277016,-0.00209622,0.00113051,0.00196564,-0.0066778
 0,0.01008698,-0.05917051,-0.08137490,0.15468200,-0.00000107,0.00001843
 ,-0.00001234,0.00001128,-0.00000396,-0.00001534,0.00000485,0.00002049,
 -0.00000486,0.00000655,0.00000614,-0.00000466,0.00000668,0.00004336,-0
 .00003516,0.00001285,-0.00004517,0.00000384,0.00011908,-0.00013235,-0.
 00015259,-0.00044036,0.00000700,-0.00031640,0.00153487,0.00254489,-0.0
 0040393,0.06045999,0.08813569,0.00004324,0.00003460,-0.00007523,-0.000
 07203,-0.00009927,0.00012521,0.00044031,0.00026815,-0.00026333,-0.0000
 4110,-0.00033486,-0.00003013,-0.00005822,0.00006028,0.00019503,0.00003
 519,-0.00002762,-0.00004661,-0.00002063,-0.00001747,-0.00001371,-0.000
 07916,-0.00000032,-0.00008325,-0.00000235,-0.00012692,0.00005046,-0.00
 026916,0.00021991,-0.00018118,0.00010562,-0.00054672,0.00122202,0.0009
 1169,0.00096921,-0.00133796,-0.01273050,-0.00941248,0.00875754,0.09337
 074,0.17613154,-0.37731752,-0.00000404,-0.00000534,0.00000963,-0.00000
 518,0.00000058,0.00000563,-0.00000671,-0.00000738,0.00000862,-0.000003
 13,-0.00000379,-0.00000416,0.00003486,0.00000295,0.00001772,0.00001965
 ,-0.00002768,0.00000022,0.00000732,0.00019065,0.00025503,-0.00031942,-
 0.00029257,0.00022231,0.00015901,-0.00052230,0.00103239,-0.07996590,-0
 .16610255,0.36632845,0.00009195,0.00004830,-0.00020480,-0.00027579,0.0
 0010877,0.00037426,-0.00008967,-0.00012228,-0.00011226,-0.00011575,0.0
 0020883,0.00022231,-0.00007725,-0.00031122,-0.00021266,-0.00011860,0.0
 0006674,0.00021595,0.00015623,-0.00016594,-0.00035957,-0.00033888,-0.0
 0053423,0.00131796,0.00191218,0.00165092,-0.00176925,0.00030617,-0.000
 56645,-0.00048330,-0.00037312,0.00042647,-0.00100722,-0.00170848,0.006
 22392,0.01194947,-0.05113600,0.01519312,0.00142338,-0.01984064,-0.0302
 7694,-0.02351939,-0.00000690,-0.00003215,0.00004153,-0.00000557,0.0000
 0700,0.00001886,-0.00000924,-0.00002208,0.00000701,0.00001818,-0.00000
 294,0.00003202,-0.00012283,-0.00012190,0.00003115,0.00005687,0.0000495
 7,0.00000802,-0.00245960,-0.00035272,0.00061634,0.00153955,-0.00069691
 ,0.00233495,0.00334008,0.01335328,0.01651893,0.00120405,-0.00138968,-0
 .00155011,0.06805306,-0.00007586,-0.00008177,0.00003621,0.00029418,-0.
 00064094,-0.00028606,0.00014166,0.00157201,-0.00066932,0.00079071,-0.0
 0129268,-0.00081651,-0.00154413,-0.00001427,0.00139691,0.00025221,0.00
 007262,-0.00040180,0.00021120,0.00048091,-0.00020290,-0.00030625,-0.00
 136966,-0.00158132,-0.00101685,0.00013845,-0.00006157,-0.00043246,0.00
 065547,-0.00009973,-0.00157839,0.00406121,0.00424332,0.00192031,0.0118
 8229,0.00858515,0.01495876,-0.23869290,-0.15796105,-0.01163331,-0.0038
 2837,-0.00271206,-0.00002384,0.00002019,0.00003349,0.00000855,-0.00000
 483,-0.00001248,-0.00000472,0.00002283,0.00001471,0.00002909,0.0000378
 0,0.00004440,0.00022378,0.00012590,0.00005344,-0.00004811,0.00001333,0
 .00000984,0.00285187,0.00075634,0.00012406,-0.00135113,-0.00089603,0.0
 0248921,0.00052188,-0.01571006,-0.01951645,-0.00144766,-0.00159287,-0.
 00035058,-0.00274148,0.24428503,0.00008346,0.00010274,-0.00008266,-0.0
 0038401,0.00009375,0.00046750,0.00146807,0.00002341,-0.00077931,-0.000
 43746,-0.00052209,0.00030233,0.00040277,0.00022367,0.00008389,-0.00015
 064,0.00005774,0.00014898,0.00026714,0.00010835,-0.00033781,-0.0001068
 6,-0.00064130,-0.00013056,-0.00070243,0.00002859,-0.00064018,-0.001184
 72,0.00172118,0.00000810,-0.00023840,-0.00058458,0.00187111,0.00816228
 ,-0.02099997,-0.02374507,0.00222571,-0.16064092,-0.21163823,-0.0047737
 7,-0.00177510,0.00278512,0.00000123,-0.00000636,0.00000735,-0.00002311
 ,-0.00000899,0.00003186,-0.00001847,-0.00000921,0.00000858,-0.00001634
 ,-0.00004332,-0.00002252,0.00007788,-0.00000456,0.00004055,0.00003141,
 -0.00010411,-0.00003745,0.00050899,0.00024021,0.00091372,-0.00095841,0
 .00230519,-0.00324823,0.00151675,0.01184289,0.01370860,0.00014253,0.00
 095169,0.00112279,-0.00589357,0.16764110,0.21916151\\-0.00000404,0.000
 00104,0.00000721,-0.00000161,-0.00000768,-0.00000173,0.00000322,0.0000
 0342,0.00000667,0.00000179,-0.00001057,0.00000117,-0.00000107,0.000000
 61,-0.00000067,-0.00000197,0.00000173,0.00000084,-0.00000064,-0.000005
 26,0.00000369,-0.00000383,0.00001625,0.00000897,0.00000451,-0.00001132
 ,-0.00001225,-0.00000642,0.00001621,-0.00000471,0.00001740,0.00000166,
 -0.00002110,-0.00002734,-0.00001874,0.00003836,0.00013179,0.00003518,-
 0.00002069,-0.00009429,-0.00003413,-0.00000221,-0.00000053,0.00000236,
 -0.00000120,-0.00000143,-0.00000085,0.00000350,0.00000216,0.00000223,-
 0.00000234,0.00000170,0.00000294,0.00000321,-0.00000062,0.00000288,-0.
 00000227,-0.00000230,-0.00000089,-0.00000270,-0.00000129,-0.00000269,0
 .00000868,0.00000300,0.00000023,0.00000328,-0.00000693,0.00000514,0.00
 000174,-0.00000070,0.00000452,-0.00000110,-0.00001052,-0.00000428,-0.0
 0001436\\\@


 Spring appears, and we are once more children.
                                  -- Anonymous
 Job cpu time:       0 days  0 hours 22 minutes 41.9 seconds.
 Elapsed time:       0 days  0 hours  0 minutes 57.4 seconds.
 File lengths (MBytes):  RWF=    165 Int=      0 D2E=      0 Chk=      6 Scr=      1
 Normal termination of Gaussian 16 at Mon Oct 14 02:28:19 2019.
real 383.07
user 8655.10
sys 65.38
Machine:
brown-a380
brown-a380
brown-a380
brown-a380
brown-a380
brown-a380
brown-a380
brown-a380
brown-a380
brown-a380
brown-a380
brown-a380
brown-a380
brown-a380
brown-a380
brown-a380
brown-a380
brown-a380
brown-a380
brown-a380
brown-a380
brown-a380
brown-a380
brown-a380
