 Entering Gaussian System, Link 0=/apps/cent7/gaussian/g16-A.03/g16-haswell/g16/g16
 Initial command:
 /apps/cent7/gaussian/g16-A.03/g16-haswell/g16/l1.exe "/scratch/brown/finej/gaussian/Gau-151744.inp" -scrdir="/scratch/brown/finej/gaussian/"
 Entering Link 1 = /apps/cent7/gaussian/g16-A.03/g16-haswell/g16/l1.exe PID=    151747.
  
 Copyright (c) 1988,1990,1992,1993,1995,1998,2003,2009,2016,
            Gaussian, Inc.  All Rights Reserved.
  
 This is part of the Gaussian(R) 16 program.  It is based on
 the Gaussian(R) 09 system (copyright 2009, Gaussian, Inc.),
 the Gaussian(R) 03 system (copyright 2003, Gaussian, Inc.),
 the Gaussian(R) 98 system (copyright 1998, Gaussian, Inc.),
 the Gaussian(R) 94 system (copyright 1995, Gaussian, Inc.),
 the Gaussian 92(TM) system (copyright 1992, Gaussian, Inc.),
 the Gaussian 90(TM) system (copyright 1990, Gaussian, Inc.),
 the Gaussian 88(TM) system (copyright 1988, Gaussian, Inc.),
 the Gaussian 86(TM) system (copyright 1986, Carnegie Mellon
 University), and the Gaussian 82(TM) system (copyright 1983,
 Carnegie Mellon University). Gaussian is a federally registered
 trademark of Gaussian, Inc.
  
 This software contains proprietary and confidential information,
 including trade secrets, belonging to Gaussian, Inc.
  
 This software is provided under written license and may be
 used, copied, transmitted, or stored only in accord with that
 written license.
  
 The following legend is applicable only to US Government
 contracts under FAR:
  
                    RESTRICTED RIGHTS LEGEND
  
 Use, reproduction and disclosure by the US Government is
 subject to restrictions as set forth in subparagraphs (a)
 and (c) of the Commercial Computer Software - Restricted
 Rights clause in FAR 52.227-19.
  
 Gaussian, Inc.
 340 Quinnipiac St., Bldg. 40, Wallingford CT 06492
  
  
 ---------------------------------------------------------------
 Warning -- This program may not be used in any manner that
 competes with the business of Gaussian, Inc. or will provide
 assistance to any competitor of Gaussian, Inc.  The licensee
 of this program is prohibited from giving any competitor of
 Gaussian, Inc. access to this program.  By using this program,
 the user acknowledges that Gaussian, Inc. is engaged in the
 business of creating and licensing software in the field of
 computational chemistry and represents and warrants to the
 licensee that it is not a competitor of Gaussian, Inc. and that
 it will not use this program in any manner prohibited above.
 ---------------------------------------------------------------
  

 Cite this work as:
 Gaussian 16, Revision A.03,
 M. J. Frisch, G. W. Trucks, H. B. Schlegel, G. E. Scuseria, 
 M. A. Robb, J. R. Cheeseman, G. Scalmani, V. Barone, 
 G. A. Petersson, H. Nakatsuji, X. Li, M. Caricato, A. V. Marenich, 
 J. Bloino, B. G. Janesko, R. Gomperts, B. Mennucci, H. P. Hratchian, 
 J. V. Ortiz, A. F. Izmaylov, J. L. Sonnenberg, D. Williams-Young, 
 F. Ding, F. Lipparini, F. Egidi, J. Goings, B. Peng, A. Petrone, 
 T. Henderson, D. Ranasinghe, V. G. Zakrzewski, J. Gao, N. Rega, 
 G. Zheng, W. Liang, M. Hada, M. Ehara, K. Toyota, R. Fukuda, 
 J. Hasegawa, M. Ishida, T. Nakajima, Y. Honda, O. Kitao, H. Nakai, 
 T. Vreven, K. Throssell, J. A. Montgomery, Jr., J. E. Peralta, 
 F. Ogliaro, M. J. Bearpark, J. J. Heyd, E. N. Brothers, K. N. Kudin, 
 V. N. Staroverov, T. A. Keith, R. Kobayashi, J. Normand, 
 K. Raghavachari, A. P. Rendell, J. C. Burant, S. S. Iyengar, 
 J. Tomasi, M. Cossi, J. M. Millam, M. Klene, C. Adamo, R. Cammi, 
 J. W. Ochterski, R. L. Martin, K. Morokuma, O. Farkas, 
 J. B. Foresman, and D. J. Fox, Gaussian, Inc., Wallingford CT, 2016.
 
 ******************************************
 Gaussian 16:  ES64L-G16RevA.03 25-Dec-2016
                14-Oct-2019 
 ******************************************
 %chk=8.chk
 %nprocshared=24
 Will use up to   24 processors via shared memory.
 %mem=80GB
 --------------------------------------------------------------
 #P opt freq b3lyp/6-31g(d) geom=connectivity temperature=0.001
 --------------------------------------------------------------
 1/18=20,19=15,26=3,38=1,57=2,112=-1000/1,3;
 2/9=110,12=2,17=6,18=5,40=1/2;
 3/5=1,6=6,7=1,11=2,25=1,30=1,71=1,74=-5/1,2,3;
 4//1;
 5/5=2,38=5/2;
 6/7=2,8=2,9=2,10=2,28=1/1;
 7//1,2,3,16;
 1/18=20,19=15,26=3/3(2);
 2/9=110/2;
 99//99;
 2/9=110/2;
 3/5=1,6=6,7=1,11=2,25=1,30=1,71=1,74=-5/1,2,3;
 4/5=5,16=3,69=1/1;
 5/5=2,38=5/2;
 7//1,2,3,16;
 1/18=20,19=15,26=3/3(-5);
 2/9=110/2;
 6/7=2,8=2,9=2,10=2,19=2,28=1/1;
 99/9=1/99;
 Leave Link    1 at Mon Oct 14 02:25:20 2019, MaxMem= 10737418240 cpu:               2.8 elap:               0.2
 (Enter /apps/cent7/gaussian/g16-A.03/g16-haswell/g16/l101.exe)
 -------------------
 Title Card Required
 -------------------
 Symbolic Z-matrix:
 Charge =  0 Multiplicity = 1
 C                     1.4322    0.0528   -0.406 
 N                     0.1469   -0.1452    0.2773 
 O                     0.1017    0.643     1.379 
 H                     2.2225    0.1745    0.3348 
 H                     1.6494   -0.8143   -1.0298 
 H                     1.3784    0.945    -1.0298 
 H                    -0.6173   -0.753     0.0193 
 H                     0.0695    0.0927    2.165 
 
 ITRead=  0  0  0  0  0  0  0  0
 MicOpt= -1 -1 -1 -1 -1 -1 -1 -1
 NAtoms=      8 NQM=        8 NQMF=       0 NMMI=      0 NMMIF=      0
                NMic=       0 NMicF=      0.
                    Isotopes and Nuclear Properties:
 (Nuclear quadrupole moments (NQMom) in fm**2, nuclear magnetic moments (NMagM)
  in nuclear magnetons)

  Atom         1           2           3           4           5           6           7           8
 IAtWgt=          12          14          16           1           1           1           1           1
 AtmWgt=  12.0000000  14.0030740  15.9949146   1.0078250   1.0078250   1.0078250   1.0078250   1.0078250
 NucSpn=           0           2           0           1           1           1           1           1
 AtZEff=  -0.0000000  -0.0000000  -0.0000000  -0.0000000  -0.0000000  -0.0000000  -0.0000000  -0.0000000
 NQMom=    0.0000000   2.0440000   0.0000000   0.0000000   0.0000000   0.0000000   0.0000000   0.0000000
 NMagM=    0.0000000   0.4037610   0.0000000   2.7928460   2.7928460   2.7928460   2.7928460   2.7928460
 AtZNuc=   6.0000000   7.0000000   8.0000000   1.0000000   1.0000000   1.0000000   1.0000000   1.0000000
 Leave Link  101 at Mon Oct 14 02:25:21 2019, MaxMem= 10737418240 cpu:               8.8 elap:               0.4
 (Enter /apps/cent7/gaussian/g16-A.03/g16-haswell/g16/l103.exe)

 GradGradGradGradGradGradGradGradGradGradGradGradGradGradGradGradGradGrad
 Berny optimization.
 Initialization pass.
                           ----------------------------
                           !    Initial Parameters    !
                           ! (Angstroms and Degrees)  !
 --------------------------                            --------------------------
 ! Name  Definition              Value          Derivative Info.                !
 --------------------------------------------------------------------------------
 ! R1    R(1,2)                  1.469          estimate D2E/DX2                !
 ! R2    R(1,4)                  1.09           estimate D2E/DX2                !
 ! R3    R(1,5)                  1.09           estimate D2E/DX2                !
 ! R4    R(1,6)                  1.09           estimate D2E/DX2                !
 ! R5    R(2,3)                  1.3554         estimate D2E/DX2                !
 ! R6    R(2,7)                  1.0099         estimate D2E/DX2                !
 ! R7    R(3,8)                  0.96           estimate D2E/DX2                !
 ! A1    A(2,1,4)              109.4678         estimate D2E/DX2                !
 ! A2    A(2,1,5)              109.4695         estimate D2E/DX2                !
 ! A3    A(2,1,6)              109.4715         estimate D2E/DX2                !
 ! A4    A(4,1,5)              109.4675         estimate D2E/DX2                !
 ! A5    A(4,1,6)              109.4719         estimate D2E/DX2                !
 ! A6    A(5,1,6)              109.479          estimate D2E/DX2                !
 ! A7    A(1,2,3)              109.2004         estimate D2E/DX2                !
 ! A8    A(1,2,7)              128.6325         estimate D2E/DX2                !
 ! A9    A(3,2,7)              122.1671         estimate D2E/DX2                !
 ! A10   A(2,3,8)              109.467          estimate D2E/DX2                !
 ! D1    D(4,1,2,3)             37.8809         estimate D2E/DX2                !
 ! D2    D(4,1,2,7)           -142.1223         estimate D2E/DX2                !
 ! D3    D(5,1,2,3)            157.8733         estimate D2E/DX2                !
 ! D4    D(5,1,2,7)            -22.1298         estimate D2E/DX2                !
 ! D5    D(6,1,2,3)            -82.1181         estimate D2E/DX2                !
 ! D6    D(6,1,2,7)             97.8788         estimate D2E/DX2                !
 ! D7    D(1,2,3,8)           -115.108          estimate D2E/DX2                !
 ! D8    D(7,2,3,8)             64.8948         estimate D2E/DX2                !
 --------------------------------------------------------------------------------
 Trust Radius=3.00D-01 FncErr=1.00D-07 GrdErr=1.00D-06 EigMax=2.50D+02 EigMin=1.00D-04
 Number of steps in this run=     35 maximum allowed number of steps=    100.
 GradGradGradGradGradGradGradGradGradGradGradGradGradGradGradGradGradGrad

 Leave Link  103 at Mon Oct 14 02:25:22 2019, MaxMem= 10737418240 cpu:               0.5 elap:               0.2
 (Enter /apps/cent7/gaussian/g16-A.03/g16-haswell/g16/l202.exe)
                          Input orientation:                          
 ---------------------------------------------------------------------
 Center     Atomic      Atomic             Coordinates (Angstroms)
 Number     Number       Type             X           Y           Z
 ---------------------------------------------------------------------
      1          6           0        1.432200    0.052800   -0.406000
      2          7           0        0.146900   -0.145200    0.277300
      3          8           0        0.101700    0.643000    1.379000
      4          1           0        2.222500    0.174500    0.334800
      5          1           0        1.649400   -0.814300   -1.029800
      6          1           0        1.378400    0.945000   -1.029800
      7          1           0       -0.617300   -0.753000    0.019300
      8          1           0        0.069500    0.092700    2.165000
 ---------------------------------------------------------------------
                    Distance matrix (angstroms):
                    1          2          3          4          5
     1  C    0.000000
     2  N    1.469047   0.000000
     3  O    2.303213   1.355376   0.000000
     4  H    1.090032   2.100864   2.409904   0.000000
     5  H    1.090030   2.100883   3.212696   1.779973   0.000000
     6  H    1.089973   2.100866   2.742897   1.779974   1.780050
     7  H    2.242910   1.009944   2.077152   3.004041   2.498459
     8  H    2.910083   1.904205   0.960033   2.826965   3.677700
                    6          7          8
     6  H    0.000000
     7  H    2.822523   0.000000
     8  H    3.556175   2.406435   0.000000
 Stoichiometry    CH5NO
 Framework group  C1[X(CH5NO)]
 Deg. of freedom    18
 Full point group                 C1      NOp   1
 Largest Abelian subgroup         C1      NOp   1
 Largest concise Abelian subgroup C1      NOp   1
                         Standard orientation:                         
 ---------------------------------------------------------------------
 Center     Atomic      Atomic             Coordinates (Angstroms)
 Number     Number       Type             X           Y           Z
 ---------------------------------------------------------------------
      1          6           0        1.171391   -0.219041   -0.020129
      2          7           0       -0.084010    0.543048    0.015749
      3          8           0       -1.126465   -0.318967    0.100968
      4          1           0        1.030434   -1.123679   -0.611679
      5          1           0        1.954160    0.391291   -0.470610
      6          1           0        1.460949   -0.490218    0.995086
      7          1           0       -0.215094    1.543988   -0.014625
      8          1           0       -1.659013   -0.256732   -0.695387
 ---------------------------------------------------------------------
 Rotational constants (GHZ):          39.9081761          10.3385858           8.8492860
 Leave Link  202 at Mon Oct 14 02:25:22 2019, MaxMem= 10737418240 cpu:               3.9 elap:               0.2
 (Enter /apps/cent7/gaussian/g16-A.03/g16-haswell/g16/l301.exe)
 Standard basis: 6-31G(d) (6D, 7F)
 Ernie: Thresh=  0.10000D-02 Tol=  0.10000D-05 Strict=F.
 There are    55 symmetry adapted cartesian basis functions of A   symmetry.
 There are    55 symmetry adapted basis functions of A   symmetry.
    55 basis functions,   104 primitive gaussians,    55 cartesian basis functions
    13 alpha electrons       13 beta electrons
       nuclear repulsion energy        83.4019831488 Hartrees.
 IExCor=  402 DFT=T Ex+Corr=B3LYP ExCW=0 ScaHFX=  0.200000
 ScaDFX=  0.800000  0.720000  1.000000  0.810000 ScalE2=  1.000000  1.000000
 IRadAn=      5 IRanWt=     -1 IRanGd=            0 ICorTp=0 IEmpDi=  4
 NAtoms=    8 NActive=    8 NUniq=    8 SFac= 1.00D+00 NAtFMM=   60 NAOKFM=F Big=F
 Integral buffers will be    131072 words long.
 Raffenetti 2 integral format.
 Two-electron integral symmetry is turned on.
 Leave Link  301 at Mon Oct 14 02:25:23 2019, MaxMem= 10737418240 cpu:               1.8 elap:               0.1
 (Enter /apps/cent7/gaussian/g16-A.03/g16-haswell/g16/l302.exe)
 NPDir=0 NMtPBC=     1 NCelOv=     1 NCel=       1 NClECP=     1 NCelD=      1
         NCelK=      1 NCelE2=     1 NClLst=     1 CellRange=     0.0.
 One-electron integrals computed using PRISM.
 One-electron integral symmetry used in STVInt
 NBasis=    55 RedAO= T EigKep=  7.39D-03  NBF=    55
 NBsUse=    55 1.00D-06 EigRej= -1.00D+00 NBFU=    55
 Precomputing XC quadrature grid using
 IXCGrd= 4 IRadAn=           5 IRanWt=          -1 IRanGd=           0 AccXCQ= 0.00D+00.
 Generated NRdTot=       0 NPtTot=           0 NUsed=           0 NTot=          32
 NSgBfM=    55    55    55    55    55 MxSgAt=     8 MxSgA2=     8.
 Leave Link  302 at Mon Oct 14 02:25:23 2019, MaxMem= 10737418240 cpu:               3.6 elap:               0.2
 (Enter /apps/cent7/gaussian/g16-A.03/g16-haswell/g16/l303.exe)
 DipDrv:  MaxL=1.
 Leave Link  303 at Mon Oct 14 02:25:23 2019, MaxMem= 10737418240 cpu:               1.0 elap:               0.1
 (Enter /apps/cent7/gaussian/g16-A.03/g16-haswell/g16/l401.exe)
 ExpMin= 1.61D-01 ExpMax= 5.48D+03 ExpMxC= 8.25D+02 IAcc=3 IRadAn=         5 AccDes= 0.00D+00
 Harris functional with IExCor=  402 and IRadAn=       5 diagonalized for initial guess.
 HarFok:  IExCor=  402 AccDes= 0.00D+00 IRadAn=         5 IDoV= 1 UseB2=F ITyADJ=14
 ICtDFT=  3500011 ScaDFX=  1.000000  1.000000  1.000000  1.000000
 FoFCou: FMM=F IPFlag=           0 FMFlag=      100000 FMFlg1=           0
         NFxFlg=           0 DoJE=T BraDBF=F KetDBF=T FulRan=T
         wScrn=  0.000000 ICntrl=       500 IOpCl=  0 I1Cent=   200000004 NGrid=           0
         NMat0=    1 NMatS0=      1 NMatT0=    0 NMatD0=    1 NMtDS0=    0 NMtDT0=    0
 Petite list used in FoFCou.
 Harris En= -171.005374365155    
 JPrj=0 DoOrth=F DoCkMO=F.
 Leave Link  401 at Mon Oct 14 02:25:24 2019, MaxMem= 10737418240 cpu:               4.4 elap:               0.2
 (Enter /apps/cent7/gaussian/g16-A.03/g16-haswell/g16/l502.exe)
 Keep R1 ints in memory in canonical form, NReq=22202517.
 FoFCou: FMM=F IPFlag=           0 FMFlag=           0 FMFlg1=           0
         NFxFlg=           0 DoJE=F BraDBF=F KetDBF=F FulRan=T
         wScrn=  0.000000 ICntrl=       600 IOpCl=  0 I1Cent=           0 NGrid=           0
         NMat0=    1 NMatS0=   1540 NMatT0=    0 NMatD0=    1 NMtDS0=    0 NMtDT0=    0
 Symmetry not used in FoFCou.
 Two-electron integral symmetry not used.
 Closed shell SCF:
 Using DIIS extrapolation, IDIIS=  1040.
 NGot= 10737418240 LenX= 10736223473 LenY= 10736220007
 Requested convergence on RMS density matrix=1.00D-08 within 128 cycles.
 Requested convergence on MAX density matrix=1.00D-06.
 Requested convergence on             energy=1.00D-06.
 No special actions if energy rises.
 Integral accuracy reduced to 1.0D-05 until final iterations.

 Cycle   1  Pass 0  IDiag  1:
 E= -170.896258564054    
 DIIS: error= 4.09D-02 at cycle   1 NSaved=   1.
 NSaved= 1 IEnMin= 1 EnMin= -170.896258564054     IErMin= 1 ErrMin= 4.09D-02
 ErrMax= 4.09D-02  0.00D+00 EMaxC= 1.00D-01 BMatC= 9.61D-02 BMatP= 9.61D-02
 IDIUse=3 WtCom= 5.91D-01 WtEn= 4.09D-01
 Coeff-Com:  0.100D+01
 Coeff-En:   0.100D+01
 Coeff:      0.100D+01
 Gap=     0.270 Goal=   None    Shift=    0.000
 GapD=    0.270 DampG=1.000 DampE=0.500 DampFc=0.5000 IDamp=-1.
 Damping current iteration by 5.00D-01
 RMSDP=1.15D-02 MaxDP=1.15D-01              OVMax= 1.50D-01

 Cycle   2  Pass 0  IDiag  1:
 E= -170.936516225970     Delta-E=       -0.040257661917 Rises=F Damp=T
 DIIS: error= 7.33D-03 at cycle   2 NSaved=   2.
 NSaved= 2 IEnMin= 2 EnMin= -170.936516225970     IErMin= 2 ErrMin= 7.33D-03
 ErrMax= 7.33D-03  0.00D+00 EMaxC= 1.00D-01 BMatC= 5.03D-03 BMatP= 9.61D-02
 IDIUse=3 WtCom= 9.27D-01 WtEn= 7.33D-02
 Coeff-Com:  0.823D-01 0.918D+00
 Coeff-En:   0.120D+00 0.880D+00
 Coeff:      0.850D-01 0.915D+00
 Gap=     0.261 Goal=   None    Shift=    0.000
 RMSDP=1.57D-03 MaxDP=1.18D-02 DE=-4.03D-02 OVMax= 7.64D-02

 Cycle   3  Pass 0  IDiag  1:
 E= -170.986176929357     Delta-E=       -0.049660703387 Rises=F Damp=F
 DIIS: error= 2.68D-03 at cycle   3 NSaved=   3.
 NSaved= 3 IEnMin= 3 EnMin= -170.986176929357     IErMin= 3 ErrMin= 2.68D-03
 ErrMax= 2.68D-03  0.00D+00 EMaxC= 1.00D-01 BMatC= 9.42D-04 BMatP= 5.03D-03
 IDIUse=3 WtCom= 9.73D-01 WtEn= 2.68D-02
 Coeff-Com:  0.156D-02 0.262D+00 0.736D+00
 Coeff-En:   0.000D+00 0.000D+00 0.100D+01
 Coeff:      0.152D-02 0.255D+00 0.743D+00
 Gap=     0.265 Goal=   None    Shift=    0.000
 RMSDP=6.37D-04 MaxDP=8.26D-03 DE=-4.97D-02 OVMax= 8.42D-03

 Cycle   4  Pass 0  IDiag  1:
 E= -170.986598859125     Delta-E=       -0.000421929768 Rises=F Damp=F
 DIIS: error= 1.72D-03 at cycle   4 NSaved=   4.
 NSaved= 4 IEnMin= 4 EnMin= -170.986598859125     IErMin= 4 ErrMin= 1.72D-03
 ErrMax= 1.72D-03  0.00D+00 EMaxC= 1.00D-01 BMatC= 3.71D-04 BMatP= 9.42D-04
 IDIUse=3 WtCom= 9.83D-01 WtEn= 1.72D-02
 Coeff-Com: -0.202D-02 0.665D-01 0.402D+00 0.533D+00
 Coeff-En:   0.000D+00 0.000D+00 0.282D+00 0.718D+00
 Coeff:     -0.198D-02 0.654D-01 0.400D+00 0.536D+00
 Gap=     0.263 Goal=   None    Shift=    0.000
 RMSDP=2.92D-04 MaxDP=3.65D-03 DE=-4.22D-04 OVMax= 4.04D-03

 Cycle   5  Pass 0  IDiag  1:
 E= -170.986879717106     Delta-E=       -0.000280857980 Rises=F Damp=F
 DIIS: error= 4.06D-04 at cycle   5 NSaved=   5.
 NSaved= 5 IEnMin= 5 EnMin= -170.986879717106     IErMin= 5 ErrMin= 4.06D-04
 ErrMax= 4.06D-04  0.00D+00 EMaxC= 1.00D-01 BMatC= 1.22D-05 BMatP= 3.71D-04
 IDIUse=3 WtCom= 9.96D-01 WtEn= 4.06D-03
 Coeff-Com: -0.257D-03 0.323D-02 0.987D-01 0.216D+00 0.683D+00
 Coeff-En:   0.000D+00 0.000D+00 0.000D+00 0.000D+00 0.100D+01
 Coeff:     -0.256D-03 0.322D-02 0.983D-01 0.215D+00 0.684D+00
 Gap=     0.264 Goal=   None    Shift=    0.000
 RMSDP=5.52D-05 MaxDP=7.17D-04 DE=-2.81D-04 OVMax= 7.05D-04

 Cycle   6  Pass 0  IDiag  1:
 E= -170.986888314906     Delta-E=       -0.000008597801 Rises=F Damp=F
 DIIS: error= 1.18D-04 at cycle   6 NSaved=   6.
 NSaved= 6 IEnMin= 6 EnMin= -170.986888314906     IErMin= 6 ErrMin= 1.18D-04
 ErrMax= 1.18D-04  0.00D+00 EMaxC= 1.00D-01 BMatC= 1.19D-06 BMatP= 1.22D-05
 IDIUse=3 WtCom= 9.99D-01 WtEn= 1.18D-03
 Coeff-Com: -0.447D-05-0.578D-03 0.424D-01 0.103D+00 0.382D+00 0.473D+00
 Coeff-En:   0.000D+00 0.000D+00 0.000D+00 0.000D+00 0.000D+00 0.100D+01
 Coeff:     -0.447D-05-0.578D-03 0.423D-01 0.103D+00 0.382D+00 0.473D+00
 Gap=     0.263 Goal=   None    Shift=    0.000
 RMSDP=1.48D-05 MaxDP=2.77D-04 DE=-8.60D-06 OVMax= 2.31D-04

 Cycle   7  Pass 0  IDiag  1:
 E= -170.986889258503     Delta-E=       -0.000000943597 Rises=F Damp=F
 DIIS: error= 7.83D-06 at cycle   7 NSaved=   7.
 NSaved= 7 IEnMin= 7 EnMin= -170.986889258503     IErMin= 7 ErrMin= 7.83D-06
 ErrMax= 7.83D-06  0.00D+00 EMaxC= 1.00D-01 BMatC= 8.74D-09 BMatP= 1.19D-06
 IDIUse=1 WtCom= 1.00D+00 WtEn= 0.00D+00
 Coeff-Com:  0.493D-04-0.397D-03 0.618D-02 0.167D-01 0.691D-01 0.129D+00
 Coeff-Com:  0.779D+00
 Coeff:      0.493D-04-0.397D-03 0.618D-02 0.167D-01 0.691D-01 0.129D+00
 Coeff:      0.779D+00
 Gap=     0.263 Goal=   None    Shift=    0.000
 RMSDP=2.05D-06 MaxDP=1.99D-05 DE=-9.44D-07 OVMax= 2.65D-05

 Initial convergence to 1.0D-05 achieved.  Increase integral accuracy.
 Cycle   8  Pass 1  IDiag  1:
 E= -170.986892916897     Delta-E=       -0.000003658394 Rises=F Damp=F
 DIIS: error= 1.62D-06 at cycle   1 NSaved=   1.
 NSaved= 1 IEnMin= 1 EnMin= -170.986892916897     IErMin= 1 ErrMin= 1.62D-06
 ErrMax= 1.62D-06  0.00D+00 EMaxC= 1.00D-01 BMatC= 3.39D-10 BMatP= 3.39D-10
 IDIUse=1 WtCom= 1.00D+00 WtEn= 0.00D+00
 Coeff-Com:  0.100D+01
 Coeff:      0.100D+01
 Gap=     0.263 Goal=   None    Shift=    0.000
 RMSDP=2.05D-06 MaxDP=1.99D-05 DE=-3.66D-06 OVMax= 9.98D-06

 Cycle   9  Pass 1  IDiag  1:
 E= -170.986892917132     Delta-E=       -0.000000000234 Rises=F Damp=F
 DIIS: error= 1.30D-06 at cycle   2 NSaved=   2.
 NSaved= 2 IEnMin= 2 EnMin= -170.986892917132     IErMin= 2 ErrMin= 1.30D-06
 ErrMax= 1.30D-06  0.00D+00 EMaxC= 1.00D-01 BMatC= 2.04D-10 BMatP= 3.39D-10
 IDIUse=1 WtCom= 1.00D+00 WtEn= 0.00D+00
 Coeff-Com:  0.422D+00 0.578D+00
 Coeff:      0.422D+00 0.578D+00
 Gap=     0.263 Goal=   None    Shift=    0.000
 RMSDP=2.69D-07 MaxDP=3.92D-06 DE=-2.34D-10 OVMax= 3.96D-06

 Cycle  10  Pass 1  IDiag  1:
 E= -170.986892917275     Delta-E=       -0.000000000143 Rises=F Damp=F
 DIIS: error= 6.36D-07 at cycle   3 NSaved=   3.
 NSaved= 3 IEnMin= 3 EnMin= -170.986892917275     IErMin= 3 ErrMin= 6.36D-07
 ErrMax= 6.36D-07  0.00D+00 EMaxC= 1.00D-01 BMatC= 3.68D-11 BMatP= 2.04D-10
 IDIUse=1 WtCom= 1.00D+00 WtEn= 0.00D+00
 Coeff-Com:  0.818D-01 0.304D+00 0.615D+00
 Coeff:      0.818D-01 0.304D+00 0.615D+00
 Gap=     0.263 Goal=   None    Shift=    0.000
 RMSDP=8.63D-08 MaxDP=1.38D-06 DE=-1.43D-10 OVMax= 1.21D-06

 Cycle  11  Pass 1  IDiag  1:
 E= -170.986892917302     Delta-E=       -0.000000000027 Rises=F Damp=F
 DIIS: error= 1.11D-07 at cycle   4 NSaved=   4.
 NSaved= 4 IEnMin= 4 EnMin= -170.986892917302     IErMin= 4 ErrMin= 1.11D-07
 ErrMax= 1.11D-07  0.00D+00 EMaxC= 1.00D-01 BMatC= 1.42D-12 BMatP= 3.68D-11
 IDIUse=1 WtCom= 1.00D+00 WtEn= 0.00D+00
 Coeff-Com: -0.225D-02 0.688D-01 0.231D+00 0.702D+00
 Coeff:     -0.225D-02 0.688D-01 0.231D+00 0.702D+00
 Gap=     0.263 Goal=   None    Shift=    0.000
 RMSDP=2.21D-08 MaxDP=2.84D-07 DE=-2.68D-11 OVMax= 2.56D-07

 Cycle  12  Pass 1  IDiag  1:
 E= -170.986892917302     Delta-E=       -0.000000000001 Rises=F Damp=F
 DIIS: error= 4.71D-08 at cycle   5 NSaved=   5.
 NSaved= 5 IEnMin= 5 EnMin= -170.986892917302     IErMin= 5 ErrMin= 4.71D-08
 ErrMax= 4.71D-08  0.00D+00 EMaxC= 1.00D-01 BMatC= 1.99D-13 BMatP= 1.42D-12
 IDIUse=1 WtCom= 1.00D+00 WtEn= 0.00D+00
 Coeff-Com: -0.553D-02 0.205D-01 0.912D-01 0.373D+00 0.521D+00
 Coeff:     -0.553D-02 0.205D-01 0.912D-01 0.373D+00 0.521D+00
 Gap=     0.263 Goal=   None    Shift=    0.000
 RMSDP=7.39D-09 MaxDP=8.11D-08 DE=-5.12D-13 OVMax= 8.98D-08

 SCF Done:  E(RB3LYP) =  -170.986892917     A.U. after   12 cycles
            NFock= 12  Conv=0.74D-08     -V/T= 2.0084
 KE= 1.695597013293D+02 PE=-5.672749835699D+02 EE= 1.433264061745D+02
 Leave Link  502 at Mon Oct 14 02:25:24 2019, MaxMem= 10737418240 cpu:              10.7 elap:               0.5
 (Enter /apps/cent7/gaussian/g16-A.03/g16-haswell/g16/l601.exe)
 Copying SCF densities to generalized density rwf, IOpCl= 0 IROHF=0.

 **********************************************************************

            Population analysis using the SCF density.

 **********************************************************************

 Orbital symmetries:
       Occupied  (A) (A) (A) (A) (A) (A) (A) (A) (A) (A) (A) (A)
                 (A)
       Virtual   (A) (A) (A) (A) (A) (A) (A) (A) (A) (A) (A) (A)
                 (A) (A) (A) (A) (A) (A) (A) (A) (A) (A) (A) (A)
                 (A) (A) (A) (A) (A) (A) (A) (A) (A) (A) (A) (A)
                 (A) (A) (A) (A) (A) (A)
 The electronic state is 1-A.
 Alpha  occ. eigenvalues --  -19.16097 -14.34301 -10.19824  -1.06598  -0.80427
 Alpha  occ. eigenvalues --   -0.65715  -0.55215  -0.45317  -0.42985  -0.39502
 Alpha  occ. eigenvalues --   -0.37721  -0.28984  -0.17845
 Alpha virt. eigenvalues --    0.08496   0.09901   0.13630   0.16683   0.18965
 Alpha virt. eigenvalues --    0.22323   0.25203   0.53510   0.58049   0.58761
 Alpha virt. eigenvalues --    0.70276   0.76421   0.79790   0.83070   0.86463
 Alpha virt. eigenvalues --    0.88279   0.91274   0.94085   0.97062   0.99940
 Alpha virt. eigenvalues --    1.06684   1.15947   1.28389   1.36634   1.45064
 Alpha virt. eigenvalues --    1.59862   1.74345   1.87996   1.93440   2.03619
 Alpha virt. eigenvalues --    2.07836   2.18682   2.20364   2.30920   2.43367
 Alpha virt. eigenvalues --    2.50955   2.63127   2.72514   2.82976   3.65589
 Alpha virt. eigenvalues --    3.81922   4.27772
          Condensed to atoms (all electrons):
               1          2          3          4          5          6
     1  C    4.925991   0.328101  -0.069710   0.368398   0.355171   0.389590
     2  N    0.328101   6.769598   0.140782  -0.041505  -0.032191  -0.064410
     3  O   -0.069710   0.140782   8.223360   0.005367   0.004873   0.003597
     4  H    0.368398  -0.041505   0.005367   0.576841  -0.018480  -0.048641
     5  H    0.355171  -0.032191   0.004873  -0.018480   0.594919  -0.040310
     6  H    0.389590  -0.064410   0.003597  -0.048641  -0.040310   0.612057
     7  H   -0.043305   0.329381  -0.027470   0.003509   0.002045   0.001921
     8  H    0.002860  -0.050474   0.223538   0.003689  -0.000247  -0.001091
               7          8
     1  C   -0.043305   0.002860
     2  N    0.329381  -0.050474
     3  O   -0.027470   0.223538
     4  H    0.003509   0.003689
     5  H    0.002045  -0.000247
     6  H    0.001921  -0.001091
     7  H    0.419364  -0.001696
     8  H   -0.001696   0.431290
 Mulliken charges:
               1
     1  C   -0.257096
     2  N   -0.379280
     3  O   -0.504336
     4  H    0.150823
     5  H    0.134220
     6  H    0.147286
     7  H    0.316252
     8  H    0.392131
 Sum of Mulliken charges =  -0.00000
 Mulliken charges with hydrogens summed into heavy atoms:
               1
     1  C    0.175233
     2  N   -0.063028
     3  O   -0.112205
 Electronic spatial extent (au):  <R**2>=            174.1369
 Charge=             -0.0000 electrons
 Dipole moment (field-independent basis, Debye):
    X=              0.1076    Y=              1.0973    Z=             -1.5301  Tot=              1.8860
 Quadrupole moment (field-independent basis, Debye-Ang):
   XX=            -16.9907   YY=            -16.9951   ZZ=            -19.2759
   XY=             -0.6641   XZ=              2.4373   YZ=              0.3737
 Traceless Quadrupole moment (field-independent basis, Debye-Ang):
   XX=              0.7632   YY=              0.7588   ZZ=             -1.5220
   XY=             -0.6641   XZ=              2.4373   YZ=              0.3737
 Octapole moment (field-independent basis, Debye-Ang**2):
  XXX=             -9.3014  YYY=              5.1599  ZZZ=             -0.7140  XYY=             -2.1480
  XXY=              0.4266  XXZ=             -4.7236  XZZ=             -2.9265  YZZ=             -0.9756
  YYZ=             -0.7390  XYZ=             -0.7860
 Hexadecapole moment (field-independent basis, Debye-Ang**3):
 XXXX=           -131.6107 YYYY=            -38.0224 ZZZZ=            -25.8700 XXXY=              3.7130
 XXXZ=              6.9854 YYYX=             -0.1613 YYYZ=              0.4781 ZZZX=              2.5985
 ZZZY=              0.0826 XXYY=            -30.4724 XXZZ=            -25.5730 YYZZ=            -12.4746
 XXYZ=              0.6014 YYXZ=              0.0827 ZZXY=              0.5380
 N-N= 8.340198314882D+01 E-N=-5.672749847800D+02  KE= 1.695597013293D+02
 No NMR shielding tensors so no spin-rotation constants.
 Leave Link  601 at Mon Oct 14 02:25:24 2019, MaxMem= 10737418240 cpu:               2.9 elap:               0.2
 (Enter /apps/cent7/gaussian/g16-A.03/g16-haswell/g16/l701.exe)
 ... and contract with generalized density number  0.
 Compute integral first derivatives.
 Leave Link  701 at Mon Oct 14 02:25:25 2019, MaxMem= 10737418240 cpu:               2.1 elap:               0.2
 (Enter /apps/cent7/gaussian/g16-A.03/g16-haswell/g16/l702.exe)
 L702 exits ... SP integral derivatives will be done elsewhere.
 Leave Link  702 at Mon Oct 14 02:25:25 2019, MaxMem= 10737418240 cpu:               1.2 elap:               0.1
 (Enter /apps/cent7/gaussian/g16-A.03/g16-haswell/g16/l703.exe)
 Integral derivatives from FoFJK, PRISM(SPDF).
 Compute integral first derivatives, UseDBF=F ICtDFT=           0.
 Calling FoFJK, ICntrl=      2127 FMM=F ISym2X=0 I1Cent= 0 IOpClX= 0 NMat=1 NMatS=1 NMatT=0.
 FoFJK:  IHMeth= 1 ICntrl=    2127 DoSepK=F KAlg= 0 I1Cent=           0 FoldK=F
 IRaf=         0 NMat=       1 IRICut=       1 DoRegI=T DoRafI=F ISym2E= 0 IDoP0=0 IntGTp=1.
 FoFCou: FMM=F IPFlag=           0 FMFlag=      100000 FMFlg1=         800
         NFxFlg=           0 DoJE=F BraDBF=F KetDBF=F FulRan=T
         wScrn=  0.000000 ICntrl=      2127 IOpCl=  0 I1Cent=           0 NGrid=           0
         NMat0=    1 NMatS0=      1 NMatT0=    0 NMatD0=    1 NMtDS0=    0 NMtDT0=    0
 Symmetry not used in FoFCou.
 Leave Link  703 at Mon Oct 14 02:25:25 2019, MaxMem= 10737418240 cpu:               6.6 elap:               0.3
 (Enter /apps/cent7/gaussian/g16-A.03/g16-haswell/g16/l716.exe)
 Dipole        = 4.23260486D-02 4.31712323D-01-6.01989504D-01
 ***** Axes restored to original set *****
 -------------------------------------------------------------------
 Center     Atomic                   Forces (Hartrees/Bohr)
 Number     Number              X              Y              Z
 -------------------------------------------------------------------
      1        6          -0.030085336   -0.012418043   -0.000742601
      2        7           0.041623929   -0.018073624   -0.025925672
      3        8          -0.027791215    0.034515178    0.021699250
      4        1           0.001406782   -0.001308985    0.002584384
      5        1           0.002174719   -0.002351010   -0.004263613
      6        1           0.006512135    0.005648904   -0.005071126
      7        1           0.000722000    0.006648403    0.001638345
      8        1           0.005436987   -0.012660823    0.010081033
 -------------------------------------------------------------------
 Cartesian Forces:  Max     0.041623929 RMS     0.016712612
 Leave Link  716 at Mon Oct 14 02:25:25 2019, MaxMem= 10737418240 cpu:               0.9 elap:               0.1
 (Enter /apps/cent7/gaussian/g16-A.03/g16-haswell/g16/l103.exe)

 GradGradGradGradGradGradGradGradGradGradGradGradGradGradGradGradGradGrad
 Berny optimization.
 FormGI is forming the generalized inverse of G from B-inverse, IUseBI=4.
 Internal  Forces:  Max     0.039286821 RMS     0.012592766
 Search for a local minimum.
 Step number   1 out of a maximum of   35
 All quantities printed in internal units (Hartrees-Bohrs-Radians)
 RMS Force = .12593D-01 SwitMx=.10000D-02 MixMth= 1
 Mixed Optimization -- RFO/linear search
 Second derivative matrix not updated -- first step.
 ITU=  0
     Eigenvalues ---    0.00778   0.01023   0.01885   0.07543   0.07544
     Eigenvalues ---    0.16000   0.16000   0.16000   0.16000   0.16000
     Eigenvalues ---    0.22000   0.34809   0.34809   0.34816   0.35855
     Eigenvalues ---    0.45982   0.53893   0.55466
 RFO step:  Lambda=-1.45632421D-02 EMin= 7.78421437D-03
 Linear search not attempted -- first point.
 Iteration  1 RMS(Cart)=  0.06921251 RMS(Int)=  0.00813083
 Iteration  2 RMS(Cart)=  0.00648538 RMS(Int)=  0.00057836
 Iteration  3 RMS(Cart)=  0.00008353 RMS(Int)=  0.00057110
 Iteration  4 RMS(Cart)=  0.00000001 RMS(Int)=  0.00057110
 ITry= 1 IFail=0 DXMaxC= 2.33D-01 DCOld= 1.00D+10 DXMaxT= 3.00D-01 DXLimC= 3.00D+00 Rises=F
 Variable       Old X    -DE/DX   Delta X   Delta X   Delta X     New X
                                 (Linear)    (Quad)   (Total)
    R1        2.77610  -0.01541   0.00000  -0.04131  -0.04131   2.73479
    R2        2.05986   0.00263   0.00000   0.00725   0.00725   2.06711
    R3        2.05986   0.00474   0.00000   0.01308   0.01308   2.07294
    R4        2.05975   0.00720   0.00000   0.01986   0.01986   2.07961
    R5        2.56129   0.03929   0.00000   0.07098   0.07098   2.63227
    R6        1.90852  -0.00497   0.00000  -0.01047  -0.01047   1.89805
    R7        1.81420   0.01533   0.00000   0.02693   0.02693   1.84113
    A1        1.91057  -0.00410   0.00000  -0.02725  -0.02715   1.88342
    A2        1.91060   0.00174   0.00000   0.00933   0.00881   1.91942
    A3        1.91064   0.01042   0.00000   0.06410   0.06379   1.97443
    A4        1.91057  -0.00087   0.00000  -0.01379  -0.01390   1.89667
    A5        1.91065  -0.00286   0.00000  -0.01509  -0.01480   1.89584
    A6        1.91077  -0.00433   0.00000  -0.01731  -0.01814   1.89263
    A7        1.90591   0.03179   0.00000   0.13555   0.13413   2.04003
    A8        2.24506  -0.01305   0.00000  -0.05144  -0.05288   2.19218
    A9        2.13222  -0.01875   0.00000  -0.08412  -0.08553   2.04669
   A10        1.91056  -0.00858   0.00000  -0.04914  -0.04914   1.86142
    D1        0.66115   0.00354   0.00000   0.12079   0.12070   0.78185
    D2       -2.48050   0.00101   0.00000   0.01852   0.01829  -2.46221
    D3        2.75541   0.00104   0.00000   0.09293   0.09273   2.84813
    D4       -0.38624  -0.00150   0.00000  -0.00933  -0.00968  -0.39592
    D5       -1.43323   0.00318   0.00000   0.11671   0.11722  -1.31601
    D6        1.70831   0.00064   0.00000   0.01445   0.01481   1.72312
    D7       -2.00901   0.00383   0.00000   0.10242   0.10278  -1.90623
    D8        1.13263   0.00617   0.00000   0.19679   0.19643   1.32906
         Item               Value     Threshold  Converged?
 Maximum Force            0.039287     0.000450     NO 
 RMS     Force            0.012593     0.000300     NO 
 Maximum Displacement     0.232657     0.001800     NO 
 RMS     Displacement     0.067870     0.001200     NO 
 Predicted change in Energy=-8.254766D-03
 Lowest energy point so far.  Saving SCF results.
 GradGradGradGradGradGradGradGradGradGradGradGradGradGradGradGradGradGrad

 Leave Link  103 at Mon Oct 14 02:25:25 2019, MaxMem= 10737418240 cpu:               2.6 elap:               0.1
 (Enter /apps/cent7/gaussian/g16-A.03/g16-haswell/g16/l202.exe)
                          Input orientation:                          
 ---------------------------------------------------------------------
 Center     Atomic      Atomic             Coordinates (Angstroms)
 Number     Number       Type             X           Y           Z
 ---------------------------------------------------------------------
      1          6           0        1.426739    0.051195   -0.424213
      2          7           0        0.191420   -0.144908    0.303720
      3          8           0       -0.021417    0.668838    1.414032
      4          1           0        2.237462    0.135038    0.305341
      5          1           0        1.622930   -0.814034   -1.069340
      6          1           0        1.421117    0.957094   -1.049018
      7          1           0       -0.557741   -0.755527    0.030352
      8          1           0        0.062790    0.097804    2.198925
 ---------------------------------------------------------------------
                    Distance matrix (angstroms):
                    1          2          3          4          5
     1  C    0.000000
     2  N    1.447189   0.000000
     3  O    2.420285   1.392937   0.000000
     4  H    1.093870   2.065106   2.572289   0.000000
     5  H    1.096951   2.093381   3.327149   1.779926   0.000000
     6  H    1.100485   2.134588   2.868904   1.782269   1.782705
     7  H    2.189884   1.004404   2.056946   2.946505   2.442964
     8  H    2.956920   1.915008   0.974283   2.883790   3.734573
                    6          7          8
     6  H    0.000000
     7  H    2.830899   0.000000
     8  H    3.623888   2.411626   0.000000
 Stoichiometry    CH5NO
 Framework group  C1[X(CH5NO)]
 Deg. of freedom    18
 Full point group                 C1      NOp   1
 RotChk:  IX=0 Diff= 8.69D-02
 Largest Abelian subgroup         C1      NOp   1
 Largest concise Abelian subgroup C1      NOp   1
                         Standard orientation:                         
 ---------------------------------------------------------------------
 Center     Atomic      Atomic             Coordinates (Angstroms)
 Number     Number       Type             X           Y           Z
 ---------------------------------------------------------------------
      1          6           0        1.208717   -0.209612   -0.013746
      2          7           0       -0.055735    0.494083    0.004418
      3          8           0       -1.207291   -0.282439    0.110287
      4          1           0        1.109110   -1.063006   -0.690760
      5          1           0        1.998990    0.449577   -0.393535
      6          1           0        1.511202   -0.580572    0.977192
      7          1           0       -0.169394    1.491683    0.030963
      8          1           0       -1.653737   -0.239084   -0.754602
 ---------------------------------------------------------------------
 Rotational constants (GHZ):          43.9025787           9.4542233           8.3791225
 Leave Link  202 at Mon Oct 14 02:25:25 2019, MaxMem= 10737418240 cpu:               0.3 elap:               0.0
 (Enter /apps/cent7/gaussian/g16-A.03/g16-haswell/g16/l301.exe)
 Standard basis: 6-31G(d) (6D, 7F)
 Ernie: Thresh=  0.10000D-02 Tol=  0.10000D-05 Strict=F.
 There are    55 symmetry adapted cartesian basis functions of A   symmetry.
 There are    55 symmetry adapted basis functions of A   symmetry.
    55 basis functions,   104 primitive gaussians,    55 cartesian basis functions
    13 alpha electrons       13 beta electrons
       nuclear repulsion energy        82.2155575272 Hartrees.
 IExCor=  402 DFT=T Ex+Corr=B3LYP ExCW=0 ScaHFX=  0.200000
 ScaDFX=  0.800000  0.720000  1.000000  0.810000 ScalE2=  1.000000  1.000000
 IRadAn=      5 IRanWt=     -1 IRanGd=            0 ICorTp=0 IEmpDi=  4
 NAtoms=    8 NActive=    8 NUniq=    8 SFac= 1.00D+00 NAtFMM=   60 NAOKFM=F Big=F
 Integral buffers will be    131072 words long.
 Raffenetti 2 integral format.
 Two-electron integral symmetry is turned on.
 Leave Link  301 at Mon Oct 14 02:25:26 2019, MaxMem= 10737418240 cpu:               1.6 elap:               0.1
 (Enter /apps/cent7/gaussian/g16-A.03/g16-haswell/g16/l302.exe)
 NPDir=0 NMtPBC=     1 NCelOv=     1 NCel=       1 NClECP=     1 NCelD=      1
         NCelK=      1 NCelE2=     1 NClLst=     1 CellRange=     0.0.
 One-electron integrals computed using PRISM.
 One-electron integral symmetry used in STVInt
 NBasis=    55 RedAO= T EigKep=  7.77D-03  NBF=    55
 NBsUse=    55 1.00D-06 EigRej= -1.00D+00 NBFU=    55
 Precomputing XC quadrature grid using
 IXCGrd= 4 IRadAn=           5 IRanWt=          -1 IRanGd=           0 AccXCQ= 0.00D+00.
 Generated NRdTot=       0 NPtTot=           0 NUsed=           0 NTot=          32
 NSgBfM=    55    55    55    55    55 MxSgAt=     8 MxSgA2=     8.
 Leave Link  302 at Mon Oct 14 02:25:26 2019, MaxMem= 10737418240 cpu:               3.0 elap:               0.1
 (Enter /apps/cent7/gaussian/g16-A.03/g16-haswell/g16/l303.exe)
 DipDrv:  MaxL=1.
 Leave Link  303 at Mon Oct 14 02:25:26 2019, MaxMem= 10737418240 cpu:               0.5 elap:               0.0
 (Enter /apps/cent7/gaussian/g16-A.03/g16-haswell/g16/l401.exe)
 Initial guess from the checkpoint file:  "8.chk"
 B after Tr=     0.000000    0.000000    0.000000
         Rot=    0.999857   -0.015448    0.002981    0.006135 Ang=  -1.94 deg.
 Guess basis will be translated and rotated to current coordinates.
 JPrj=2 DoOrth=T DoCkMO=T.
 Generating alternative initial guess.
 ExpMin= 1.61D-01 ExpMax= 5.48D+03 ExpMxC= 8.25D+02 IAcc=2 IRadAn=         4 AccDes= 0.00D+00
 Harris functional with IExCor=  402 and IRadAn=       4 diagonalized for initial guess.
 HarFok:  IExCor=  402 AccDes= 0.00D+00 IRadAn=         4 IDoV= 1 UseB2=F ITyADJ=14
 ICtDFT=  3500011 ScaDFX=  1.000000  1.000000  1.000000  1.000000
 FoFCou: FMM=F IPFlag=           0 FMFlag=      100000 FMFlg1=           0
         NFxFlg=           0 DoJE=T BraDBF=F KetDBF=T FulRan=T
         wScrn=  0.000000 ICntrl=       500 IOpCl=  0 I1Cent=   200000004 NGrid=           0
         NMat0=    1 NMatS0=      1 NMatT0=    0 NMatD0=    1 NMtDS0=    0 NMtDT0=    0
 Petite list used in FoFCou.
 Harris En= -171.011559463881    
 Leave Link  401 at Mon Oct 14 02:25:26 2019, MaxMem= 10737418240 cpu:               4.2 elap:               0.2
 (Enter /apps/cent7/gaussian/g16-A.03/g16-haswell/g16/l502.exe)
 Keep R1 ints in memory in canonical form, NReq=22202517.
 FoFCou: FMM=F IPFlag=           0 FMFlag=           0 FMFlg1=           0
         NFxFlg=           0 DoJE=F BraDBF=F KetDBF=F FulRan=T
         wScrn=  0.000000 ICntrl=       600 IOpCl=  0 I1Cent=           0 NGrid=           0
         NMat0=    1 NMatS0=   1540 NMatT0=    0 NMatD0=    1 NMtDS0=    0 NMtDT0=    0
 Symmetry not used in FoFCou.
 Two-electron integral symmetry not used.
 Closed shell SCF:
 Using DIIS extrapolation, IDIIS=  1040.
 NGot= 10737418240 LenX= 10736223473 LenY= 10736220007
 Requested convergence on RMS density matrix=1.00D-08 within 128 cycles.
 Requested convergence on MAX density matrix=1.00D-06.
 Requested convergence on             energy=1.00D-06.
 No special actions if energy rises.
 Integral accuracy reduced to 1.0D-05 until final iterations.

 Cycle   1  Pass 0  IDiag  1:
 E= -170.987280834606    
 DIIS: error= 5.21D-03 at cycle   1 NSaved=   1.
 NSaved= 1 IEnMin= 1 EnMin= -170.987280834606     IErMin= 1 ErrMin= 5.21D-03
 ErrMax= 5.21D-03  0.00D+00 EMaxC= 1.00D-01 BMatC= 4.58D-03 BMatP= 4.58D-03
 IDIUse=3 WtCom= 9.48D-01 WtEn= 5.21D-02
 Coeff-Com:  0.100D+01
 Coeff-En:   0.100D+01
 Coeff:      0.100D+01
 Gap=     1.854 Goal=   None    Shift=    0.000
 GapD=    1.854 DampG=2.000 DampE=1.000 DampFc=2.0000 IDamp=-1.
 RMSDP=2.31D-03 MaxDP=1.90D-02              OVMax= 4.57D-02

 Cycle   2  Pass 0  IDiag  1:
 E= -170.995431770514     Delta-E=       -0.008150935908 Rises=F Damp=F
 DIIS: error= 1.72D-03 at cycle   2 NSaved=   2.
 NSaved= 2 IEnMin= 2 EnMin= -170.995431770514     IErMin= 2 ErrMin= 1.72D-03
 ErrMax= 1.72D-03  0.00D+00 EMaxC= 1.00D-01 BMatC= 2.92D-04 BMatP= 4.58D-03
 IDIUse=3 WtCom= 9.83D-01 WtEn= 1.72D-02
 Coeff-Com:  0.132D-01 0.987D+00
 Coeff-En:   0.000D+00 0.100D+01
 Coeff:      0.129D-01 0.987D+00
 Gap=     0.266 Goal=   None    Shift=    0.000
 RMSDP=5.54D-04 MaxDP=9.15D-03 DE=-8.15D-03 OVMax= 8.74D-03

 Cycle   3  Pass 0  IDiag  1:
 E= -170.995326474237     Delta-E=        0.000105296278 Rises=F Damp=F
 DIIS: error= 2.67D-03 at cycle   3 NSaved=   3.
 NSaved= 3 IEnMin= 2 EnMin= -170.995431770514     IErMin= 2 ErrMin= 1.72D-03
 ErrMax= 2.67D-03  0.00D+00 EMaxC= 1.00D-01 BMatC= 5.16D-04 BMatP= 2.92D-04
 IDIUse=3 WtCom= 1.62D-01 WtEn= 8.38D-01
 Coeff-Com: -0.510D-01 0.605D+00 0.446D+00
 Coeff-En:   0.000D+00 0.587D+00 0.413D+00
 Coeff:     -0.827D-02 0.590D+00 0.418D+00
 Gap=     0.268 Goal=   None    Shift=    0.000
 RMSDP=2.99D-04 MaxDP=4.81D-03 DE= 1.05D-04 OVMax= 4.51D-03

 Cycle   4  Pass 0  IDiag  1:
 E= -170.995690496034     Delta-E=       -0.000364021797 Rises=F Damp=F
 DIIS: error= 2.17D-04 at cycle   4 NSaved=   4.
 NSaved= 4 IEnMin= 4 EnMin= -170.995690496034     IErMin= 4 ErrMin= 2.17D-04
 ErrMax= 2.17D-04  0.00D+00 EMaxC= 1.00D-01 BMatC= 3.90D-06 BMatP= 2.92D-04
 IDIUse=3 WtCom= 9.98D-01 WtEn= 2.17D-03
 Coeff-Com: -0.145D-01 0.131D+00 0.135D+00 0.749D+00
 Coeff-En:   0.000D+00 0.000D+00 0.000D+00 0.100D+01
 Coeff:     -0.145D-01 0.131D+00 0.134D+00 0.749D+00
 Gap=     0.267 Goal=   None    Shift=    0.000
 RMSDP=5.33D-05 MaxDP=6.87D-04 DE=-3.64D-04 OVMax= 7.80D-04

 Cycle   5  Pass 0  IDiag  1:
 E= -170.995693391971     Delta-E=       -0.000002895937 Rises=F Damp=F
 DIIS: error= 6.85D-05 at cycle   5 NSaved=   5.
 NSaved= 5 IEnMin= 5 EnMin= -170.995693391971     IErMin= 5 ErrMin= 6.85D-05
 ErrMax= 6.85D-05  0.00D+00 EMaxC= 1.00D-01 BMatC= 8.14D-07 BMatP= 3.90D-06
 IDIUse=1 WtCom= 1.00D+00 WtEn= 0.00D+00
 Coeff-Com: -0.318D-02 0.171D-01 0.316D-01 0.371D+00 0.584D+00
 Coeff:     -0.318D-02 0.171D-01 0.316D-01 0.371D+00 0.584D+00
 Gap=     0.267 Goal=   None    Shift=    0.000
 RMSDP=1.68D-05 MaxDP=2.67D-04 DE=-2.90D-06 OVMax= 2.53D-04

 Cycle   6  Pass 0  IDiag  1:
 E= -170.995694068127     Delta-E=       -0.000000676157 Rises=F Damp=F
 DIIS: error= 1.56D-05 at cycle   6 NSaved=   6.
 NSaved= 6 IEnMin= 6 EnMin= -170.995694068127     IErMin= 6 ErrMin= 1.56D-05
 ErrMax= 1.56D-05  0.00D+00 EMaxC= 1.00D-01 BMatC= 3.92D-08 BMatP= 8.14D-07
 IDIUse=1 WtCom= 1.00D+00 WtEn= 0.00D+00
 Coeff-Com:  0.377D-03-0.106D-01-0.372D-02 0.669D-01 0.227D+00 0.720D+00
 Coeff:      0.377D-03-0.106D-01-0.372D-02 0.669D-01 0.227D+00 0.720D+00
 Gap=     0.267 Goal=   None    Shift=    0.000
 RMSDP=4.18D-06 MaxDP=4.95D-05 DE=-6.76D-07 OVMax= 6.48D-05

 Initial convergence to 1.0D-05 achieved.  Increase integral accuracy.
 Cycle   7  Pass 1  IDiag  1:
 E= -170.995697521707     Delta-E=       -0.000003453580 Rises=F Damp=F
 DIIS: error= 5.53D-06 at cycle   1 NSaved=   1.
 NSaved= 1 IEnMin= 1 EnMin= -170.995697521707     IErMin= 1 ErrMin= 5.53D-06
 ErrMax= 5.53D-06  0.00D+00 EMaxC= 1.00D-01 BMatC= 1.60D-09 BMatP= 1.60D-09
 IDIUse=1 WtCom= 1.00D+00 WtEn= 0.00D+00
 Coeff-Com:  0.100D+01
 Coeff:      0.100D+01
 Gap=     0.267 Goal=   None    Shift=    0.000
 RMSDP=4.18D-06 MaxDP=4.95D-05 DE=-3.45D-06 OVMax= 1.68D-05

 Cycle   8  Pass 1  IDiag  1:
 E= -170.995697521868     Delta-E=       -0.000000000161 Rises=F Damp=F
 DIIS: error= 5.37D-06 at cycle   2 NSaved=   2.
 NSaved= 2 IEnMin= 2 EnMin= -170.995697521868     IErMin= 2 ErrMin= 5.37D-06
 ErrMax= 5.37D-06  0.00D+00 EMaxC= 1.00D-01 BMatC= 1.58D-09 BMatP= 1.60D-09
 IDIUse=1 WtCom= 1.00D+00 WtEn= 0.00D+00
 Coeff-Com:  0.498D+00 0.502D+00
 Coeff:      0.498D+00 0.502D+00
 Gap=     0.267 Goal=   None    Shift=    0.000
 RMSDP=6.44D-07 MaxDP=8.99D-06 DE=-1.61D-10 OVMax= 9.42D-06

 Cycle   9  Pass 1  IDiag  1:
 E= -170.995697523284     Delta-E=       -0.000000001415 Rises=F Damp=F
 DIIS: error= 5.30D-07 at cycle   3 NSaved=   3.
 NSaved= 3 IEnMin= 3 EnMin= -170.995697523284     IErMin= 3 ErrMin= 5.30D-07
 ErrMax= 5.30D-07  0.00D+00 EMaxC= 1.00D-01 BMatC= 2.95D-11 BMatP= 1.58D-09
 IDIUse=1 WtCom= 1.00D+00 WtEn= 0.00D+00
 Coeff-Com:  0.905D-01 0.161D+00 0.749D+00
 Coeff:      0.905D-01 0.161D+00 0.749D+00
 Gap=     0.267 Goal=   None    Shift=    0.000
 RMSDP=1.23D-07 MaxDP=1.50D-06 DE=-1.42D-09 OVMax= 1.58D-06

 Cycle  10  Pass 1  IDiag  1:
 E= -170.995697523308     Delta-E=       -0.000000000024 Rises=F Damp=F
 DIIS: error= 1.83D-07 at cycle   4 NSaved=   4.
 NSaved= 4 IEnMin= 4 EnMin= -170.995697523308     IErMin= 4 ErrMin= 1.83D-07
 ErrMax= 1.83D-07  0.00D+00 EMaxC= 1.00D-01 BMatC= 2.79D-12 BMatP= 2.95D-11
 IDIUse=1 WtCom= 1.00D+00 WtEn= 0.00D+00
 Coeff-Com: -0.721D-03 0.280D-01 0.290D+00 0.683D+00
 Coeff:     -0.721D-03 0.280D-01 0.290D+00 0.683D+00
 Gap=     0.267 Goal=   None    Shift=    0.000
 RMSDP=3.80D-08 MaxDP=4.13D-07 DE=-2.42D-11 OVMax= 5.44D-07

 Cycle  11  Pass 1  IDiag  1:
 E= -170.995697523310     Delta-E=       -0.000000000002 Rises=F Damp=F
 DIIS: error= 5.22D-08 at cycle   5 NSaved=   5.
 NSaved= 5 IEnMin= 5 EnMin= -170.995697523310     IErMin= 5 ErrMin= 5.22D-08
 ErrMax= 5.22D-08  0.00D+00 EMaxC= 1.00D-01 BMatC= 3.24D-13 BMatP= 2.79D-12
 IDIUse=1 WtCom= 1.00D+00 WtEn= 0.00D+00
 Coeff-Com: -0.721D-02 0.215D-02 0.895D-01 0.326D+00 0.590D+00
 Coeff:     -0.721D-02 0.215D-02 0.895D-01 0.326D+00 0.590D+00
 Gap=     0.267 Goal=   None    Shift=    0.000
 RMSDP=1.08D-08 MaxDP=1.09D-07 DE=-2.33D-12 OVMax= 1.48D-07

 Cycle  12  Pass 1  IDiag  1:
 E= -170.995697523311     Delta-E=       -0.000000000000 Rises=F Damp=F
 DIIS: error= 6.10D-09 at cycle   6 NSaved=   6.
 NSaved= 6 IEnMin= 6 EnMin= -170.995697523311     IErMin= 6 ErrMin= 6.10D-09
 ErrMax= 6.10D-09  0.00D+00 EMaxC= 1.00D-01 BMatC= 5.04D-15 BMatP= 3.24D-13
 IDIUse=1 WtCom= 1.00D+00 WtEn= 0.00D+00
 Coeff-Com: -0.210D-02-0.129D-02 0.651D-02 0.393D-01 0.142D+00 0.816D+00
 Coeff:     -0.210D-02-0.129D-02 0.651D-02 0.393D-01 0.142D+00 0.816D+00
 Gap=     0.267 Goal=   None    Shift=    0.000
 RMSDP=2.22D-09 MaxDP=3.67D-08 DE=-3.41D-13 OVMax= 3.49D-08

 SCF Done:  E(RB3LYP) =  -170.995697523     A.U. after   12 cycles
            NFock= 12  Conv=0.22D-08     -V/T= 2.0091
 KE= 1.694546591989D+02 PE=-5.647994834724D+02 EE= 1.421335692229D+02
 Leave Link  502 at Mon Oct 14 02:25:26 2019, MaxMem= 10737418240 cpu:               9.8 elap:               0.5
 (Enter /apps/cent7/gaussian/g16-A.03/g16-haswell/g16/l701.exe)
 ... and contract with generalized density number  0.
 Compute integral first derivatives.
 Leave Link  701 at Mon Oct 14 02:25:27 2019, MaxMem= 10737418240 cpu:               2.0 elap:               0.1
 (Enter /apps/cent7/gaussian/g16-A.03/g16-haswell/g16/l702.exe)
 L702 exits ... SP integral derivatives will be done elsewhere.
 Leave Link  702 at Mon Oct 14 02:25:27 2019, MaxMem= 10737418240 cpu:               1.0 elap:               0.1
 (Enter /apps/cent7/gaussian/g16-A.03/g16-haswell/g16/l703.exe)
 Integral derivatives from FoFJK, PRISM(SPDF).
 Compute integral first derivatives, UseDBF=F ICtDFT=           0.
 Calling FoFJK, ICntrl=      2127 FMM=F ISym2X=0 I1Cent= 0 IOpClX= 0 NMat=1 NMatS=1 NMatT=0.
 FoFJK:  IHMeth= 1 ICntrl=    2127 DoSepK=F KAlg= 0 I1Cent=           0 FoldK=F
 IRaf=         0 NMat=       1 IRICut=       1 DoRegI=T DoRafI=F ISym2E= 0 IDoP0=0 IntGTp=1.
 FoFCou: FMM=F IPFlag=           0 FMFlag=      100000 FMFlg1=         800
         NFxFlg=           0 DoJE=F BraDBF=F KetDBF=F FulRan=T
         wScrn=  0.000000 ICntrl=      2127 IOpCl=  0 I1Cent=           0 NGrid=           0
         NMat0=    1 NMatS0=      1 NMatT0=    0 NMatD0=    1 NMtDS0=    0 NMtDT0=    0
 Symmetry not used in FoFCou.
 Leave Link  703 at Mon Oct 14 02:25:27 2019, MaxMem= 10737418240 cpu:               5.0 elap:               0.2
 (Enter /apps/cent7/gaussian/g16-A.03/g16-haswell/g16/l716.exe)
 Dipole        = 1.40455294D-01 4.16364048D-01-5.98802389D-01
 ***** Axes restored to original set *****
 -------------------------------------------------------------------
 Center     Atomic                   Forces (Hartrees/Bohr)
 Number     Number              X              Y              Z
 -------------------------------------------------------------------
      1        6          -0.013152730    0.001009062    0.007957351
      2        7           0.017531898   -0.012816718   -0.003561356
      3        8          -0.009724065    0.007020167   -0.000046358
      4        1           0.004510329    0.000067955   -0.001012128
      5        1          -0.001964920   -0.000148185    0.001001551
      6        1           0.001886561    0.001496830   -0.001192192
      7        1          -0.004095798    0.005167526   -0.002261153
      8        1           0.005008724   -0.001796637   -0.000885713
 -------------------------------------------------------------------
 Cartesian Forces:  Max     0.017531898 RMS     0.006379210
 Leave Link  716 at Mon Oct 14 02:25:27 2019, MaxMem= 10737418240 cpu:               1.1 elap:               0.1
 (Enter /apps/cent7/gaussian/g16-A.03/g16-haswell/g16/l103.exe)

 GradGradGradGradGradGradGradGradGradGradGradGradGradGradGradGradGradGrad
 Berny optimization.
 Using GEDIIS/GDIIS optimizer.
 FormGI is forming the generalized inverse of G from B-inverse, IUseBI=4.
 Internal  Forces:  Max     0.010512936 RMS     0.003509623
 Search for a local minimum.
 Step number   2 out of a maximum of   35
 All quantities printed in internal units (Hartrees-Bohrs-Radians)
 RMS Force = .35096D-02 SwitMx=.10000D-02 MixMth= 1
 Mixed Optimization -- RFO/linear search
 Update second derivatives using D2CorX and points    1    2
 DE= -8.80D-03 DEPred=-8.25D-03 R= 1.07D+00
 TightC=F SS=  1.41D+00  RLast= 3.62D-01 DXNew= 5.0454D-01 1.0860D+00
 Trust test= 1.07D+00 RLast= 3.62D-01 DXMaxT set to 5.05D-01
 ITU=  1  0
 Use linear search instead of GDIIS.
     Eigenvalues ---    0.00797   0.00941   0.01747   0.07153   0.07604
     Eigenvalues ---    0.14357   0.15966   0.16000   0.16000   0.16542
     Eigenvalues ---    0.24519   0.33891   0.34811   0.34916   0.35306
     Eigenvalues ---    0.46072   0.54713   0.56057
 RFO step:  Lambda=-6.41343272D-03 EMin= 7.96596041D-03
 Quartic linear search produced a step of  0.37608.
 Iteration  1 RMS(Cart)=  0.06269999 RMS(Int)=  0.04100355
 Iteration  2 RMS(Cart)=  0.03737776 RMS(Int)=  0.00621079
 Iteration  3 RMS(Cart)=  0.00170705 RMS(Int)=  0.00584815
 Iteration  4 RMS(Cart)=  0.00000382 RMS(Int)=  0.00584815
 Iteration  5 RMS(Cart)=  0.00000000 RMS(Int)=  0.00584815
 ITry= 1 IFail=0 DXMaxC= 2.03D-01 DCOld= 1.00D+10 DXMaxT= 5.05D-01 DXLimC= 3.00D+00 Rises=F
 Variable       Old X    -DE/DX   Delta X   Delta X   Delta X     New X
                                 (Linear)    (Quad)   (Total)
    R1        2.73479  -0.01051  -0.01553  -0.03315  -0.04869   2.68610
    R2        2.06711   0.00267   0.00273   0.00904   0.01177   2.07888
    R3        2.07294  -0.00082   0.00492  -0.00433   0.00059   2.07353
    R4        2.07961   0.00190   0.00747   0.00494   0.01241   2.09202
    R5        2.63227   0.00303   0.02669  -0.00006   0.02663   2.65890
    R6        1.89805   0.00053  -0.00394   0.00254  -0.00140   1.89665
    R7        1.84113   0.00077   0.01013  -0.00097   0.00915   1.85028
    A1        1.88342   0.00566  -0.01021   0.05095   0.04022   1.92364
    A2        1.91942  -0.00461   0.00331  -0.04239  -0.03889   1.88053
    A3        1.97443   0.00249   0.02399   0.01449   0.03787   2.01230
    A4        1.89667  -0.00106  -0.00523  -0.00975  -0.01463   1.88204
    A5        1.89584  -0.00280  -0.00557  -0.00993  -0.01665   1.87920
    A6        1.89263   0.00021  -0.00682  -0.00388  -0.01066   1.88196
    A7        2.04003   0.00137   0.05044  -0.01135   0.02312   2.06315
    A8        2.19218   0.00106  -0.01989   0.00642  -0.03035   2.16183
    A9        2.04669  -0.00277  -0.03217  -0.02120  -0.07005   1.97664
   A10        1.86142  -0.00527  -0.01848  -0.03631  -0.05479   1.80663
    D1        0.78185   0.00333   0.04539   0.20838   0.25345   1.03529
    D2       -2.46221  -0.00083   0.00688  -0.10462  -0.09626  -2.55847
    D3        2.84813   0.00278   0.03487   0.20268   0.23653   3.08466
    D4       -0.39592  -0.00137  -0.00364  -0.11031  -0.11318  -0.50910
    D5       -1.31601   0.00143   0.04409   0.17703   0.21977  -1.09624
    D6        1.72312  -0.00273   0.00557  -0.13597  -0.12994   1.59318
    D7       -1.90623   0.00218   0.03866   0.05458   0.09702  -1.80921
    D8        1.32906   0.00577   0.07387   0.33918   0.40926   1.73832
         Item               Value     Threshold  Converged?
 Maximum Force            0.010513     0.000450     NO 
 RMS     Force            0.003510     0.000300     NO 
 Maximum Displacement     0.203464     0.001800     NO 
 RMS     Displacement     0.091105     0.001200     NO 
 Predicted change in Energy=-3.759002D-03
 Lowest energy point so far.  Saving SCF results.
 GradGradGradGradGradGradGradGradGradGradGradGradGradGradGradGradGradGrad

 Leave Link  103 at Mon Oct 14 02:25:27 2019, MaxMem= 10737418240 cpu:               0.7 elap:               0.1
 (Enter /apps/cent7/gaussian/g16-A.03/g16-haswell/g16/l202.exe)
                          Input orientation:                          
 ---------------------------------------------------------------------
 Center     Atomic      Atomic             Coordinates (Angstroms)
 Number     Number       Type             X           Y           Z
 ---------------------------------------------------------------------
      1          6           0        1.419665    0.044807   -0.392761
      2          7           0        0.236643   -0.228522    0.346290
      3          8           0       -0.129085    0.664428    1.370309
      4          1           0        2.289292    0.077513    0.280211
      5          1           0        1.571677   -0.781657   -1.098337
      6          1           0        1.407895    0.987737   -0.972679
      7          1           0       -0.536555   -0.758819   -0.011884
      8          1           0        0.123769    0.190012    2.188651
 ---------------------------------------------------------------------
                    Distance matrix (angstroms):
                    1          2          3          4          5
     1  C    0.000000
     2  N    1.421424   0.000000
     3  O    2.427133   1.407029   0.000000
     4  H    1.100096   2.076389   2.716860   0.000000
     5  H    1.097263   2.043335   3.328357   1.775820   0.000000
     6  H    1.107051   2.142614   2.820714   1.781881   1.781396
     7  H    2.148879   1.003663   2.025368   2.961449   2.371824
     8  H    2.892080   1.892672   0.979127   2.888649   3.720870
                    6          7          8
     6  H    0.000000
     7  H    2.784685   0.000000
     8  H    3.504191   2.485692   0.000000
 Stoichiometry    CH5NO
 Framework group  C1[X(CH5NO)]
 Deg. of freedom    18
 Full point group                 C1      NOp   1
 RotChk:  IX=0 Diff= 1.10D-01
 Largest Abelian subgroup         C1      NOp   1
 Largest concise Abelian subgroup C1      NOp   1
                         Standard orientation:                         
 ---------------------------------------------------------------------
 Center     Atomic      Atomic             Coordinates (Angstroms)
 Number     Number       Type             X           Y           Z
 ---------------------------------------------------------------------
      1          6           0        1.197347   -0.210864    0.002948
      2          7           0       -0.042490    0.481551   -0.058779
      3          8           0       -1.226088   -0.255682    0.129146
      4          1           0        1.229941   -1.001078   -0.761716
      5          1           0        1.994015    0.508891   -0.223458
      6          1           0        1.430111   -0.678134    0.979187
      7          1           0       -0.147973    1.458834    0.144027
      8          1           0       -1.584039   -0.348725   -0.777444
 ---------------------------------------------------------------------
 Rotational constants (GHZ):          44.6425877           9.3998711           8.4051146
 Leave Link  202 at Mon Oct 14 02:25:27 2019, MaxMem= 10737418240 cpu:               0.3 elap:               0.0
 (Enter /apps/cent7/gaussian/g16-A.03/g16-haswell/g16/l301.exe)
 Standard basis: 6-31G(d) (6D, 7F)
 Ernie: Thresh=  0.10000D-02 Tol=  0.10000D-05 Strict=F.
 There are    55 symmetry adapted cartesian basis functions of A   symmetry.
 There are    55 symmetry adapted basis functions of A   symmetry.
    55 basis functions,   104 primitive gaussians,    55 cartesian basis functions
    13 alpha electrons       13 beta electrons
       nuclear repulsion energy        82.2773580542 Hartrees.
 IExCor=  402 DFT=T Ex+Corr=B3LYP ExCW=0 ScaHFX=  0.200000
 ScaDFX=  0.800000  0.720000  1.000000  0.810000 ScalE2=  1.000000  1.000000
 IRadAn=      5 IRanWt=     -1 IRanGd=            0 ICorTp=0 IEmpDi=  4
 NAtoms=    8 NActive=    8 NUniq=    8 SFac= 1.00D+00 NAtFMM=   60 NAOKFM=F Big=F
 Integral buffers will be    131072 words long.
 Raffenetti 2 integral format.
 Two-electron integral symmetry is turned on.
 Leave Link  301 at Mon Oct 14 02:25:27 2019, MaxMem= 10737418240 cpu:               1.3 elap:               0.1
 (Enter /apps/cent7/gaussian/g16-A.03/g16-haswell/g16/l302.exe)
 NPDir=0 NMtPBC=     1 NCelOv=     1 NCel=       1 NClECP=     1 NCelD=      1
         NCelK=      1 NCelE2=     1 NClLst=     1 CellRange=     0.0.
 One-electron integrals computed using PRISM.
 One-electron integral symmetry used in STVInt
 NBasis=    55 RedAO= T EigKep=  7.68D-03  NBF=    55
 NBsUse=    55 1.00D-06 EigRej= -1.00D+00 NBFU=    55
 Precomputing XC quadrature grid using
 IXCGrd= 4 IRadAn=           5 IRanWt=          -1 IRanGd=           0 AccXCQ= 0.00D+00.
 Generated NRdTot=       0 NPtTot=           0 NUsed=           0 NTot=          32
 NSgBfM=    55    55    55    55    55 MxSgAt=     8 MxSgA2=     8.
 Leave Link  302 at Mon Oct 14 02:25:27 2019, MaxMem= 10737418240 cpu:               2.7 elap:               0.1
 (Enter /apps/cent7/gaussian/g16-A.03/g16-haswell/g16/l303.exe)
 DipDrv:  MaxL=1.
 Leave Link  303 at Mon Oct 14 02:25:27 2019, MaxMem= 10737418240 cpu:               0.5 elap:               0.0
 (Enter /apps/cent7/gaussian/g16-A.03/g16-haswell/g16/l401.exe)
 Initial guess from the checkpoint file:  "8.chk"
 B after Tr=     0.000000   -0.000000    0.000000
         Rot=    0.999958   -0.005674    0.007194    0.000942 Ang=  -1.06 deg.
 Guess basis will be translated and rotated to current coordinates.
 JPrj=2 DoOrth=T DoCkMO=T.
 Generating alternative initial guess.
 ExpMin= 1.61D-01 ExpMax= 5.48D+03 ExpMxC= 8.25D+02 IAcc=2 IRadAn=         4 AccDes= 0.00D+00
 Harris functional with IExCor=  402 and IRadAn=       4 diagonalized for initial guess.
 HarFok:  IExCor=  402 AccDes= 0.00D+00 IRadAn=         4 IDoV= 1 UseB2=F ITyADJ=14
 ICtDFT=  3500011 ScaDFX=  1.000000  1.000000  1.000000  1.000000
 FoFCou: FMM=F IPFlag=           0 FMFlag=      100000 FMFlg1=           0
         NFxFlg=           0 DoJE=T BraDBF=F KetDBF=T FulRan=T
         wScrn=  0.000000 ICntrl=       500 IOpCl=  0 I1Cent=   200000004 NGrid=           0
         NMat0=    1 NMatS0=      1 NMatT0=    0 NMatD0=    1 NMtDS0=    0 NMtDT0=    0
 Petite list used in FoFCou.
 Harris En= -171.017198371157    
 Leave Link  401 at Mon Oct 14 02:25:28 2019, MaxMem= 10737418240 cpu:               5.0 elap:               0.2
 (Enter /apps/cent7/gaussian/g16-A.03/g16-haswell/g16/l502.exe)
 Keep R1 ints in memory in canonical form, NReq=22202517.
 FoFCou: FMM=F IPFlag=           0 FMFlag=           0 FMFlg1=           0
         NFxFlg=           0 DoJE=F BraDBF=F KetDBF=F FulRan=T
         wScrn=  0.000000 ICntrl=       600 IOpCl=  0 I1Cent=           0 NGrid=           0
         NMat0=    1 NMatS0=   1540 NMatT0=    0 NMatD0=    1 NMtDS0=    0 NMtDT0=    0
 Symmetry not used in FoFCou.
 Two-electron integral symmetry not used.
 Closed shell SCF:
 Using DIIS extrapolation, IDIIS=  1040.
 NGot= 10737418240 LenX= 10736223473 LenY= 10736220007
 Requested convergence on RMS density matrix=1.00D-08 within 128 cycles.
 Requested convergence on MAX density matrix=1.00D-06.
 Requested convergence on             energy=1.00D-06.
 No special actions if energy rises.
 Integral accuracy reduced to 1.0D-05 until final iterations.

 Cycle   1  Pass 0  IDiag  1:
 E= -170.987252414922    
 DIIS: error= 8.70D-03 at cycle   1 NSaved=   1.
 NSaved= 1 IEnMin= 1 EnMin= -170.987252414922     IErMin= 1 ErrMin= 8.70D-03
 ErrMax= 8.70D-03  0.00D+00 EMaxC= 1.00D-01 BMatC= 8.20D-03 BMatP= 8.20D-03
 IDIUse=3 WtCom= 9.13D-01 WtEn= 8.70D-02
 Coeff-Com:  0.100D+01
 Coeff-En:   0.100D+01
 Coeff:      0.100D+01
 Gap=     1.854 Goal=   None    Shift=    0.000
 GapD=    1.854 DampG=2.000 DampE=1.000 DampFc=2.0000 IDamp=-1.
 RMSDP=3.17D-03 MaxDP=3.17D-02              OVMax= 5.22D-02

 Cycle   2  Pass 0  IDiag  1:
 E= -171.002114378441     Delta-E=       -0.014861963520 Rises=F Damp=F
 DIIS: error= 1.38D-03 at cycle   2 NSaved=   2.
 NSaved= 2 IEnMin= 2 EnMin= -171.002114378441     IErMin= 2 ErrMin= 1.38D-03
 ErrMax= 1.38D-03  0.00D+00 EMaxC= 1.00D-01 BMatC= 2.26D-04 BMatP= 8.20D-03
 IDIUse=3 WtCom= 9.86D-01 WtEn= 1.38D-02
 Coeff-Com: -0.663D-01 0.107D+01
 Coeff-En:   0.000D+00 0.100D+01
 Coeff:     -0.653D-01 0.107D+01
 Gap=     0.277 Goal=   None    Shift=    0.000
 RMSDP=5.56D-04 MaxDP=6.06D-03 DE=-1.49D-02 OVMax= 7.94D-03

 Cycle   3  Pass 0  IDiag  1:
 E= -171.002119764817     Delta-E=       -0.000005386375 Rises=F Damp=F
 DIIS: error= 2.60D-03 at cycle   3 NSaved=   3.
 NSaved= 3 IEnMin= 3 EnMin= -171.002119764817     IErMin= 2 ErrMin= 1.38D-03
 ErrMax= 2.60D-03  0.00D+00 EMaxC= 1.00D-01 BMatC= 3.58D-04 BMatP= 2.26D-04
 IDIUse=3 WtCom= 1.64D-01 WtEn= 8.36D-01
 Coeff-Com: -0.579D-01 0.633D+00 0.425D+00
 Coeff-En:   0.000D+00 0.493D+00 0.507D+00
 Coeff:     -0.950D-02 0.516D+00 0.494D+00
 Gap=     0.279 Goal=   None    Shift=    0.000
 RMSDP=3.14D-04 MaxDP=4.87D-03 DE=-5.39D-06 OVMax= 4.77D-03

 Cycle   4  Pass 0  IDiag  1:
 E= -171.002346338806     Delta-E=       -0.000226573989 Rises=F Damp=F
 DIIS: error= 8.21D-04 at cycle   4 NSaved=   4.
 NSaved= 4 IEnMin= 4 EnMin= -171.002346338806     IErMin= 4 ErrMin= 8.21D-04
 ErrMax= 8.21D-04  0.00D+00 EMaxC= 1.00D-01 BMatC= 4.11D-05 BMatP= 2.26D-04
 IDIUse=3 WtCom= 9.92D-01 WtEn= 8.21D-03
 Coeff-Com: -0.119D-01 0.113D+00 0.275D+00 0.624D+00
 Coeff-En:   0.000D+00 0.000D+00 0.942D-01 0.906D+00
 Coeff:     -0.118D-01 0.112D+00 0.274D+00 0.626D+00
 Gap=     0.278 Goal=   None    Shift=    0.000
 RMSDP=1.00D-04 MaxDP=1.26D-03 DE=-2.27D-04 OVMax= 1.55D-03

 Cycle   5  Pass 0  IDiag  1:
 E= -171.002376003722     Delta-E=       -0.000029664917 Rises=F Damp=F
 DIIS: error= 7.02D-05 at cycle   5 NSaved=   5.
 NSaved= 5 IEnMin= 5 EnMin= -171.002376003722     IErMin= 5 ErrMin= 7.02D-05
 ErrMax= 7.02D-05  0.00D+00 EMaxC= 1.00D-01 BMatC= 7.26D-07 BMatP= 4.11D-05
 IDIUse=1 WtCom= 1.00D+00 WtEn= 0.00D+00
 Coeff-Com: -0.154D-02 0.415D-02 0.952D-01 0.298D+00 0.605D+00
 Coeff:     -0.154D-02 0.415D-02 0.952D-01 0.298D+00 0.605D+00
 Gap=     0.278 Goal=   None    Shift=    0.000
 RMSDP=1.54D-05 MaxDP=2.36D-04 DE=-2.97D-05 OVMax= 2.36D-04

 Cycle   6  Pass 0  IDiag  1:
 E= -171.002376569302     Delta-E=       -0.000000565580 Rises=F Damp=F
 DIIS: error= 2.09D-05 at cycle   6 NSaved=   6.
 NSaved= 6 IEnMin= 6 EnMin= -171.002376569302     IErMin= 6 ErrMin= 2.09D-05
 ErrMax= 2.09D-05  0.00D+00 EMaxC= 1.00D-01 BMatC= 5.47D-08 BMatP= 7.26D-07
 IDIUse=1 WtCom= 1.00D+00 WtEn= 0.00D+00
 Coeff-Com:  0.749D-03-0.150D-01 0.125D-01 0.742D-01 0.275D+00 0.653D+00
 Coeff:      0.749D-03-0.150D-01 0.125D-01 0.742D-01 0.275D+00 0.653D+00
 Gap=     0.278 Goal=   None    Shift=    0.000
 RMSDP=4.46D-06 MaxDP=6.31D-05 DE=-5.66D-07 OVMax= 6.96D-05

 Initial convergence to 1.0D-05 achieved.  Increase integral accuracy.
 Cycle   7  Pass 1  IDiag  1:
 E= -171.002378661499     Delta-E=       -0.000002092197 Rises=F Damp=F
 DIIS: error= 2.29D-06 at cycle   1 NSaved=   1.
 NSaved= 1 IEnMin= 1 EnMin= -171.002378661499     IErMin= 1 ErrMin= 2.29D-06
 ErrMax= 2.29D-06  0.00D+00 EMaxC= 1.00D-01 BMatC= 7.97D-10 BMatP= 7.97D-10
 IDIUse=1 WtCom= 1.00D+00 WtEn= 0.00D+00
 Coeff-Com:  0.100D+01
 Coeff:      0.100D+01
 Gap=     0.278 Goal=   None    Shift=    0.000
 RMSDP=4.46D-06 MaxDP=6.31D-05 DE=-2.09D-06 OVMax= 1.83D-05

 Cycle   8  Pass 1  IDiag  1:
 E= -171.002378661851     Delta-E=       -0.000000000352 Rises=F Damp=F
 DIIS: error= 2.27D-06 at cycle   2 NSaved=   2.
 NSaved= 2 IEnMin= 2 EnMin= -171.002378661851     IErMin= 2 ErrMin= 2.27D-06
 ErrMax= 2.27D-06  0.00D+00 EMaxC= 1.00D-01 BMatC= 6.88D-10 BMatP= 7.97D-10
 IDIUse=1 WtCom= 1.00D+00 WtEn= 0.00D+00
 Coeff-Com:  0.480D+00 0.520D+00
 Coeff:      0.480D+00 0.520D+00
 Gap=     0.278 Goal=   None    Shift=    0.000
 RMSDP=4.35D-07 MaxDP=7.13D-06 DE=-3.52D-10 OVMax= 6.33D-06

 Cycle   9  Pass 1  IDiag  1:
 E= -171.002378662411     Delta-E=       -0.000000000559 Rises=F Damp=F
 DIIS: error= 4.77D-07 at cycle   3 NSaved=   3.
 NSaved= 3 IEnMin= 3 EnMin= -171.002378662411     IErMin= 3 ErrMin= 4.77D-07
 ErrMax= 4.77D-07  0.00D+00 EMaxC= 1.00D-01 BMatC= 3.41D-11 BMatP= 6.88D-10
 IDIUse=1 WtCom= 1.00D+00 WtEn= 0.00D+00
 Coeff-Com:  0.959D-01 0.207D+00 0.697D+00
 Coeff:      0.959D-01 0.207D+00 0.697D+00
 Gap=     0.278 Goal=   None    Shift=    0.000
 RMSDP=1.08D-07 MaxDP=1.28D-06 DE=-5.59D-10 OVMax= 1.47D-06

 Cycle  10  Pass 1  IDiag  1:
 E= -171.002378662437     Delta-E=       -0.000000000026 Rises=F Damp=F
 DIIS: error= 1.86D-07 at cycle   4 NSaved=   4.
 NSaved= 4 IEnMin= 4 EnMin= -171.002378662437     IErMin= 4 ErrMin= 1.86D-07
 ErrMax= 1.86D-07  0.00D+00 EMaxC= 1.00D-01 BMatC= 3.57D-12 BMatP= 3.41D-11
 IDIUse=1 WtCom= 1.00D+00 WtEn= 0.00D+00
 Coeff-Com:  0.450D-02 0.450D-01 0.290D+00 0.661D+00
 Coeff:      0.450D-02 0.450D-01 0.290D+00 0.661D+00
 Gap=     0.278 Goal=   None    Shift=    0.000
 RMSDP=5.13D-08 MaxDP=5.61D-07 DE=-2.63D-11 OVMax= 8.85D-07

 Cycle  11  Pass 1  IDiag  1:
 E= -171.002378662439     Delta-E=       -0.000000000002 Rises=F Damp=F
 DIIS: error= 1.25D-07 at cycle   5 NSaved=   5.
 NSaved= 5 IEnMin= 5 EnMin= -171.002378662439     IErMin= 5 ErrMin= 1.25D-07
 ErrMax= 1.25D-07  0.00D+00 EMaxC= 1.00D-01 BMatC= 1.11D-12 BMatP= 3.57D-12
 IDIUse=1 WtCom= 1.00D+00 WtEn= 0.00D+00
 Coeff-Com: -0.109D-01-0.169D-02 0.766D-01 0.400D+00 0.536D+00
 Coeff:     -0.109D-01-0.169D-02 0.766D-01 0.400D+00 0.536D+00
 Gap=     0.278 Goal=   None    Shift=    0.000
 RMSDP=1.46D-08 MaxDP=1.96D-07 DE=-2.44D-12 OVMax= 2.05D-07

 Cycle  12  Pass 1  IDiag  1:
 E= -171.002378662440     Delta-E=       -0.000000000000 Rises=F Damp=F
 DIIS: error= 1.25D-08 at cycle   6 NSaved=   6.
 NSaved= 6 IEnMin= 6 EnMin= -171.002378662440     IErMin= 6 ErrMin= 1.25D-08
 ErrMax= 1.25D-08  0.00D+00 EMaxC= 1.00D-01 BMatC= 1.81D-14 BMatP= 1.11D-12
 IDIUse=1 WtCom= 1.00D+00 WtEn= 0.00D+00
 Coeff-Com: -0.497D-02-0.453D-02 0.773D-02 0.119D+00 0.192D+00 0.691D+00
 Coeff:     -0.497D-02-0.453D-02 0.773D-02 0.119D+00 0.192D+00 0.691D+00
 Gap=     0.278 Goal=   None    Shift=    0.000
 RMSDP=3.42D-09 MaxDP=3.66D-08 DE=-3.98D-13 OVMax= 5.74D-08

 SCF Done:  E(RB3LYP) =  -171.002378662     A.U. after   12 cycles
            NFock= 12  Conv=0.34D-08     -V/T= 2.0090
 KE= 1.694767508925D+02 PE=-5.649129415175D+02 EE= 1.421564539084D+02
 Leave Link  502 at Mon Oct 14 02:25:28 2019, MaxMem= 10737418240 cpu:               9.6 elap:               0.4
 (Enter /apps/cent7/gaussian/g16-A.03/g16-haswell/g16/l701.exe)
 ... and contract with generalized density number  0.
 Compute integral first derivatives.
 Leave Link  701 at Mon Oct 14 02:25:28 2019, MaxMem= 10737418240 cpu:               2.0 elap:               0.1
 (Enter /apps/cent7/gaussian/g16-A.03/g16-haswell/g16/l702.exe)
 L702 exits ... SP integral derivatives will be done elsewhere.
 Leave Link  702 at Mon Oct 14 02:25:28 2019, MaxMem= 10737418240 cpu:               0.5 elap:               0.0
 (Enter /apps/cent7/gaussian/g16-A.03/g16-haswell/g16/l703.exe)
 Integral derivatives from FoFJK, PRISM(SPDF).
 Compute integral first derivatives, UseDBF=F ICtDFT=           0.
 Calling FoFJK, ICntrl=      2127 FMM=F ISym2X=0 I1Cent= 0 IOpClX= 0 NMat=1 NMatS=1 NMatT=0.
 FoFJK:  IHMeth= 1 ICntrl=    2127 DoSepK=F KAlg= 0 I1Cent=           0 FoldK=F
 IRaf=         0 NMat=       1 IRICut=       1 DoRegI=T DoRafI=F ISym2E= 0 IDoP0=0 IntGTp=1.
 FoFCou: FMM=F IPFlag=           0 FMFlag=      100000 FMFlg1=         800
         NFxFlg=           0 DoJE=F BraDBF=F KetDBF=F FulRan=T
         wScrn=  0.000000 ICntrl=      2127 IOpCl=  0 I1Cent=           0 NGrid=           0
         NMat0=    1 NMatS0=      1 NMatT0=    0 NMatD0=    1 NMtDS0=    0 NMtDT0=    0
 Symmetry not used in FoFCou.
 Leave Link  703 at Mon Oct 14 02:25:28 2019, MaxMem= 10737418240 cpu:               5.0 elap:               0.2
 (Enter /apps/cent7/gaussian/g16-A.03/g16-haswell/g16/l716.exe)
 Dipole        = 2.00999186D-01 3.23414808D-01-4.58695601D-01
 ***** Axes restored to original set *****
 -------------------------------------------------------------------
 Center     Atomic                   Forces (Hartrees/Bohr)
 Number     Number              X              Y              Z
 -------------------------------------------------------------------
      1        6           0.001323158    0.007931370   -0.004840177
      2        7           0.004867168   -0.020507525    0.017424622
      3        8           0.000126325    0.001157590   -0.001379631
      4        1           0.000286735   -0.000070238   -0.000902591
      5        1          -0.000396991    0.000341824    0.000738684
      6        1          -0.000298546   -0.000163095    0.000541414
      7        1          -0.005221340    0.007427393   -0.007347536
      8        1          -0.000686509    0.003882681   -0.004234785
 -------------------------------------------------------------------
 Cartesian Forces:  Max     0.020507525 RMS     0.006491132
 Leave Link  716 at Mon Oct 14 02:25:28 2019, MaxMem= 10737418240 cpu:               1.0 elap:               0.1
 (Enter /apps/cent7/gaussian/g16-A.03/g16-haswell/g16/l103.exe)

 GradGradGradGradGradGradGradGradGradGradGradGradGradGradGradGradGradGrad
 Berny optimization.
 Using GEDIIS/GDIIS optimizer.
 FormGI is forming the generalized inverse of G from B-inverse, IUseBI=4.
 Internal  Forces:  Max     0.006482961 RMS     0.003431093
 Search for a local minimum.
 Step number   3 out of a maximum of   35
 All quantities printed in internal units (Hartrees-Bohrs-Radians)
 RMS Force = .34311D-02 SwitMx=.10000D-02 MixMth= 1
 Mixed Optimization -- RFO/linear search
 Update second derivatives using D2CorX and points    2    3
 DE= -6.68D-03 DEPred=-3.76D-03 R= 1.78D+00
 TightC=F SS=  1.41D+00  RLast= 6.34D-01 DXNew= 8.4853D-01 1.9029D+00
 Trust test= 1.78D+00 RLast= 6.34D-01 DXMaxT set to 8.49D-01
 ITU=  1  1  0
 Use linear search instead of GDIIS.
     Eigenvalues ---    0.00046   0.00827   0.03306   0.07165   0.07637
     Eigenvalues ---    0.15396   0.15976   0.16000   0.16419   0.20898
     Eigenvalues ---    0.28016   0.34806   0.34850   0.35006   0.45830
     Eigenvalues ---    0.53380   0.54893   1.49092
 RFO step:  Lambda=-1.02770350D-02 EMin= 4.60996467D-04
 Skip linear search -- no minimum in search direction.
 Iteration  1 RMS(Cart)=  0.07156852 RMS(Int)=  0.09014685
 Iteration  2 RMS(Cart)=  0.07094765 RMS(Int)=  0.02435578
 Iteration  3 RMS(Cart)=  0.01729309 RMS(Int)=  0.01577308
 Iteration  4 RMS(Cart)=  0.00054253 RMS(Int)=  0.01576589
 Iteration  5 RMS(Cart)=  0.00000695 RMS(Int)=  0.01576589
 Iteration  6 RMS(Cart)=  0.00000032 RMS(Int)=  0.01576589
 ITry= 1 IFail=0 DXMaxC= 2.67D-01 DCOld= 1.00D+10 DXMaxT= 8.49D-01 DXLimC= 3.00D+00 Rises=F
 Variable       Old X    -DE/DX   Delta X   Delta X   Delta X     New X
                                 (Linear)    (Quad)   (Total)
    R1        2.68610   0.00463   0.00000  -0.07551  -0.07551   2.61059
    R2        2.07888  -0.00033   0.00000   0.01968   0.01968   2.09856
    R3        2.07353  -0.00079   0.00000  -0.00115  -0.00115   2.07238
    R4        2.09202  -0.00042   0.00000   0.01981   0.01981   2.11184
    R5        2.65890  -0.00074   0.00000   0.04166   0.04166   2.70056
    R6        1.89665   0.00272   0.00000   0.00168   0.00168   1.89832
    R7        1.85028  -0.00560   0.00000   0.00853   0.00853   1.85881
    A1        1.92364   0.00149   0.00000   0.07482   0.07312   1.99676
    A2        1.88053  -0.00072   0.00000  -0.06879  -0.06746   1.81306
    A3        2.01230  -0.00075   0.00000   0.05727   0.05552   2.06782
    A4        1.88204  -0.00031   0.00000  -0.02446  -0.02302   1.85903
    A5        1.87920  -0.00026   0.00000  -0.03058  -0.03401   1.84519
    A6        1.88196   0.00055   0.00000  -0.01472  -0.01373   1.86823
    A7        2.06315  -0.00648   0.00000   0.00104  -0.03268   2.03047
    A8        2.16183  -0.00031   0.00000  -0.07602  -0.11817   2.04366
    A9        1.97664   0.00297   0.00000  -0.13165  -0.18085   1.79579
   A10        1.80663   0.00165   0.00000  -0.08469  -0.08469   1.72194
    D1        1.03529   0.00490   0.00000   0.37370   0.36679   1.40208
    D2       -2.55847  -0.00451   0.00000  -0.20025  -0.18983  -2.74830
    D3        3.08466   0.00492   0.00000   0.34565   0.33677  -2.86175
    D4       -0.50910  -0.00448   0.00000  -0.22830  -0.21984  -0.72895
    D5       -1.09624   0.00461   0.00000   0.31329   0.30308  -0.79316
    D6        1.59318  -0.00480   0.00000  -0.26066  -0.25353   1.33964
    D7       -1.80921  -0.00344   0.00000   0.07454   0.08862  -1.72059
    D8        1.73832   0.00552   0.00000   0.58002   0.56594   2.30426
         Item               Value     Threshold  Converged?
 Maximum Force            0.006483     0.000450     NO 
 RMS     Force            0.003431     0.000300     NO 
 Maximum Displacement     0.267224     0.001800     NO 
 RMS     Displacement     0.140343     0.001200     NO 
 Predicted change in Energy=-8.530947D-03
 Lowest energy point so far.  Saving SCF results.
 GradGradGradGradGradGradGradGradGradGradGradGradGradGradGradGradGradGrad

 Leave Link  103 at Mon Oct 14 02:25:28 2019, MaxMem= 10737418240 cpu:               0.5 elap:               0.0
 (Enter /apps/cent7/gaussian/g16-A.03/g16-haswell/g16/l202.exe)
                          Input orientation:                          
 ---------------------------------------------------------------------
 Center     Atomic      Atomic             Coordinates (Angstroms)
 Number     Number       Type             X           Y           Z
 ---------------------------------------------------------------------
      1          6           0        1.403917    0.029317   -0.328836
      2          7           0        0.315367   -0.369216    0.422612
      3          8           0       -0.246109    0.612950    1.295739
      4          1           0        2.369202    0.018368    0.220104
      5          1           0        1.480173   -0.737756   -1.108862
      6          1           0        1.360833    1.019089   -0.845926
      7          1           0       -0.486622   -0.708673   -0.078090
      8          1           0        0.186538    0.331421    2.133059
 ---------------------------------------------------------------------
                    Distance matrix (angstroms):
                    1          2          3          4          5
     1  C    0.000000
     2  N    1.381465   0.000000
     3  O    2.387983   1.429076   0.000000
     4  H    1.110509   2.099873   2.889701   0.000000
     5  H    1.096657   1.959084   3.253701   1.768685   0.000000
     6  H    1.117536   2.151646   2.708125   1.776139   1.780416
     7  H    2.044906   1.004550   1.921442   2.961965   2.220725
     8  H    2.763007   1.852867   0.983639   2.919147   3.650573
                    6          7          8
     6  H    0.000000
     7  H    2.643449   0.000000
     8  H    3.275089   2.534584   0.000000
 Stoichiometry    CH5NO
 Framework group  C1[X(CH5NO)]
 Deg. of freedom    18
 Full point group                 C1      NOp   1
 RotChk:  IX=2 Diff= 1.63D-01
 Largest Abelian subgroup         C1      NOp   1
 Largest concise Abelian subgroup C1      NOp   1
                         Standard orientation:                         
 ---------------------------------------------------------------------
 Center     Atomic      Atomic             Coordinates (Angstroms)
 Number     Number       Type             X           Y           Z
 ---------------------------------------------------------------------
[...]
     19  0.632318D-02 -0.514576D-03 -0.441288D-02  0.352345D-02  0.145580D-01
     20 -0.442291D-02  0.375146D-02 -0.513253D-03 -0.239827D-02 -0.169251D-01
     21  0.407337D-02  0.363678D-02  0.289144D-03 -0.469493D-02  0.173009D-01
     22 -0.624763D-02 -0.503182D-02  0.459436D-02  0.131295D-02 -0.140648D-01
     23  0.224865D-02 -0.514650D-02  0.539676D-02 -0.983707D-03  0.201612D-01
     24  0.133058D-01  0.473860D-03 -0.231722D-03 -0.811369D-03  0.931765D-03
     25 -0.191461D-01 -0.126762D-02 -0.877108D-03  0.133784D-02 -0.291755D-03
                6             7             8             9            10 
      6  0.423274D+00
      7 -0.124176D-02  0.502133D+00
      8  0.614485D-02  0.395843D-03  0.126565D+00
      9  0.769026D-03  0.229325D-03 -0.203142D-01  0.118231D+00
     10 -0.445598D-02 -0.133846D-02 -0.290932D-01 -0.256827D-01  0.125367D+00
     11 -0.223590D-02 -0.163396D-03 -0.399734D-01 -0.395538D-01  0.907910D-02
     12 -0.520658D-03  0.425053D-03 -0.469198D-01  0.958119D-02 -0.426563D-01
     13  0.332510D-03  0.482772D-03  0.904741D-02 -0.436155D-01 -0.402610D-01
     14  0.669638D-02  0.329196D-02 -0.119030D-01  0.313729D-01 -0.193664D-01
     15  0.117106D-01 -0.198162D-02  0.154963D-01 -0.990419D-02 -0.177985D-02
     16 -0.445456D-02  0.307589D-03 -0.197104D-02 -0.561345D-02  0.483420D-02
     17  0.440278D-02  0.301193D-03 -0.880177D-03  0.473829D-02 -0.173716D-02
     18 -0.168531D-02 -0.676391D-03 -0.647333D-03 -0.110680D-01  0.129862D-01
     19  0.139292D-02  0.289764D-03 -0.146869D-02 -0.765313D-02  0.897866D-02
     20 -0.576537D-03 -0.527653D-03  0.924257D-02 -0.316218D-02 -0.635739D-02
     21  0.250170D-02  0.438502D-03  0.842122D-02  0.252649D-03 -0.103650D-01
     22 -0.245970D-02 -0.610588D-03 -0.121705D-01  0.843125D-02  0.472203D-02
     23  0.618533D-03  0.355566D-03 -0.129919D-01  0.118461D-01  0.714437D-03
     24  0.846527D-02 -0.671808D-03  0.562471D-02 -0.185183D-02 -0.331732D-02
     25 -0.512303D-02  0.169249D-03 -0.629488D-02 -0.153640D-03  0.380952D-02
               11            12            13            14            15 
     11  0.557329D-01
     12  0.891797D-02  0.633411D-01
     13  0.852776D-02  0.888448D-02  0.590783D-01
     14 -0.485626D-02  0.873980D-02 -0.367708D-02  0.266108D+00
     15 -0.144869D-02 -0.504883D-02  0.271974D-02 -0.494340D-01  0.915685D-01
     16  0.183253D-02 -0.395753D-04  0.888859D-03 -0.723755D-01 -0.275967D-01
     17 -0.122776D-02  0.318521D-03 -0.122050D-02  0.160647D-01 -0.104190D-01
     18 -0.104026D-01  0.845038D-02 -0.493476D-03 -0.138489D-01  0.790818D-02
     19 -0.111405D-01  0.101337D-01  0.521116D-04  0.207447D-02 -0.567871D-02
     20  0.120879D-01 -0.108967D-02 -0.977763D-02 -0.858253D-02  0.907744D-02
     21  0.113500D-01  0.593638D-03 -0.923204D-02  0.734088D-02 -0.450944D-02
     22  0.857096D-03 -0.103515D-01  0.853076D-02 -0.353755D-02  0.441693D-02
     23  0.119188D-03 -0.866819D-02  0.907635D-02  0.123859D-01 -0.916995D-02
     24 -0.428210D-03 -0.103797D-02  0.111262D-02 -0.330365D-03  0.353481D-01
     25  0.220635D-02  0.132516D-02 -0.915008D-03 -0.137194D-01 -0.360625D-01
               16            17            18            19            20 
     16  0.628730D-01
     17  0.605413D-02  0.219683D+00
     18 -0.124811D-01 -0.607655D-02  0.222799D-01
     19  0.143730D-01  0.349342D-02  0.529269D-02  0.201021D-01
     20 -0.145055D-01 -0.537051D-02  0.337869D-02 -0.130266D-01  0.210125D-01
     21  0.123486D-01  0.419946D-02 -0.136085D-01  0.178281D-02  0.460727D-02
     22 -0.142426D-01 -0.469109D-02  0.326353D-02 -0.126097D-01  0.237562D-02
     23  0.126115D-01  0.487888D-02 -0.137237D-01  0.219969D-02 -0.140296D-01
     24 -0.115337D-01 -0.146826D-02 -0.146266D-02  0.744219D-03  0.507198D-04
     25  0.192086D-01  0.152248D-02  0.251939D-03  0.134877D-03 -0.630037D-03
               21            22            23            24            25 
     21  0.199986D-01
     22 -0.134976D-01  0.220967D-01
     23  0.189375D-02  0.622346D-02  0.221468D-01
     24  0.225760D-02 -0.196206D-02  0.244820D-03  0.196922D-01
     25 -0.747098D-03  0.536949D-03  0.419887D-03 -0.144857D-01  0.224426D-01
 Leave Link  716 at Mon Oct 14 02:25:47 2019, MaxMem= 10737418240 cpu:               1.1 elap:               0.1
 (Enter /apps/cent7/gaussian/g16-A.03/g16-haswell/g16/l103.exe)

 GradGradGradGradGradGradGradGradGradGradGradGradGradGradGradGradGradGrad
 Berny optimization.
 Red2BG is reusing G-inverse.
 Internal  Forces:  Max     0.000237530 RMS     0.000069180
 Search for a local minimum.
 Step number   1 out of a maximum of    2
 All quantities printed in internal units (Hartrees-Bohrs-Radians)
 Second derivative matrix not updated -- analytic derivatives used.
 ITU=  0
     Eigenvalues ---    0.00445   0.00595   0.05248   0.06227   0.06458
     Eigenvalues ---    0.12416   0.13646   0.15477   0.18022   0.18171
     Eigenvalues ---    0.27648   0.32289   0.33577   0.34069   0.35471
     Eigenvalues ---    0.39823   0.42743   0.50224
 Angle between quadratic step and forces=  64.01 degrees.
 Linear search not attempted -- first point.
 Iteration  1 RMS(Cart)=  0.00091230 RMS(Int)=  0.00000049
 Iteration  2 RMS(Cart)=  0.00000055 RMS(Int)=  0.00000006
 ITry= 1 IFail=0 DXMaxC= 1.67D-03 DCOld= 1.00D+10 DXMaxT= 3.00D-01 DXLimC= 3.00D+00 Rises=F
 Variable       Old X    -DE/DX   Delta X   Delta X   Delta X     New X
                                 (Linear)    (Quad)   (Total)
    R1        2.76156   0.00008   0.00000   0.00031   0.00031   2.76187
    R2        2.06752  -0.00003   0.00000  -0.00009  -0.00009   2.06743
    R3        2.07200  -0.00002   0.00000  -0.00007  -0.00007   2.07194
    R4        2.07940  -0.00008   0.00000  -0.00031  -0.00031   2.07908
    R5        2.73664   0.00024   0.00000   0.00097   0.00097   2.73761
    R6        1.93023  -0.00009   0.00000  -0.00024  -0.00024   1.92999
    R7        1.83320   0.00001   0.00000   0.00002   0.00002   1.83322
    A1        1.90339  -0.00000   0.00000  -0.00001  -0.00001   1.90337
    A2        1.88142  -0.00011   0.00000  -0.00089  -0.00089   1.88053
    A3        1.98165  -0.00003   0.00000  -0.00026  -0.00026   1.98140
    A4        1.89423   0.00004   0.00000   0.00013   0.00013   1.89437
    A5        1.89515   0.00004   0.00000   0.00046   0.00046   1.89561
    A6        1.90634   0.00007   0.00000   0.00057   0.00057   1.90691
    A7        1.86627   0.00010   0.00000   0.00024   0.00024   1.86651
    A8        1.88273   0.00003   0.00000   0.00016   0.00016   1.88288
    A9        1.78888  -0.00006   0.00000  -0.00056  -0.00056   1.78831
   A10        1.78166  -0.00004   0.00000  -0.00042  -0.00042   1.78124
    D1        1.23702   0.00003   0.00000   0.00206   0.00206   1.23909
    D2       -3.13294   0.00002   0.00000   0.00160   0.00160  -3.13134
    D3       -2.99281   0.00001   0.00000   0.00172   0.00172  -2.99110
    D4       -1.07959  -0.00000   0.00000   0.00125   0.00125  -1.07834
    D5       -0.87859   0.00000   0.00000   0.00165   0.00165  -0.87694
    D6        1.03463  -0.00001   0.00000   0.00119   0.00119   1.03582
    D7       -2.13285   0.00002   0.00000  -0.00012  -0.00012  -2.13297
    D8        2.17235  -0.00003   0.00000  -0.00015  -0.00015   2.17220
         Item               Value     Threshold  Converged?
 Maximum Force            0.000238     0.000450     YES
 RMS     Force            0.000069     0.000300     YES
 Maximum Displacement     0.001673     0.001800     YES
 RMS     Displacement     0.000912     0.001200     YES
 Predicted change in Energy=-3.278915D-07
 Optimization completed.
    -- Stationary point found.
                           ----------------------------
                           !   Optimized Parameters   !
                           ! (Angstroms and Degrees)  !
 --------------------------                            --------------------------
 ! Name  Definition              Value          Derivative Info.                !
 --------------------------------------------------------------------------------
 ! R1    R(1,2)                  1.4614         -DE/DX =    0.0001              !
 ! R2    R(1,4)                  1.0941         -DE/DX =    0.0                 !
 ! R3    R(1,5)                  1.0965         -DE/DX =    0.0                 !
 ! R4    R(1,6)                  1.1004         -DE/DX =   -0.0001              !
 ! R5    R(2,3)                  1.4482         -DE/DX =    0.0002              !
 ! R6    R(2,7)                  1.0214         -DE/DX =   -0.0001              !
 ! R7    R(3,8)                  0.9701         -DE/DX =    0.0                 !
 ! A1    A(2,1,4)              109.056          -DE/DX =    0.0                 !
 ! A2    A(2,1,5)              107.7977         -DE/DX =   -0.0001              !
 ! A3    A(2,1,6)              113.5404         -DE/DX =    0.0                 !
 ! A4    A(4,1,5)              108.5315         -DE/DX =    0.0                 !
 ! A5    A(4,1,6)              108.5838         -DE/DX =    0.0                 !
 ! A6    A(5,1,6)              109.225          -DE/DX =    0.0001              !
 ! A7    A(1,2,3)              106.9292         -DE/DX =    0.0001              !
 ! A8    A(1,2,7)              107.8722         -DE/DX =    0.0                 !
 ! A9    A(3,2,7)              102.4951         -DE/DX =   -0.0001              !
 ! A10   A(2,3,8)              102.0814         -DE/DX =    0.0                 !
 ! D1    D(4,1,2,3)             70.8762         -DE/DX =    0.0                 !
 ! D2    D(4,1,2,7)           -179.5043         -DE/DX =    0.0                 !
 ! D3    D(5,1,2,3)           -171.4756         -DE/DX =    0.0                 !
 ! D4    D(5,1,2,7)            -61.8561         -DE/DX =    0.0                 !
 ! D5    D(6,1,2,3)            -50.3393         -DE/DX =    0.0                 !
 ! D6    D(6,1,2,7)             59.2802         -DE/DX =    0.0                 !
 ! D7    D(1,2,3,8)           -122.2031         -DE/DX =    0.0                 !
 ! D8    D(7,2,3,8)            124.4666         -DE/DX =    0.0                 !
 --------------------------------------------------------------------------------
 GradGradGradGradGradGradGradGradGradGradGradGradGradGradGradGradGradGrad

 Leave Link  103 at Mon Oct 14 02:25:47 2019, MaxMem= 10737418240 cpu:               0.3 elap:               0.0
 (Enter /apps/cent7/gaussian/g16-A.03/g16-haswell/g16/l9999.exe)

 ----------------------------------------------------------------------

 Electric dipole moment (input orientation):
 (Debye = 10**-18 statcoulomb cm , SI units = C m)
                  (au)            (Debye)         (10**-30 SI)
   Tot        0.248015D+00      0.630391D+00      0.210276D+01
   x          0.755434D-01      0.192012D+00      0.640484D+00
   y         -0.199938D+00     -0.508192D+00     -0.169515D+01
   z         -0.125815D+00     -0.319790D+00     -0.106670D+01

 Dipole polarizability, Alpha (input orientation).
 (esu units = cm**3 , SI units = C**2 m**2 J**-1)
 Alpha(0;0):
               (au)            (10**-24 esu)      (10**-40 SI)
   iso        0.234051D+02      0.346829D+01      0.385899D+01
   aniso      0.821824D+01      0.121782D+01      0.135500D+01
   xx         0.223991D+02      0.331920D+01      0.369311D+01
   yx        -0.203227D+00     -0.301152D-01     -0.335077D-01
   yy         0.207948D+02      0.308148D+01      0.342860D+01
   zx        -0.240713D+01     -0.356699D+00     -0.396882D+00
   zy         0.249509D+01      0.369734D+00      0.411385D+00
   zz         0.270215D+02      0.400418D+01      0.445525D+01

 ----------------------------------------------------------------------

 Dipole orientation:
     6          2.29609281         -1.00896422          1.18426717
     7          0.69051104          1.10753045          0.43011131
     8          0.87436856          1.31669590         -2.29231939
     1          4.27804072         -0.47281563          0.94122159
     1          1.95533767         -1.37749511          3.19455799
     1          1.94211767         -2.74752302          0.09983096
     1         -1.14772545          0.57677537          0.68498382
     1          1.47580320          3.03527099         -2.50535562

 Electric dipole moment (dipole orientation):
 (Debye = 10**-18 statcoulomb cm , SI units = C m)
                  (au)            (Debye)         (10**-30 SI)
   Tot        0.248015D+00      0.630391D+00      0.210276D+01
   x          0.000000D+00      0.000000D+00      0.000000D+00
   y          0.000000D+00      0.000000D+00      0.000000D+00
   z          0.248015D+00      0.630391D+00      0.210276D+01

 Dipole polarizability, Alpha (dipole orientation).
 (esu units = cm**3 , SI units = C**2 m**2 J**-1)
 Alpha(0;0):
               (au)            (10**-24 esu)      (10**-40 SI)
   iso        0.234051D+02      0.346829D+01      0.385899D+01
   aniso      0.821824D+01      0.121782D+01      0.135500D+01
   xx         0.215947D+02      0.320001D+01      0.356049D+01
   yx        -0.408685D+00     -0.605609D-01     -0.673831D-01
   yy         0.231903D+02      0.343644D+01      0.382356D+01
   zx        -0.256133D+00     -0.379550D-01     -0.422306D-01
   zy        -0.430901D+01     -0.638530D+00     -0.710461D+00
   zz         0.254305D+02      0.376841D+01      0.419292D+01

 ----------------------------------------------------------------------
 1\1\GINC-BROWN-A405\Freq\RB3LYP\6-31G(d)\C1H5N1O1\FINEJ\14-Oct-2019\0\
 \#P Geom=AllCheck Guess=TCheck SCRF=Check GenChk RB3LYP/6-31G(d) Freq\
 \Title Card Required\\0,1\C,1.4181154422,-0.0035522489,-0.3782413065\N
 ,0.3167616335,-0.4573431507,0.4683077487\O,-0.0487749837,0.6569277371,
 1.3179948121\H,2.3169670614,0.1095980043,0.2351794461\H,1.604689321,-0
 .7795796603,-1.130032235\H,1.2174121231,0.951886345,-0.8858503667\H,-0
 .5092807689,-0.5647733977,-0.122823177\H,0.0674101716,0.2823363713,2.2
 052650782\\Version=ES64L-G16RevA.03\State=1-A\HF=-171.0185896\RMSD=2.1
 52e-09\RMSF=1.022e-04\ZeroPoint=0.0688135\Thermal=0.0688135\Dipole=0.0
 755434,-0.1999382,-0.1258149\DipoleDeriv=0.3326461,0.0561229,-0.085151
 9,0.0027945,0.2984942,-0.0677779,-0.0286946,-0.1040768,0.2473143,-0.06
 00416,-0.1138808,-0.0242687,-0.1232204,-0.2231037,0.3224269,0.0252576,
 0.2994315,0.0376946,-0.4980676,0.0031484,0.1761149,0.0564288,-0.382822
 4,-0.3551208,0.1426788,-0.1646358,-0.4292591,-0.1009057,-0.0194885,-0.
 0563518,-0.0365514,0.0525678,0.0213989,-0.1087279,-0.0028455,-0.019646
 7,0.0362521,0.0061656,0.0322344,0.0118173,-0.0505818,-0.1002929,0.0609
 156,-0.0909816,-0.0520028,-0.0222826,0.0407601,0.0129312,-0.0267974,-0
 .1366869,0.1546645,0.0291267,0.1023663,-0.0350064,0.005073,-0.0152174,
 -0.0371423,0.075191,0.2236713,-0.0380707,-0.0950924,-0.0912302,0.05731
 75,0.3073264,0.0423897,-0.0183659,0.0403377,0.2184615,0.062772,-0.0254
 638,0.0519721,0.1935886\Polar=22.3990841,-0.2032274,20.7948284,-2.4071
 267,2.4950898,27.0215358\Quadrupole=-0.0612835,-2.4716352,2.5329187,0.
 8277614,0.2005401,0.304862\PG=C01 [X(C1H5N1O1)]\NImag=0\\0.54283369,-0
 .01439963,0.58345913,0.05789150,0.03642303,0.55216624,-0.16440635,-0.0
 7794812,0.06405755,0.55897797,-0.02889247,-0.09783185,0.01351957,0.065
 32449,0.27564618,0.03129753,0.03840398,-0.11700024,0.07168497,0.067061
 81,0.43861369,-0.00548926,0.03238999,0.01978903,-0.06545901,0.02403387
 ,0.01427884,0.06806321,0.00085358,-0.00007273,0.00048487,0.02252367,-0
 .14756797,-0.07123782,-0.07244772,0.27882705,0.01339702,-0.03453879,-0
 .02790721,0.01414916,-0.06195372,-0.12269099,0.02133454,-0.07947250,0.
 57877565,-0.22031851,-0.01803794,-0.12427139,-0.02822131,-0.01030473,-
 0.01120403,0.00293604,0.00154124,0.00000570,0.24737064,-0.01805231,-0.
 05435409,-0.01137541,-0.01233075,-0.00285935,-0.00903225,0.00077722,0.
 00008933,0.00097530,0.02724227,0.05386248,-0.13181594,-0.01584786,-0.1
 4393290,0.02237601,0.00408683,0.01335715,-0.00104139,0.00043443,0.0019
 5272,0.13342321,0.01256470,0.14971131,-0.05852323,0.02525529,0.0252576
 8,-0.00291945,0.02030639,0.01883444,-0.00326291,-0.00077407,0.00643598
 ,0.00721548,-0.01967218,-0.01767616,0.06016827,0.02967051,-0.18698789,
 -0.12907505,-0.00023216,0.00703193,0.00734226,-0.00184263,0.00211479,0
 .00229053,0.00011356,-0.00163753,-0.00030921,-0.03198146,0.19661590,0.
 02949399,-0.12338737,-0.16965116,0.00081709,-0.01493489,-0.01523248,0.
 00456977,0.00167289,-0.00289456,0.00370957,-0.01244907,-0.01165452,-0.
 03658210,0.13996406,0.18620166,-0.06662267,0.05012174,-0.02671357,-0.0
 0009565,-0.03085779,0.02194789,0.00180181,0.00037694,-0.00413382,-0.00
 450900,0.02378489,-0.01098169,-0.00129506,0.00353460,-0.00289774,0.068
 28164,0.04772405,-0.23751038,0.09438639,-0.00572007,-0.01153074,0.0093
 0175,-0.00068016,0.00455263,-0.00043770,0.00007194,0.00370358,-0.00221
 054,0.00533763,-0.01787423,0.01022543,-0.04659233,0.25852877,-0.027321
 16,0.09225030,-0.10064702,0.00807697,0.02179231,-0.01471830,-0.0022909
 7,0.00038922,0.00273514,-0.00530407,0.01731017,-0.00777607,0.00452218,
 -0.01966636,0.01240250,0.02309683,-0.11017595,0.10656201,-0.02739900,0
 .00088816,-0.02095980,-0.29596425,-0.03688753,-0.16134205,0.01377654,0
 .00935333,0.01351214,-0.00376831,-0.00189850,0.00565267,0.00006195,0.0
 0060717,0.00035146,0.00251560,-0.00034752,-0.00047864,0.31028408,-0.01
 753386,-0.00361678,-0.00166286,0.01072051,-0.02584019,0.00320815,-0.02
 044135,-0.01648126,-0.03520734,-0.00051796,0.00081144,0.00084767,0.000
 68604,0.00023214,-0.00052362,-0.00032018,0.00032581,-0.00167476,0.0274
 6208,0.04832016,0.02590106,0.00932572,0.01054403,-0.17835527,-0.035063
 18,-0.16246185,-0.00896737,-0.00596734,-0.02467358,0.00379183,0.001907
 21,-0.00154029,-0.00154566,-0.00071483,0.00083274,0.00047313,-0.000390
 13,0.00087577,0.16100879,0.03680029,0.17898294,-0.00007469,0.00173052,
 0.00494900,-0.00191195,-0.00272223,0.01450240,-0.01236642,0.03857303,-
 0.06470073,-0.00070503,0.00014936,0.00006329,-0.00144505,0.00013040,0.
 00053796,-0.00007666,0.00020646,-0.00030114,0.00049338,-0.00005528,-0.
 00230653,0.01608642,0.00063012,-0.00308541,-0.00270054,-0.00233757,0.0
 0295199,-0.04504789,0.03821078,-0.12146184,0.20834421,-0.00010837,0.00
 038414,0.00043399,0.00084235,0.00050489,-0.00056744,-0.00004788,-0.000
 19543,-0.00022493,0.00082282,-0.00375132,-0.00589773,-0.03801226,0.124
 65299,0.00115599,-0.00262901,-0.00357175,-0.00280650,0.00549127,-0.019
 86699,-0.04767246,0.15369624,-0.40529718,-0.00015082,0.00009935,-0.000
 11741,0.00075363,0.00016859,-0.00000417,-0.00079103,-0.00069925,0.0005
 6597,0.00225543,-0.00178752,-0.00255976,0.04725574,-0.15433968,0.43085
 128\\-0.00017717,-0.00014356,0.00014525,0.00000788,0.00021069,0.000186
 87,0.00011893,-0.00019880,-0.00012675,0.00002705,0.00002933,0.00000360
 ,0.00005691,0.00003416,-0.00005518,0.00001704,0.00005964,-0.00006597,-
 0.00004954,-0.00001593,-0.00008912,-0.00000108,0.00002447,0.00000129\\
 \@


 THERE IS AN OLD, OLD RECIPE IN MAINE FOR STEWING COOT. PLACE THE
 BIRD IN A KETTLE OF WATER WITH A RED BUILDING BRICK FREE OF MORTAR AND
 BLEMISHES. PARBOIL THE COOT AND BRICK TOGETHER FOR THREE HOURS.
 POUR OFF THE WATER, REFILL THE KETTLE, AND AGAIN PARBOIL FOR THREE HOURS.
 ONCE AGAIN POUR OFF THE WATER, FOR THE LAST TIME ADD FRESH WATER,
 AND LET THE COOT AND BRICK SIMMER TOGETHER OVERNIGHT. IN THE MORNING,
 THROW AWAY THE COOT AND EAT THE BRICK.
 Job cpu time:       0 days  0 hours  1 minutes 19.6 seconds.
 Elapsed time:       0 days  0 hours  0 minutes  3.8 seconds.
 File lengths (MBytes):  RWF=      6 Int=      0 D2E=      0 Chk=      1 Scr=      1
 Normal termination of Gaussian 16 at Mon Oct 14 02:25:47 2019.
real 28.72
user 455.56
sys 13.60
Machine:
brown-a405
brown-a405
brown-a405
brown-a405
brown-a405
brown-a405
brown-a405
brown-a405
brown-a405
brown-a405
brown-a405
brown-a405
brown-a405
brown-a405
brown-a405
brown-a405
brown-a405
brown-a405
brown-a405
brown-a405
brown-a405
brown-a405
brown-a405
brown-a405
