Title Card Required                                                     
Freq      RB3LYP                                                      6-31G(d)            
Number of atoms                            I                9
Info1-9                                    I   N=           9
          28          28        1002           0           0         100
           6          18        -502
Full Title                                 C   N=           2
Title Card Required     
Route                                      C   N=           6
#P opt freq b3lyp/6-31g(d) geom=connectivity temperature=0.0
01          
Charge                                     I                1
Multiplicity                               I                1
Number of electrons                        I               26
Number of alpha electrons                  I               13
Number of beta electrons                   I               13
Number of basis functions                  I               57
Number of independent functions            I               57
Number of point charges in /Mol/           I                0
Number of translation vectors              I                0
Atomic numbers                             I   N=           9
           6           7           8           1           1           1
           1           1           1
Nuclear charges                            R   N=           9
  6.00000000E+00  7.00000000E+00  8.00000000E+00  1.00000000E+00  1.00000000E+00
  1.00000000E+00  1.00000000E+00  1.00000000E+00  1.00000000E+00
Current cartesian coordinates              R   N=          27
  2.29820289E+00 -4.97943853E-01  4.40876181E-02 -1.21829101E-01  9.80813623E-01
 -9.11089936E-02 -2.32580589E+00 -4.96735788E-01  2.11304471E-01  2.37200646E+00
 -1.77467893E+00 -1.57368919E+00  3.86552583E+00  8.45229974E-01 -2.82044451E-02
  2.28718111E+00 -1.54008523E+00  1.82065658E+00 -2.46284969E-01  2.22916040E+00
  1.39347192E+00 -2.35455299E+00 -1.69433691E+00 -1.20112963E+00 -2.53841972E-01
  2.03056476E+00 -1.72830375E+00
Number of symbols in /Mol/                 I                0
Force Field                                I                0
Atom Types                                 C   N=           9
                                                            
                                                
Int Atom Types                             I   N=           9
           0           0           0           0           0           0
           0           0           0
MM charges                                 R   N=           9
  0.00000000E+00  0.00000000E+00  0.00000000E+00  0.00000000E+00  0.00000000E+00
  0.00000000E+00  0.00000000E+00  0.00000000E+00  0.00000000E+00
Integer atomic weights                     I   N=           9
          12          14          16           1           1           1
           1           1           1
Real atomic weights                        R   N=           9
  1.20000000E+01  1.40030740E+01  1.59949146E+01  1.00782504E+00  1.00782504E+00
  1.00782504E+00  1.00782504E+00  1.00782504E+00  1.00782504E+00
Atom fragment info                         I   N=           9
           0           0           0           0           0           0
           0           0           0
Atom residue num                           I   N=           9
           0           0           0           0           0           0
           0           0           0
Nuclear spins                              I   N=           9
           0           2           0           1           1           1
           1           1           1
Nuclear ZEff                               R   N=           9
 -3.60000000E+00 -4.55000000E+00 -5.60000000E+00 -1.00000000E+00 -1.00000000E+00
 -1.00000000E+00 -1.00000000E+00 -1.00000000E+00 -1.00000000E+00
Nuclear ZNuc                               R   N=           9
  6.00000000E+00  7.00000000E+00  8.00000000E+00  1.00000000E+00  1.00000000E+00
  1.00000000E+00  1.00000000E+00  1.00000000E+00  1.00000000E+00
Nuclear QMom                               R   N=           9
  0.00000000E+00  2.04400000E+00  0.00000000E+00  0.00000000E+00  0.00000000E+00
  0.00000000E+00  0.00000000E+00  0.00000000E+00  0.00000000E+00
Nuclear GFac                               R   N=           9
  0.00000000E+00  4.03761000E-01  0.00000000E+00  2.79284600E+00  2.79284600E+00
  2.79284600E+00  2.79284600E+00  2.79284600E+00  2.79284600E+00
MicOpt                                     I   N=           9
          -1          -1          -1          -1          -1          -1
          -1          -1          -1
Number of residues                         I                0
Number of secondary structures             I                0
Redundant internal dimensions              I   N=           4
          33           8          13          12
Redundant internal coordinate indices      I   N=         132
           1           2           0           0           1           4
           0           0           1           5           0           0
           1           6           0           0           2           3
           0           0           2           7           0           0
           2           9           0           0           3           8
           0           0           2           1           4           0
           2           1           5           0           2           1
           6           0           4           1           5           0
           4           1           6           0           5           1
           6           0           1           2           3           0
           1           2           7           0           1           2
           9           0           3           2           7           0
           3           2           9           0           7           2
           9           0           2           3           8           0
           4           1           2           3           4           1
           2           7           4           1           2           9
           5           1           2           3           5           1
           2           7           5           1           2           9
           6           1           2           3           6           1
           2           7           6           1           2           9
           1           2           3           8           7           2
           3           8           9           2           3           8
Redundant internal coordinates             R   N=          33
  2.83928805E+00  2.06220786E+00  2.06539180E+00  2.05970324E+00  2.67060290E+00
  1.94366649E+00  1.94931053E+00  1.85203805E+00  1.89187961E+00  1.88223486E+00
  1.87551769E+00  1.92623968E+00  1.94291645E+00  1.94259652E+00  1.99310600E+00
  1.93126263E+00  1.95863566E+00  1.78851902E+00  1.91469832E+00  1.86637758E+00
  1.85898173E+00  1.15005389E+00 -3.12618769E+00 -1.04299360E+00 -3.04754770E+00
 -1.04060396E+00  1.04259013E+00 -9.51613468E-01  1.05533027E+00  3.13852435E+00
 -1.09093890E+00  3.10310785E+00  1.12501969E+00
ZRed-IntVec                                I   N=          33
           0           0           0           0           0           0
           0           0           0           0           0           0
           0           0           0           0           0           0
           0           0           0           0           0           0
           0           0           0           0           0           0
           0           0           0
ZRed-FPVec                                 R   N=          33
  0.00000000E+00  0.00000000E+00  0.00000000E+00  0.00000000E+00  0.00000000E+00
  0.00000000E+00  0.00000000E+00  0.00000000E+00  0.00000000E+00  0.00000000E+00
  0.00000000E+00  0.00000000E+00  0.00000000E+00  0.00000000E+00  0.00000000E+00
  0.00000000E+00  0.00000000E+00  0.00000000E+00  0.00000000E+00  0.00000000E+00
  0.00000000E+00  0.00000000E+00  0.00000000E+00  0.00000000E+00  0.00000000E+00
  0.00000000E+00  0.00000000E+00  0.00000000E+00  0.00000000E+00  0.00000000E+00
  0.00000000E+00  0.00000000E+00  0.00000000E+00
ZRed-Constraint1                           R   N=          33
  2.83928805E+00  2.06220786E+00  2.06539180E+00  2.05970324E+00  2.67060290E+00
  1.94366649E+00  1.94931053E+00  1.85203805E+00  1.89187961E+00  1.88223486E+00
  1.87551769E+00  1.92623968E+00  1.94291645E+00  1.94259652E+00  1.99310600E+00
  1.93126263E+00  1.95863566E+00  1.78851902E+00  1.91469832E+00  1.86637758E+00
  1.85898173E+00  1.15005389E+00 -3.12618769E+00 -1.04299360E+00 -3.04754770E+00
 -1.04060396E+00  1.04259013E+00 -9.51613468E-01  1.05533027E+00  3.13852435E+00
 -1.09093890E+00  3.10310785E+00  1.12501969E+00
ZRed-Constraint2                           R   N=          33
  2.77609642E+00  2.05986182E+00  2.05985755E+00  2.05975096E+00  2.56129018E+00
  1.88972613E+00  1.88972613E+00  1.81419902E+00  1.91057441E+00  1.91060385E+00
  1.91063877E+00  1.91056917E+00  1.91064504E+00  1.91076817E+00  1.90590666E+00
  1.91157647E+00  1.91157647E+00  1.91157646E+00  1.91157647E+00  1.91158025E+00
  1.91055981E+00  6.61145749E-01  2.75438119E+00 -1.43208969E+00  2.75540838E+00
 -1.43454149E+00  6.62172935E-01 -1.43323117E+00  6.60004268E-01  2.75671869E+00
 -2.00901421E+00  2.18093565E+00  8.42212319E-02
SymInf integers                            I   N=          26
           1           1           1           1           1           0
           0           0           0           0           0           0
           0           0           0           0           0           0
           0           0           0           0           0           0
           0           0
RotTr to input orientation                 R   N=          12
  6.75906156E-01 -2.02865484E-01 -7.08517088E-01 -6.26185829E-01 -6.65046298E-01
 -4.06945610E-01 -3.88641448E-01  7.18720403E-01 -5.76540378E-01  8.96921371E-01
  2.10942623E-01  7.63142705E-01
Number of contracted shells                I               24
Number of primitive shells                 I               57
Pure/Cartesian d shells                    I                1
Pure/Cartesian f shells                    I                0
Highest angular momentum                   I                2
Largest degree of contraction              I                6
Shell types                                I   N=          24
           0          -1          -1           2           0          -1
          -1           2           0          -1          -1           2
           0           0           0           0           0           0
           0           0           0           0           0           0
Number of primitives per shell             I   N=          24
           6           3           1           1           6           3
           1           1           6           3           1           1
           3           1           3           1           3           1
           3           1           3           1           3           1
Shell to atom map                          I   N=          24
           1           1           1           1           2           2
           2           2           3           3           3           3
           4           4           5           5           6           6
           7           7           8           8           9           9
Primitive exponents                        R   N=          57
  3.04752488E+03  4.57369518E+02  1.03948685E+02  2.92101553E+01  9.28666296E+00
  3.16392696E+00  7.86827235E+00  1.88128854E+00  5.44249258E-01  1.68714478E-01
  8.00000000E-01  4.17351146E+03  6.27457911E+02  1.42902093E+02  4.02343293E+01
  1.28202129E+01  4.39043701E+00  1.16263619E+01  2.71627981E+00  7.72218397E-01
  2.12031498E-01  8.00000000E-01  5.48467166E+03  8.25234946E+02  1.88046958E+02
  5.29645000E+01  1.68975704E+01  5.79963534E+00  1.55396162E+01  3.59993359E+00
  1.01376175E+00  2.70005823E-01  8.00000000E-01  1.87311370E+01  2.82539436E+00
  6.40121692E-01  1.61277759E-01  1.87311370E+01  2.82539436E+00  6.40121692E-01
  1.61277759E-01  1.87311370E+01  2.82539436E+00  6.40121692E-01  1.61277759E-01
  1.87311370E+01  2.82539436E+00  6.40121692E-01  1.61277759E-01  1.87311370E+01
  2.82539436E+00  6.40121692E-01  1.61277759E-01  1.87311370E+01  2.82539436E+00
  6.40121692E-01  1.61277759E-01
Contraction coefficients                   R   N=          57
  1.83473713E-03  1.40373228E-02  6.88426223E-02  2.32184443E-01  4.67941348E-01
  3.62311985E-01 -1.19332420E-01 -1.60854152E-01  1.14345644E+00  1.00000000E+00
  1.00000000E+00  1.83477216E-03  1.39946270E-02  6.85865518E-02  2.32240873E-01
  4.69069948E-01  3.60455199E-01 -1.14961182E-01 -1.69117479E-01  1.14585195E+00
  1.00000000E+00  1.00000000E+00  1.83107443E-03  1.39501722E-02  6.84450781E-02
  2.32714336E-01  4.70192898E-01  3.58520853E-01 -1.10777550E-01 -1.48026263E-01
  1.13076702E+00  1.00000000E+00  1.00000000E+00  3.34946043E-02  2.34726953E-01
  8.13757326E-01  1.00000000E+00  3.34946043E-02  2.34726953E-01  8.13757326E-01
  1.00000000E+00  3.34946043E-02  2.34726953E-01  8.13757326E-01  1.00000000E+00
  3.34946043E-02  2.34726953E-01  8.13757326E-01  1.00000000E+00  3.34946043E-02
  2.34726953E-01  8.13757326E-01  1.00000000E+00  3.34946043E-02  2.34726953E-01
  8.13757326E-01  1.00000000E+00
P(S=P) Contraction coefficients            R   N=          57
  0.00000000E+00  0.00000000E+00  0.00000000E+00  0.00000000E+00  0.00000000E+00
  0.00000000E+00  6.89990666E-02  3.16423961E-01  7.44308291E-01  1.00000000E+00
  0.00000000E+00  0.00000000E+00  0.00000000E+00  0.00000000E+00  0.00000000E+00
  0.00000000E+00  0.00000000E+00  6.75797439E-02  3.23907296E-01  7.40895140E-01
  1.00000000E+00  0.00000000E+00  0.00000000E+00  0.00000000E+00  0.00000000E+00
  0.00000000E+00  0.00000000E+00  0.00000000E+00  7.08742682E-02  3.39752839E-01
  7.27158577E-01  1.00000000E+00  0.00000000E+00  0.00000000E+00  0.00000000E+00
  0.00000000E+00  0.00000000E+00  0.00000000E+00  0.00000000E+00  0.00000000E+00
  0.00000000E+00  0.00000000E+00  0.00000000E+00  0.00000000E+00  0.00000000E+00
  0.00000000E+00  0.00000000E+00  0.00000000E+00  0.00000000E+00  0.00000000E+00
  0.00000000E+00  0.00000000E+00  0.00000000E+00  0.00000000E+00  0.00000000E+00
  0.00000000E+00  0.00000000E+00
Coordinates of each shell                  R   N=          72
  2.29820289E+00 -4.97943853E-01  4.40876181E-02  2.29820289E+00 -4.97943853E-01
  4.40876181E-02  2.29820289E+00 -4.97943853E-01  4.40876181E-02  2.29820289E+00
 -4.97943853E-01  4.40876181E-02 -1.21829101E-01  9.80813623E-01 -9.11089936E-02
 -1.21829101E-01  9.80813623E-01 -9.11089936E-02 -1.21829101E-01  9.80813623E-01
 -9.11089936E-02 -1.21829101E-01  9.80813623E-01 -9.11089936E-02 -2.32580589E+00
 -4.96735788E-01  2.11304471E-01 -2.32580589E+00 -4.96735788E-01  2.11304471E-01
 -2.32580589E+00 -4.96735788E-01  2.11304471E-01 -2.32580589E+00 -4.96735788E-01
  2.11304471E-01  2.37200646E+00 -1.77467893E+00 -1.57368919E+00  2.37200646E+00
 -1.77467893E+00 -1.57368919E+00  3.86552583E+00  8.45229974E-01 -2.82044451E-02
  3.86552583E+00  8.45229974E-01 -2.82044451E-02  2.28718111E+00 -1.54008523E+00
  1.82065658E+00  2.28718111E+00 -1.54008523E+00  1.82065658E+00 -2.46284969E-01
  2.22916040E+00  1.39347192E+00 -2.46284969E-01  2.22916040E+00  1.39347192E+00
 -2.35455299E+00 -1.69433691E+00 -1.20112963E+00 -2.35455299E+00 -1.69433691E+00
 -1.20112963E+00 -2.53841972E-01  2.03056476E+00 -1.72830375E+00 -2.53841972E-01
  2.03056476E+00 -1.72830375E+00
Num ILSW                                   I              100
ILSW                                       I   N=         100
           0           1           0           0           2           0
           0           0           0           0         402          -1
           5           0           0           0           2           0
           0           0           0           0           1           0
           1           0           0           0           0           0
           0           0      100000           0          -1           0
           0           0           0           0           0           0
           0           0           0           1           0           0
           0 -2000000000           1           0           0           0
           0           0           4          52           0           0
           0           0           5           0           0           0
           0           0           0           9           0           1
           0           0           0           0           0           0
           0           0           0           0           0           0
           0           0           0           0           0           0
           0           0           0           0           0           0
           0           0           0           0
Num RLSW                                   I               52
RLSW                                       R   N=          52
  8.00000000E-01  7.20000000E-01  1.00000000E+00  8.10000000E-01  2.00000000E-01
  0.00000000E+00  0.00000000E+00  1.00000000E+00  0.00000000E+00  0.00000000E+00
  0.00000000E+00  0.00000000E+00  1.00000000E+00  0.00000000E+00  0.00000000E+00
  0.00000000E+00  0.00000000E+00  1.00000000E+00  0.00000000E+00  0.00000000E+00
  0.00000000E+00  0.00000000E+00  1.00000000E+00  0.00000000E+00  0.00000000E+00
  0.00000000E+00  0.00000000E+00  1.00000000E+00  0.00000000E+00  0.00000000E+00
  0.00000000E+00  0.00000000E+00  1.00000000E+00  0.00000000E+00  0.00000000E+00
  0.00000000E+00  0.00000000E+00  0.00000000E+00  1.00000000E+00  1.00000000E+00
  0.00000000E+00  1.00000000E+00  0.00000000E+00  0.00000000E+00  0.00000000E+00
  0.00000000E+00  0.00000000E+00  0.00000000E+00  0.00000000E+00  0.00000000E+00
  0.00000000E+00  0.00000000E+00
MxBond                                     I                4
NBond                                      I   N=           9
           4           4           2           1           1           1
           1           1           1
IBond                                      I   N=          36
           2           4           5           6           1           3
           7           9           2           8           0           0
           1           0           0           0           1           0
           0           0           1           0           0           0
           2           0           0           0           3           0
           0           0           2           0           0           0
RBond                                      R   N=          36
  1.00000000E+00  1.00000000E+00  1.00000000E+00  1.00000000E+00  1.00000000E+00
  1.00000000E+00  1.00000000E+00  1.00000000E+00  1.00000000E+00  1.00000000E+00
  0.00000000E+00  0.00000000E+00  1.00000000E+00  0.00000000E+00  0.00000000E+00
  0.00000000E+00  1.00000000E+00  0.00000000E+00  0.00000000E+00  0.00000000E+00
  1.00000000E+00  0.00000000E+00  0.00000000E+00  0.00000000E+00  1.00000000E+00
  0.00000000E+00  0.00000000E+00  0.00000000E+00  1.00000000E+00  0.00000000E+00
  0.00000000E+00  0.00000000E+00  1.00000000E+00  0.00000000E+00  0.00000000E+00
  0.00000000E+00
Virial Ratio                               R      2.009218670320444E+00
SCF Energy                                 R     -1.713618822236632E+02
Total Energy                               R     -1.713618822236632E+02
RMS Force                                  R      3.964797235732711E-05
RMS Density                                R      1.921401731466140E-09
NImag                                      I                0
Job Status                                 I                1
Nuclear derivative order                   I                2
External E-field                           R   N=          35
  0.00000000E+00  0.00000000E+00  0.00000000E+00  0.00000000E+00  0.00000000E+00
  0.00000000E+00  0.00000000E+00  0.00000000E+00  0.00000000E+00  0.00000000E+00
  0.00000000E+00  0.00000000E+00  0.00000000E+00  0.00000000E+00  0.00000000E+00
  0.00000000E+00  0.00000000E+00  0.00000000E+00  0.00000000E+00  0.00000000E+00
  0.00000000E+00  0.00000000E+00  0.00000000E+00  0.00000000E+00  0.00000000E+00
  0.00000000E+00  0.00000000E+00  0.00000000E+00  0.00000000E+00  0.00000000E+00
  0.00000000E+00  0.00000000E+00  0.00000000E+00  0.00000000E+00  0.00000000E+00
IOpCl                                      I                0
IROHF                                      I                0
Alpha Orbital Energies                     R   N=          57
 -1.94449251E+01 -1.47405427E+01 -1.04569360E+01 -1.36121705E+00 -1.14480782E+00
 -9.50259025E-01 -8.54192959E-01 -7.94565813E-01 -7.48143998E-01 -6.56616646E-01
 -6.40459441E-01 -6.22425429E-01 -5.54623574E-01 -1.85486580E-01 -1.81599374E-01
 -1.27451234E-01 -1.02570557E-01 -8.33983652E-02 -5.45628108E-02 -3.86861676E-02
 -3.83463127E-02  2.90557073E-01  3.05895451E-01  3.22913628E-01  3.78627890E-01
  4.75411392E-01  4.89432835E-01  5.63097756E-01  5.78404796E-01  5.98476521E-01
  6.64369907E-01  6.77245806E-01  6.98306165E-01  7.47619004E-01  7.64914531E-01
  7.92091752E-01  8.49485533E-01  1.07901694E+00  1.13811074E+00  1.25169249E+00
  1.37366701E+00  1.50572001E+00  1.55653943E+00  1.69419593E+00  1.72190854E+00
  1.83058887E+00  1.91298858E+00  1.95959162E+00  2.02926872E+00  2.08824554E+00
  2.14972493E+00  2.24053551E+00  2.35624095E+00  2.51891264E+00  3.34184163E+00
  3.61904235E+00  4.00783840E+00
Alpha MO coefficients                      R   N=        3249
  1.33336321E-05  1.37999167E-04  2.74751057E-06 -2.98261418E-05 -1.02529351E-05
 -4.01648060E-04  1.88126762E-04 -1.99483171E-05  1.79551003E-04 -6.53231630E-05
 -1.46721678E-05  2.12414884E-05  1.90029126E-05 -4.10900462E-06  1.89300855E-05
  2.40939383E-06  1.75358024E-04 -3.11229595E-04 -1.91831875E-04  6.62378086E-05
 -8.80495494E-04  7.57752650E-04  2.15842309E-04 -2.48252211E-04  1.89735568E-04
  9.96699192E-05  2.12420571E-05  7.74622087E-05 -2.37516394E-05 -2.64676163E-05
  9.92856381E-01  2.61198222E-02  8.62134741E-04 -1.31000634E-05 -8.62099866E-04
  1.05187460E-02  1.20295604E-04  1.15350232E-04  4.62779767E-05 -7.81662006E-03
 -7.78576922E-03 -7.80136935E-03 -1.94854547E-05  2.51195918E-05 -2.92562425E-06
 -2.53639714E-06  2.63548188E-04  2.10455376E-05 -5.18042510E-05  6.13301732E-05
 -1.31264456E-04  9.53074745E-05 -1.12919875E-04  3.89467111E-04 -1.13738903E-03
 -1.92914272E-05 -3.25106712E-05 -4.87227035E-06 -2.81181954E-05 -2.63696216E-04
  1.51872180E-04 -1.45582552E-05 -2.79018341E-04  1.28821950E-04 -1.10123070E-04
  1.99365689E-05  2.32198376E-04  6.12141852E-05 -1.97132061E-05 -1.77840133E-04
  1.50150657E-05 -9.65848515E-06  9.92692140E-01  3.46172737E-02 -3.85116677E-04
 -8.54835291E-05  1.12939643E-05  4.07340149E-03  2.98402098E-04  2.70819097E-04
 -3.39913149E-05 -8.43191394E-03 -8.33003361E-03 -8.24936981E-03  1.22576126E-05
  8.02431908E-07  1.46072355E-05 -3.00499298E-05  7.33688969E-05  1.86519948E-04
  1.18913909E-04 -2.52300451E-05  3.84060883E-05  1.07675170E-04  6.43515692E-05
 -5.54502111E-05  5.98273343E-05  2.78794175E-05 -9.76014357E-06  7.41826326E-05
 -1.79067005E-05  9.89046666E-06 -3.80268387E-06 -3.37936511E-05  1.18824407E-06
 -4.71966738E-05 -7.36420386E-06 -4.17972328E-05  3.06308376E-04 -5.30084212E-04
 -7.25470069E-05 -2.15556320E-05  3.08108715E-04 -5.48792158E-04  9.92860500E-01
  4.97374003E-02 -7.52044423E-04  4.38944673E-04 -9.74270304E-05 -1.50927497E-02
  6.93854855E-04 -3.48419976E-04  8.79970865E-05 -9.20438543E-03 -9.21910019E-03
 -9.19462191E-03  3.18190808E-05 -4.64176197E-06  7.30150632E-06 -1.07884495E-04
 -1.91706419E-05 -1.20874557E-04  1.28539009E-04 -7.31271087E-06  2.28772545E-03
  1.23585338E-03 -2.64678377E-04 -4.48347789E-05 -5.57018193E-04 -2.93635625E-04
 -2.33253693E-06  2.36712436E-04 -2.06543589E-05  2.95633720E-05 -6.86016342E-05
 -3.43049017E-04 -1.14276329E-04  2.11621660E-05  8.57120478E-06  1.27859908E-03
  6.03263714E-04  3.13561062E-05 -1.09112938E-04 -6.62706949E-05 -1.85214712E-04
 -2.89981106E-04  2.03722463E-05 -2.01326306E-05  2.04213908E-05 -8.10677877E-05
  2.71498461E-03 -8.85976017E-05  2.55799212E-03 -6.07706401E-05  2.65700016E-03
 -7.91269001E-05  2.59657238E-04 -1.45759128E-04  3.15014391E-05 -9.69157631E-05
  1.96900510E-04 -2.74162629E-02  5.20518410E-02 -3.89882841E-02  1.73992791E-02
 -1.67337145E-03  5.27191349E-03  4.65064429E-03  1.01987719E-03  1.71904534E-03
  7.80975343E-03  6.23163572E-04 -1.76002505E-03 -5.59382430E-03  4.39701659E-04
 -8.31121392E-05 -1.35415545E-01  2.91359197E-01 -7.83048923E-02 -4.59321327E-02
  7.64927320E-03  2.34868053E-01 -6.75160315E-03 -8.00973567E-03 -3.89793017E-03
  8.01313000E-03  3.44274933E-03 -1.04200509E-03  1.11873396E-02 -1.54311490E-03
 -2.58537119E-04 -1.61288776E-01  3.63387582E-01  1.00642277E-01  2.58653019E-02
 -6.45976742E-02  3.10473391E-01  4.62363971E-02  9.74566546E-03 -3.32994184E-02
  1.14016651E-02  4.85138651E-03  3.42926738E-03  1.43341355E-02 -7.41977293E-03
  7.70222925E-03  9.50328243E-03  5.76864746E-03  7.83005306E-03 -9.63526457E-04
  1.01855196E-02  1.15425217E-03  6.29726277E-02 -7.65766681E-03  8.53384739E-02
 -1.00231549E-02  6.02616525E-02 -1.06295451E-02 -7.12126946E-02  1.35701912E-01
 -5.88765836E-02  5.13559579E-02 -4.69253465E-03  7.35664524E-02  4.58263863E-03
  2.81747656E-03 -7.01993059E-04  5.57259918E-03  2.60688379E-03 -3.81022631E-03
 -9.31639180E-03  8.17163866E-04 -6.45054218E-04 -1.43876326E-01  3.16627882E-01
  1.20969781E-01  9.02793477E-02 -2.95956075E-03  3.59255542E-01  5.06024735E-02
  3.62316790E-02 -1.42427929E-03 -1.15691931E-02 -8.86640991E-04  9.54461187E-03
 -1.44651767E-02  6.79880460E-04  8.83608659E-04  1.32938162E-01 -3.05271842E-01
  1.82548934E-02  7.34255325E-02  7.37902838E-02 -3.27162234E-01 -4.28946496E-03
  3.07569586E-02  3.98232538E-02  8.37757401E-03 -1.32726843E-03 -8.85694838E-03
  3.29400915E-03  7.41729825E-04 -1.33091432E-02  2.86964977E-02 -1.45975931E-03
  3.36644338E-02 -3.85919577E-04  2.80817193E-02  4.52183042E-04  1.04332921E-01
 -7.74863195E-03 -1.12132310E-01  3.62724794E-04  1.03068426E-01 -5.87689329E-03
 -1.70698021E-01  3.36523917E-01 -1.33980926E-02 -3.64229373E-03 -6.81257483E-03
  3.16561896E-01 -3.26064347E-03 -3.10434815E-03 -2.21074741E-03 -2.56659578E-03
 -1.31885817E-03  1.73639147E-03  4.23792766E-03  2.19858609E-04  4.00858041E-04
  4.76488027E-02 -1.12183347E-01  2.01955184E-01 -2.01140621E-01 -8.24963940E-03
 -1.48640155E-01  8.71259561E-02 -1.00112762E-01 -6.11072352E-03  1.09526263E-02
 -1.14262182E-04 -1.04763319E-02 -6.95317514E-03  2.29572821E-03 -8.08803223E-04
 -1.73018777E-02  3.91094886E-02 -2.82268666E-02 -1.25486191E-01 -3.80258707E-02
  5.86329122E-02 -1.07332340E-02 -5.28412659E-02 -1.89175171E-02 -2.14543691E-03
 -3.65927880E-03  4.18587647E-03 -1.00714921E-02 -1.84117579E-04  8.20202879E-03
  1.16553355E-01  2.08732218E-02  1.08555172E-01  1.78945065E-02  1.10757886E-01
  1.46282591E-02 -9.85338901E-02 -8.70840238E-03  6.33828726E-02  1.54441400E-02
 -8.51724024E-02 -1.11712115E-02 -1.63555638E-02  3.30468556E-02 -4.04585732E-03
 -2.13567137E-02  9.97236269E-02  4.43287814E-02 -1.05121405E-03 -4.50668146E-03
  2.93475989E-02  1.17361587E-03 -2.09728955E-03  1.06801325E-03  1.57674880E-03
 -9.24276484E-03  2.23062360E-03  9.26360692E-03 -1.63087025E-02 -7.36994080E-02
 -9.01972044E-02  4.51738181E-01 -4.12055710E-02 -3.65632572E-02 -3.63966064E-02
  2.48294015E-01  8.97105066E-03  5.01076545E-04 -6.61550613E-03  3.32553784E-03
 -7.99154658E-03  1.58897995E-02 -1.18111586E-02  3.09411098E-02  9.43700767E-02
  1.25806094E-01  1.92995696E-01  2.35471894E-02  3.90734420E-02  5.62499145E-02
  9.31908229E-02  1.19275362E-02  1.20859339E-03 -1.54767731E-02  6.89945929E-03
  1.01370980E-02 -2.45363775E-03 -1.64109280E-02 -1.07317741E-02  3.64057912E-03
 -1.81754044E-03  5.39699594E-02  1.66007809E-02  1.34221919E-01  2.97403439E-02
 -1.07289104E-01 -3.74297302E-02 -2.15801447E-01 -6.09619595E-02 -9.63762745E-04
 -2.27332498E-03  6.92074317E-02  9.41366676E-02  5.57898907E-02  1.04647025E-02
  1.17988979E-02  2.96157163E-02  2.26090788E-02 -5.26471116E-03  8.21211024E-03
 -3.48786066E-03 -6.80205996E-04 -4.40625061E-03 -4.97589332E-04  1.23121806E-02
 -3.25394254E-02  2.05711903E-01  3.52844445E-01  1.82139288E-01 -3.82098104E-02
  1.09627829E-01  2.01389189E-01  1.05148159E-01 -1.30995199E-02  5.30518532E-03
  1.13597390E-02 -9.19444566E-03  5.23997341E-03  1.37597420E-02 -3.44299248E-02
  7.19335594E-02 -2.71374912E-01 -2.43296078E-01 -6.19127983E-02  1.48971845E-01
 -1.23654884E-01 -1.15215686E-01 -3.68134420E-02 -2.35599583E-02  8.37764422E-03
  1.03826082E-02 -8.27262443E-03  1.33186193E-02  1.92975279E-02 -4.54997720E-02
 -1.86203784E-02  5.36820582E-02  2.88972250E-02  1.37269598E-04 -1.30635687E-03
  1.79062925E-01  6.51856769E-02  1.40694006E-01  6.23600849E-02  4.11147280E-04
  3.76542009E-03  6.57877458E-02 -1.27558198E-01 -2.90304706E-01  1.20097690E-01
  2.00131460E-02 -2.29258895E-01 -7.72578935E-02  1.61165312E-02  1.43341038E-02
  1.77237691E-02 -4.71346834E-03 -1.29566035E-02 -2.26896762E-02  1.09140930E-03
 -1.49370425E-03 -4.04968016E-02  9.74638921E-02  2.92038758E-01 -2.40360421E-01
  8.06053754E-02  1.62807960E-01  1.74948625E-01 -1.45829714E-01  3.98598196E-02
 -1.02014618E-02  2.25549613E-03 -4.58131806E-03 -1.23551955E-04  3.44911389E-03
  4.83788716E-03  2.46825124E-02 -5.86941926E-02  7.64315993E-02 -2.12733610E-01
 -5.50583226E-02 -8.31928263E-02  4.63295171E-02 -1.13490223E-01 -3.06056928E-02
  9.87993342E-03 -5.59919938E-03  2.22034864E-03 -1.03052997E-02 -4.24632239E-03
  1.10826396E-02 -1.12723464E-01 -4.68729436E-02 -1.34740992E-01 -5.77618065E-02
 -8.23264913E-02 -3.78328816E-02 -2.16015277E-02 -1.17631161E-02  7.86124350E-02