 Entering Gaussian System, Link 0=/apps/cent7/gaussian/g16-A.03/g16-haswell/g16/g16
 Initial command:
 /apps/cent7/gaussian/g16-A.03/g16-haswell/g16/l1.exe "/scratch/brown/finej/gaussian/Gau-442986.inp" -scrdir="/scratch/brown/finej/gaussian/"
 Entering Link 1 = /apps/cent7/gaussian/g16-A.03/g16-haswell/g16/l1.exe PID=    442987.
  
 Copyright (c) 1988,1990,1992,1993,1995,1998,2003,2009,2016,
            Gaussian, Inc.  All Rights Reserved.
  
 This is part of the Gaussian(R) 16 program.  It is based on
 the Gaussian(R) 09 system (copyright 2009, Gaussian, Inc.),
 the Gaussian(R) 03 system (copyright 2003, Gaussian, Inc.),
 the Gaussian(R) 98 system (copyright 1998, Gaussian, Inc.),
 the Gaussian(R) 94 system (copyright 1995, Gaussian, Inc.),
 the Gaussian 92(TM) system (copyright 1992, Gaussian, Inc.),
 the Gaussian 90(TM) system (copyright 1990, Gaussian, Inc.),
 the Gaussian 88(TM) system (copyright 1988, Gaussian, Inc.),
 the Gaussian 86(TM) system (copyright 1986, Carnegie Mellon
 University), and the Gaussian 82(TM) system (copyright 1983,
 Carnegie Mellon University). Gaussian is a federally registered
 trademark of Gaussian, Inc.
  
 This software contains proprietary and confidential information,
 including trade secrets, belonging to Gaussian, Inc.
  
 This software is provided under written license and may be
 used, copied, transmitted, or stored only in accord with that
 written license.
  
 The following legend is applicable only to US Government
 contracts under FAR:
  
                    RESTRICTED RIGHTS LEGEND
  
 Use, reproduction and disclosure by the US Government is
 subject to restrictions as set forth in subparagraphs (a)
 and (c) of the Commercial Computer Software - Restricted
 Rights clause in FAR 52.227-19.
  
 Gaussian, Inc.
 340 Quinnipiac St., Bldg. 40, Wallingford CT 06492
  
  
 ---------------------------------------------------------------
 Warning -- This program may not be used in any manner that
 competes with the business of Gaussian, Inc. or will provide
 assistance to any competitor of Gaussian, Inc.  The licensee
 of this program is prohibited from giving any competitor of
 Gaussian, Inc. access to this program.  By using this program,
 the user acknowledges that Gaussian, Inc. is engaged in the
 business of creating and licensing software in the field of
 computational chemistry and represents and warrants to the
 licensee that it is not a competitor of Gaussian, Inc. and that
 it will not use this program in any manner prohibited above.
 ---------------------------------------------------------------
  

 Cite this work as:
 Gaussian 16, Revision A.03,
 M. J. Frisch, G. W. Trucks, H. B. Schlegel, G. E. Scuseria, 
 M. A. Robb, J. R. Cheeseman, G. Scalmani, V. Barone, 
 G. A. Petersson, H. Nakatsuji, X. Li, M. Caricato, A. V. Marenich, 
 J. Bloino, B. G. Janesko, R. Gomperts, B. Mennucci, H. P. Hratchian, 
 J. V. Ortiz, A. F. Izmaylov, J. L. Sonnenberg, D. Williams-Young, 
 F. Ding, F. Lipparini, F. Egidi, J. Goings, B. Peng, A. Petrone, 
 T. Henderson, D. Ranasinghe, V. G. Zakrzewski, J. Gao, N. Rega, 
 G. Zheng, W. Liang, M. Hada, M. Ehara, K. Toyota, R. Fukuda, 
 J. Hasegawa, M. Ishida, T. Nakajima, Y. Honda, O. Kitao, H. Nakai, 
 T. Vreven, K. Throssell, J. A. Montgomery, Jr., J. E. Peralta, 
 F. Ogliaro, M. J. Bearpark, J. J. Heyd, E. N. Brothers, K. N. Kudin, 
 V. N. Staroverov, T. A. Keith, R. Kobayashi, J. Normand, 
 K. Raghavachari, A. P. Rendell, J. C. Burant, S. S. Iyengar, 
 J. Tomasi, M. Cossi, J. M. Millam, M. Klene, C. Adamo, R. Cammi, 
 J. W. Ochterski, R. L. Martin, K. Morokuma, O. Farkas, 
 J. B. Foresman, and D. J. Fox, Gaussian, Inc., Wallingford CT, 2016.
 
 ******************************************
 Gaussian 16:  ES64L-G16RevA.03 25-Dec-2016
                14-Oct-2019 
 ******************************************
 %chk=8_p.chk
 %nprocshared=24
 Will use up to   24 processors via shared memory.
 %mem=80GB
 --------------------------------------------------------------
 #P opt freq b3lyp/6-31g(d) geom=connectivity temperature=0.001
 --------------------------------------------------------------
 1/18=20,19=15,26=3,38=1,57=2,112=-1000/1,3;
 2/9=110,12=2,17=6,18=5,40=1/2;
 3/5=1,6=6,7=1,11=2,25=1,30=1,71=1,74=-5/1,2,3;
 4//1;
 5/5=2,38=5/2;
 6/7=2,8=2,9=2,10=2,28=1/1;
 7//1,2,3,16;
 1/18=20,19=15,26=3/3(2);
 2/9=110/2;
 99//99;
 2/9=110/2;
 3/5=1,6=6,7=1,11=2,25=1,30=1,71=1,74=-5/1,2,3;
 4/5=5,16=3,69=1/1;
 5/5=2,38=5/2;
 7//1,2,3,16;
 1/18=20,19=15,26=3/3(-5);
 2/9=110/2;
 6/7=2,8=2,9=2,10=2,19=2,28=1/1;
 99/9=1/99;
 Leave Link    1 at Mon Oct 14 02:25:33 2019, MaxMem= 10737418240 cpu:               1.6 elap:               0.1
 (Enter /apps/cent7/gaussian/g16-A.03/g16-haswell/g16/l101.exe)
 -------------------
 Title Card Required
 -------------------
 Symbolic Z-matrix:
 Charge =  1 Multiplicity = 1
 C                     1.4322    0.0528   -0.406 
 N                     0.1469   -0.1452    0.2773 
 O                     0.1017    0.643     1.379 
 H                     2.2225    0.1745    0.3348 
 H                     1.6494   -0.8143   -1.0298 
 H                     1.3784    0.945    -1.0298 
 H                    -0.6009    0.09973  -0.33979 
 H                     0.0695    0.0927    2.165 
 H                     0.05649  -1.10359   0.54808 
 
 ITRead=  0  0  0  0  0  0  0  0  0
 MicOpt= -1 -1 -1 -1 -1 -1 -1 -1 -1
 NAtoms=      9 NQM=        9 NQMF=       0 NMMI=      0 NMMIF=      0
                NMic=       0 NMicF=      0.
                    Isotopes and Nuclear Properties:
 (Nuclear quadrupole moments (NQMom) in fm**2, nuclear magnetic moments (NMagM)
  in nuclear magnetons)

  Atom         1           2           3           4           5           6           7           8           9
 IAtWgt=          12          14          16           1           1           1           1           1           1
 AtmWgt=  12.0000000  14.0030740  15.9949146   1.0078250   1.0078250   1.0078250   1.0078250   1.0078250   1.0078250
 NucSpn=           0           2           0           1           1           1           1           1           1
 AtZEff=  -0.0000000  -0.0000000  -0.0000000  -0.0000000  -0.0000000  -0.0000000  -0.0000000  -0.0000000  -0.0000000
 NQMom=    0.0000000   2.0440000   0.0000000   0.0000000   0.0000000   0.0000000   0.0000000   0.0000000   0.0000000
 NMagM=    0.0000000   0.4037610   0.0000000   2.7928460   2.7928460   2.7928460   2.7928460   2.7928460   2.7928460
 AtZNuc=   6.0000000   7.0000000   8.0000000   1.0000000   1.0000000   1.0000000   1.0000000   1.0000000   1.0000000
 Leave Link  101 at Mon Oct 14 02:25:33 2019, MaxMem= 10737418240 cpu:               8.6 elap:               0.4
 (Enter /apps/cent7/gaussian/g16-A.03/g16-haswell/g16/l103.exe)

 GradGradGradGradGradGradGradGradGradGradGradGradGradGradGradGradGradGrad
 Berny optimization.
 Initialization pass.
                           ----------------------------
                           !    Initial Parameters    !
                           ! (Angstroms and Degrees)  !
 --------------------------                            --------------------------
 ! Name  Definition              Value          Derivative Info.                !
 --------------------------------------------------------------------------------
 ! R1    R(1,2)                  1.469          estimate D2E/DX2                !
 ! R2    R(1,4)                  1.09           estimate D2E/DX2                !
 ! R3    R(1,5)                  1.09           estimate D2E/DX2                !
 ! R4    R(1,6)                  1.09           estimate D2E/DX2                !
 ! R5    R(2,3)                  1.3554         estimate D2E/DX2                !
 ! R6    R(2,7)                  1.0            estimate D2E/DX2                !
 ! R7    R(2,9)                  1.0            estimate D2E/DX2                !
 ! R8    R(3,8)                  0.96           estimate D2E/DX2                !
 ! A1    A(2,1,4)              109.4678         estimate D2E/DX2                !
 ! A2    A(2,1,5)              109.4695         estimate D2E/DX2                !
 ! A3    A(2,1,6)              109.4715         estimate D2E/DX2                !
 ! A4    A(4,1,5)              109.4675         estimate D2E/DX2                !
 ! A5    A(4,1,6)              109.4719         estimate D2E/DX2                !
 ! A6    A(5,1,6)              109.479          estimate D2E/DX2                !
 ! A7    A(1,2,3)              109.2004         estimate D2E/DX2                !
 ! A8    A(1,2,7)              109.5253         estimate D2E/DX2                !
 ! A9    A(1,2,9)              109.5253         estimate D2E/DX2                !
 ! A10   A(3,2,7)              109.5253         estimate D2E/DX2                !
 ! A11   A(3,2,9)              109.5253         estimate D2E/DX2                !
 ! A12   A(7,2,9)              109.5255         estimate D2E/DX2                !
 ! A13   A(2,3,8)              109.467          estimate D2E/DX2                !
 ! D1    D(4,1,2,3)             37.8809         estimate D2E/DX2                !
 ! D2    D(4,1,2,7)            157.8144         estimate D2E/DX2                !
 ! D3    D(4,1,2,9)            -82.0527         estimate D2E/DX2                !
 ! D4    D(5,1,2,3)            157.8733         estimate D2E/DX2                !
 ! D5    D(5,1,2,7)            -82.1932         estimate D2E/DX2                !
 ! D6    D(5,1,2,9)             37.9397         estimate D2E/DX2                !
 ! D7    D(6,1,2,3)            -82.1181         estimate D2E/DX2                !
 ! D8    D(6,1,2,7)             37.8155         estimate D2E/DX2                !
 ! D9    D(6,1,2,9)            157.9483         estimate D2E/DX2                !
 ! D10   D(1,2,3,8)           -115.108          estimate D2E/DX2                !
 ! D11   D(7,2,3,8)            124.9584         estimate D2E/DX2                !
 ! D12   D(9,2,3,8)              4.8255         estimate D2E/DX2                !
 --------------------------------------------------------------------------------
 Trust Radius=3.00D-01 FncErr=1.00D-07 GrdErr=1.00D-06 EigMax=2.50D+02 EigMin=1.00D-04
 Number of steps in this run=     43 maximum allowed number of steps=    100.
 GradGradGradGradGradGradGradGradGradGradGradGradGradGradGradGradGradGrad

 Leave Link  103 at Mon Oct 14 02:25:33 2019, MaxMem= 10737418240 cpu:               1.0 elap:               0.1
 (Enter /apps/cent7/gaussian/g16-A.03/g16-haswell/g16/l202.exe)
                          Input orientation:                          
 ---------------------------------------------------------------------
 Center     Atomic      Atomic             Coordinates (Angstroms)
 Number     Number       Type             X           Y           Z
 ---------------------------------------------------------------------
      1          6           0        1.432200    0.052800   -0.406000
      2          7           0        0.146900   -0.145200    0.277300
      3          8           0        0.101700    0.643000    1.379000
      4          1           0        2.222500    0.174500    0.334800
      5          1           0        1.649400   -0.814300   -1.029800
      6          1           0        1.378400    0.945000   -1.029800
      7          1           0       -0.600899    0.099732   -0.339794
      8          1           0        0.069500    0.092700    2.165000
      9          1           0        0.056489   -1.103587    0.548078
 ---------------------------------------------------------------------
                    Distance matrix (angstroms):
                    1          2          3          4          5
     1  C    0.000000
     2  N    1.469047   0.000000
     3  O    2.303213   1.355376   0.000000
     4  H    1.090032   2.100864   2.409904   0.000000
     5  H    1.090030   2.100883   3.212696   1.779973   0.000000
     6  H    1.089973   2.100866   2.742897   1.779974   1.780050
     7  H    2.034718   1.000000   1.934694   2.903833   2.524957
     8  H    2.910083   1.904205   0.960033   2.826965   3.677700
     9  H    2.034718   1.000000   1.934694   2.524004   2.260697
                    6          7          8          9
     6  H    0.000000
     7  H    2.260135   0.000000
     8  H    3.556175   2.592967   0.000000
     9  H    2.904110   1.633540   2.011394   0.000000
 Stoichiometry    CH6NO(1+)
 Framework group  C1[X(CH6NO)]
 Deg. of freedom    21
 Full point group                 C1      NOp   1
 Largest Abelian subgroup         C1      NOp   1
 Largest concise Abelian subgroup C1      NOp   1
                         Standard orientation:                         
 ---------------------------------------------------------------------
 Center     Atomic      Atomic             Coordinates (Angstroms)
 Number     Number       Type             X           Y           Z
 ---------------------------------------------------------------------
      1          6           0        1.172119   -0.247997   -0.019463
      2          7           0       -0.081252    0.517804    0.007172
      3          8           0       -1.125652   -0.340013    0.109269
      4          1           0        1.027304   -1.161862   -0.595700
      5          1           0        1.955228    0.352839   -0.481957
      6          1           0        1.463688   -0.503209    0.999309
      7          1           0       -0.078513    1.136093    0.793118
      8          1           0       -1.660156   -0.289494   -0.686606
      9          1           0       -0.166285    1.049092   -0.835740
 ---------------------------------------------------------------------
 Rotational constants (GHZ):          35.8154586          10.0639985           8.8345643
 Leave Link  202 at Mon Oct 14 02:25:34 2019, MaxMem= 10737418240 cpu:               0.8 elap:               0.1
 (Enter /apps/cent7/gaussian/g16-A.03/g16-haswell/g16/l301.exe)
 Standard basis: 6-31G(d) (6D, 7F)
 Ernie: Thresh=  0.10000D-02 Tol=  0.10000D-05 Strict=F.
 There are    57 symmetry adapted cartesian basis functions of A   symmetry.
 There are    57 symmetry adapted basis functions of A   symmetry.
    57 basis functions,   108 primitive gaussians,    57 cartesian basis functions
    13 alpha electrons       13 beta electrons
       nuclear repulsion energy        92.4338890138 Hartrees.
 IExCor=  402 DFT=T Ex+Corr=B3LYP ExCW=0 ScaHFX=  0.200000
 ScaDFX=  0.800000  0.720000  1.000000  0.810000 ScalE2=  1.000000  1.000000
 IRadAn=      5 IRanWt=     -1 IRanGd=            0 ICorTp=0 IEmpDi=  4
 NAtoms=    9 NActive=    9 NUniq=    9 SFac= 1.00D+00 NAtFMM=   60 NAOKFM=F Big=F
 Integral buffers will be    131072 words long.
 Raffenetti 2 integral format.
 Two-electron integral symmetry is turned on.
 Leave Link  301 at Mon Oct 14 02:25:34 2019, MaxMem= 10737418240 cpu:               1.4 elap:               0.1
 (Enter /apps/cent7/gaussian/g16-A.03/g16-haswell/g16/l302.exe)
 NPDir=0 NMtPBC=     1 NCelOv=     1 NCel=       1 NClECP=     1 NCelD=      1
         NCelK=      1 NCelE2=     1 NClLst=     1 CellRange=     0.0.
 One-electron integrals computed using PRISM.
 One-electron integral symmetry used in STVInt
 NBasis=    57 RedAO= T EigKep=  6.32D-03  NBF=    57
 NBsUse=    57 1.00D-06 EigRej= -1.00D+00 NBFU=    57
 Precomputing XC quadrature grid using
 IXCGrd= 4 IRadAn=           5 IRanWt=          -1 IRanGd=           0 AccXCQ= 0.00D+00.
 Generated NRdTot=       0 NPtTot=           0 NUsed=           0 NTot=          32
 NSgBfM=    57    57    57    57    57 MxSgAt=     9 MxSgA2=     9.
 Leave Link  302 at Mon Oct 14 02:25:34 2019, MaxMem= 10737418240 cpu:               3.6 elap:               0.3
 (Enter /apps/cent7/gaussian/g16-A.03/g16-haswell/g16/l303.exe)
 DipDrv:  MaxL=1.
 Leave Link  303 at Mon Oct 14 02:25:34 2019, MaxMem= 10737418240 cpu:               0.7 elap:               0.1
 (Enter /apps/cent7/gaussian/g16-A.03/g16-haswell/g16/l401.exe)
 ExpMin= 1.61D-01 ExpMax= 5.48D+03 ExpMxC= 8.25D+02 IAcc=3 IRadAn=         5 AccDes= 0.00D+00
 Harris functional with IExCor=  402 and IRadAn=       5 diagonalized for initial guess.
 HarFok:  IExCor=  402 AccDes= 0.00D+00 IRadAn=         5 IDoV= 1 UseB2=F ITyADJ=14
 ICtDFT=  3500011 ScaDFX=  1.000000  1.000000  1.000000  1.000000
 FoFCou: FMM=F IPFlag=           0 FMFlag=      100000 FMFlg1=           0
         NFxFlg=           0 DoJE=T BraDBF=F KetDBF=T FulRan=T
         wScrn=  0.000000 ICntrl=       500 IOpCl=  0 I1Cent=   200000004 NGrid=           0
         NMat0=    1 NMatS0=      1 NMatT0=    0 NMatD0=    1 NMtDS0=    0 NMtDT0=    0
 Petite list used in FoFCou.
 Harris En= -171.428709443203    
 JPrj=0 DoOrth=F DoCkMO=F.
 Leave Link  401 at Mon Oct 14 02:25:34 2019, MaxMem= 10737418240 cpu:               4.5 elap:               0.2
 (Enter /apps/cent7/gaussian/g16-A.03/g16-haswell/g16/l502.exe)
 Keep R1 ints in memory in canonical form, NReq=22480159.
 FoFCou: FMM=F IPFlag=           0 FMFlag=           0 FMFlg1=           0
         NFxFlg=           0 DoJE=F BraDBF=F KetDBF=F FulRan=T
         wScrn=  0.000000 ICntrl=       600 IOpCl=  0 I1Cent=           0 NGrid=           0
         NMat0=    1 NMatS0=   1653 NMatT0=    0 NMatD0=    1 NMtDS0=    0 NMtDT0=    0
 Symmetry not used in FoFCou.
 Two-electron integral symmetry not used.
 Closed shell SCF:
 Using DIIS extrapolation, IDIIS=  1040.
 NGot= 10737418240 LenX= 10736042469 LenY= 10736038779
 Requested convergence on RMS density matrix=1.00D-08 within 128 cycles.
 Requested convergence on MAX density matrix=1.00D-06.
 Requested convergence on             energy=1.00D-06.
 No special actions if energy rises.
 Integral accuracy reduced to 1.0D-05 until final iterations.

 Cycle   1  Pass 0  IDiag  1:
 E= -171.281446352421    
 DIIS: error= 2.57D-02 at cycle   1 NSaved=   1.
 NSaved= 1 IEnMin= 1 EnMin= -171.281446352421     IErMin= 1 ErrMin= 2.57D-02
 ErrMax= 2.57D-02  0.00D+00 EMaxC= 1.00D-01 BMatC= 8.15D-02 BMatP= 8.15D-02
 IDIUse=3 WtCom= 7.43D-01 WtEn= 2.57D-01
 Coeff-Com:  0.100D+01
 Coeff-En:   0.100D+01
 Coeff:      0.100D+01
 Gap=     0.296 Goal=   None    Shift=    0.000
 GapD=    0.296 DampG=1.000 DampE=0.500 DampFc=0.5000 IDamp=-1.
 Damping current iteration by 5.00D-01
 RMSDP=8.47D-03 MaxDP=1.08D-01              OVMax= 1.34D-01

 Cycle   2  Pass 0  IDiag  1:
 E= -171.311496755853     Delta-E=       -0.030050403432 Rises=F Damp=T
 DIIS: error= 8.19D-03 at cycle   2 NSaved=   2.
 NSaved= 2 IEnMin= 2 EnMin= -171.311496755853     IErMin= 2 ErrMin= 8.19D-03
 ErrMax= 8.19D-03  0.00D+00 EMaxC= 1.00D-01 BMatC= 6.55D-03 BMatP= 8.15D-02
 IDIUse=3 WtCom= 9.18D-01 WtEn= 8.19D-02
 Coeff-Com:  0.964D-01 0.904D+00
 Coeff-En:   0.132D+00 0.868D+00
 Coeff:      0.993D-01 0.901D+00
 Gap=     0.372 Goal=   None    Shift=    0.000
 RMSDP=1.84D-03 MaxDP=2.38D-02 DE=-3.01D-02 OVMax= 6.75D-02

 Cycle   3  Pass 0  IDiag  1:
 E= -171.349119547905     Delta-E=       -0.037622792051 Rises=F Damp=F
 DIIS: error= 4.15D-03 at cycle   3 NSaved=   3.
 NSaved= 3 IEnMin= 3 EnMin= -171.349119547905     IErMin= 3 ErrMin= 4.15D-03
 ErrMax= 4.15D-03  0.00D+00 EMaxC= 1.00D-01 BMatC= 2.48D-03 BMatP= 6.55D-03
 IDIUse=3 WtCom= 9.59D-01 WtEn= 4.15D-02
 Coeff-Com: -0.119D-01 0.363D+00 0.649D+00
 Coeff-En:   0.000D+00 0.000D+00 0.100D+01
 Coeff:     -0.114D-01 0.348D+00 0.663D+00
 Gap=     0.360 Goal=   None    Shift=    0.000
 RMSDP=8.12D-04 MaxDP=1.04D-02 DE=-3.76D-02 OVMax= 1.20D-02

 Cycle   4  Pass 0  IDiag  1:
 E= -171.350624669287     Delta-E=       -0.001505121382 Rises=F Damp=F
 DIIS: error= 1.74D-03 at cycle   4 NSaved=   4.
 NSaved= 4 IEnMin= 4 EnMin= -171.350624669287     IErMin= 4 ErrMin= 1.74D-03
 ErrMax= 1.74D-03  0.00D+00 EMaxC= 1.00D-01 BMatC= 4.37D-04 BMatP= 2.48D-03
 IDIUse=3 WtCom= 9.83D-01 WtEn= 1.74D-02
 Coeff-Com: -0.954D-02 0.906D-01 0.335D+00 0.583D+00
 Coeff-En:   0.000D+00 0.000D+00 0.133D+00 0.867D+00
 Coeff:     -0.938D-02 0.890D-01 0.332D+00 0.588D+00
 Gap=     0.362 Goal=   None    Shift=    0.000
 RMSDP=2.99D-04 MaxDP=4.68D-03 DE=-1.51D-03 OVMax= 5.05D-03

 Cycle   5  Pass 0  IDiag  1:
 E= -171.350989846265     Delta-E=       -0.000365176978 Rises=F Damp=F
 DIIS: error= 2.31D-04 at cycle   5 NSaved=   5.
 NSaved= 5 IEnMin= 5 EnMin= -171.350989846265     IErMin= 5 ErrMin= 2.31D-04
 ErrMax= 2.31D-04  0.00D+00 EMaxC= 1.00D-01 BMatC= 8.25D-06 BMatP= 4.37D-04
 IDIUse=3 WtCom= 9.98D-01 WtEn= 2.31D-03
 Coeff-Com: -0.190D-02 0.164D-02 0.568D-01 0.186D+00 0.758D+00
 Coeff-En:   0.000D+00 0.000D+00 0.000D+00 0.000D+00 0.100D+01
 Coeff:     -0.189D-02 0.163D-02 0.567D-01 0.185D+00 0.758D+00
 Gap=     0.361 Goal=   None    Shift=    0.000
 RMSDP=4.08D-05 MaxDP=6.04D-04 DE=-3.65D-04 OVMax= 6.56D-04

 Cycle   6  Pass 0  IDiag  1:
 E= -171.350996822849     Delta-E=       -0.000006976584 Rises=F Damp=F
 DIIS: error= 3.75D-05 at cycle   6 NSaved=   6.
 NSaved= 6 IEnMin= 6 EnMin= -171.350996822849     IErMin= 6 ErrMin= 3.75D-05
 ErrMax= 3.75D-05  0.00D+00 EMaxC= 1.00D-01 BMatC= 1.86D-07 BMatP= 8.25D-06
 IDIUse=1 WtCom= 1.00D+00 WtEn= 0.00D+00
 Coeff-Com: -0.719D-03-0.854D-04 0.210D-01 0.729D-01 0.319D+00 0.588D+00
 Coeff:     -0.719D-03-0.854D-04 0.210D-01 0.729D-01 0.319D+00 0.588D+00
 Gap=     0.361 Goal=   None    Shift=    0.000
 RMSDP=7.53D-06 MaxDP=8.88D-05 DE=-6.98D-06 OVMax= 1.21D-04

 Initial convergence to 1.0D-05 achieved.  Increase integral accuracy.
 Cycle   7  Pass 1  IDiag  1:
 E= -171.350996962123     Delta-E=       -0.000000139274 Rises=F Damp=F
 DIIS: error= 1.19D-05 at cycle   1 NSaved=   1.
 NSaved= 1 IEnMin= 1 EnMin= -171.350996962123     IErMin= 1 ErrMin= 1.19D-05
 ErrMax= 1.19D-05  0.00D+00 EMaxC= 1.00D-01 BMatC= 1.94D-08 BMatP= 1.94D-08
 IDIUse=1 WtCom= 1.00D+00 WtEn= 0.00D+00
 Coeff-Com:  0.100D+01
 Coeff:      0.100D+01
 Gap=     0.361 Goal=   None    Shift=    0.000
 RMSDP=7.53D-06 MaxDP=8.88D-05 DE=-1.39D-07 OVMax= 5.68D-05

 Cycle   8  Pass 1  IDiag  1:
 E= -171.350996954396     Delta-E=        0.000000007727 Rises=F Damp=F
 DIIS: error= 1.39D-05 at cycle   2 NSaved=   2.
 NSaved= 2 IEnMin= 1 EnMin= -171.350996962123     IErMin= 1 ErrMin= 1.19D-05
 ErrMax= 1.39D-05  0.00D+00 EMaxC= 1.00D-01 BMatC= 2.93D-08 BMatP= 1.94D-08
 IDIUse=1 WtCom= 1.00D+00 WtEn= 0.00D+00
 Coeff-Com:  0.552D+00 0.448D+00
 Coeff:      0.552D+00 0.448D+00
 Gap=     0.361 Goal=   None    Shift=    0.000
 RMSDP=2.13D-06 MaxDP=3.28D-05 DE= 7.73D-09 OVMax= 3.18D-05

 Cycle   9  Pass 1  IDiag  1:
 E= -171.350996977216     Delta-E=       -0.000000022820 Rises=F Damp=F
 DIIS: error= 6.39D-07 at cycle   3 NSaved=   3.
 NSaved= 3 IEnMin= 3 EnMin= -171.350996977216     IErMin= 3 ErrMin= 6.39D-07
 ErrMax= 6.39D-07  0.00D+00 EMaxC= 1.00D-01 BMatC= 3.26D-11 BMatP= 1.94D-08
 IDIUse=1 WtCom= 1.00D+00 WtEn= 0.00D+00
 Coeff-Com:  0.113D+00 0.104D+00 0.783D+00
 Coeff:      0.113D+00 0.104D+00 0.783D+00
 Gap=     0.361 Goal=   None    Shift=    0.000
 RMSDP=1.05D-07 MaxDP=1.41D-06 DE=-2.28D-08 OVMax= 1.81D-06

 Cycle  10  Pass 1  IDiag  1:
 E= -171.350996977238     Delta-E=       -0.000000000022 Rises=F Damp=F
 DIIS: error= 2.23D-07 at cycle   4 NSaved=   4.
 NSaved= 4 IEnMin= 4 EnMin= -171.350996977238     IErMin= 4 ErrMin= 2.23D-07
 ErrMax= 2.23D-07  0.00D+00 EMaxC= 1.00D-01 BMatC= 8.71D-12 BMatP= 3.26D-11
 IDIUse=1 WtCom= 1.00D+00 WtEn= 0.00D+00
 Coeff-Com:  0.175D-01 0.204D-01 0.365D+00 0.597D+00
 Coeff:      0.175D-01 0.204D-01 0.365D+00 0.597D+00
 Gap=     0.361 Goal=   None    Shift=    0.000
 RMSDP=4.47D-08 MaxDP=6.39D-07 DE=-2.24D-11 OVMax= 7.22D-07

 Cycle  11  Pass 1  IDiag  1:
 E= -171.350996977244     Delta-E=       -0.000000000006 Rises=F Damp=F
 DIIS: error= 1.07D-07 at cycle   5 NSaved=   5.
 NSaved= 5 IEnMin= 5 EnMin= -171.350996977244     IErMin= 5 ErrMin= 1.07D-07
 ErrMax= 1.07D-07  0.00D+00 EMaxC= 1.00D-01 BMatC= 1.08D-12 BMatP= 8.71D-12
 IDIUse=1 WtCom= 1.00D+00 WtEn= 0.00D+00
 Coeff-Com: -0.509D-02-0.251D-02 0.829D-01 0.301D+00 0.624D+00
 Coeff:     -0.509D-02-0.251D-02 0.829D-01 0.301D+00 0.624D+00
 Gap=     0.361 Goal=   None    Shift=    0.000
 RMSDP=1.49D-08 MaxDP=2.17D-07 DE=-5.91D-12 OVMax= 2.37D-07

 Cycle  12  Pass 1  IDiag  1:
 E= -171.350996977245     Delta-E=       -0.000000000001 Rises=F Damp=F
 DIIS: error= 2.43D-08 at cycle   6 NSaved=   6.
 NSaved= 6 IEnMin= 6 EnMin= -171.350996977245     IErMin= 6 ErrMin= 2.43D-08
 ErrMax= 2.43D-08  0.00D+00 EMaxC= 1.00D-01 BMatC= 6.09D-14 BMatP= 1.08D-12
 IDIUse=1 WtCom= 1.00D+00 WtEn= 0.00D+00
 Coeff-Com: -0.360D-02-0.247D-02 0.197D-01 0.113D+00 0.298D+00 0.575D+00
 Coeff:     -0.360D-02-0.247D-02 0.197D-01 0.113D+00 0.298D+00 0.575D+00
 Gap=     0.361 Goal=   None    Shift=    0.000
 RMSDP=3.64D-09 MaxDP=6.81D-08 DE=-5.12D-13 OVMax= 6.99D-08

 SCF Done:  E(RB3LYP) =  -171.350996977     A.U. after   12 cycles
            NFock= 12  Conv=0.36D-08     -V/T= 2.0073
 KE= 1.701018582632D+02 PE=-5.782730614220D+02 EE= 1.443863171678D+02
 Leave Link  502 at Mon Oct 14 02:25:35 2019, MaxMem= 10737418240 cpu:              12.6 elap:               0.6
 (Enter /apps/cent7/gaussian/g16-A.03/g16-haswell/g16/l601.exe)
 Copying SCF densities to generalized density rwf, IOpCl= 0 IROHF=0.

 **********************************************************************

            Population analysis using the SCF density.

 **********************************************************************

 Orbital symmetries:
       Occupied  (A) (A) (A) (A) (A) (A) (A) (A) (A) (A) (A) (A)
                 (A)
       Virtual   (A) (A) (A) (A) (A) (A) (A) (A) (A) (A) (A) (A)
                 (A) (A) (A) (A) (A) (A) (A) (A) (A) (A) (A) (A)
                 (A) (A) (A) (A) (A) (A) (A) (A) (A) (A) (A) (A)
                 (A) (A) (A) (A) (A) (A) (A) (A)
 The electronic state is 1-A.
 Alpha  occ. eigenvalues --  -19.44087 -14.74269 -10.44393  -1.39628  -1.15515
 Alpha  occ. eigenvalues --   -0.94684  -0.88509  -0.83450  -0.74078  -0.65020
 Alpha  occ. eigenvalues --   -0.63300  -0.61858  -0.55391
 Alpha virt. eigenvalues --   -0.19255  -0.15842  -0.12350  -0.07466  -0.06567
 Alpha virt. eigenvalues --   -0.05106  -0.02494  -0.01408   0.29890   0.30762
 Alpha virt. eigenvalues --    0.33245   0.39399   0.45995   0.50508   0.57480
 Alpha virt. eigenvalues --    0.59128   0.61691   0.64626   0.67085   0.70480
 Alpha virt. eigenvalues --    0.75000   0.75742   0.79326   0.91692   1.09128
 Alpha virt. eigenvalues --    1.12061   1.18951   1.38058   1.52554   1.62613
 Alpha virt. eigenvalues --    1.72072   1.75930   1.89559   1.90663   1.99043
 Alpha virt. eigenvalues --    2.08753   2.10037   2.22753   2.29787   2.40992
 Alpha virt. eigenvalues --    2.51867   3.38951   3.64718   4.01863
          Condensed to atoms (all electrons):
               1          2          3          4          5          6
     1  C    5.155614   0.219221  -0.061574   0.375529   0.361282   0.380560
     2  N    0.219221   6.444111   0.117431  -0.026303  -0.025530  -0.026068
     3  O   -0.061574   0.117431   8.174964   0.002340   0.004297   0.001290
     4  H    0.375529  -0.026303   0.002340   0.417327  -0.018223  -0.016717
     5  H    0.361282  -0.025530   0.004297  -0.018223   0.454443  -0.019023
     6  H    0.380560  -0.026068   0.001290  -0.016717  -0.019023   0.417120
     7  H   -0.028723   0.312053  -0.030044   0.003219   0.001816  -0.004510
     8  H    0.002465  -0.015468   0.240159   0.001023  -0.000327  -0.000185
     9  H   -0.024045   0.307112  -0.014703  -0.001235  -0.002149   0.003339
               7          8          9
     1  C   -0.028723   0.002465  -0.024045
     2  N    0.312053  -0.015468   0.307112
     3  O   -0.030044   0.240159  -0.014703
     4  H    0.003219   0.001023  -0.001235
     5  H    0.001816  -0.000327  -0.002149
     6  H   -0.004510  -0.000185   0.003339
     7  H    0.311934   0.002872  -0.017190
     8  H    0.002872   0.306878  -0.008517
     9  H   -0.017190  -0.008517   0.326662
 Mulliken charges:
               1
     1  C   -0.380328
     2  N   -0.306560
     3  O   -0.434160
     4  H    0.263040
     5  H    0.243415
     6  H    0.264194
     7  H    0.448572
     8  H    0.471100
     9  H    0.430727
 Sum of Mulliken charges =   1.00000
 Mulliken charges with hydrogens summed into heavy atoms:
               1
     1  C    0.390321
     2  N    0.572739
     3  O    0.036940
 Electronic spatial extent (au):  <R**2>=            169.1178
 Charge=              1.0000 electrons
 Dipole moment (field-independent basis, Debye):
    X=              0.3603    Y=              2.5606    Z=             -1.6359  Tot=              3.0598
 Quadrupole moment (field-independent basis, Debye-Ang):
   XX=            -11.6463   YY=            -14.0179   ZZ=            -14.0333
   XY=             -0.8028   XZ=              3.0623   YZ=              0.6228
 Traceless Quadrupole moment (field-independent basis, Debye-Ang):
   XX=              1.5862   YY=             -0.7854   ZZ=             -0.8008
   XY=             -0.8028   XZ=              3.0623   YZ=              0.6228
 Octapole moment (field-independent basis, Debye-Ang**2):
  XXX=             -6.1326  YYY=              4.6620  ZZZ=             -0.5168  XYY=             -0.9107
  XXY=             -1.2495  XXZ=             -5.3008  XZZ=             -2.3196  YZZ=              2.3093
  YYZ=             -0.7468  XYZ=             -1.0842
 Hexadecapole moment (field-independent basis, Debye-Ang**3):
 XXXX=           -104.7065 YYYY=            -34.9564 ZZZZ=            -21.4104 XXXY=              4.1443
 XXXZ=              8.3349 YYYX=             -0.5741 YYYZ=              1.8268 ZZZX=              4.3163
 ZZZY=              0.0110 XXYY=            -26.0966 XXZZ=            -20.9152 YYZZ=             -7.1831
 XXYZ=              0.1744 YYXZ=              0.1450 ZZXY=             -0.3814
 N-N= 9.243388901376D+01 E-N=-5.782730628678D+02  KE= 1.701018582632D+02
 No NMR shielding tensors so no spin-rotation constants.
 Leave Link  601 at Mon Oct 14 02:25:35 2019, MaxMem= 10737418240 cpu:               2.8 elap:               0.1
 (Enter /apps/cent7/gaussian/g16-A.03/g16-haswell/g16/l701.exe)
 ... and contract with generalized density number  0.
 Compute integral first derivatives.
 Leave Link  701 at Mon Oct 14 02:25:35 2019, MaxMem= 10737418240 cpu:               3.0 elap:               0.2
 (Enter /apps/cent7/gaussian/g16-A.03/g16-haswell/g16/l702.exe)
 L702 exits ... SP integral derivatives will be done elsewhere.
 Leave Link  702 at Mon Oct 14 02:25:36 2019, MaxMem= 10737418240 cpu:               1.2 elap:               0.1
 (Enter /apps/cent7/gaussian/g16-A.03/g16-haswell/g16/l703.exe)
 Integral derivatives from FoFJK, PRISM(SPDF).
 Compute integral first derivatives, UseDBF=F ICtDFT=           0.
 Calling FoFJK, ICntrl=      2127 FMM=F ISym2X=0 I1Cent= 0 IOpClX= 0 NMat=1 NMatS=1 NMatT=0.
 FoFJK:  IHMeth= 1 ICntrl=    2127 DoSepK=F KAlg= 0 I1Cent=           0 FoldK=F
 IRaf=         0 NMat=       1 IRICut=       1 DoRegI=T DoRafI=F ISym2E= 0 IDoP0=0 IntGTp=1.
 FoFCou: FMM=F IPFlag=           0 FMFlag=      100000 FMFlg1=         800
         NFxFlg=           0 DoJE=F BraDBF=F KetDBF=F FulRan=T
         wScrn=  0.000000 ICntrl=      2127 IOpCl=  0 I1Cent=           0 NGrid=           0
         NMat0=    1 NMatS0=      1 NMatT0=    0 NMatD0=    1 NMtDS0=    0 NMtDT0=    0
 Symmetry not used in FoFCou.
 Leave Link  703 at Mon Oct 14 02:25:36 2019, MaxMem= 10737418240 cpu:               6.0 elap:               0.3
 (Enter /apps/cent7/gaussian/g16-A.03/g16-haswell/g16/l716.exe)
 Dipole        = 1.41739375D-01 1.00740088D+00-6.43613813D-01
 ***** Axes restored to original set *****
 -------------------------------------------------------------------
 Center     Atomic                   Forces (Hartrees/Bohr)
 Number     Number              X              Y              Z
 -------------------------------------------------------------------
      1        6           0.024492579    0.002139828   -0.019694728
      2        7           0.024954998   -0.013426028   -0.006685586
      3        8          -0.011000247    0.042313620    0.022405582
      4        1          -0.002640435   -0.001476518    0.002598325
      5        1          -0.001740514   -0.001702871   -0.002452296
      6        1          -0.001055187    0.001513511    0.001698023
      7        1          -0.024364510    0.005564051   -0.011530180
      8        1          -0.001429842   -0.009099047    0.012996525
      9        1          -0.007216841   -0.025826546    0.000664335
 -------------------------------------------------------------------
 Cartesian Forces:  Max     0.042313620 RMS     0.014930035
 Leave Link  716 at Mon Oct 14 02:25:36 2019, MaxMem= 10737418240 cpu:               1.3 elap:               0.1
 (Enter /apps/cent7/gaussian/g16-A.03/g16-haswell/g16/l103.exe)

 GradGradGradGradGradGradGradGradGradGradGradGradGradGradGradGradGradGrad
 Berny optimization.
 FormGI is forming the generalized inverse of G from B-inverse, IUseBI=4.
 Internal  Forces:  Max     0.048506092 RMS     0.012387503
 Search for a local minimum.
 Step number   1 out of a maximum of   43
 All quantities printed in internal units (Hartrees-Bohrs-Radians)
 RMS Force = .12388D-01 SwitMx=.10000D-02 MixMth= 1
 Mixed Optimization -- RFO/linear search
 Second derivative matrix not updated -- first step.
 ITU=  0
     Eigenvalues ---    0.00778   0.01885   0.05552   0.06073   0.06074
     Eigenvalues ---    0.06173   0.11404   0.13774   0.16000   0.16000
     Eigenvalues ---    0.16000   0.16000   0.22074   0.34809   0.34809
     Eigenvalues ---    0.34816   0.35855   0.47688   0.47688   0.53893
     Eigenvalues ---    0.55466
 RFO step:  Lambda=-1.32817647D-02 EMin= 7.78421437D-03
 Linear search not attempted -- first point.
 Iteration  1 RMS(Cart)=  0.06266482 RMS(Int)=  0.00172022
 Iteration  2 RMS(Cart)=  0.00190941 RMS(Int)=  0.00089154
 Iteration  3 RMS(Cart)=  0.00000316 RMS(Int)=  0.00089154
 Iteration  4 RMS(Cart)=  0.00000000 RMS(Int)=  0.00089154
 ITry= 1 IFail=0 DXMaxC= 1.43D-01 DCOld= 1.00D+10 DXMaxT= 3.00D-01 DXLimC= 3.00D+00 Rises=F
 Variable       Old X    -DE/DX   Delta X   Delta X   Delta X     New X
                                 (Linear)    (Quad)   (Total)
    R1        2.77610   0.02504   0.00000   0.06734   0.06734   2.84344
    R2        2.05986  -0.00031   0.00000  -0.00087  -0.00087   2.05899
    R3        2.05986   0.00241   0.00000   0.00667   0.00667   2.06653
    R4        2.05975   0.00032   0.00000   0.00088   0.00088   2.06063
    R5        2.56129   0.04851   0.00000   0.08784   0.08784   2.64913
    R6        1.88973   0.02670   0.00000   0.05447   0.05447   1.94419
    R7        1.88973   0.02558   0.00000   0.05220   0.05220   1.94192
    R8        1.81420   0.01590   0.00000   0.02800   0.02800   1.84220
    A1        1.91057  -0.00505   0.00000  -0.03063  -0.03081   1.87977
    A2        1.91060  -0.00080   0.00000  -0.00287  -0.00291   1.90769
    A3        1.91064  -0.00141   0.00000  -0.00838  -0.00851   1.90213
    A4        1.91057   0.00301   0.00000   0.01792   0.01783   1.92839
    A5        1.91065   0.00267   0.00000   0.01193   0.01167   1.92231
    A6        1.91077   0.00158   0.00000   0.01203   0.01204   1.92280
    A7        1.90591   0.01197   0.00000   0.06033   0.05869   1.96460
    A8        1.91158   0.00177   0.00000   0.00380   0.00470   1.91628
    A9        1.91158  -0.00183   0.00000   0.01255   0.00986   1.92144
   A10        1.91158  -0.01025   0.00000  -0.07853  -0.07795   1.83363
   A11        1.91158   0.00133   0.00000   0.04852   0.04586   1.95744
   A12        1.91158  -0.00295   0.00000  -0.04636  -0.04592   1.86566
   A13        1.91056   0.00004   0.00000   0.00022   0.00022   1.91078
    D1        0.66115   0.00476   0.00000   0.09940   0.09990   0.76105
    D2        2.75438   0.00061   0.00000   0.04254   0.04262   2.79701
    D3       -1.43209  -0.00305   0.00000  -0.00428  -0.00472  -1.43681
    D4        2.75541   0.00487   0.00000   0.10083   0.10131   2.85672
    D5       -1.43454   0.00072   0.00000   0.04397   0.04403  -1.39051
    D6        0.66217  -0.00294   0.00000  -0.00285  -0.00331   0.65886
    D7       -1.43323   0.00545   0.00000   0.10868   0.10906  -1.32418
    D8        0.66000   0.00130   0.00000   0.05182   0.05178   0.71178
    D9        2.75672  -0.00236   0.00000   0.00500   0.00444   2.76116
   D10       -2.00901  -0.00138   0.00000  -0.04514  -0.04711  -2.05612
   D11        2.18094  -0.00463   0.00000  -0.03898  -0.03854   2.14239
   D12        0.08422   0.00448   0.00000   0.03638   0.03792   0.12214
         Item               Value     Threshold  Converged?
 Maximum Force            0.048506     0.000450     NO 
 RMS     Force            0.012388     0.000300     NO 
 Maximum Displacement     0.143430     0.001800     NO 
 RMS     Displacement     0.062270     0.001200     NO 
 Predicted change in Energy=-7.209528D-03
 Lowest energy point so far.  Saving SCF results.
 GradGradGradGradGradGradGradGradGradGradGradGradGradGradGradGradGradGrad

 Leave Link  103 at Mon Oct 14 02:25:36 2019, MaxMem= 10737418240 cpu:               0.8 elap:               0.1
 (Enter /apps/cent7/gaussian/g16-A.03/g16-haswell/g16/l202.exe)
                          Input orientation:                          
 ---------------------------------------------------------------------
 Center     Atomic      Atomic             Coordinates (Angstroms)
 Number     Number       Type             X           Y           Z
 ---------------------------------------------------------------------
      1          6           0        1.469818    0.049721   -0.440910
      2          7           0        0.175668   -0.160237    0.297442
      3          8           0        0.049192    0.681512    1.411296
      4          1           0        2.264307    0.132802    0.300073
      5          1           0        1.650895   -0.802046   -1.102407
      6          1           0        1.401184    0.969531   -1.022546
      7          1           0       -0.616670    0.082402   -0.312314
      8          1           0       -0.006400    0.142352    2.221575
      9          1           0        0.068196   -1.151391    0.546574
 ---------------------------------------------------------------------
                    Distance matrix (angstroms):
                    1          2          3          4          5
     1  C    0.000000
     2  N    1.504683   0.000000
     3  O    2.418265   1.401859   0.000000
     4  H    1.089573   2.109097   2.538234   0.000000
     5  H    1.093560   2.132554   3.329429   1.793646   0.000000
     6  H    1.090441   2.126178   2.799004   1.787293   1.790871
     7  H    2.090703   1.028823   1.942457   2.945775   2.558973
     8  H    3.045755   1.956271   0.974851   2.974621   3.832410
     9  H    2.093404   1.027620   2.026731   2.555938   2.312166
                    6          7          8          9
     6  H    0.000000
     7  H    2.315850   0.000000
     8  H    3.631781   2.607032   0.000000
     9  H    2.955893   1.651961   2.117774   0.000000
 Stoichiometry    CH6NO(1+)
 Framework group  C1[X(CH6NO)]
 Deg. of freedom    21
 Full point group                 C1      NOp   1
 RotChk:  IX=0 Diff= 1.11D-01
 Largest Abelian subgroup         C1      NOp   1
 Largest concise Abelian subgroup C1      NOp   1
                         Standard orientation:                         
 ---------------------------------------------------------------------
 Center     Atomic      Atomic             Coordinates (Angstroms)
 Number     Number       Type             X           Y           Z
 ---------------------------------------------------------------------
      1          6           0        1.228996   -0.251439   -0.022521
      2          7           0       -0.071167    0.505244    0.010299
      3          8           0       -1.184518   -0.341986    0.098953
      4          1           0        1.103849   -1.095937   -0.699523
      5          1           0        2.023449    0.410249   -0.378733
      6          1           0        1.458102   -0.606758    0.982626
      7          1           0       -0.112528    1.090338    0.855538
      8          1           0       -1.741987   -0.230176   -0.692920
      9          1           0       -0.130540    1.140103   -0.795575
 ---------------------------------------------------------------------
 Rotational constants (GHZ):          35.9008260           9.2332551           8.2015825
 Leave Link  202 at Mon Oct 14 02:25:36 2019, MaxMem= 10737418240 cpu:               0.2 elap:               0.0
 (Enter /apps/cent7/gaussian/g16-A.03/g16-haswell/g16/l301.exe)
 Standard basis: 6-31G(d) (6D, 7F)
 Ernie: Thresh=  0.10000D-02 Tol=  0.10000D-05 Strict=F.
 There are    57 symmetry adapted cartesian basis functions of A   symmetry.
 There are    57 symmetry adapted basis functions of A   symmetry.
    57 basis functions,   108 primitive gaussians,    57 cartesian basis functions
    13 alpha electrons       13 beta electrons
       nuclear repulsion energy        89.9686660508 Hartrees.
 IExCor=  402 DFT=T Ex+Corr=B3LYP ExCW=0 ScaHFX=  0.200000
 ScaDFX=  0.800000  0.720000  1.000000  0.810000 ScalE2=  1.000000  1.000000
 IRadAn=      5 IRanWt=     -1 IRanGd=            0 ICorTp=0 IEmpDi=  4
 NAtoms=    9 NActive=    9 NUniq=    9 SFac= 1.00D+00 NAtFMM=   60 NAOKFM=F Big=F
 Integral buffers will be    131072 words long.
 Raffenetti 2 integral format.
 Two-electron integral symmetry is turned on.
 Leave Link  301 at Mon Oct 14 02:25:36 2019, MaxMem= 10737418240 cpu:               1.2 elap:               0.1
 (Enter /apps/cent7/gaussian/g16-A.03/g16-haswell/g16/l302.exe)
 NPDir=0 NMtPBC=     1 NCelOv=     1 NCel=       1 NClECP=     1 NCelD=      1
         NCelK=      1 NCelE2=     1 NClLst=     1 CellRange=     0.0.
 One-electron integrals computed using PRISM.
 One-electron integral symmetry used in STVInt
 NBasis=    57 RedAO= T EigKep=  7.13D-03  NBF=    57
 NBsUse=    57 1.00D-06 EigRej= -1.00D+00 NBFU=    57
 Precomputing XC quadrature grid using
 IXCGrd= 4 IRadAn=           5 IRanWt=          -1 IRanGd=           0 AccXCQ= 0.00D+00.
 Generated NRdTot=       0 NPtTot=           0 NUsed=           0 NTot=          32
 NSgBfM=    57    57    57    57    57 MxSgAt=     9 MxSgA2=     9.
 Leave Link  302 at Mon Oct 14 02:25:36 2019, MaxMem= 10737418240 cpu:               3.0 elap:               0.1
 (Enter /apps/cent7/gaussian/g16-A.03/g16-haswell/g16/l303.exe)
 DipDrv:  MaxL=1.
 Leave Link  303 at Mon Oct 14 02:25:36 2019, MaxMem= 10737418240 cpu:               0.6 elap:               0.0
 (Enter /apps/cent7/gaussian/g16-A.03/g16-haswell/g16/l401.exe)
 Initial guess from the checkpoint file:  "8_p.chk"
 B after Tr=    -0.000000    0.000000    0.000000
         Rot=    0.999542   -0.029899    0.004269    0.002081 Ang=  -3.47 deg.
 Guess basis will be translated and rotated to current coordinates.
 JPrj=2 DoOrth=T DoCkMO=T.
 Generating alternative initial guess.
 ExpMin= 1.61D-01 ExpMax= 5.48D+03 ExpMxC= 8.25D+02 IAcc=2 IRadAn=         4 AccDes= 0.00D+00
 Harris functional with IExCor=  402 and IRadAn=       4 diagonalized for initial guess.
 HarFok:  IExCor=  402 AccDes= 0.00D+00 IRadAn=         4 IDoV= 1 UseB2=F ITyADJ=14
 ICtDFT=  3500011 ScaDFX=  1.000000  1.000000  1.000000  1.000000
 FoFCou: FMM=F IPFlag=           0 FMFlag=      100000 FMFlg1=           0
         NFxFlg=           0 DoJE=T BraDBF=F KetDBF=T FulRan=T
         wScrn=  0.000000 ICntrl=       500 IOpCl=  0 I1Cent=   200000004 NGrid=           0
         NMat0=    1 NMatS0=      1 NMatT0=    0 NMatD0=    1 NMtDS0=    0 NMtDT0=    0
 Petite list used in FoFCou.
 Harris En= -171.434565528993    
 Leave Link  401 at Mon Oct 14 02:25:37 2019, MaxMem= 10737418240 cpu:               4.7 elap:               0.2
 (Enter /apps/cent7/gaussian/g16-A.03/g16-haswell/g16/l502.exe)
 Keep R1 ints in memory in canonical form, NReq=22480159.
 FoFCou: FMM=F IPFlag=           0 FMFlag=           0 FMFlg1=           0
         NFxFlg=           0 DoJE=F BraDBF=F KetDBF=F FulRan=T
         wScrn=  0.000000 ICntrl=       600 IOpCl=  0 I1Cent=           0 NGrid=           0
         NMat0=    1 NMatS0=   1653 NMatT0=    0 NMatD0=    1 NMtDS0=    0 NMtDT0=    0
 Symmetry not used in FoFCou.
 Two-electron integral symmetry not used.
 Closed shell SCF:
 Using DIIS extrapolation, IDIIS=  1040.
 NGot= 10737418240 LenX= 10736042469 LenY= 10736038779
 Requested convergence on RMS density matrix=1.00D-08 within 128 cycles.
 Requested convergence on MAX density matrix=1.00D-06.
 Requested convergence on             energy=1.00D-06.
 No special actions if energy rises.
 Integral accuracy reduced to 1.0D-05 until final iterations.

 Cycle   1  Pass 0  IDiag  1:
 E= -171.353576700481    
 DIIS: error= 3.82D-03 at cycle   1 NSaved=   1.
 NSaved= 1 IEnMin= 1 EnMin= -171.353576700481     IErMin= 1 ErrMin= 3.82D-03
 ErrMax= 3.82D-03  0.00D+00 EMaxC= 1.00D-01 BMatC= 2.58D-03 BMatP= 2.58D-03
 IDIUse=3 WtCom= 9.62D-01 WtEn= 3.82D-02
 Coeff-Com:  0.100D+01
 Coeff-En:   0.100D+01
 Coeff:      0.100D+01
 Gap=     1.455 Goal=   None    Shift=    0.000
 GapD=    1.455 DampG=2.000 DampE=1.000 DampFc=2.0000 IDamp=-1.
 RMSDP=1.38D-03 MaxDP=1.23D-02              OVMax= 2.35D-02

 Cycle   2  Pass 0  IDiag  1:
 E= -171.357194518618     Delta-E=       -0.003617818137 Rises=F Damp=F
 DIIS: error= 2.18D-03 at cycle   2 NSaved=   2.
 NSaved= 2 IEnMin= 2 EnMin= -171.357194518618     IErMin= 2 ErrMin= 2.18D-03
 ErrMax= 2.18D-03  0.00D+00 EMaxC= 1.00D-01 BMatC= 5.63D-04 BMatP= 2.58D-03
 IDIUse=3 WtCom= 9.78D-01 WtEn= 2.18D-02
 Coeff-Com:  0.238D+00 0.762D+00
 Coeff-En:   0.000D+00 0.100D+01
 Coeff:      0.233D+00 0.767D+00
 Gap=     0.361 Goal=   None    Shift=    0.000
 RMSDP=5.00D-04 MaxDP=9.24D-03 DE=-3.62D-03 OVMax= 8.91D-03

 Cycle   3  Pass 0  IDiag  1:
 E= -171.357395833120     Delta-E=       -0.000201314502 Rises=F Damp=F
 DIIS: error= 1.64D-03 at cycle   3 NSaved=   3.
 NSaved= 3 IEnMin= 3 EnMin= -171.357395833120     IErMin= 3 ErrMin= 1.64D-03
 ErrMax= 1.64D-03  0.00D+00 EMaxC= 1.00D-01 BMatC= 3.47D-04 BMatP= 5.63D-04
 IDIUse=3 WtCom= 9.84D-01 WtEn= 1.64D-02
 Coeff-Com: -0.259D-01 0.437D+00 0.589D+00
 Coeff-En:   0.000D+00 0.372D+00 0.628D+00
 Coeff:     -0.254D-01 0.436D+00 0.589D+00
 Gap=     0.360 Goal=   None    Shift=    0.000
 RMSDP=2.30D-04 MaxDP=4.38D-03 DE=-2.01D-04 OVMax= 4.28D-03

 Cycle   4  Pass 0  IDiag  1:
 E= -171.357666847227     Delta-E=       -0.000271014107 Rises=F Damp=F
 DIIS: error= 3.91D-04 at cycle   4 NSaved=   4.
 NSaved= 4 IEnMin= 4 EnMin= -171.357666847227     IErMin= 4 ErrMin= 3.91D-04
 ErrMax= 3.91D-04  0.00D+00 EMaxC= 1.00D-01 BMatC= 1.19D-05 BMatP= 3.47D-04
 IDIUse=3 WtCom= 9.96D-01 WtEn= 3.91D-03
 Coeff-Com: -0.183D-01 0.183D+00 0.284D+00 0.551D+00
 Coeff-En:   0.000D+00 0.000D+00 0.000D+00 0.100D+01
 Coeff:     -0.182D-01 0.182D+00 0.283D+00 0.553D+00
 Gap=     0.359 Goal=   None    Shift=    0.000
 RMSDP=5.50D-05 MaxDP=8.58D-04 DE=-2.71D-04 OVMax= 7.78D-04

 Cycle   5  Pass 0  IDiag  1:
 E= -171.357674966871     Delta-E=       -0.000008119644 Rises=F Damp=F
 DIIS: error= 1.40D-04 at cycle   5 NSaved=   5.
 NSaved= 5 IEnMin= 5 EnMin= -171.357674966871     IErMin= 5 ErrMin= 1.40D-04
 ErrMax= 1.40D-04  0.00D+00 EMaxC= 1.00D-01 BMatC= 1.50D-06 BMatP= 1.19D-05
 IDIUse=3 WtCom= 9.99D-01 WtEn= 1.40D-03
 Coeff-Com: -0.606D-02 0.428D-01 0.776D-01 0.298D+00 0.587D+00
 Coeff-En:   0.000D+00 0.000D+00 0.000D+00 0.399D-01 0.960D+00
 Coeff:     -0.605D-02 0.427D-01 0.775D-01 0.298D+00 0.588D+00
 Gap=     0.360 Goal=   None    Shift=    0.000
 RMSDP=1.69D-05 MaxDP=3.01D-04 DE=-8.12D-06 OVMax= 2.71D-04

 Cycle   6  Pass 0  IDiag  1:
 E= -171.357676036400     Delta-E=       -0.000001069529 Rises=F Damp=F
 DIIS: error= 1.67D-05 at cycle   6 NSaved=   6.
 NSaved= 6 IEnMin= 6 EnMin= -171.357676036400     IErMin= 6 ErrMin= 1.67D-05
 ErrMax= 1.67D-05  0.00D+00 EMaxC= 1.00D-01 BMatC= 4.04D-08 BMatP= 1.50D-06
 IDIUse=1 WtCom= 1.00D+00 WtEn= 0.00D+00
 Coeff-Com: -0.251D-03-0.350D-02-0.182D-02 0.546D-01 0.191D+00 0.760D+00
 Coeff:     -0.251D-03-0.350D-02-0.182D-02 0.546D-01 0.191D+00 0.760D+00
 Gap=     0.360 Goal=   None    Shift=    0.000
 RMSDP=4.02D-06 MaxDP=5.65D-05 DE=-1.07D-06 OVMax= 6.84D-05

 Initial convergence to 1.0D-05 achieved.  Increase integral accuracy.
 Cycle   7  Pass 1  IDiag  1:
 E= -171.357677096601     Delta-E=       -0.000001060201 Rises=F Damp=F
 DIIS: error= 1.04D-05 at cycle   1 NSaved=   1.
 NSaved= 1 IEnMin= 1 EnMin= -171.357677096601     IErMin= 1 ErrMin= 1.04D-05
 ErrMax= 1.04D-05  0.00D+00 EMaxC= 1.00D-01 BMatC= 6.59D-09 BMatP= 6.59D-09
 IDIUse=1 WtCom= 1.00D+00 WtEn= 0.00D+00
 Coeff-Com:  0.100D+01
 Coeff:      0.100D+01
 Gap=     0.360 Goal=   None    Shift=    0.000
 RMSDP=4.02D-06 MaxDP=5.65D-05 DE=-1.06D-06 OVMax= 4.35D-05

 Cycle   8  Pass 1  IDiag  1:
 E= -171.357677095013     Delta-E=        0.000000001588 Rises=F Damp=F
 DIIS: error= 1.14D-05 at cycle   2 NSaved=   2.
 NSaved= 2 IEnMin= 1 EnMin= -171.357677096601     IErMin= 1 ErrMin= 1.04D-05
 ErrMax= 1.14D-05  0.00D+00 EMaxC= 1.00D-01 BMatC= 8.56D-09 BMatP= 6.59D-09
 IDIUse=1 WtCom= 1.00D+00 WtEn= 0.00D+00
 Coeff-Com:  0.534D+00 0.466D+00
 Coeff:      0.534D+00 0.466D+00
 Gap=     0.360 Goal=   None    Shift=    0.000
 RMSDP=1.33D-06 MaxDP=2.26D-05 DE= 1.59D-09 OVMax= 2.39D-05

 Cycle   9  Pass 1  IDiag  1:
 E= -171.357677102918     Delta-E=       -0.000000007905 Rises=F Damp=F
 DIIS: error= 1.22D-06 at cycle   3 NSaved=   3.
 NSaved= 3 IEnMin= 3 EnMin= -171.357677102918     IErMin= 3 ErrMin= 1.22D-06
 ErrMax= 1.22D-06  0.00D+00 EMaxC= 1.00D-01 BMatC= 1.35D-10 BMatP= 6.59D-09
 IDIUse=1 WtCom= 1.00D+00 WtEn= 0.00D+00
 Coeff-Com:  0.218D+00 0.214D+00 0.568D+00
 Coeff:      0.218D+00 0.214D+00 0.568D+00
 Gap=     0.360 Goal=   None    Shift=    0.000
 RMSDP=1.89D-07 MaxDP=3.47D-06 DE=-7.90D-09 OVMax= 2.87D-06

 Cycle  10  Pass 1  IDiag  1:
 E= -171.357677103001     Delta-E=       -0.000000000083 Rises=F Damp=F
 DIIS: error= 4.49D-07 at cycle   4 NSaved=   4.
 NSaved= 4 IEnMin= 4 EnMin= -171.357677103001     IErMin= 4 ErrMin= 4.49D-07
 ErrMax= 4.49D-07  0.00D+00 EMaxC= 1.00D-01 BMatC= 2.31D-11 BMatP= 1.35D-10
 IDIUse=1 WtCom= 1.00D+00 WtEn= 0.00D+00
 Coeff-Com:  0.125D-01 0.248D-01 0.303D+00 0.660D+00
 Coeff:      0.125D-01 0.248D-01 0.303D+00 0.660D+00
 Gap=     0.360 Goal=   None    Shift=    0.000
 RMSDP=7.00D-08 MaxDP=1.13D-06 DE=-8.34D-11 OVMax= 1.23D-06

 Cycle  11  Pass 1  IDiag  1:
 E= -171.357677103019     Delta-E=       -0.000000000018 Rises=F Damp=F
 DIIS: error= 9.05D-08 at cycle   5 NSaved=   5.
 NSaved= 5 IEnMin= 5 EnMin= -171.357677103019     IErMin= 5 ErrMin= 9.05D-08
 ErrMax= 9.05D-08  0.00D+00 EMaxC= 1.00D-01 BMatC= 8.70D-13 BMatP= 2.31D-11
 IDIUse=1 WtCom= 1.00D+00 WtEn= 0.00D+00
 Coeff-Com: -0.124D-01-0.692D-02 0.761D-01 0.254D+00 0.689D+00
 Coeff:     -0.124D-01-0.692D-02 0.761D-01 0.254D+00 0.689D+00
 Gap=     0.360 Goal=   None    Shift=    0.000
 RMSDP=1.74D-08 MaxDP=2.29D-07 DE=-1.77D-11 OVMax= 3.03D-07

 Cycle  12  Pass 1  IDiag  1:
 E= -171.357677103020     Delta-E=       -0.000000000001 Rises=F Damp=F
 DIIS: error= 4.07D-08 at cycle   6 NSaved=   6.
 NSaved= 6 IEnMin= 6 EnMin= -171.357677103020     IErMin= 6 ErrMin= 4.07D-08
 ErrMax= 4.07D-08  0.00D+00 EMaxC= 1.00D-01 BMatC= 1.62D-13 BMatP= 8.70D-13
 IDIUse=1 WtCom= 1.00D+00 WtEn= 0.00D+00
 Coeff-Com: -0.896D-02-0.722D-02 0.877D-02 0.687D-01 0.360D+00 0.578D+00
 Coeff:     -0.896D-02-0.722D-02 0.877D-02 0.687D-01 0.360D+00 0.578D+00
 Gap=     0.360 Goal=   None    Shift=    0.000
 RMSDP=5.62D-09 MaxDP=9.27D-08 DE=-1.25D-12 OVMax= 9.07D-08

 SCF Done:  E(RB3LYP) =  -171.357677103     A.U. after   12 cycles
            NFock= 12  Conv=0.56D-08     -V/T= 2.0091
 KE= 1.698176911034D+02 PE=-5.733238348978D+02 EE= 1.421798006406D+02
 Leave Link  502 at Mon Oct 14 02:25:37 2019, MaxMem= 10737418240 cpu:              11.1 elap:               0.5
 (Enter /apps/cent7/gaussian/g16-A.03/g16-haswell/g16/l701.exe)
 ... and contract with generalized density number  0.
 Compute integral first derivatives.
 Leave Link  701 at Mon Oct 14 02:25:37 2019, MaxMem= 10737418240 cpu:               2.1 elap:               0.1
 (Enter /apps/cent7/gaussian/g16-A.03/g16-haswell/g16/l702.exe)
 L702 exits ... SP integral derivatives will be done elsewhere.
 Leave Link  702 at Mon Oct 14 02:25:37 2019, MaxMem= 10737418240 cpu:               0.5 elap:               0.0
 (Enter /apps/cent7/gaussian/g16-A.03/g16-haswell/g16/l703.exe)
 Integral derivatives from FoFJK, PRISM(SPDF).
 Compute integral first derivatives, UseDBF=F ICtDFT=           0.
 Calling FoFJK, ICntrl=      2127 FMM=F ISym2X=0 I1Cent= 0 IOpClX= 0 NMat=1 NMatS=1 NMatT=0.
 FoFJK:  IHMeth= 1 ICntrl=    2127 DoSepK=F KAlg= 0 I1Cent=           0 FoldK=F
 IRaf=         0 NMat=       1 IRICut=       1 DoRegI=T DoRafI=F ISym2E= 0 IDoP0=0 IntGTp=1.
 FoFCou: FMM=F IPFlag=           0 FMFlag=      100000 FMFlg1=         800
         NFxFlg=           0 DoJE=F BraDBF=F KetDBF=F FulRan=T
         wScrn=  0.000000 ICntrl=      2127 IOpCl=  0 I1Cent=           0 NGrid=           0
         NMat0=    1 NMatS0=      1 NMatT0=    0 NMatD0=    1 NMtDS0=    0 NMtDT0=    0
 Symmetry not used in FoFCou.
 Leave Link  703 at Mon Oct 14 02:25:38 2019, MaxMem= 10737418240 cpu:               5.2 elap:               0.2
 (Enter /apps/cent7/gaussian/g16-A.03/g16-haswell/g16/l716.exe)
 Dipole        = 1.78373225D-01 1.05542652D+00-5.90740367D-01
 ***** Axes restored to original set *****
 -------------------------------------------------------------------
 Center     Atomic                   Forces (Hartrees/Bohr)
 Number     Number              X              Y              Z
 -------------------------------------------------------------------
      1        6           0.006921062    0.003895387   -0.000712344
      2        7          -0.001825812   -0.008159884   -0.008764539
      3        8           0.000667919    0.011664874    0.002533476
      4        1          -0.000276050   -0.001171149    0.001092288
      5        1          -0.003396060   -0.000432048    0.000883368
      6        1          -0.001351452    0.000718794    0.002110125
      7        1          -0.001173982   -0.001138550   -0.000137964
      8        1           0.001008329   -0.004459721    0.000416238
      9        1          -0.000573953   -0.000917704    0.002579353
 -------------------------------------------------------------------
 Cartesian Forces:  Max     0.011664874 RMS     0.003881509
 Leave Link  716 at Mon Oct 14 02:25:38 2019, MaxMem= 10737418240 cpu:               0.5 elap:               0.0
 (Enter /apps/cent7/gaussian/g16-A.03/g16-haswell/g16/l103.exe)

 GradGradGradGradGradGradGradGradGradGradGradGradGradGradGradGradGradGrad
 Berny optimization.
 Using GEDIIS/GDIIS optimizer.
 FormGI is forming the generalized inverse of G from B-inverse, IUseBI=4.
 Internal  Forces:  Max     0.006558995 RMS     0.002477437
 Search for a local minimum.
 Step number   2 out of a maximum of   43
 All quantities printed in internal units (Hartrees-Bohrs-Radians)
 RMS Force = .24774D-02 SwitMx=.10000D-02 MixMth= 1
 Mixed Optimization -- RFO/linear search
 Update second derivatives using D2CorX and points    1    2
 DE= -6.68D-03 DEPred=-7.21D-03 R= 9.27D-01
 TightC=F SS=  1.41D+00  RLast= 2.79D-01 DXNew= 5.0454D-01 8.3796D-01
 Trust test= 9.27D-01 RLast= 2.79D-01 DXMaxT set to 5.05D-01
 ITU=  1  0
 Use linear search instead of GDIIS.
     Eigenvalues ---    0.00772   0.01894   0.05443   0.06139   0.06252
     Eigenvalues ---    0.06333   0.11661   0.13952   0.15432   0.16000
     Eigenvalues ---    0.16000   0.16274   0.23531   0.34791   0.34812
     Eigenvalues ---    0.34816   0.36323   0.46353   0.47748   0.50692
     Eigenvalues ---    0.55338
 RFO step:  Lambda=-1.69733011D-03 EMin= 7.71994002D-03
 Quartic linear search produced a step of  0.06286.
 Iteration  1 RMS(Cart)=  0.04446821 RMS(Int)=  0.00114895
 Iteration  2 RMS(Cart)=  0.00123255 RMS(Int)=  0.00012543
 Iteration  3 RMS(Cart)=  0.00000090 RMS(Int)=  0.00012542
 ITry= 1 IFail=0 DXMaxC= 1.10D-01 DCOld= 1.00D+10 DXMaxT= 5.05D-01 DXLimC= 3.00D+00 Rises=F
 Variable       Old X    -DE/DX   Delta X   Delta X   Delta X     New X
                                 (Linear)    (Quad)   (Total)
    R1        2.84344   0.00040   0.00423   0.00359   0.00782   2.85126
    R2        2.05899   0.00045  -0.00005   0.00133   0.00128   2.06028
    R3        2.06653  -0.00076   0.00042  -0.00206  -0.00164   2.06489
    R4        2.06063  -0.00043   0.00006  -0.00128  -0.00122   2.05941
    R5        2.64913   0.00652   0.00552   0.01585   0.02137   2.67050
    R6        1.94419   0.00072   0.00342   0.00352   0.00694   1.95114
    R7        1.94192   0.00157   0.00328   0.00532   0.00860   1.95053
    R8        1.84220   0.00275   0.00176   0.00622   0.00798   1.85019
    A1        1.87977  -0.00052  -0.00194  -0.00403  -0.00608   1.87369
    A2        1.90769  -0.00437  -0.00018  -0.02970  -0.03010   1.87759
    A3        1.90213  -0.00205  -0.00053  -0.01330  -0.01399   1.88814
    A4        1.92839   0.00221   0.00112   0.01418   0.01512   1.94352
    A5        1.92231   0.00149   0.00073   0.01234   0.01301   1.93532
    A6        1.92280   0.00304   0.00076   0.01915   0.01963   1.94243
    A7        1.96460  -0.00616   0.00369  -0.02978  -0.02612   1.93847
    A8        1.91628   0.00237   0.00030   0.01850   0.01873   1.93501
    A9        1.92144   0.00259   0.00062   0.01395   0.01425   1.93569
   A10        1.83363   0.00150  -0.00490   0.00213  -0.00258   1.83105
   A11        1.95744   0.00102   0.00288  -0.00364  -0.00085   1.95658
   A12        1.86566  -0.00108  -0.00289   0.00049  -0.00261   1.86305
   A13        1.91078  -0.00656   0.00001  -0.04286  -0.04284   1.86794
    D1        0.76105   0.00060   0.00628   0.08640   0.09270   0.85374
    D2        2.79701   0.00023   0.00268   0.08279   0.08532   2.88232
    D3       -1.43681   0.00188  -0.00030   0.10276   0.10250  -1.33431
    D4        2.85672   0.00045   0.00637   0.08412   0.09051   2.94723
    D5       -1.39051   0.00009   0.00277   0.08050   0.08313  -1.30738
    D6        0.65886   0.00173  -0.00021   0.10048   0.10031   0.75917
    D7       -1.32418   0.00027   0.00685   0.08142   0.08839  -1.23579
    D8        0.71178  -0.00010   0.00325   0.07780   0.08100   0.79279
    D9        2.76116   0.00155   0.00028   0.09778   0.09818   2.85934
   D10       -2.05612   0.00087  -0.00296   0.03080   0.02772  -2.02840
   D11        2.14239   0.00040  -0.00242   0.02324   0.02076   2.16316
   D12        0.12214   0.00030   0.00238   0.02322   0.02577   0.14791
         Item               Value     Threshold  Converged?
 Maximum Force            0.006559     0.000450     NO 
 RMS     Force            0.002477     0.000300     NO 
 Maximum Displacement     0.109556     0.001800     NO 
 RMS     Displacement     0.044701     0.001200     NO 
 Predicted change in Energy=-8.785487D-04
 Lowest energy point so far.  Saving SCF results.
 GradGradGradGradGradGradGradGradGradGradGradGradGradGradGradGradGradGrad

 Leave Link  103 at Mon Oct 14 02:25:38 2019, MaxMem= 10737418240 cpu:               0.3 elap:               0.0
 (Enter /apps/cent7/gaussian/g16-A.03/g16-haswell/g16/l202.exe)
                          Input orientation:                          
 ---------------------------------------------------------------------
 Center     Atomic      Atomic             Coordinates (Angstroms)
 Number     Number       Type             X           Y           Z
 ---------------------------------------------------------------------
      1          6           0        1.477163    0.054761   -0.436309
      2          7           0        0.174279   -0.174298    0.289342
      3          8           0        0.037961    0.712897    1.380832
      4          1           0        2.267101    0.082599    0.314604
      5          1           0        1.618195   -0.776314   -1.131582
      6          1           0        1.409596    1.005562   -0.964571
      7          1           0       -0.629827    0.033585   -0.324050
      8          1           0        0.020225    0.167056    2.193440
      9          1           0        0.081497   -1.161204    0.577078
 ---------------------------------------------------------------------
                    Distance matrix (angstroms):
                    1          2          3          4          5
     1  C    0.000000
     2  N    1.508823   0.000000
     3  O    2.409657   1.413169   0.000000
     4  H    1.090251   2.108682   2.550135   0.000000
     5  H    1.092695   2.113373   3.320710   1.802849   0.000000
     6  H    1.089793   2.119051   2.732755   1.795401   1.801801
     7  H    2.110085   1.032498   1.952953   2.966896   2.522231
     8  H    3.008464   1.940578   0.979076   2.930121   3.807785
     9  H    2.110310   1.032174   2.039649   2.528400   2.330044
                    6          7          8          9
     6  H    0.000000
     7  H    2.348245   0.000000
     8  H    3.550560   2.603485   0.000000
     9  H    2.972441   1.656965   2.093000   0.000000
 Stoichiometry    CH6NO(1+)
 Framework group  C1[X(CH6NO)]
 Deg. of freedom    21
 Full point group                 C1      NOp   1
 RotChk:  IX=0 Diff= 5.29D-02
 Largest Abelian subgroup         C1      NOp   1
 Largest concise Abelian subgroup C1      NOp   1
                         Standard orientation:                         
 ---------------------------------------------------------------------
 Center     Atomic      Atomic             Coordinates (Angstroms)
 Number     Number       Type             X           Y           Z
 ---------------------------------------------------------------------
      1          6           0        1.224607   -0.260718   -0.022118
      2          7           0       -0.067519    0.517642    0.011202
      3          8           0       -1.180275   -0.348791    0.101299
      4          1           0        1.112616   -1.044962   -0.771161
      5          1           0        2.022480    0.435636   -0.291326
      6          1           0        1.389531   -0.688455    0.966563
      7          1           0       -0.120290    1.106761    0.857491
      8          1           0       -1.701902   -0.231713   -0.718937
      9          1           0       -0.135243    1.153878   -0.798736
 ---------------------------------------------------------------------
 Rotational constants (GHZ):          34.7587487           9.3256316           8.2300443
 Leave Link  202 at Mon Oct 14 02:25:38 2019, MaxMem= 10737418240 cpu:               0.2 elap:               0.0
 (Enter /apps/cent7/gaussian/g16-A.03/g16-haswell/g16/l301.exe)
 Standard basis: 6-31G(d) (6D, 7F)
 Ernie: Thresh=  0.10000D-02 Tol=  0.10000D-05 Strict=F.
 There are    57 symmetry adapted cartesian basis functions of A   symmetry.
 There are    57 symmetry adapted basis functions of A   symmetry.
    57 basis functions,   108 primitive gaussians,    57 cartesian basis functions
    13 alpha electrons       13 beta electrons
       nuclear repulsion energy        89.7852660805 Hartrees.
 IExCor=  402 DFT=T Ex+Corr=B3LYP ExCW=0 ScaHFX=  0.200000
 ScaDFX=  0.800000  0.720000  1.000000  0.810000 ScalE2=  1.000000  1.000000
 IRadAn=      5 IRanWt=     -1 IRanGd=            0 ICorTp=0 IEmpDi=  4
 NAtoms=    9 NActive=    9 NUniq=    9 SFac= 1.00D+00 NAtFMM=   60 NAOKFM=F Big=F
 Integral buffers will be    131072 words long.
 Raffenetti 2 integral format.
 Two-electron integral symmetry is turned on.
 Leave Link  301 at Mon Oct 14 02:25:38 2019, MaxMem= 10737418240 cpu:               1.9 elap:               0.1
 (Enter /apps/cent7/gaussian/g16-A.03/g16-haswell/g16/l302.exe)
 NPDir=0 NMtPBC=     1 NCelOv=     1 NCel=       1 NClECP=     1 NCelD=      1
         NCelK=      1 NCelE2=     1 NClLst=     1 CellRange=     0.0.
 One-electron integrals computed using PRISM.
 One-electron integral symmetry used in STVInt
 NBasis=    57 RedAO= T EigKep=  7.22D-03  NBF=    57
 NBsUse=    57 1.00D-06 EigRej= -1.00D+00 NBFU=    57
 Precomputing XC quadrature grid using
 IXCGrd= 4 IRadAn=           5 IRanWt=          -1 IRanGd=           0 AccXCQ= 0.00D+00.
 Generated NRdTot=       0 NPtTot=           0 NUsed=           0 NTot=          32
 NSgBfM=    57    57    57    57    57 MxSgAt=     9 MxSgA2=     9.
 Leave Link  302 at Mon Oct 14 02:25:38 2019, MaxMem= 10737418240 cpu:               2.5 elap:               0.1
 (Enter /apps/cent7/gaussian/g16-A.03/g16-haswell/g16/l303.exe)
 DipDrv:  MaxL=1.
 Leave Link  303 at Mon Oct 14 02:25:38 2019, MaxMem= 10737418240 cpu:               0.5 elap:               0.0
 (Enter /apps/cent7/gaussian/g16-A.03/g16-haswell/g16/l401.exe)
 Initial guess from the checkpoint file:  "8_p.chk"
 B after Tr=     0.000000    0.000000    0.000000
         Rot=    0.999932   -0.011288    0.002926    0.000512 Ang=  -1.34 deg.
 Guess basis will be translated and rotated to current coordinates.
 JPrj=2 DoOrth=T DoCkMO=T.
 Generating alternative initial guess.
 ExpMin= 1.61D-01 ExpMax= 5.48D+03 ExpMxC= 8.25D+02 IAcc=2 IRadAn=         4 AccDes= 0.00D+00
 Harris functional with IExCor=  402 and IRadAn=       4 diagonalized for initial guess.
 HarFok:  IExCor=  402 AccDes= 0.00D+00 IRadAn=         4 IDoV= 1 UseB2=F ITyADJ=14
 ICtDFT=  3500011 ScaDFX=  1.000000  1.000000  1.000000  1.000000
 FoFCou: FMM=F IPFlag=           0 FMFlag=      100000 FMFlg1=           0
         NFxFlg=           0 DoJE=T BraDBF=F KetDBF=T FulRan=T
         wScrn=  0.000000 ICntrl=       500 IOpCl=  0 I1Cent=   200000004 NGrid=           0
         NMat0=    1 NMatS0=      1 NMatT0=    0 NMatD0=    1 NMtDS0=    0 NMtDT0=    0
 Petite list used in FoFCou.
 Harris En= -171.435393623288    
 Leave Link  401 at Mon Oct 14 02:25:38 2019, MaxMem= 10737418240 cpu:               4.3 elap:               0.2
 (Enter /apps/cent7/gaussian/g16-A.03/g16-haswell/g16/l502.exe)
 Keep R1 ints in memory in canonical form, NReq=22480159.
 FoFCou: FMM=F IPFlag=           0 FMFlag=           0 FMFlg1=           0
         NFxFlg=           0 DoJE=F BraDBF=F KetDBF=F FulRan=T
         wScrn=  0.000000 ICntrl=       600 IOpCl=  0 I1Cent=           0 NGrid=           0
         NMat0=    1 NMatS0=   1653 NMatT0=    0 NMatD0=    1 NMtDS0=    0 NMtDT0=    0
 Symmetry not used in FoFCou.
 Two-electron integral symmetry not used.
 Closed shell SCF:
 Using DIIS extrapolation, IDIIS=  1040.
 NGot= 10737418240 LenX= 10736042469 LenY= 10736038779
 Requested convergence on RMS density matrix=1.00D-08 within 128 cycles.
 Requested convergence on MAX density matrix=1.00D-06.
 Requested convergence on             energy=1.00D-06.
 No special actions if energy rises.
 Integral accuracy reduced to 1.0D-05 until final iterations.

 Cycle   1  Pass 0  IDiag  1:
 E= -171.357060733118    
 DIIS: error= 2.60D-03 at cycle   1 NSaved=   1.
 NSaved= 1 IEnMin= 1 EnMin= -171.357060733118     IErMin= 1 ErrMin= 2.60D-03
 ErrMax= 2.60D-03  0.00D+00 EMaxC= 1.00D-01 BMatC= 8.83D-04 BMatP= 8.83D-04
 IDIUse=3 WtCom= 9.74D-01 WtEn= 2.60D-02
 Coeff-Com:  0.100D+01
 Coeff-En:   0.100D+01
 Coeff:      0.100D+01
 Gap=     1.446 Goal=   None    Shift=    0.000
 GapD=    1.446 DampG=2.000 DampE=1.000 DampFc=2.0000 IDamp=-1.
 RMSDP=7.62D-04 MaxDP=8.04D-03              OVMax= 1.49D-02

 Cycle   2  Pass 0  IDiag  1:
 E= -171.358731721556     Delta-E=       -0.001670988438 Rises=F Damp=F
 DIIS: error= 4.62D-04 at cycle   2 NSaved=   2.
 NSaved= 2 IEnMin= 2 EnMin= -171.358731721556     IErMin= 2 ErrMin= 4.62D-04
 ErrMax= 4.62D-04  0.00D+00 EMaxC= 1.00D-01 BMatC= 2.39D-05 BMatP= 8.83D-04
 IDIUse=3 WtCom= 9.95D-01 WtEn= 4.62D-03
 Coeff-Com: -0.262D-01 0.103D+01
 Coeff-En:   0.000D+00 0.100D+01
 Coeff:     -0.260D-01 0.103D+01
 Gap=     0.359 Goal=   None    Shift=    0.000
 RMSDP=1.40D-04 MaxDP=1.70D-03 DE=-1.67D-03 OVMax= 2.06D-03

 Cycle   3  Pass 0  IDiag  1:
 E= -171.358745741228     Delta-E=       -0.000014019673 Rises=F Damp=F
 DIIS: error= 5.98D-04 at cycle   3 NSaved=   3.
 NSaved= 3 IEnMin= 3 EnMin= -171.358745741228     IErMin= 2 ErrMin= 4.62D-04
 ErrMax= 5.98D-04  0.00D+00 EMaxC= 1.00D-01 BMatC= 2.18D-05 BMatP= 2.39D-05
 IDIUse=3 WtCom= 9.94D-01 WtEn= 5.98D-03
 Coeff-Com: -0.362D-01 0.516D+00 0.520D+00
 Coeff-En:   0.000D+00 0.232D+00 0.768D+00
 Coeff:     -0.360D-01 0.514D+00 0.522D+00
 Gap=     0.357 Goal=   None    Shift=    0.000
 RMSDP=7.18D-05 MaxDP=1.24D-03 DE=-1.40D-05 OVMax= 1.02D-03

 Cycle   4  Pass 0  IDiag  1:
 E= -171.358760324515     Delta-E=       -0.000014583287 Rises=F Damp=F
 DIIS: error= 1.40D-04 at cycle   4 NSaved=   4.
 NSaved= 4 IEnMin= 4 EnMin= -171.358760324515     IErMin= 4 ErrMin= 1.40D-04
 ErrMax= 1.40D-04  0.00D+00 EMaxC= 1.00D-01 BMatC= 2.03D-06 BMatP= 2.18D-05
 IDIUse=3 WtCom= 9.99D-01 WtEn= 1.40D-03
 Coeff-Com: -0.174D-01 0.178D+00 0.283D+00 0.557D+00
 Coeff-En:   0.000D+00 0.000D+00 0.000D+00 0.100D+01
 Coeff:     -0.174D-01 0.178D+00 0.282D+00 0.558D+00
 Gap=     0.357 Goal=   None    Shift=    0.000
 RMSDP=1.84D-05 MaxDP=2.77D-04 DE=-1.46D-05 OVMax= 2.76D-04

 Cycle   5  Pass 0  IDiag  1:
 E= -171.358761758728     Delta-E=       -0.000001434213 Rises=F Damp=F
 DIIS: error= 2.46D-05 at cycle   5 NSaved=   5.
 NSaved= 5 IEnMin= 5 EnMin= -171.358761758728     IErMin= 5 ErrMin= 2.46D-05
 ErrMax= 2.46D-05  0.00D+00 EMaxC= 1.00D-01 BMatC= 7.85D-08 BMatP= 2.03D-06
 IDIUse=1 WtCom= 1.00D+00 WtEn= 0.00D+00
 Coeff-Com: -0.606D-02 0.563D-01 0.104D+00 0.258D+00 0.587D+00
 Coeff:     -0.606D-02 0.563D-01 0.104D+00 0.258D+00 0.587D+00
 Gap=     0.357 Goal=   None    Shift=    0.000
 RMSDP=4.41D-06 MaxDP=7.36D-05 DE=-1.43D-06 OVMax= 7.57D-05

 Initial convergence to 1.0D-05 achieved.  Increase integral accuracy.
 Cycle   6  Pass 1  IDiag  1:
 E= -171.358761640414     Delta-E=        0.000000118314 Rises=F Damp=F
 DIIS: error= 8.27D-06 at cycle   1 NSaved=   1.
 NSaved= 1 IEnMin= 1 EnMin= -171.358761640414     IErMin= 1 ErrMin= 8.27D-06
 ErrMax= 8.27D-06  0.00D+00 EMaxC= 1.00D-01 BMatC= 8.89D-09 BMatP= 8.89D-09
 IDIUse=1 WtCom= 1.00D+00 WtEn= 0.00D+00
 Coeff-Com:  0.100D+01
 Coeff:      0.100D+01
 Gap=     0.357 Goal=   None    Shift=    0.000
 RMSDP=4.41D-06 MaxDP=7.36D-05 DE= 1.18D-07 OVMax= 4.90D-05

 Cycle   7  Pass 1  IDiag  1:
 E= -171.358761634175     Delta-E=        0.000000006239 Rises=F Damp=F
 DIIS: error= 1.16D-05 at cycle   2 NSaved=   2.
 NSaved= 2 IEnMin= 1 EnMin= -171.358761640414     IErMin= 1 ErrMin= 8.27D-06
 ErrMax= 1.16D-05  0.00D+00 EMaxC= 1.00D-01 BMatC= 1.71D-08 BMatP= 8.89D-09
 IDIUse=1 WtCom= 1.00D+00 WtEn= 0.00D+00
 Coeff-Com:  0.583D+00 0.417D+00
 Coeff:      0.583D+00 0.417D+00
 Gap=     0.357 Goal=   None    Shift=    0.000
 RMSDP=1.53D-06 MaxDP=2.82D-05 DE= 6.24D-09 OVMax= 2.93D-05

 Cycle   8  Pass 1  IDiag  1:
 E= -171.358761647709     Delta-E=       -0.000000013534 Rises=F Damp=F
 DIIS: error= 1.35D-06 at cycle   3 NSaved=   3.
 NSaved= 3 IEnMin= 3 EnMin= -171.358761647709     IErMin= 3 ErrMin= 1.35D-06
 ErrMax= 1.35D-06  0.00D+00 EMaxC= 1.00D-01 BMatC= 2.07D-10 BMatP= 8.89D-09
 IDIUse=1 WtCom= 1.00D+00 WtEn= 0.00D+00
 Coeff-Com:  0.260D+00 0.204D+00 0.537D+00
 Coeff:      0.260D+00 0.204D+00 0.537D+00
 Gap=     0.357 Goal=   None    Shift=    0.000
 RMSDP=2.14D-07 MaxDP=3.56D-06 DE=-1.35D-08 OVMax= 3.11D-06

 Cycle   9  Pass 1  IDiag  1:
 E= -171.358761647848     Delta-E=       -0.000000000139 Rises=F Damp=F
 DIIS: error= 6.17D-07 at cycle   4 NSaved=   4.
 NSaved= 4 IEnMin= 4 EnMin= -171.358761647848     IErMin= 4 ErrMin= 6.17D-07
 ErrMax= 6.17D-07  0.00D+00 EMaxC= 1.00D-01 BMatC= 2.11D-11 BMatP= 2.07D-10
 IDIUse=1 WtCom= 1.00D+00 WtEn= 0.00D+00
 Coeff-Com:  0.550D-01 0.491D-01 0.267D+00 0.629D+00
 Coeff:      0.550D-01 0.491D-01 0.267D+00 0.629D+00
 Gap=     0.357 Goal=   None    Shift=    0.000
 RMSDP=7.12D-08 MaxDP=1.23D-06 DE=-1.39D-10 OVMax= 1.11D-06

 Cycle  10  Pass 1  IDiag  1:
 E= -171.358761647864     Delta-E=       -0.000000000016 Rises=F Damp=F
 DIIS: error= 7.96D-08 at cycle   5 NSaved=   5.
 NSaved= 5 IEnMin= 5 EnMin= -171.358761647864     IErMin= 5 ErrMin= 7.96D-08
 ErrMax= 7.96D-08  0.00D+00 EMaxC= 1.00D-01 BMatC= 7.88D-13 BMatP= 2.11D-11
 IDIUse=1 WtCom= 1.00D+00 WtEn= 0.00D+00
 Coeff-Com: -0.113D-01-0.664D-02 0.240D-01 0.196D+00 0.798D+00
 Coeff:     -0.113D-01-0.664D-02 0.240D-01 0.196D+00 0.798D+00
 Gap=     0.357 Goal=   None    Shift=    0.000
 RMSDP=1.66D-08 MaxDP=2.39D-07 DE=-1.55D-11 OVMax= 3.08D-07

 Cycle  11  Pass 1  IDiag  1:
 E= -171.358761647864     Delta-E=       -0.000000000000 Rises=F Damp=F
 DIIS: error= 3.50D-08 at cycle   6 NSaved=   6.
 NSaved= 6 IEnMin= 6 EnMin= -171.358761647864     IErMin= 6 ErrMin= 3.50D-08
 ErrMax= 3.50D-08  0.00D+00 EMaxC= 1.00D-01 BMatC= 5.96D-14 BMatP= 7.88D-13
 IDIUse=1 WtCom= 1.00D+00 WtEn= 0.00D+00
 Coeff-Com: -0.693D-02-0.450D-02 0.341D-02 0.737D-01 0.370D+00 0.564D+00
 Coeff:     -0.693D-02-0.450D-02 0.341D-02 0.737D-01 0.370D+00 0.564D+00
 Gap=     0.357 Goal=   None    Shift=    0.000
 RMSDP=3.91D-09 MaxDP=7.44D-08 DE=-1.14D-13 OVMax= 7.42D-08

 SCF Done:  E(RB3LYP) =  -171.358761648     A.U. after   11 cycles
            NFock= 11  Conv=0.39D-08     -V/T= 2.0092
 KE= 1.697883979907D+02 PE=-5.729554291660D+02 EE= 1.420230034469D+02
 Leave Link  502 at Mon Oct 14 02:25:39 2019, MaxMem= 10737418240 cpu:              10.1 elap:               0.5
 (Enter /apps/cent7/gaussian/g16-A.03/g16-haswell/g16/l701.exe)
 ... and contract with generalized density number  0.
 Compute integral first derivatives.
 Leave Link  701 at Mon Oct 14 02:25:39 2019, MaxMem= 10737418240 cpu:               2.0 elap:               0.1
 (Enter /apps/cent7/gaussian/g16-A.03/g16-haswell/g16/l702.exe)
 L702 exits ... SP integral derivatives will be done elsewhere.
 Leave Link  702 at Mon Oct 14 02:25:39 2019, MaxMem= 10737418240 cpu:               0.5 elap:               0.0
 (Enter /apps/cent7/gaussian/g16-A.03/g16-haswell/g16/l703.exe)
 Integral derivatives from FoFJK, PRISM(SPDF).
 Compute integral first derivatives, UseDBF=F ICtDFT=           0.
 Calling FoFJK, ICntrl=      2127 FMM=F ISym2X=0 I1Cent= 0 IOpClX= 0 NMat=1 NMatS=1 NMatT=0.
 FoFJK:  IHMeth= 1 ICntrl=    2127 DoSepK=F KAlg= 0 I1Cent=           0 FoldK=F
 IRaf=         0 NMat=       1 IRICut=       1 DoRegI=T DoRafI=F ISym2E= 0 IDoP0=0 IntGTp=1.
 FoFCou: FMM=F IPFlag=           0 FMFlag=      100000 FMFlg1=         800
         NFxFlg=           0 DoJE=F BraDBF=F KetDBF=F FulRan=T
         wScrn=  0.000000 ICntrl=      2127 IOpCl=  0 I1Cent=           0 NGrid=           0
         NMat0=    1 NMatS0=      1 NMatT0=    0 NMatD0=    1 NMtDS0=    0 NMtDT0=    0
 Symmetry not used in FoFCou.
 Leave Link  703 at Mon Oct 14 02:25:39 2019, MaxMem= 10737418240 cpu:               5.2 elap:               0.2
 (Enter /apps/cent7/gaussian/g16-A.03/g16-haswell/g16/l716.exe)
 Dipole        = 1.92350392D-01 1.06408887D+00-5.98372630D-01
 ***** Axes restored to original set *****
 -------------------------------------------------------------------
 Center     Atomic                   Forces (Hartrees/Bohr)
 Number     Number              X              Y              Z
 -------------------------------------------------------------------
      1        6          -0.000358437   -0.000605745    0.000648903
      2        7          -0.001486485   -0.002550334   -0.005866962
      3        8          -0.001047101   -0.000196818    0.003187143
      4        1          -0.000219365   -0.001018414   -0.000270533
      5        1          -0.000099642    0.000737780   -0.000785781
      6        1          -0.000152338    0.000298654    0.001084461
      7        1           0.002171711   -0.001073334    0.000606041
      8        1           0.000598573    0.001796379    0.000150978
      9        1           0.000593084    0.002611833    0.001245750
 -------------------------------------------------------------------
 Cartesian Forces:  Max     0.005866962 RMS     0.001694570
 Leave Link  716 at Mon Oct 14 02:25:39 2019, MaxMem= 10737418240 cpu:               0.5 elap:               0.0
 (Enter /apps/cent7/gaussian/g16-A.03/g16-haswell/g16/l103.exe)

 GradGradGradGradGradGradGradGradGradGradGradGradGradGradGradGradGradGrad
 Berny optimization.
 Using GEDIIS/GDIIS optimizer.
 FormGI is forming the generalized inverse of G from B-inverse, IUseBI=4.
 Internal  Forces:  Max     0.003625907 RMS     0.001118100
 Search for a local minimum.
 Step number   3 out of a maximum of   43
 All quantities printed in internal units (Hartrees-Bohrs-Radians)
 RMS Force = .11181D-02 SwitMx=.10000D-02 MixMth= 1
 Mixed Optimization -- RFO/linear search
 Update second derivatives using D2CorX and points    1    2    3
 DE= -1.08D-03 DEPred=-8.79D-04 R= 1.23D+00
 TightC=F SS=  1.41D+00  RLast= 2.88D-01 DXNew= 8.4853D-01 8.6500D-01
 Trust test= 1.23D+00 RLast= 2.88D-01 DXMaxT set to 8.49D-01
 ITU=  1  1  0
 Use linear search instead of GDIIS.
     Eigenvalues ---    0.00419   0.01863   0.05591   0.06132   0.06366
     Eigenvalues ---    0.06442   0.11743   0.14106   0.15356   0.16000
     Eigenvalues ---    0.16050   0.19674   0.26097   0.34788   0.34813
     Eigenvalues ---    0.34920   0.36545   0.46821   0.47787   0.50909
     Eigenvalues ---    0.56501
 RFO step:  Lambda=-7.83505106D-04 EMin= 4.19258608D-03
 Quartic linear search produced a step of  0.38219.
 Iteration  1 RMS(Cart)=  0.06479680 RMS(Int)=  0.00244029
 Iteration  2 RMS(Cart)=  0.00257017 RMS(Int)=  0.00007665
 Iteration  3 RMS(Cart)=  0.00000349 RMS(Int)=  0.00007661
 Iteration  4 RMS(Cart)=  0.00000000 RMS(Int)=  0.00007661
 ITry= 1 IFail=0 DXMaxC= 1.65D-01 DCOld= 1.00D+10 DXMaxT= 8.49D-01 DXLimC= 3.00D+00 Rises=F
 Variable       Old X    -DE/DX   Delta X   Delta X   Delta X     New X
                                 (Linear)    (Quad)   (Total)
    R1        2.85126  -0.00113   0.00299  -0.00058   0.00241   2.85367
    R2        2.06028  -0.00037   0.00049  -0.00137  -0.00088   2.05940
    R3        2.06489  -0.00007  -0.00063  -0.00006  -0.00069   2.06421
    R4        2.05941  -0.00026  -0.00047  -0.00099  -0.00146   2.05795
    R5        2.67050   0.00363   0.00817   0.01409   0.02226   2.69276
    R6        1.95114  -0.00227   0.00265  -0.00334  -0.00069   1.95045
    R7        1.95053  -0.00220   0.00329  -0.00318   0.00011   1.95064
    R8        1.85019  -0.00089   0.00305  -0.00036   0.00269   1.85288
    A1        1.87369  -0.00014  -0.00232  -0.00298  -0.00538   1.86831
    A2        1.87759   0.00087  -0.01150   0.00605  -0.00557   1.87202
    A3        1.88814  -0.00096  -0.00535  -0.00982  -0.01529   1.87285
    A4        1.94352  -0.00017   0.00578   0.00187   0.00757   1.95109
    A5        1.93532   0.00035   0.00497   0.00241   0.00730   1.94262
    A6        1.94243   0.00004   0.00750   0.00199   0.00932   1.95175
    A7        1.93847  -0.00036  -0.00998  -0.00233  -0.01227   1.92620
    A8        1.93501  -0.00033   0.00716  -0.00005   0.00702   1.94203
    A9        1.93569   0.00053   0.00545   0.00446   0.00978   1.94546
   A10        1.83105   0.00047  -0.00099   0.00116   0.00027   1.83132
   A11        1.95658  -0.00057  -0.00033  -0.00741  -0.00769   1.94890
   A12        1.86305   0.00027  -0.00100   0.00422   0.00305   1.86611
   A13        1.86794   0.00280  -0.01637   0.02061   0.00424   1.87218
    D1        0.85374   0.00026   0.03543   0.09482   0.13026   0.98400
    D2        2.88232   0.00041   0.03261   0.09480   0.12733   3.00965
    D3       -1.33431   0.00087   0.03917   0.10289   0.14214  -1.19217
    D4        2.94723   0.00045   0.03459   0.09869   0.13326   3.08049
    D5       -1.30738   0.00061   0.03177   0.09867   0.13033  -1.17705
    D6        0.75917   0.00106   0.03834   0.10676   0.14514   0.90431
    D7       -1.23579   0.00045   0.03378   0.09899   0.13280  -1.10298
    D8        0.79279   0.00061   0.03096   0.09897   0.12987   0.92266
    D9        2.85934   0.00107   0.03753   0.10706   0.14468   3.00402
[...]
     28  0.132085D-02 -0.299078D-02 -0.133965D-01  0.102927D-01  0.876759D-03
     29 -0.841818D-02 -0.458338D-02  0.117029D-01 -0.180868D-02 -0.429307D-02
     30  0.287893D-02  0.651780D-02  0.211608D-03 -0.107619D-01  0.497286D-02
     31  0.230873D-01 -0.191160D-01 -0.539082D-02  0.118513D-01 -0.203553D-02
     32 -0.271190D-01 -0.380158D-02  0.194000D-01  0.118780D-01  0.167047D-01
     33  0.695065D-02  0.232201D-01 -0.116143D-01 -0.168158D-01 -0.168147D-01
               21            22            23            24            25 
     21  0.241008D+00
     22 -0.403878D-02  0.169217D-01
     23  0.473116D-02  0.244442D-02  0.161447D-01
     24 -0.235514D-03  0.344679D-02  0.291178D-02  0.164623D-01
     25 -0.449951D-02  0.598388D-02 -0.809889D-02 -0.748230D-02  0.163273D-01
     26  0.427042D-02 -0.849337D-02  0.560142D-02 -0.801732D-02  0.224457D-02
     27 -0.696246D-03 -0.749100D-02 -0.763153D-02  0.553321D-02  0.286115D-02
     28 -0.432005D-02  0.647027D-02 -0.765407D-02 -0.762469D-02  0.610751D-02
     29  0.444989D-02 -0.800699D-02  0.604624D-02 -0.815971D-02 -0.797526D-02
     30 -0.516782D-03 -0.700461D-02 -0.718671D-02  0.539082D-02 -0.735867D-02
     31  0.474011D-04 -0.395245D-02  0.751545D-03  0.122908D-02 -0.247748D-02
     32  0.340137D-02  0.138688D-02 -0.763292D-03 -0.576181D-03  0.113073D-02
     33 -0.768157D-03  0.299466D-02 -0.695833D-03 -0.189162D-02  0.257666D-02
               26            27            28            29            30 
     26  0.163394D-01
     27  0.272062D-02  0.158854D-01
     28 -0.801682D-02 -0.798745D-02  0.172504D-01
     29  0.607797D-02 -0.812798D-02  0.312607D-02  0.171793D-01
     30 -0.754077D-02  0.503676D-02  0.315544D-02  0.297335D-02  0.155509D-01
     31  0.222651D-02  0.270405D-02 -0.375019D-02  0.953807D-03  0.143134D-02
     32 -0.101945D-02 -0.832333D-03  0.172268D-02 -0.427488D-03 -0.240376D-03
     33 -0.111383D-02 -0.230962D-02  0.316256D-02 -0.527941D-03 -0.172373D-02
               31            32            33 
     31  0.154604D-01
     32 -0.573217D-02  0.214718D-01
     33 -0.549444D-02 -0.115771D-01  0.197693D-01
 Leave Link  716 at Mon Oct 14 02:26:02 2019, MaxMem= 10737418240 cpu:               1.2 elap:               0.1
 (Enter /apps/cent7/gaussian/g16-A.03/g16-haswell/g16/l103.exe)

 GradGradGradGradGradGradGradGradGradGradGradGradGradGradGradGradGradGrad
 Berny optimization.
 Red2BG is reusing G-inverse.
 Internal  Forces:  Max     0.000064835 RMS     0.000022151
 Search for a local minimum.
 Step number   1 out of a maximum of    2
 All quantities printed in internal units (Hartrees-Bohrs-Radians)
 Second derivative matrix not updated -- analytic derivatives used.
 ITU=  0
     Eigenvalues ---    0.00266   0.00337   0.04799   0.04834   0.05199
     Eigenvalues ---    0.05825   0.10298   0.12762   0.13463   0.15452
     Eigenvalues ---    0.19069   0.20675   0.24628   0.29608   0.35138
     Eigenvalues ---    0.35519   0.36090   0.38521   0.40963   0.42462
     Eigenvalues ---    0.47856
 Angle between quadratic step and forces=  68.47 degrees.
 Linear search not attempted -- first point.
 Iteration  1 RMS(Cart)=  0.00029000 RMS(Int)=  0.00000009
 Iteration  2 RMS(Cart)=  0.00000008 RMS(Int)=  0.00000001
 ITry= 1 IFail=0 DXMaxC= 8.76D-04 DCOld= 1.00D+10 DXMaxT= 3.00D-01 DXLimC= 3.00D+00 Rises=F
 Variable       Old X    -DE/DX   Delta X   Delta X   Delta X     New X
                                 (Linear)    (Quad)   (Total)
    R1        2.83929  -0.00005   0.00000  -0.00030  -0.00030   2.83899
    R2        2.06221   0.00000   0.00000  -0.00000  -0.00000   2.06220
    R3        2.06539   0.00000   0.00000   0.00003   0.00003   2.06542
    R4        2.05970   0.00000   0.00000   0.00002   0.00002   2.05972
    R5        2.67060   0.00004   0.00000   0.00015   0.00015   2.67075
    R6        1.94367   0.00006   0.00000   0.00015   0.00015   1.94381
    R7        1.94931   0.00006   0.00000   0.00017   0.00017   1.94948
    R8        1.85204   0.00003   0.00000   0.00008   0.00008   1.85211
    A1        1.89188   0.00000   0.00000   0.00006   0.00006   1.89194
    A2        1.88223  -0.00001   0.00000  -0.00005  -0.00005   1.88218
    A3        1.87552   0.00002   0.00000   0.00021   0.00021   1.87573
    A4        1.92624   0.00000   0.00000   0.00001   0.00001   1.92625
    A5        1.94292  -0.00000   0.00000   0.00000   0.00000   1.94292
    A6        1.94260  -0.00001   0.00000  -0.00023  -0.00023   1.94237
    A7        1.99311   0.00001   0.00000   0.00008   0.00008   1.99318
    A8        1.93126   0.00002   0.00000   0.00024   0.00024   1.93150
    A9        1.95864  -0.00001   0.00000  -0.00002  -0.00002   1.95861
   A10        1.78852  -0.00001   0.00000  -0.00009  -0.00009   1.78843
   A11        1.91470   0.00000   0.00000   0.00003   0.00003   1.91473
   A12        1.86638  -0.00002   0.00000  -0.00026  -0.00026   1.86612
   A13        1.85898   0.00001   0.00000  -0.00000  -0.00000   1.85898
    D1        1.15005   0.00000   0.00000  -0.00028  -0.00028   1.14977
    D2       -3.12619   0.00001   0.00000  -0.00019  -0.00019  -3.12637
    D3       -1.04299  -0.00000   0.00000  -0.00036  -0.00036  -1.04336
    D4       -3.04755   0.00000   0.00000  -0.00026  -0.00026  -3.04780
    D5       -1.04060   0.00001   0.00000  -0.00016  -0.00016  -1.04077
    D6        1.04259  -0.00000   0.00000  -0.00034  -0.00034   1.04225
    D7       -0.95161  -0.00001   0.00000  -0.00044  -0.00044  -0.95205
    D8        1.05533  -0.00000   0.00000  -0.00035  -0.00035   1.05498
    D9        3.13852  -0.00001   0.00000  -0.00053  -0.00053   3.13800
   D10       -1.09094   0.00000   0.00000  -0.00066  -0.00066  -1.09160
   D11        3.10311  -0.00002   0.00000  -0.00093  -0.00093   3.10218
   D12        1.12502   0.00001   0.00000  -0.00060  -0.00060   1.12442
         Item               Value     Threshold  Converged?
 Maximum Force            0.000065     0.000450     YES
 RMS     Force            0.000022     0.000300     YES
 Maximum Displacement     0.000876     0.001800     YES
 RMS     Displacement     0.000290     0.001200     YES
 Predicted change in Energy=-4.122093D-08
 Optimization completed.
    -- Stationary point found.
                           ----------------------------
                           !   Optimized Parameters   !
                           ! (Angstroms and Degrees)  !
 --------------------------                            --------------------------
 ! Name  Definition              Value          Derivative Info.                !
 --------------------------------------------------------------------------------
 ! R1    R(1,2)                  1.5025         -DE/DX =   -0.0001              !
 ! R2    R(1,4)                  1.0913         -DE/DX =    0.0                 !
 ! R3    R(1,5)                  1.093          -DE/DX =    0.0                 !
 ! R4    R(1,6)                  1.0899         -DE/DX =    0.0                 !
 ! R5    R(2,3)                  1.4132         -DE/DX =    0.0                 !
 ! R6    R(2,7)                  1.0285         -DE/DX =    0.0001              !
 ! R7    R(2,9)                  1.0315         -DE/DX =    0.0001              !
 ! R8    R(3,8)                  0.9801         -DE/DX =    0.0                 !
 ! A1    A(2,1,4)              108.3967         -DE/DX =    0.0                 !
 ! A2    A(2,1,5)              107.8441         -DE/DX =    0.0                 !
 ! A3    A(2,1,6)              107.4592         -DE/DX =    0.0                 !
 ! A4    A(4,1,5)              110.3654         -DE/DX =    0.0                 !
 ! A5    A(4,1,6)              111.3209         -DE/DX =    0.0                 !
 ! A6    A(5,1,6)              111.3026         -DE/DX =    0.0                 !
 ! A7    A(1,2,3)              114.1966         -DE/DX =    0.0                 !
 ! A8    A(1,2,7)              110.6532         -DE/DX =    0.0                 !
 ! A9    A(1,2,9)              112.2216         -DE/DX =    0.0                 !
 ! A10   A(3,2,7)              102.4746         -DE/DX =    0.0                 !
 ! A11   A(3,2,9)              109.7041         -DE/DX =    0.0                 !
 ! A12   A(7,2,9)              106.9356         -DE/DX =    0.0                 !
 ! A13   A(2,3,8)              106.5118         -DE/DX =    0.0                 !
 ! D1    D(4,1,2,3)             65.8932         -DE/DX =    0.0                 !
 ! D2    D(4,1,2,7)           -179.1174         -DE/DX =    0.0                 !
 ! D3    D(4,1,2,9)            -59.7591         -DE/DX =    0.0                 !
 ! D4    D(5,1,2,3)           -174.6116         -DE/DX =    0.0                 !
 ! D5    D(5,1,2,7)            -59.6222         -DE/DX =    0.0                 !
 ! D6    D(5,1,2,9)             59.736          -DE/DX =    0.0                 !
 ! D7    D(6,1,2,3)            -54.5234         -DE/DX =    0.0                 !
 ! D8    D(6,1,2,7)             60.466          -DE/DX =    0.0                 !
 ! D9    D(6,1,2,9)            179.8242         -DE/DX =    0.0                 !
 ! D10   D(1,2,3,8)            -62.5062         -DE/DX =    0.0                 !
 ! D11   D(7,2,3,8)            177.795          -DE/DX =    0.0                 !
 ! D12   D(9,2,3,8)             64.4589         -DE/DX =    0.0                 !
 --------------------------------------------------------------------------------
 GradGradGradGradGradGradGradGradGradGradGradGradGradGradGradGradGradGrad

 Leave Link  103 at Mon Oct 14 02:26:02 2019, MaxMem= 10737418240 cpu:               0.9 elap:               0.1
 (Enter /apps/cent7/gaussian/g16-A.03/g16-haswell/g16/l9999.exe)

 ----------------------------------------------------------------------

 Electric dipole moment (input orientation):
 (Debye = 10**-18 statcoulomb cm , SI units = C m)
                  (au)            (Debye)         (10**-30 SI)
   Tot        0.996129D+00      0.253191D+01      0.844554D+01
   x          0.300609D+00      0.764071D+00      0.254867D+01
   y         -0.907080D+00     -0.230557D+01     -0.769054D+01
   z         -0.281273D+00     -0.714925D+00     -0.238473D+01

 Dipole polarizability, Alpha (input orientation).
 (esu units = cm**3 , SI units = C**2 m**2 J**-1)
 Alpha(0;0):
               (au)            (10**-24 esu)      (10**-40 SI)
   iso        0.216987D+02      0.321541D+01      0.357763D+01
   aniso      0.608210D+01      0.901275D+00      0.100280D+01
   xx         0.212629D+02      0.315084D+01      0.350579D+01
   yx        -0.892299D+00     -0.132225D+00     -0.147120D+00
   yy         0.199108D+02      0.295048D+01      0.328285D+01
   zx        -0.138130D+01     -0.204688D+00     -0.227746D+00
   zy         0.233693D+01      0.346298D+00      0.385308D+00
   zz         0.239222D+02      0.354491D+01      0.394424D+01

 ----------------------------------------------------------------------

 Dipole orientation:
     6          2.36546435         -1.25268452          0.92467716
     7          0.26750364          0.57773519          0.36818710
     8          0.58698116          1.95254487         -1.89895919
     1          4.09065198         -0.17846801          1.27465968
     1          1.83617223         -2.33007902          2.60542527
     1          2.56721536         -2.47930616         -0.71759971
     1         -1.40166146         -0.36739296          0.05440359
     1          2.12889397          2.95746142         -1.69233742
     1         -0.04680793          1.81012971          1.84542219

 Electric dipole moment (dipole orientation):
 (Debye = 10**-18 statcoulomb cm , SI units = C m)
                  (au)            (Debye)         (10**-30 SI)
   Tot        0.996129D+00      0.253191D+01      0.844554D+01
   x          0.000000D+00      0.000000D+00      0.000000D+00
   y          0.000000D+00      0.000000D+00      0.000000D+00
   z          0.996129D+00      0.253191D+01      0.844554D+01

 Dipole polarizability, Alpha (dipole orientation).
 (esu units = cm**3 , SI units = C**2 m**2 J**-1)
 Alpha(0;0):
               (au)            (10**-24 esu)      (10**-40 SI)
   iso        0.216987D+02      0.321541D+01      0.357763D+01
   aniso      0.608210D+01      0.901275D+00      0.100280D+01
   xx         0.206155D+02      0.305491D+01      0.339904D+01
   yx         0.294695D+00      0.436693D-01      0.485886D-01
   yy         0.221991D+02      0.328957D+01      0.366014D+01
   zx         0.187314D+00      0.277570D-01      0.308839D-01
   zy        -0.336558D+01     -0.498728D+00     -0.554910D+00
   zz         0.222814D+02      0.330176D+01      0.367370D+01

 ----------------------------------------------------------------------
 1\1\GINC-BROWN-A497\Freq\RB3LYP\6-31G(d)\C1H6N1O1(1+)\FINEJ\14-Oct-201
 9\0\\#P Geom=AllCheck Guess=TCheck SCRF=Check GenChk RB3LYP/6-31G(d) F
 req\\Title Card Required\\1,1\C,1.4525713157,0.0569177551,-0.364050395
 1\N,0.1247871153,-0.2551220583,0.2660972474\O,-0.2361071824,0.61648588
 97,1.3183576051\H,2.2347443519,-0.1169769976,0.3767893935\H,1.58295131
 95,-0.6115316417,-1.2188803425\H,1.4285869584,1.1005422994,-0.67751368
 27\H,-0.6387030045,-0.1164575261,-0.4090010928\H,0.4409332234,0.503848
 8145,2.017957196\H,0.0664263528,-1.2330614051,0.5890279812\\Version=ES
 64L-G16RevA.03\State=1-A\HF=-171.3618822\RMSD=1.921e-09\RMSF=3.965e-05
 \ZeroPoint=0.0834955\Thermal=0.0834955\Dipole=0.3006086,-0.9070797,-0.
 2812732\DipoleDeriv=0.3237986,0.0605338,-0.0901384,0.0791041,0.0652793
 ,-0.0775932,-0.0491095,-0.0494024,0.0894234,-0.0491579,-0.0210661,-0.0
 55522,-0.0588367,0.0967995,0.0786972,-0.1361905,0.1372949,0.2099691,-0
 .2292918,-0.1498952,0.0375668,-0.1075694,-0.2253792,0.0559568,0.139272
 8,-0.021382,-0.3904073,0.091281,-0.0128998,0.0229106,-0.0048644,0.1159
 328,0.0423865,-0.0461552,0.0297077,0.007454,0.0646467,-0.0439591,0.004
 0453,-0.0341115,0.0835809,-0.0335102,0.0143194,-0.0268527,0.0969991,0.
 064342,0.0582931,0.004856,0.0056194,0.0786388,0.0167692,0.0075783,-0.0
 101629,0.1348598,0.2763065,0.005235,0.0624179,0.0006599,0.2368224,-0.0
 225369,0.0818516,-0.0156742,0.2578992,0.2517388,0.0879694,-0.0293863,0
 .0938812,0.3148021,-0.0078779,-0.0421964,0.0046662,0.4178171,0.2063361
 ,0.015789,0.0432501,0.0261174,0.2335235,-0.0522915,0.0306296,-0.048194
 6,0.1759856\Polar=21.2629392,-0.8922994,19.9108368,-1.3813038,2.336932
 5,23.9222292\Quadrupole=-0.6888202,-1.0540757,1.7428959,1.1873974,0.91
 38296,0.235685\PG=C01 [X(C1H6N1O1)]\NImag=0\\0.46511206,-0.03963856,0.
 63962511,0.09227417,0.01867064,0.59227507,-0.15010818,-0.02519050,0.00
 373505,0.60517986,-0.01837288,-0.10817825,0.01211664,-0.00762661,0.667
 60706,0.01151329,0.01399590,-0.09818619,0.13910004,-0.09197315,0.60120
 026,-0.00588753,0.02524172,0.03145256,-0.10036884,0.02204583,-0.021598
 20,0.34701550,0.00511789,0.00306270,-0.00700063,0.04498548,-0.13409888
 ,-0.04874113,-0.11270208,0.18243686,0.00839801,-0.01840103,-0.02225926
 ,0.02033677,-0.08177868,-0.16680562,0.20067937,0.08715077,0.45671278,-
 0.18682171,0.03183362,-0.13187908,-0.03106748,0.00371705,-0.02023649,0
 .00310660,-0.00074568,-0.00099323,0.20917482,0.03517931,-0.06082794,0.
 03616144,-0.00897417,0.00022258,-0.00823261,0.00075314,-0.00059468,0.0
 0014706,-0.03282065,0.05609206,-0.14510358,0.03304051,-0.19135934,0.02
 113903,-0.00363240,0.01231731,-0.00056562,0.00112880,0.00266403,0.1442
 3808,-0.03601155,0.19594430,-0.05391587,0.01145022,0.01633871,-0.00625
 547,0.02171535,0.02744731,-0.00581166,-0.00017834,0.00488980,0.0061641
 2,-0.01523166,-0.01761010,0.05906292,0.01883575,-0.15991621,-0.1384861
 3,-0.00085567,0.00530532,0.00988233,-0.00229245,0.00160312,0.00187897,
 -0.00150162,0.00423621,0.00615738,-0.01853575,0.16194435,0.02468176,-0
 .13332989,-0.21993254,0.00206874,-0.00714947,-0.01222501,0.00207737,0.
 00098071,0.00055454,0.00331897,-0.01242629,-0.01379264,-0.02984711,0.1
 4552070,0.23357478,-0.05174244,0.02191587,-0.00730189,-0.00740649,-0.0
 3958125,0.01436226,0.00265271,0.00021066,-0.00278428,0.00279053,0.0223
 3766,-0.00477142,0.00023351,0.00335889,-0.00261560,0.05829814,0.007491
 62,-0.31769511,0.08044261,-0.00072404,-0.00458365,0.00065221,0.0006870
 9,0.00149094,-0.00021044,0.00042284,-0.00034882,-0.00069549,0.00074640
 ,-0.01342624,0.00607333,-0.00794972,0.33336885,-0.00518121,0.07439026,
 -0.07388455,0.00464429,0.01552884,-0.00776688,-0.00193461,0.00038311,0
 .00139314,0.00103873,0.02009011,-0.00463894,-0.00076509,-0.02432176,0.
 01104220,-0.00009334,-0.08571696,0.07421671,-0.02275494,0.00447150,-0.
 01706990,-0.25210279,0.03722201,-0.17743700,0.01225676,0.00021997,0.01
 368495,-0.00316698,-0.00164699,0.00406853,0.00071114,0.00072788,0.0001
 2723,0.00140702,-0.00050649,-0.00045553,0.25903391,-0.00628182,0.00231
 456,-0.00647043,0.04018369,-0.07310245,0.04602028,-0.02091012,-0.00023
 267,-0.03025533,-0.00188263,0.00024271,0.00066122,0.00073598,0.0004678
 7,-0.00014427,-0.00087161,0.00004292,-0.00075632,-0.04210346,0.0758388
 6,0.01317885,-0.00281735,0.01581189,-0.16190645,0.03809981,-0.19761671
 ,-0.02022969,-0.00417800,-0.03207748,0.00370353,0.00151039,-0.00186672
 ,-0.00017983,-0.00034135,0.00038081,0.00010336,0.00006306,0.00041622,0
 .17097172,-0.03016876,0.22356864,0.00443374,0.00071517,0.00230099,0.00
 947592,0.00312967,0.02365013,-0.25383954,0.05175435,-0.24524793,-0.000
 79611,0.00076810,-0.00045733,-0.00120294,-0.00025910,-0.00014402,-0.00
 018978,-0.00010549,0.00016798,-0.00038203,0.00197587,0.00322463,0.2422
 2138,-0.00023207,0.00105772,0.00130957,-0.02472362,-0.00426495,-0.0333
 0332,0.08202749,-0.03394215,0.05092101,0.00058485,0.00064482,0.0000260
 5,-0.00035779,-0.00023553,0.00015683,0.00037001,-0.00001503,0.00046618
 ,0.00187364,-0.00411500,-0.00448994,-0.05753420,0.04078204,0.00030243,
 0.00171734,0.00030661,-0.02600882,0.00461024,-0.02867668,-0.19365188,0
 .01031977,-0.23970583,0.00110701,-0.00028403,-0.00003329,-0.00015473,-
 0.00016544,0.00056711,0.00016065,0.00019999,-0.00055073,0.00231115,-0.
 00414415,-0.00306401,0.21671792,-0.01219712,0.26864795,0.00168488,-0.0
 3079903,0.01014939,-0.06734653,-0.02224916,0.00319866,0.00087600,0.011
 33774,0.00103655,0.00061620,-0.00036474,-0.00093758,0.00101425,0.00052
 207,0.00033266,-0.00604321,-0.00006221,0.00257877,0.00499791,0.0291541
 0,-0.00886612,0.00027936,-0.00200831,-0.00078374,0.06392114,-0.0020992
 4,0.00055742,0.00325628,-0.01707456,-0.34890678,0.11169949,0.00514938,
 -0.01972524,-0.00945231,0.00039221,0.00033307,-0.00067451,-0.00034442,
 0.00002112,0.00031835,0.00020949,0.00116614,-0.00006346,-0.00025804,-0
 .00145679,0.00232214,-0.00044437,0.00008806,-0.00005660,0.01446954,0.3
 6792300,-0.00006372,0.01273363,-0.00277169,-0.00310864,0.11417816,-0.1
 0224047,0.00377069,-0.04004340,-0.00047631,-0.00029752,-0.00095452,0.0
 0076529,-0.00011896,-0.00012469,-0.00016925,0.00294026,-0.00080832,-0.
 00022717,0.00379885,0.02525776,-0.00555264,-0.00021238,-0.00288925,0.0
 0250888,-0.00670858,-0.10734939,0.10816335\\0.00004832,0.00001443,-0.0
 0005820,-0.00013429,-0.00006098,0.00004192,0.00003685,-0.00003007,-0.0
 0000478,-0.00000053,-0.00000087,0.00000013,0.00000607,-0.00000428,0.00
 001031,-0.00000969,0.00000052,0.00001970,0.00005978,0.00001038,0.00002
 447,-0.00002004,0.00000498,-0.00002858,0.00001355,0.00006589,-0.000004
 97\\\@


 WAR ES EIN GOTT DER DIESE ZEICHEN SCHRIEB?
          - LUDWIG BOLTZMANN, QUOTING GOETHE, ABOUT MAXWELL'S EQUATIONS.
 Job cpu time:       0 days  0 hours  1 minutes 30.4 seconds.
 Elapsed time:       0 days  0 hours  0 minutes  4.2 seconds.
 File lengths (MBytes):  RWF=      7 Int=      0 D2E=      0 Chk=      1 Scr=      1
 Normal termination of Gaussian 16 at Mon Oct 14 02:26:02 2019.
real 29.06
user 522.28
sys 15.07
Machine:
brown-a497
brown-a497
brown-a497
brown-a497
brown-a497
brown-a497
brown-a497
brown-a497
brown-a497
brown-a497
brown-a497
brown-a497
brown-a497
brown-a497
brown-a497
brown-a497
brown-a497
brown-a497
brown-a497
brown-a497
brown-a497
brown-a497
brown-a497
brown-a497
