Title Card Required                                                     
Freq      RB3LYP                                                      6-31G(d)            
Number of atoms                            I               17
Info1-9                                    I   N=           9
          44          44        1002           0           0         100
           6          18        -502
Full Title                                 C   N=           2
Title Card Required     
Route                                      C   N=           6
#P opt freq b3lyp/6-31g(d) geom=connectivity temperature=0.0
01          
Charge                                     I                0
Multiplicity                               I                1
Number of electrons                        I               50
Number of alpha electrons                  I               25
Number of beta electrons                   I               25
Number of basis functions                  I              112
Number of independent functions            I              112
Number of point charges in /Mol/           I                0
Number of translation vectors              I                0
Atomic numbers                             I   N=          17
           6           6           7           8           6           6
           1           1           1           1           1           1
           1           1           1           1           1
Nuclear charges                            R   N=          17
  6.00000000E+00  6.00000000E+00  7.00000000E+00  8.00000000E+00  6.00000000E+00
  6.00000000E+00  1.00000000E+00  1.00000000E+00  1.00000000E+00  1.00000000E+00
  1.00000000E+00  1.00000000E+00  1.00000000E+00  1.00000000E+00  1.00000000E+00
  1.00000000E+00  1.00000000E+00
Current cartesian coordinates              R   N=          51
 -7.26593763E-01  2.83312087E+00  7.61285525E-01 -7.40907656E-01  2.70155174E-02
  2.78132793E-02  1.50273149E+00 -4.53111520E-01 -1.59111893E+00  3.77574890E+00
 -2.12834602E-01 -8.13335456E-02 -7.67578314E-01 -1.65103266E+00  2.40484914E+00
 -3.02616791E+00 -5.64512097E-01 -1.66395125E+00 -2.40976438E+00  3.30831653E+00
  1.86914465E+00  9.40998647E-01  3.27614732E+00  1.90109562E+00 -6.99567611E-01
  4.02449772E+00 -9.32047019E-01  1.49727404E+00 -2.33757528E+00 -2.02359384E+00
  4.66822084E+00  1.12760690E+00 -9.54798439E-01 -8.45551560E-01 -3.65911577E+00
  1.88962367E+00  9.37717346E-01 -1.33993456E+00  3.52953860E+00 -2.41817787E+00
 -1.23846278E+00  3.58702654E+00 -4.78990024E+00 -1.98545095E-01 -6.44476215E-01
 -2.99907803E+00  6.01431239E-01 -3.37304024E+00 -3.03979689E+00 -2.55745858E+00
 -2.23995261E+00
Number of symbols in /Mol/                 I                0
Force Field                                I                0
Atom Types                                 C   N=          17
                                                            
                                                            
                                                            
                        
Int Atom Types                             I   N=          17
           0           0           0           0           0           0
           0           0           0           0           0           0
           0           0           0           0           0
MM charges                                 R   N=          17
  0.00000000E+00  0.00000000E+00  0.00000000E+00  0.00000000E+00  0.00000000E+00
  0.00000000E+00  0.00000000E+00  0.00000000E+00  0.00000000E+00  0.00000000E+00
  0.00000000E+00  0.00000000E+00  0.00000000E+00  0.00000000E+00  0.00000000E+00
  0.00000000E+00  0.00000000E+00
Integer atomic weights                     I   N=          17
          12          12          14          16          12          12
           1           1           1           1           1           1
           1           1           1           1           1
Real atomic weights                        R   N=          17
  1.20000000E+01  1.20000000E+01  1.40030740E+01  1.59949146E+01  1.20000000E+01
  1.20000000E+01  1.00782504E+00  1.00782504E+00  1.00782504E+00  1.00782504E+00
  1.00782504E+00  1.00782504E+00  1.00782504E+00  1.00782504E+00  1.00782504E+00
  1.00782504E+00  1.00782504E+00
Atom fragment info                         I   N=          17
           0           0           0           0           0           0
           0           0           0           0           0           0
           0           0           0           0           0
Atom residue num                           I   N=          17
           0           0           0           0           0           0
           0           0           0           0           0           0
           0           0           0           0           0
Nuclear spins                              I   N=          17
           0           0           2           0           0           0
           1           1           1           1           1           1
           1           1           1           1           1
Nuclear ZEff                               R   N=          17
 -3.60000000E+00 -3.60000000E+00 -4.55000000E+00 -5.60000000E+00 -3.60000000E+00
 -3.60000000E+00 -1.00000000E+00 -1.00000000E+00 -1.00000000E+00 -1.00000000E+00
 -1.00000000E+00 -1.00000000E+00 -1.00000000E+00 -1.00000000E+00 -1.00000000E+00
 -1.00000000E+00 -1.00000000E+00
Nuclear ZNuc                               R   N=          17
  6.00000000E+00  6.00000000E+00  7.00000000E+00  8.00000000E+00  6.00000000E+00
  6.00000000E+00  1.00000000E+00  1.00000000E+00  1.00000000E+00  1.00000000E+00
  1.00000000E+00  1.00000000E+00  1.00000000E+00  1.00000000E+00  1.00000000E+00
  1.00000000E+00  1.00000000E+00
Nuclear QMom                               R   N=          17
  0.00000000E+00  0.00000000E+00  2.04400000E+00  0.00000000E+00  0.00000000E+00
  0.00000000E+00  0.00000000E+00  0.00000000E+00  0.00000000E+00  0.00000000E+00
  0.00000000E+00  0.00000000E+00  0.00000000E+00  0.00000000E+00  0.00000000E+00
  0.00000000E+00  0.00000000E+00
Nuclear GFac                               R   N=          17
  0.00000000E+00  0.00000000E+00  4.03761000E-01  0.00000000E+00  0.00000000E+00
  0.00000000E+00  2.79284600E+00  2.79284600E+00  2.79284600E+00  2.79284600E+00
  2.79284600E+00  2.79284600E+00  2.79284600E+00  2.79284600E+00  2.79284600E+00
  2.79284600E+00  2.79284600E+00
MicOpt                                     I   N=          17
          -1          -1          -1          -1          -1          -1
          -1          -1          -1          -1          -1          -1
          -1          -1          -1          -1          -1
Number of residues                         I                0
Number of secondary structures             I                0
Redundant internal dimensions              I   N=           4
          79          16          28          35
Redundant internal coordinate indices      I   N=         316
           1           2           0           0           1           7
           0           0           1           8           0           0
           1           9           0           0           2           3
           0           0           2           5           0           0
           2           6           0           0           3           4
           0           0           3          10           0           0
           4          11           0           0           5          12
           0           0           5          13           0           0
           5          14           0           0           6          15
           0           0           6          16           0           0
           6          17           0           0           2           1
           7           0           2           1           8           0
           2           1           9           0           7           1
           8           0           7           1           9           0
           8           1           9           0           1           2
           3           0           1           2           5           0
           1           2           6           0           3           2
           5           0           3           2           6           0
           5           2           6           0           2           3
           4           0           2           3          10           0
           4           3          10           0           3           4
          11           0           2           5          12           0
           2           5          13           0           2           5
          14           0          12           5          13           0
          12           5          14           0          13           5
          14           0           2           6          15           0
           2           6          16           0           2           6
          17           0          15           6          16           0
          15           6          17           0          16           6
          17           0           7           1           2           3
           7           1           2           5           7           1
           2           6           8           1           2           3
           8           1           2           5           8           1
           2           6           9           1           2           3
           9           1           2           5           9           1
           2           6           1           2           3           4
           1           2           3          10           5           2
           3           4           5           2           3          10
           6           2           3           4           6           2
           3          10           1           2           5          12
           1           2           5          13           1           2
           5          14           3           2           5          12
           3           2           5          13           3           2
           5          14           6           2           5          12
           6           2           5          13           6           2
           5          14           1           2           6          15
           1           2           6          16           1           2
           6          17           3           2           6          15
           3           2           6          16           3           2
           6          17           5           2           6          15
           5           2           6          16           5           2
           6          17           2           3           4          11
          10           3           4          11
Redundant internal coordinates             R   N=          79
  2.90041612E+00  2.07032029E+00  2.06792261E+00  2.07062413E+00  2.80809190E+00
  2.90978633E+00  2.90420154E+00  2.73930521E+00  1.93346011E+00  1.83200178E+00
  2.07459271E+00  2.06633533E+00  2.07177127E+00  2.06978572E+00  2.06909229E+00
  2.07455995E+00  1.93197230E+00  1.92904832E+00  1.92828181E+00  1.88755671E+00
  1.89247405E+00  1.89332116E+00  1.88312075E+00  1.92986232E+00  1.92650188E+00
  1.96025697E+00  1.83179617E+00  1.92964509E+00  1.90734702E+00  1.86852353E+00
  1.78351303E+00  1.77790391E+00  1.93442455E+00  1.92863380E+00  1.93756406E+00
  1.88801122E+00  1.88023276E+00  1.89330171E+00  1.92579711E+00  1.93487917E+00
  1.94182479E+00  1.89480876E+00  1.87655490E+00  1.88817905E+00  3.08399182E+00
 -1.04918563E+00  1.09158508E+00 -1.10828553E+00  1.04172232E+00 -3.10069227E+00
  9.87432831E-01  3.13744068E+00 -1.00497391E+00  1.19482817E+00  3.11393530E+00
 -9.36549148E-01  9.82557986E-01 -3.03389604E+00 -1.11478890E+00  3.10668765E+00
 -1.08369972E+00  1.01779238E+00 -1.07189109E+00  1.02090684E+00  3.12239895E+00
  9.67751331E-01  3.06054927E+00 -1.12114393E+00 -1.08232954E+00  1.01741812E+00
  3.11946481E+00 -3.10706415E+00 -1.00731650E+00  1.09473020E+00  1.05856833E+00
 -3.12486933E+00 -1.02282263E+00 -2.10598081E+00  2.20195735E+00
ZRed-IntVec                                I   N=          79
           0           0           0           0           0           0
           0           0           0           0           0           0
           0           0           0           0           0           0
           0           0           0           0           0           0
           0           0           0           0           0           0
           0           0           0           0           0           0
           0           0           0           0           0           0
           0           0           0           0           0           0
           0           0           0           0           0           0
           0           0           0           0           0           0
           0           0           0           0           0           0
           0           0           0           0           0           0
           0           0           0           0           0           0
           0
ZRed-FPVec                                 R   N=          79
  0.00000000E+00  0.00000000E+00  0.00000000E+00  0.00000000E+00  0.00000000E+00
  0.00000000E+00  0.00000000E+00  0.00000000E+00  0.00000000E+00  0.00000000E+00
  0.00000000E+00  0.00000000E+00  0.00000000E+00  0.00000000E+00  0.00000000E+00
  0.00000000E+00  0.00000000E+00  0.00000000E+00  0.00000000E+00  0.00000000E+00
  0.00000000E+00  0.00000000E+00  0.00000000E+00  0.00000000E+00  0.00000000E+00
  0.00000000E+00  0.00000000E+00  0.00000000E+00  0.00000000E+00  0.00000000E+00
  0.00000000E+00  0.00000000E+00  0.00000000E+00  0.00000000E+00  0.00000000E+00
  0.00000000E+00  0.00000000E+00  0.00000000E+00  0.00000000E+00  0.00000000E+00
  0.00000000E+00  0.00000000E+00  0.00000000E+00  0.00000000E+00  0.00000000E+00
  0.00000000E+00  0.00000000E+00  0.00000000E+00  0.00000000E+00  0.00000000E+00
  0.00000000E+00  0.00000000E+00  0.00000000E+00  0.00000000E+00  0.00000000E+00
  0.00000000E+00  0.00000000E+00  0.00000000E+00  0.00000000E+00  0.00000000E+00
  0.00000000E+00  0.00000000E+00  0.00000000E+00  0.00000000E+00  0.00000000E+00
  0.00000000E+00  0.00000000E+00  0.00000000E+00  0.00000000E+00  0.00000000E+00
  0.00000000E+00  0.00000000E+00  0.00000000E+00  0.00000000E+00  0.00000000E+00
  0.00000000E+00  0.00000000E+00  0.00000000E+00  0.00000000E+00
ZRed-Constraint1                           R   N=          79
  2.90041612E+00  2.07032029E+00  2.06792261E+00  2.07062413E+00  2.80809190E+00
  2.90978633E+00  2.90420154E+00  2.73930521E+00  1.93346011E+00  1.83200178E+00
  2.07459271E+00  2.06633533E+00  2.07177127E+00  2.06978572E+00  2.06909229E+00
  2.07455995E+00  1.93197230E+00  1.92904832E+00  1.92828181E+00  1.88755671E+00
  1.89247405E+00  1.89332116E+00  1.88312075E+00  1.92986232E+00  1.92650188E+00
  1.96025697E+00  1.83179617E+00  1.92964509E+00  1.90734702E+00  1.86852353E+00
  1.78351303E+00  1.77790391E+00  1.93442455E+00  1.92863380E+00  1.93756406E+00
  1.88801122E+00  1.88023276E+00  1.89330171E+00  1.92579711E+00  1.93487917E+00
  1.94182479E+00  1.89480876E+00  1.87655490E+00  1.88817905E+00  3.08399182E+00
 -1.04918563E+00  1.09158508E+00 -1.10828553E+00  1.04172232E+00 -3.10069227E+00
  9.87432831E-01  3.13744068E+00 -1.00497391E+00  1.19482817E+00  3.11393530E+00
 -9.36549148E-01  9.82557986E-01 -3.03389604E+00 -1.11478890E+00  3.10668765E+00
 -1.08369972E+00  1.01779238E+00 -1.07189109E+00  1.02090684E+00  3.12239895E+00
  9.67751331E-01  3.06054927E+00 -1.12114393E+00 -1.08232954E+00  1.01741812E+00
  3.11946481E+00 -3.10706415E+00 -1.00731650E+00  1.09473020E+00  1.05856833E+00
 -3.12486933E+00 -1.02282263E+00 -2.10598081E+00  2.20195735E+00
ZRed-Constraint2                           R   N=          79
  2.94728635E+00  2.05984163E+00  2.05971189E+00  2.05994375E+00  2.81129172E+00
  2.95066584E+00  2.94514608E+00  2.56842506E+00  1.90852368E+00  1.81408859E+00
  2.05977665E+00  2.05994981E+00  2.05972125E+00  2.05983714E+00  2.05985433E+00
  2.05979442E+00  1.91064131E+00  1.91068305E+00  1.91063285E+00  1.91066076E+00
  1.91057469E+00  1.91060675E+00  1.91595427E+00  1.94069382E+00  1.90658568E+00
  1.93138208E+00  1.86074333E+00  1.90660355E+00  1.97907048E+00  2.22077304E+00
  2.08334179E+00  1.91064331E+00  1.91057152E+00  1.91062989E+00  1.91059010E+00
  1.91058532E+00  1.91072454E+00  1.91069805E+00  1.91064127E+00  1.91061098E+00
  1.91066268E+00  1.91061150E+00  1.91067264E+00  1.91060034E+00  2.79342571E+00
 -1.34668585E+00  7.58910188E-01 -1.39529533E+00  7.47778426E-01  2.85337446E+00
  6.99097603E-01  2.84217136E+00 -1.33541792E+00  1.09797905E+00 -2.04369190E+00
 -1.05058910E+00  2.09092526E+00 -3.12206515E+00  1.94492116E-02  2.59230472E+00
 -1.59658401E+00  4.97862008E-01 -1.55671404E+00  5.37582535E-01  2.63202855E+00
  4.86719213E-01  2.58101579E+00 -1.60772350E+00 -7.34279233E-01  1.36008054E+00
 -2.82874555E+00 -2.80356252E+00 -7.09202748E-01  1.38515647E+00  1.39201914E+00
 -2.79680639E+00 -7.02447173E-01 -3.57861270E-01  2.78380291E+00
SymInf integers                            I   N=          26
           1           1           1           1           1           0
           0           0           0           0           0           0
           0           0           0           0           0           0
           0           0           0           0           0           0
           0           0
RotTr to input orientation                 R   N=          12
 -4.86555637E-02  8.57839620E-01 -5.11609053E-01  5.43071441E-01 -4.07166236E-01
 -7.34363034E-01 -8.38275638E-01 -3.13571113E-01 -4.46057296E-01  2.83797587E+00
  5.23535274E-01 -4.30991311E-01
Number of contracted shells                I               46
Number of primitive shells                 I              110
Pure/Cartesian d shells                    I                1
Pure/Cartesian f shells                    I                0
Highest angular momentum                   I                2
Largest degree of contraction              I                6
Shell types                                I   N=          46
           0          -1          -1           2           0          -1
          -1           2           0          -1          -1           2
           0          -1          -1           2           0          -1
          -1           2           0          -1          -1           2
           0           0           0           0           0           0
           0           0           0           0           0           0
           0           0           0           0           0           0
           0           0           0           0
Number of primitives per shell             I   N=          46
           6           3           1           1           6           3
           1           1           6           3           1           1
           6           3           1           1           6           3
           1           1           6           3           1           1
           3           1           3           1           3           1
           3           1           3           1           3           1
           3           1           3           1           3           1
           3           1           3           1
Shell to atom map                          I   N=          46
           1           1           1           1           2           2
           2           2           3           3           3           3
           4           4           4           4           5           5
           5           5           6           6           6           6
           7           7           8           8           9           9
          10          10          11          11          12          12
          13          13          14          14          15          15
          16          16          17          17
Primitive exponents                        R   N=         110
  3.04752488E+03  4.57369518E+02  1.03948685E+02  2.92101553E+01  9.28666296E+00
  3.16392696E+00  7.86827235E+00  1.88128854E+00  5.44249258E-01  1.68714478E-01
  8.00000000E-01  3.04752488E+03  4.57369518E+02  1.03948685E+02  2.92101553E+01
  9.28666296E+00  3.16392696E+00  7.86827235E+00  1.88128854E+00  5.44249258E-01
  1.68714478E-01  8.00000000E-01  4.17351146E+03  6.27457911E+02  1.42902093E+02
  4.02343293E+01  1.28202129E+01  4.39043701E+00  1.16263619E+01  2.71627981E+00
  7.72218397E-01  2.12031498E-01  8.00000000E-01  5.48467166E+03  8.25234946E+02
  1.88046958E+02  5.29645000E+01  1.68975704E+01  5.79963534E+00  1.55396162E+01
  3.59993359E+00  1.01376175E+00  2.70005823E-01  8.00000000E-01  3.04752488E+03
  4.57369518E+02  1.03948685E+02  2.92101553E+01  9.28666296E+00  3.16392696E+00
  7.86827235E+00  1.88128854E+00  5.44249258E-01  1.68714478E-01  8.00000000E-01
  3.04752488E+03  4.57369518E+02  1.03948685E+02  2.92101553E+01  9.28666296E+00
  3.16392696E+00  7.86827235E+00  1.88128854E+00  5.44249258E-01  1.68714478E-01
  8.00000000E-01  1.87311370E+01  2.82539436E+00  6.40121692E-01  1.61277759E-01
  1.87311370E+01  2.82539436E+00  6.40121692E-01  1.61277759E-01  1.87311370E+01
  2.82539436E+00  6.40121692E-01  1.61277759E-01  1.87311370E+01  2.82539436E+00
  6.40121692E-01  1.61277759E-01  1.87311370E+01  2.82539436E+00  6.40121692E-01
  1.61277759E-01  1.87311370E+01  2.82539436E+00  6.40121692E-01  1.61277759E-01
  1.87311370E+01  2.82539436E+00  6.40121692E-01  1.61277759E-01  1.87311370E+01
  2.82539436E+00  6.40121692E-01  1.61277759E-01  1.87311370E+01  2.82539436E+00
  6.40121692E-01  1.61277759E-01  1.87311370E+01  2.82539436E+00  6.40121692E-01
  1.61277759E-01  1.87311370E+01  2.82539436E+00  6.40121692E-01  1.61277759E-01
Contraction coefficients                   R   N=         110
  1.83473713E-03  1.40373228E-02  6.88426223E-02  2.32184443E-01  4.67941348E-01
  3.62311985E-01 -1.19332420E-01 -1.60854152E-01  1.14345644E+00  1.00000000E+00
  1.00000000E+00  1.83473713E-03  1.40373228E-02  6.88426223E-02  2.32184443E-01
  4.67941348E-01  3.62311985E-01 -1.19332420E-01 -1.60854152E-01  1.14345644E+00
  1.00000000E+00  1.00000000E+00  1.83477216E-03  1.39946270E-02  6.85865518E-02
  2.32240873E-01  4.69069948E-01  3.60455199E-01 -1.14961182E-01 -1.69117479E-01
  1.14585195E+00  1.00000000E+00  1.00000000E+00  1.83107443E-03  1.39501722E-02
  6.84450781E-02  2.32714336E-01  4.70192898E-01  3.58520853E-01 -1.10777550E-01
 -1.48026263E-01  1.13076702E+00  1.00000000E+00  1.00000000E+00  1.83473713E-03
  1.40373228E-02  6.88426223E-02  2.32184443E-01  4.67941348E-01  3.62311985E-01
 -1.19332420E-01 -1.60854152E-01  1.14345644E+00  1.00000000E+00  1.00000000E+00
  1.83473713E-03  1.40373228E-02  6.88426223E-02  2.32184443E-01  4.67941348E-01
  3.62311985E-01 -1.19332420E-01 -1.60854152E-01  1.14345644E+00  1.00000000E+00
  1.00000000E+00  3.34946043E-02  2.34726953E-01  8.13757326E-01  1.00000000E+00
  3.34946043E-02  2.34726953E-01  8.13757326E-01  1.00000000E+00  3.34946043E-02
  2.34726953E-01  8.13757326E-01  1.00000000E+00  3.34946043E-02  2.34726953E-01
  8.13757326E-01  1.00000000E+00  3.34946043E-02  2.34726953E-01  8.13757326E-01
  1.00000000E+00  3.34946043E-02  2.34726953E-01  8.13757326E-01  1.00000000E+00
  3.34946043E-02  2.34726953E-01  8.13757326E-01  1.00000000E+00  3.34946043E-02
  2.34726953E-01  8.13757326E-01  1.00000000E+00  3.34946043E-02  2.34726953E-01
  8.13757326E-01  1.00000000E+00  3.34946043E-02  2.34726953E-01  8.13757326E-01
  1.00000000E+00  3.34946043E-02  2.34726953E-01  8.13757326E-01  1.00000000E+00
P(S=P) Contraction coefficients            R   N=         110
  0.00000000E+00  0.00000000E+00  0.00000000E+00  0.00000000E+00  0.00000000E+00
  0.00000000E+00  6.89990666E-02  3.16423961E-01  7.44308291E-01  1.00000000E+00
  0.00000000E+00  0.00000000E+00  0.00000000E+00  0.00000000E+00  0.00000000E+00
  0.00000000E+00  0.00000000E+00  6.89990666E-02  3.16423961E-01  7.44308291E-01
  1.00000000E+00  0.00000000E+00  0.00000000E+00  0.00000000E+00  0.00000000E+00
  0.00000000E+00  0.00000000E+00  0.00000000E+00  6.75797439E-02  3.23907296E-01
  7.40895140E-01  1.00000000E+00  0.00000000E+00  0.00000000E+00  0.00000000E+00
  0.00000000E+00  0.00000000E+00  0.00000000E+00  0.00000000E+00  7.08742682E-02
  3.39752839E-01  7.27158577E-01  1.00000000E+00  0.00000000E+00  0.00000000E+00
  0.00000000E+00  0.00000000E+00  0.00000000E+00  0.00000000E+00  0.00000000E+00
  6.89990666E-02  3.16423961E-01  7.44308291E-01  1.00000000E+00  0.00000000E+00
  0.00000000E+00  0.00000000E+00  0.00000000E+00  0.00000000E+00  0.00000000E+00
  0.00000000E+00  6.89990666E-02  3.16423961E-01  7.44308291E-01  1.00000000E+00
  0.00000000E+00  0.00000000E+00  0.00000000E+00  0.00000000E+00  0.00000000E+00
  0.00000000E+00  0.00000000E+00  0.00000000E+00  0.00000000E+00  0.00000000E+00
  0.00000000E+00  0.00000000E+00  0.00000000E+00  0.00000000E+00  0.00000000E+00
  0.00000000E+00  0.00000000E+00  0.00000000E+00  0.00000000E+00  0.00000000E+00
  0.00000000E+00  0.00000000E+00  0.00000000E+00  0.00000000E+00  0.00000000E+00
  0.00000000E+00  0.00000000E+00  0.00000000E+00  0.00000000E+00  0.00000000E+00
  0.00000000E+00  0.00000000E+00  0.00000000E+00  0.00000000E+00  0.00000000E+00
  0.00000000E+00  0.00000000E+00  0.00000000E+00  0.00000000E+00  0.00000000E+00
  0.00000000E+00  0.00000000E+00  0.00000000E+00  0.00000000E+00  0.00000000E+00
Coordinates of each shell                  R   N=         138
 -7.26593763E-01  2.83312087E+00  7.61285525E-01 -7.26593763E-01  2.83312087E+00
  7.61285525E-01 -7.26593763E-01  2.83312087E+00  7.61285525E-01 -7.26593763E-01
  2.83312087E+00  7.61285525E-01 -7.40907656E-01  2.70155174E-02  2.78132793E-02
 -7.40907656E-01  2.70155174E-02  2.78132793E-02 -7.40907656E-01  2.70155174E-02
  2.78132793E-02 -7.40907656E-01  2.70155174E-02  2.78132793E-02  1.50273149E+00
 -4.53111520E-01 -1.59111893E+00  1.50273149E+00 -4.53111520E-01 -1.59111893E+00
  1.50273149E+00 -4.53111520E-01 -1.59111893E+00  1.50273149E+00 -4.53111520E-01
 -1.59111893E+00  3.77574890E+00 -2.12834602E-01 -8.13335456E-02  3.77574890E+00
 -2.12834602E-01 -8.13335456E-02  3.77574890E+00 -2.12834602E-01 -8.13335456E-02
  3.77574890E+00 -2.12834602E-01 -8.13335456E-02 -7.67578314E-01 -1.65103266E+00
  2.40484914E+00 -7.67578314E-01 -1.65103266E+00  2.40484914E+00 -7.67578314E-01
 -1.65103266E+00  2.40484914E+00 -7.67578314E-01 -1.65103266E+00  2.40484914E+00
 -3.02616791E+00 -5.64512097E-01 -1.66395125E+00 -3.02616791E+00 -5.64512097E-01
 -1.66395125E+00 -3.02616791E+00 -5.64512097E-01 -1.66395125E+00 -3.02616791E+00
 -5.64512097E-01 -1.66395125E+00 -2.40976438E+00  3.30831653E+00  1.86914465E+00
 -2.40976438E+00  3.30831653E+00  1.86914465E+00  9.40998647E-01  3.27614732E+00
  1.90109562E+00  9.40998647E-01  3.27614732E+00  1.90109562E+00 -6.99567611E-01
  4.02449772E+00 -9.32047019E-01 -6.99567611E-01  4.02449772E+00 -9.32047019E-01
  1.49727404E+00 -2.33757528E+00 -2.02359384E+00  1.49727404E+00 -2.33757528E+00
 -2.02359384E+00  4.66822084E+00  1.12760690E+00 -9.54798439E-01  4.66822084E+00
  1.12760690E+00 -9.54798439E-01 -8.45551560E-01 -3.65911577E+00  1.88962367E+00
 -8.45551560E-01 -3.65911577E+00  1.88962367E+00  9.37717346E-01 -1.33993456E+00
  3.52953860E+00  9.37717346E-01 -1.33993456E+00  3.52953860E+00 -2.41817787E+00
 -1.23846278E+00  3.58702654E+00 -2.41817787E+00 -1.23846278E+00  3.58702654E+00
 -4.78990024E+00 -1.98545095E-01 -6.44476215E-01 -4.78990024E+00 -1.98545095E-01
 -6.44476215E-01 -2.99907803E+00  6.01431239E-01 -3.37304024E+00 -2.99907803E+00
  6.01431239E-01 -3.37304024E+00 -3.03979689E+00 -2.55745858E+00 -2.23995261E+00
 -3.03979689E+00 -2.55745858E+00 -2.23995261E+00
Num ILSW                                   I              100
ILSW                                       I   N=         100
           0           1           0           0           2           0
           0           0           0           0         402          -1
           5           0           0           0           2           0
           0           0           0           0           1           0
           1           0           0           0           0           0
           0           0      100000           0          -1           0
           0           0           0           0           0           0
           0           0           0           1           0           0
           0 -2000000000           1           0           0           0
           0           0           4          52           0           0
           0           0           5           0           0           0
           0           0           0          17           0           1
           0           0           0           0           0           0
           0           0           0           0           0           0
           0           0           0           0           0           0
           0           0           0           0           0           0
           0           0           0           0
Num RLSW                                   I               52
RLSW                                       R   N=          52
  8.00000000E-01  7.20000000E-01  1.00000000E+00  8.10000000E-01  2.00000000E-01
  0.00000000E+00  0.00000000E+00  1.00000000E+00  0.00000000E+00  0.00000000E+00
  0.00000000E+00  0.00000000E+00  1.00000000E+00  0.00000000E+00  0.00000000E+00
  0.00000000E+00  0.00000000E+00  1.00000000E+00  0.00000000E+00  0.00000000E+00
  0.00000000E+00  0.00000000E+00  1.00000000E+00  0.00000000E+00  0.00000000E+00
  0.00000000E+00  0.00000000E+00  1.00000000E+00  0.00000000E+00  0.00000000E+00
  0.00000000E+00  0.00000000E+00  1.00000000E+00  0.00000000E+00  0.00000000E+00