 Entering Gaussian System, Link 0=/apps/cent7/gaussian/g16-A.03/g16-haswell/g16/g16
 Initial command:
 /apps/cent7/gaussian/g16-A.03/g16-haswell/g16/l1.exe "/scratch/brown/finej/gaussian/Gau-296888.inp" -scrdir="/scratch/brown/finej/gaussian/"
 Entering Link 1 = /apps/cent7/gaussian/g16-A.03/g16-haswell/g16/l1.exe PID=    296889.
  
 Copyright (c) 1988,1990,1992,1993,1995,1998,2003,2009,2016,
            Gaussian, Inc.  All Rights Reserved.
  
 This is part of the Gaussian(R) 16 program.  It is based on
 the Gaussian(R) 09 system (copyright 2009, Gaussian, Inc.),
 the Gaussian(R) 03 system (copyright 2003, Gaussian, Inc.),
 the Gaussian(R) 98 system (copyright 1998, Gaussian, Inc.),
 the Gaussian(R) 94 system (copyright 1995, Gaussian, Inc.),
 the Gaussian 92(TM) system (copyright 1992, Gaussian, Inc.),
 the Gaussian 90(TM) system (copyright 1990, Gaussian, Inc.),
 the Gaussian 88(TM) system (copyright 1988, Gaussian, Inc.),
 the Gaussian 86(TM) system (copyright 1986, Carnegie Mellon
 University), and the Gaussian 82(TM) system (copyright 1983,
 Carnegie Mellon University). Gaussian is a federally registered
 trademark of Gaussian, Inc.
  
 This software contains proprietary and confidential information,
 including trade secrets, belonging to Gaussian, Inc.
  
 This software is provided under written license and may be
 used, copied, transmitted, or stored only in accord with that
 written license.
  
 The following legend is applicable only to US Government
 contracts under FAR:
  
                    RESTRICTED RIGHTS LEGEND
  
 Use, reproduction and disclosure by the US Government is
 subject to restrictions as set forth in subparagraphs (a)
 and (c) of the Commercial Computer Software - Restricted
 Rights clause in FAR 52.227-19.
  
 Gaussian, Inc.
 340 Quinnipiac St., Bldg. 40, Wallingford CT 06492
  
  
 ---------------------------------------------------------------
 Warning -- This program may not be used in any manner that
 competes with the business of Gaussian, Inc. or will provide
 assistance to any competitor of Gaussian, Inc.  The licensee
 of this program is prohibited from giving any competitor of
 Gaussian, Inc. access to this program.  By using this program,
 the user acknowledges that Gaussian, Inc. is engaged in the
 business of creating and licensing software in the field of
 computational chemistry and represents and warrants to the
 licensee that it is not a competitor of Gaussian, Inc. and that
 it will not use this program in any manner prohibited above.
 ---------------------------------------------------------------
  

 Cite this work as:
 Gaussian 16, Revision A.03,
 M. J. Frisch, G. W. Trucks, H. B. Schlegel, G. E. Scuseria, 
 M. A. Robb, J. R. Cheeseman, G. Scalmani, V. Barone, 
 G. A. Petersson, H. Nakatsuji, X. Li, M. Caricato, A. V. Marenich, 
 J. Bloino, B. G. Janesko, R. Gomperts, B. Mennucci, H. P. Hratchian, 
 J. V. Ortiz, A. F. Izmaylov, J. L. Sonnenberg, D. Williams-Young, 
 F. Ding, F. Lipparini, F. Egidi, J. Goings, B. Peng, A. Petrone, 
 T. Henderson, D. Ranasinghe, V. G. Zakrzewski, J. Gao, N. Rega, 
 G. Zheng, W. Liang, M. Hada, M. Ehara, K. Toyota, R. Fukuda, 
 J. Hasegawa, M. Ishida, T. Nakajima, Y. Honda, O. Kitao, H. Nakai, 
 T. Vreven, K. Throssell, J. A. Montgomery, Jr., J. E. Peralta, 
 F. Ogliaro, M. J. Bearpark, J. J. Heyd, E. N. Brothers, K. N. Kudin, 
 V. N. Staroverov, T. A. Keith, R. Kobayashi, J. Normand, 
 K. Raghavachari, A. P. Rendell, J. C. Burant, S. S. Iyengar, 
 J. Tomasi, M. Cossi, J. M. Millam, M. Klene, C. Adamo, R. Cammi, 
 J. W. Ochterski, R. L. Martin, K. Morokuma, O. Farkas, 
 J. B. Foresman, and D. J. Fox, Gaussian, Inc., Wallingford CT, 2016.
 
 ******************************************
 Gaussian 16:  ES64L-G16RevA.03 25-Dec-2016
                14-Oct-2019 
 ******************************************
 %chk=9.chk
 %nprocshared=24
 Will use up to   24 processors via shared memory.
 %mem=80GB
 --------------------------------------------------------------
 #P opt freq b3lyp/6-31g(d) geom=connectivity temperature=0.001
 --------------------------------------------------------------
 1/18=20,19=15,26=3,38=1,57=2,112=-1000/1,3;
 2/9=110,12=2,17=6,18=5,40=1/2;
 3/5=1,6=6,7=1,11=2,25=1,30=1,71=1,74=-5/1,2,3;
 4//1;
 5/5=2,38=5/2;
 6/7=2,8=2,9=2,10=2,28=1/1;
 7//1,2,3,16;
 1/18=20,19=15,26=3/3(2);
 2/9=110/2;
 99//99;
 2/9=110/2;
 3/5=1,6=6,7=1,11=2,25=1,30=1,71=1,74=-5/1,2,3;
 4/5=5,16=3,69=1/1;
 5/5=2,38=5/2;
 7//1,2,3,16;
 1/18=20,19=15,26=3/3(-5);
 2/9=110/2;
 6/7=2,8=2,9=2,10=2,19=2,28=1/1;
 99/9=1/99;
 Leave Link    1 at Mon Oct 14 02:25:35 2019, MaxMem= 10737418240 cpu:               1.0 elap:               0.0
 (Enter /apps/cent7/gaussian/g16-A.03/g16-haswell/g16/l101.exe)
 -------------------
 Title Card Required
 -------------------
 Symbolic Z-matrix:
 Charge =  0 Multiplicity = 1
 C                     2.0476   -0.764    -1.2874 
 C                     1.5073   -0.008    -0.0348 
 N                     2.0241    1.387    -0.0271 
 O                     1.6058    2.1233   -1.0902 
 C                    -0.0537   -0.0174    0.0004 
 C                     2.0542   -0.6929    1.2539 
 H                     1.9762   -1.839    -1.1218 
 H                     1.455    -0.4907   -2.1604 
 H                     3.0894   -0.4907   -1.4554 
 H                     2.6268    1.8117    0.6631 
 H                     1.3279    1.5359   -1.7968 
 H                    -0.3937   -0.0194    1.036 
 H                    -0.4339    0.8704   -0.5051 
 H                    -0.4231   -0.9096   -0.5051 
 H                     2.0053   -1.7757    1.1386 
 H                     3.0892   -0.391     1.4145 
 H                     1.4507   -0.391     2.1099 
 
 ITRead=  0  0  0  0  0  0  0  0  0  0  0  0  0  0  0  0  0
 MicOpt= -1 -1 -1 -1 -1 -1 -1 -1 -1 -1 -1 -1 -1 -1 -1 -1 -1
 NAtoms=     17 NQM=       17 NQMF=       0 NMMI=      0 NMMIF=      0
                NMic=       0 NMicF=      0.
                    Isotopes and Nuclear Properties:
 (Nuclear quadrupole moments (NQMom) in fm**2, nuclear magnetic moments (NMagM)
  in nuclear magnetons)

  Atom         1           2           3           4           5           6           7           8           9          10
 IAtWgt=          12          12          14          16          12          12           1           1           1           1
 AtmWgt=  12.0000000  12.0000000  14.0030740  15.9949146  12.0000000  12.0000000   1.0078250   1.0078250   1.0078250   1.0078250
 NucSpn=           0           0           2           0           0           0           1           1           1           1
 AtZEff=  -0.0000000  -0.0000000  -0.0000000  -0.0000000  -0.0000000  -0.0000000  -0.0000000  -0.0000000  -0.0000000  -0.0000000
 NQMom=    0.0000000   0.0000000   2.0440000   0.0000000   0.0000000   0.0000000   0.0000000   0.0000000   0.0000000   0.0000000
 NMagM=    0.0000000   0.0000000   0.4037610   0.0000000   0.0000000   0.0000000   2.7928460   2.7928460   2.7928460   2.7928460
 AtZNuc=   6.0000000   6.0000000   7.0000000   8.0000000   6.0000000   6.0000000   1.0000000   1.0000000   1.0000000   1.0000000

  Atom        11          12          13          14          15          16          17
 IAtWgt=           1           1           1           1           1           1           1
 AtmWgt=   1.0078250   1.0078250   1.0078250   1.0078250   1.0078250   1.0078250   1.0078250
 NucSpn=           1           1           1           1           1           1           1
 AtZEff=  -0.0000000  -0.0000000  -0.0000000  -0.0000000  -0.0000000  -0.0000000  -0.0000000
 NQMom=    0.0000000   0.0000000   0.0000000   0.0000000   0.0000000   0.0000000   0.0000000
 NMagM=    2.7928460   2.7928460   2.7928460   2.7928460   2.7928460   2.7928460   2.7928460
 AtZNuc=   1.0000000   1.0000000   1.0000000   1.0000000   1.0000000   1.0000000   1.0000000
 Leave Link  101 at Mon Oct 14 02:25:35 2019, MaxMem= 10737418240 cpu:               9.0 elap:               0.4
 (Enter /apps/cent7/gaussian/g16-A.03/g16-haswell/g16/l103.exe)

 GradGradGradGradGradGradGradGradGradGradGradGradGradGradGradGradGradGrad
 Berny optimization.
 Initialization pass.
                           ----------------------------
                           !    Initial Parameters    !
                           ! (Angstroms and Degrees)  !
 --------------------------                            --------------------------
 ! Name  Definition              Value          Derivative Info.                !
 --------------------------------------------------------------------------------
 ! R1    R(1,2)                  1.5596         estimate D2E/DX2                !
 ! R2    R(1,7)                  1.09           estimate D2E/DX2                !
 ! R3    R(1,8)                  1.09           estimate D2E/DX2                !
 ! R4    R(1,9)                  1.0901         estimate D2E/DX2                !
 ! R5    R(2,3)                  1.4877         estimate D2E/DX2                !
 ! R6    R(2,5)                  1.5614         estimate D2E/DX2                !
 ! R7    R(2,6)                  1.5585         estimate D2E/DX2                !
 ! R8    R(3,4)                  1.3592         estimate D2E/DX2                !
 ! R9    R(3,10)                 1.0099         estimate D2E/DX2                !
 ! R10   R(4,11)                 0.96           estimate D2E/DX2                !
 ! R11   R(5,12)                 1.09           estimate D2E/DX2                !
 ! R12   R(5,13)                 1.0901         estimate D2E/DX2                !
 ! R13   R(5,14)                 1.09           estimate D2E/DX2                !
 ! R14   R(6,15)                 1.09           estimate D2E/DX2                !
 ! R15   R(6,16)                 1.09           estimate D2E/DX2                !
 ! R16   R(6,17)                 1.09           estimate D2E/DX2                !
 ! A1    A(2,1,7)              109.4717         estimate D2E/DX2                !
 ! A2    A(2,1,8)              109.4741         estimate D2E/DX2                !
 ! A3    A(2,1,9)              109.4712         estimate D2E/DX2                !
 ! A4    A(7,1,8)              109.4728         estimate D2E/DX2                !
 ! A5    A(7,1,9)              109.4679         estimate D2E/DX2                !
 ! A6    A(8,1,9)              109.4697         estimate D2E/DX2                !
 ! A7    A(1,2,3)              109.7761         estimate D2E/DX2                !
 ! A8    A(1,2,5)              111.1936         estimate D2E/DX2                !
 ! A9    A(1,2,6)              109.2393         estimate D2E/DX2                !
 ! A10   A(3,2,5)              110.66           estimate D2E/DX2                !
 ! A11   A(3,2,6)              106.6127         estimate D2E/DX2                !
 ! A12   A(5,2,6)              109.2403         estimate D2E/DX2                !
 ! A13   A(2,3,4)              113.3924         estimate D2E/DX2                !
 ! A14   A(2,3,10)             127.2409         estimate D2E/DX2                !
 ! A15   A(4,3,10)             119.3667         estimate D2E/DX2                !
 ! A16   A(3,4,11)             109.4718         estimate D2E/DX2                !
 ! A17   A(2,5,12)             109.4677         estimate D2E/DX2                !
 ! A18   A(2,5,13)             109.471          estimate D2E/DX2                !
 ! A19   A(2,5,14)             109.4687         estimate D2E/DX2                !
 ! A20   A(12,5,13)            109.4685         estimate D2E/DX2                !
 ! A21   A(12,5,14)            109.4765         estimate D2E/DX2                !
 ! A22   A(13,5,14)            109.4749         estimate D2E/DX2                !
 ! A23   A(2,6,15)             109.4717         estimate D2E/DX2                !
 ! A24   A(2,6,16)             109.4699         estimate D2E/DX2                !
 ! A25   A(2,6,17)             109.4729         estimate D2E/DX2                !
 ! A26   A(15,6,16)            109.47           estimate D2E/DX2                !
 ! A27   A(15,6,17)            109.4735         estimate D2E/DX2                !
 ! A28   A(16,6,17)            109.4693         estimate D2E/DX2                !
 ! D1    D(7,1,2,3)            160.0515         estimate D2E/DX2                !
 ! D2    D(7,1,2,5)            -77.1594         estimate D2E/DX2                !
 ! D3    D(7,1,2,6)             43.4824         estimate D2E/DX2                !
 ! D4    D(8,1,2,3)            -79.9445         estimate D2E/DX2                !
 ! D5    D(8,1,2,5)             42.8445         estimate D2E/DX2                !
 ! D6    D(8,1,2,6)            163.4863         estimate D2E/DX2                !
 ! D7    D(9,1,2,3)             40.0553         estimate D2E/DX2                !
 ! D8    D(9,1,2,5)            162.8444         estimate D2E/DX2                !
 ! D9    D(9,1,2,6)            -76.5138         estimate D2E/DX2                !
 ! D10   D(1,2,3,4)             62.9096         estimate D2E/DX2                !
 ! D11   D(1,2,3,10)          -117.0949         estimate D2E/DX2                !
 ! D12   D(5,2,3,4)            -60.1943         estimate D2E/DX2                !
 ! D13   D(5,2,3,10)           119.8012         estimate D2E/DX2                !
 ! D14   D(6,2,3,4)           -178.8812         estimate D2E/DX2                !
 ! D15   D(6,2,3,10)             1.1144         estimate D2E/DX2                !
 ! D16   D(1,2,5,12)           148.5281         estimate D2E/DX2                !
 ! D17   D(1,2,5,13)           -91.4775         estimate D2E/DX2                !
 ! D18   D(1,2,5,14)            28.5254         estimate D2E/DX2                !
 ! D19   D(3,2,5,12)           -89.1931         estimate D2E/DX2                !
 ! D20   D(3,2,5,13)            30.8012         estimate D2E/DX2                !
 ! D21   D(3,2,5,14)           150.8041         estimate D2E/DX2                !
 ! D22   D(6,2,5,12)            27.887          estimate D2E/DX2                !
 ! D23   D(6,2,5,13)           147.8813         estimate D2E/DX2                !
 ! D24   D(6,2,5,14)           -92.1158         estimate D2E/DX2                !
 ! D25   D(1,2,6,15)           -42.0711         estimate D2E/DX2                !
 ! D26   D(1,2,6,16)            77.9269         estimate D2E/DX2                !
 ! D27   D(1,2,6,17)          -162.0752         estimate D2E/DX2                !
 ! D28   D(3,2,6,15)          -160.6323         estimate D2E/DX2                !
 ! D29   D(3,2,6,16)           -40.6343         estimate D2E/DX2                !
 ! D30   D(3,2,6,17)            79.3636         estimate D2E/DX2                !
 ! D31   D(5,2,6,15)            79.7568         estimate D2E/DX2                !
 ! D32   D(5,2,6,16)          -160.2452         estimate D2E/DX2                !
 ! D33   D(5,2,6,17)           -40.2473         estimate D2E/DX2                !
 ! D34   D(2,3,4,11)           -20.5039         estimate D2E/DX2                !
 ! D35   D(10,3,4,11)          159.5002         estimate D2E/DX2                !
 --------------------------------------------------------------------------------
 Trust Radius=3.00D-01 FncErr=1.00D-07 GrdErr=1.00D-06 EigMax=2.50D+02 EigMin=1.00D-04
 Number of steps in this run=     89 maximum allowed number of steps=    102.
 GradGradGradGradGradGradGradGradGradGradGradGradGradGradGradGradGradGrad

 Leave Link  103 at Mon Oct 14 02:25:35 2019, MaxMem= 10737418240 cpu:               0.3 elap:               0.0
 (Enter /apps/cent7/gaussian/g16-A.03/g16-haswell/g16/l202.exe)
                          Input orientation:                          
 ---------------------------------------------------------------------
 Center     Atomic      Atomic             Coordinates (Angstroms)
 Number     Number       Type             X           Y           Z
 ---------------------------------------------------------------------
      1          6           0        2.047600   -0.764000   -1.287400
      2          6           0        1.507300   -0.008000   -0.034800
      3          7           0        2.024100    1.387000   -0.027100
      4          8           0        1.605800    2.123300   -1.090200
      5          6           0       -0.053700   -0.017400    0.000400
      6          6           0        2.054200   -0.692900    1.253900
      7          1           0        1.976200   -1.839000   -1.121800
      8          1           0        1.455000   -0.490700   -2.160400
      9          1           0        3.089400   -0.490700   -1.455400
     10          1           0        2.626800    1.811700    0.663100
     11          1           0        1.327900    1.535900   -1.796800
     12          1           0       -0.393700   -0.019400    1.036000
     13          1           0       -0.433900    0.870400   -0.505100
     14          1           0       -0.423100   -0.909600   -0.505100
     15          1           0        2.005300   -1.775700    1.138600
     16          1           0        3.089200   -0.391000    1.414500
     17          1           0        1.450700   -0.391000    2.109900
 ---------------------------------------------------------------------
                    Distance matrix (angstroms):
                    1          2          3          4          5
     1  C    0.000000
     2  C    1.559637   0.000000
     3  N    2.493132   1.487672   0.000000
     4  O    2.927555   2.380338   1.359152   0.000000
     5  C    2.575131   1.561425   2.508057   2.919922   0.000000
     6  C    2.542303   1.558504   2.442919   3.691456   2.543778
     7  H    1.090021   2.180366   3.407013   3.979700   2.949246
     8  H    1.089953   2.180346   2.898379   2.828615   2.677545
     9  H    1.090075   2.180400   2.588564   3.027777   3.496061
    10  H    3.282401   2.247588   1.009947   2.052705   3.312078
    11  H    2.463127   2.349565   1.907539   0.959974   2.747997
    12  H    3.451458   2.181867   2.992307   3.620758   1.089987
    13  H    3.072637   2.181978   2.556780   2.464240   1.090078
    14  H    2.595679   2.181859   3.389933   3.695573   1.089958
    15  H    2.628840   2.179366   3.370739   4.508808   2.937107
    16  H    2.919644   2.179350   2.524665   3.846518   3.466565
    17  H    3.469447   2.179365   2.838457   4.072640   2.617783
                    6          7          8          9         10
     6  C    0.000000
     7  H    2.638860   0.000000
     8  H    3.472372   1.779959   0.000000
     9  H    2.907375   1.780005   1.779969   0.000000
    10  H    2.636273   4.115429   3.827050   3.162766   0.000000
    11  H    3.847315   3.502266   2.062878   2.706759   2.795410
    12  H    2.548195   3.685576   3.722471   4.308269   3.551817
    13  H    3.424709   3.678281   2.856668   3.894779   3.408610
    14  H    3.045990   2.645892   2.538258   3.662814   4.251124
    15  H    1.090019   2.261473   3.582940   3.091170   3.671757
    16  H    1.090028   3.125426   3.931979   2.871631   2.372826
    17  H    1.089996   3.580047   4.271466   3.925130   2.885884
                   11         12         13         14         15
    11  H    0.000000
    12  H    3.661642   0.000000
    13  H    2.283707   1.779986   0.000000
    14  H    3.273371   1.779975   1.780033   0.000000
    15  H    4.476845   2.974948   3.956424   3.057614   0.000000
    16  H    4.138547   3.523059   4.205737   4.036095   1.779987
    17  H    4.357789   2.166370   3.461369   3.258573   1.780000
                   16         17
    16  H    0.000000
    17  H    1.779962   0.000000
 Stoichiometry    C4H11NO
 Framework group  C1[X(C4H11NO)]
 Deg. of freedom    45
 Full point group                 C1      NOp   1
 Largest Abelian subgroup         C1      NOp   1
 Largest concise Abelian subgroup C1      NOp   1
                         Standard orientation:                         
 ---------------------------------------------------------------------
 Center     Atomic      Atomic             Coordinates (Angstroms)
 Number     Number       Type             X           Y           Z
 ---------------------------------------------------------------------
      1          6           0       -0.378530    0.964055   -1.235544
      2          6           0       -0.366777    0.015603    0.002507
      3          7           0        0.839074   -0.854545   -0.041456
      4          8           0        2.006652   -0.162897    0.033891
      5          6           0       -0.412252    0.827095    1.335722
      6          6           0       -1.602517   -0.931702   -0.064532
      7          1           0       -1.390436    1.334417   -1.399938
      8          1           0        0.291346    1.804811   -1.055567
      9          1           0       -0.044762    0.415693   -2.116544
     10          1           0        0.863850   -1.861260   -0.118296
     11          1           0        1.853903    0.751097   -0.216776
     12          1           0       -0.942048    0.250569    2.094013
     13          1           0        0.604445    1.025877    1.674961
     14          1           0       -0.930772    1.771181    1.168854
     15          1           0       -2.478789   -0.364220   -0.377986
     16          1           0       -1.410372   -1.729295   -0.782227
     17          1           0       -1.782642   -1.364184    0.919646
 ---------------------------------------------------------------------
 Rotational constants (GHZ):           4.3333692           2.6915763           2.6748548
 Leave Link  202 at Mon Oct 14 02:25:35 2019, MaxMem= 10737418240 cpu:               2.3 elap:               0.1
 (Enter /apps/cent7/gaussian/g16-A.03/g16-haswell/g16/l301.exe)
 Standard basis: 6-31G(d) (6D, 7F)
 Ernie: Thresh=  0.10000D-02 Tol=  0.10000D-05 Strict=F.
 There are   112 symmetry adapted cartesian basis functions of A   symmetry.
 There are   112 symmetry adapted basis functions of A   symmetry.
   112 basis functions,   212 primitive gaussians,   112 cartesian basis functions
    25 alpha electrons       25 beta electrons
       nuclear repulsion energy       269.9517758780 Hartrees.
 IExCor=  402 DFT=T Ex+Corr=B3LYP ExCW=0 ScaHFX=  0.200000
 ScaDFX=  0.800000  0.720000  1.000000  0.810000 ScalE2=  1.000000  1.000000
 IRadAn=      5 IRanWt=     -1 IRanGd=            0 ICorTp=0 IEmpDi=  4
 NAtoms=   17 NActive=   17 NUniq=   17 SFac= 1.00D+00 NAtFMM=   60 NAOKFM=F Big=F
 Integral buffers will be    131072 words long.
 Raffenetti 2 integral format.
 Two-electron integral symmetry is turned on.
 Leave Link  301 at Mon Oct 14 02:25:36 2019, MaxMem= 10737418240 cpu:               1.8 elap:               0.1
 (Enter /apps/cent7/gaussian/g16-A.03/g16-haswell/g16/l302.exe)
 NPDir=0 NMtPBC=     1 NCelOv=     1 NCel=       1 NClECP=     1 NCelD=      1
         NCelK=      1 NCelE2=     1 NClLst=     1 CellRange=     0.0.
 One-electron integrals computed using PRISM.
 One-electron integral symmetry used in STVInt
 NBasis=   112 RedAO= T EigKep=  3.45D-03  NBF=   112
 NBsUse=   112 1.00D-06 EigRej= -1.00D+00 NBFU=   112
 Precomputing XC quadrature grid using
 IXCGrd= 4 IRadAn=           5 IRanWt=          -1 IRanGd=           0 AccXCQ= 0.00D+00.
 Generated NRdTot=       0 NPtTot=           0 NUsed=           0 NTot=          32
 NSgBfM=   112   112   112   112   112 MxSgAt=    17 MxSgA2=    17.
 Leave Link  302 at Mon Oct 14 02:25:36 2019, MaxMem= 10737418240 cpu:               4.1 elap:               0.2
 (Enter /apps/cent7/gaussian/g16-A.03/g16-haswell/g16/l303.exe)
 DipDrv:  MaxL=1.
 Leave Link  303 at Mon Oct 14 02:25:36 2019, MaxMem= 10737418240 cpu:               0.8 elap:               0.1
 (Enter /apps/cent7/gaussian/g16-A.03/g16-haswell/g16/l401.exe)
 ExpMin= 1.61D-01 ExpMax= 5.48D+03 ExpMxC= 8.25D+02 IAcc=3 IRadAn=         5 AccDes= 0.00D+00
 Harris functional with IExCor=  402 and IRadAn=       5 diagonalized for initial guess.
 HarFok:  IExCor=  402 AccDes= 0.00D+00 IRadAn=         5 IDoV= 1 UseB2=F ITyADJ=14
 ICtDFT=  3500011 ScaDFX=  1.000000  1.000000  1.000000  1.000000
 FoFCou: FMM=F IPFlag=           0 FMFlag=      100000 FMFlg1=           0
         NFxFlg=           0 DoJE=T BraDBF=F KetDBF=T FulRan=T
         wScrn=  0.000000 ICntrl=       500 IOpCl=  0 I1Cent=   200000004 NGrid=           0
         NMat0=    1 NMatS0=      1 NMatT0=    0 NMatD0=    1 NMtDS0=    0 NMtDT0=    0
 Petite list used in FoFCou.
 Harris En= -288.975582235645    
 JPrj=0 DoOrth=F DoCkMO=F.
 Leave Link  401 at Mon Oct 14 02:25:36 2019, MaxMem= 10737418240 cpu:               6.2 elap:               0.3
 (Enter /apps/cent7/gaussian/g16-A.03/g16-haswell/g16/l502.exe)
 Integral symmetry usage will be decided dynamically.
 Closed shell SCF:
 Using DIIS extrapolation, IDIIS=  1040.
 NGot= 10737418240 LenX= 10737388935 LenY= 10737375950
 Requested convergence on RMS density matrix=1.00D-08 within 128 cycles.
 Requested convergence on MAX density matrix=1.00D-06.
 Requested convergence on             energy=1.00D-06.
 No special actions if energy rises.
 Fock matrices will be formed incrementally for  20 cycles.
 Integral accuracy reduced to 1.0D-05 until final iterations.

 Cycle   1  Pass 0  IDiag  1:
 FoFJK:  IHMeth= 1 ICntrl=       0 DoSepK=F KAlg= 0 I1Cent=           0 FoldK=F
 IRaf= 990000000 NMat=       1 IRICut=       1 DoRegI=T DoRafI=F ISym2E= 0 IDoP0=0 IntGTp=1.
 FoFCou: FMM=F IPFlag=           0 FMFlag=      100000 FMFlg1=           0
         NFxFlg=           0 DoJE=F BraDBF=F KetDBF=F FulRan=T
         wScrn=  0.000000 ICntrl=         0 IOpCl=  0 I1Cent=           0 NGrid=           0
         NMat0=    1 NMatS0=      1 NMatT0=    0 NMatD0=    1 NMtDS0=    0 NMtDT0=    0
 Symmetry not used in FoFCou.
 E= -288.689287808626    
 DIIS: error= 4.85D-02 at cycle   1 NSaved=   1.
 NSaved= 1 IEnMin= 1 EnMin= -288.689287808626     IErMin= 1 ErrMin= 4.85D-02
 ErrMax= 4.85D-02  0.00D+00 EMaxC= 1.00D-01 BMatC= 2.28D-01 BMatP= 2.28D-01
 IDIUse=3 WtCom= 5.15D-01 WtEn= 4.85D-01
 Coeff-Com:  0.100D+01
 Coeff-En:   0.100D+01
 Coeff:      0.100D+01
 Gap=     0.193 Goal=   None    Shift=    0.000
 GapD=    0.193 DampG=1.000 DampE=0.500 DampFc=0.5000 IDamp=-1.
 Damping current iteration by 5.00D-01
 RMSDP=8.83D-03 MaxDP=1.36D-01              OVMax= 1.69D-01

 Cycle   2  Pass 0  IDiag  1:
 RMSU=  4.36D-03    CP:  9.78D-01
 E= -288.796016330679     Delta-E=       -0.106728522053 Rises=F Damp=T
 DIIS: error= 9.16D-03 at cycle   2 NSaved=   2.
 NSaved= 2 IEnMin= 2 EnMin= -288.796016330679     IErMin= 2 ErrMin= 9.16D-03
 ErrMax= 9.16D-03  0.00D+00 EMaxC= 1.00D-01 BMatC= 8.18D-03 BMatP= 2.28D-01
 IDIUse=3 WtCom= 9.08D-01 WtEn= 9.16D-02
 Coeff-Com:  0.561D-01 0.944D+00
 Coeff-En:   0.884D-01 0.912D+00
 Coeff:      0.591D-01 0.941D+00
 Gap=     0.226 Goal=   None    Shift=    0.000
 RMSDP=1.20D-03 MaxDP=1.78D-02 DE=-1.07D-01 OVMax= 9.17D-02

 Cycle   3  Pass 0  IDiag  1:
 RMSU=  1.13D-03    CP:  9.78D-01  9.08D-01
 E= -288.919048934852     Delta-E=       -0.123032604174 Rises=F Damp=F
 DIIS: error= 1.99D-03 at cycle   3 NSaved=   3.
 NSaved= 3 IEnMin= 3 EnMin= -288.919048934852     IErMin= 3 ErrMin= 1.99D-03
 ErrMax= 1.99D-03  0.00D+00 EMaxC= 1.00D-01 BMatC= 7.66D-04 BMatP= 8.18D-03
 IDIUse=3 WtCom= 9.80D-01 WtEn= 1.99D-02
 Coeff-Com: -0.129D-02 0.175D+00 0.827D+00
 Coeff-En:   0.000D+00 0.000D+00 0.100D+01
 Coeff:     -0.126D-02 0.171D+00 0.830D+00
 Gap=     0.227 Goal=   None    Shift=    0.000
 RMSDP=3.38D-04 MaxDP=6.86D-03 DE=-1.23D-01 OVMax= 7.42D-03

 Cycle   4  Pass 0  IDiag  1:
 RMSU=  2.81D-04    CP:  9.78D-01  9.25D-01  8.46D-01
 E= -288.919311198883     Delta-E=       -0.000262264031 Rises=F Damp=F
 DIIS: error= 1.47D-03 at cycle   4 NSaved=   4.
 NSaved= 4 IEnMin= 4 EnMin= -288.919311198883     IErMin= 4 ErrMin= 1.47D-03
 ErrMax= 1.47D-03  0.00D+00 EMaxC= 1.00D-01 BMatC= 4.52D-04 BMatP= 7.66D-04
 IDIUse=3 WtCom= 9.85D-01 WtEn= 1.47D-02
 Coeff-Com: -0.190D-02 0.411D-01 0.445D+00 0.515D+00
 Coeff-En:   0.000D+00 0.000D+00 0.350D+00 0.650D+00
 Coeff:     -0.187D-02 0.405D-01 0.444D+00 0.517D+00
 Gap=     0.225 Goal=   None    Shift=    0.000
 RMSDP=1.58D-04 MaxDP=4.37D-03 DE=-2.62D-04 OVMax= 4.42D-03

 Cycle   5  Pass 0  IDiag  1:
 RMSU=  8.74D-05    CP:  9.77D-01  9.24D-01  8.83D-01  5.55D-01
 E= -288.919628060699     Delta-E=       -0.000316861816 Rises=F Damp=F
 DIIS: error= 3.40D-04 at cycle   5 NSaved=   5.
 NSaved= 5 IEnMin= 5 EnMin= -288.919628060699     IErMin= 5 ErrMin= 3.40D-04
 ErrMax= 3.40D-04  0.00D+00 EMaxC= 1.00D-01 BMatC= 2.29D-05 BMatP= 4.52D-04
 IDIUse=3 WtCom= 9.97D-01 WtEn= 3.40D-03
 Coeff-Com: -0.284D-03 0.528D-03 0.120D+00 0.238D+00 0.642D+00
 Coeff-En:   0.000D+00 0.000D+00 0.000D+00 0.000D+00 0.100D+01
 Coeff:     -0.283D-03 0.526D-03 0.119D+00 0.237D+00 0.643D+00
 Gap=     0.226 Goal=   None    Shift=    0.000
 RMSDP=3.81D-05 MaxDP=8.79D-04 DE=-3.17D-04 OVMax= 9.42D-04

 Cycle   6  Pass 0  IDiag  1:
 RMSU=  1.67D-05    CP:  9.78D-01  9.22D-01  8.90D-01  5.93D-01  6.63D-01
 E= -288.919644464977     Delta-E=       -0.000016404277 Rises=F Damp=F
 DIIS: error= 5.36D-05 at cycle   6 NSaved=   6.
 NSaved= 6 IEnMin= 6 EnMin= -288.919644464977     IErMin= 6 ErrMin= 5.36D-05
 ErrMax= 5.36D-05  0.00D+00 EMaxC= 1.00D-01 BMatC= 9.41D-07 BMatP= 2.29D-05
 IDIUse=1 WtCom= 1.00D+00 WtEn= 0.00D+00
 Coeff-Com: -0.242D-04-0.805D-03 0.511D-01 0.109D+00 0.327D+00 0.514D+00
 Coeff:     -0.242D-04-0.805D-03 0.511D-01 0.109D+00 0.327D+00 0.514D+00
 Gap=     0.225 Goal=   None    Shift=    0.000
 RMSDP=9.43D-06 MaxDP=2.25D-04 DE=-1.64D-05 OVMax= 2.09D-04

 Initial convergence to 1.0D-05 achieved.  Increase integral accuracy.
 Cycle   7  Pass 1  IDiag  1:
 E= -288.919648196685     Delta-E=       -0.000003731709 Rises=F Damp=F
 DIIS: error= 1.27D-05 at cycle   1 NSaved=   1.
 NSaved= 1 IEnMin= 1 EnMin= -288.919648196685     IErMin= 1 ErrMin= 1.27D-05
 ErrMax= 1.27D-05  0.00D+00 EMaxC= 1.00D-01 BMatC= 3.27D-08 BMatP= 3.27D-08
 IDIUse=1 WtCom= 1.00D+00 WtEn= 0.00D+00
 Coeff-Com:  0.100D+01
 Coeff:      0.100D+01
 Gap=     0.226 Goal=   None    Shift=    0.000
 RMSDP=9.43D-06 MaxDP=2.25D-04 DE=-3.73D-06 OVMax= 8.26D-05

 Cycle   8  Pass 1  IDiag  1:
 RMSU=  4.21D-06    CP:  1.00D+00
 E= -288.919648183582     Delta-E=        0.000000013104 Rises=F Damp=F
 DIIS: error= 1.56D-05 at cycle   2 NSaved=   2.
 NSaved= 2 IEnMin= 1 EnMin= -288.919648196685     IErMin= 1 ErrMin= 1.27D-05
 ErrMax= 1.56D-05  0.00D+00 EMaxC= 1.00D-01 BMatC= 4.86D-08 BMatP= 3.27D-08
 IDIUse=1 WtCom= 1.00D+00 WtEn= 0.00D+00
 Coeff-Com:  0.552D+00 0.448D+00
 Coeff:      0.552D+00 0.448D+00
 Gap=     0.225 Goal=   None    Shift=    0.000
 RMSDP=2.18D-06 MaxDP=4.65D-05 DE= 1.31D-08 OVMax= 4.60D-05

 Cycle   9  Pass 1  IDiag  1:
 RMSU=  1.08D-06    CP:  1.00D+00  5.51D-01
 E= -288.919648228868     Delta-E=       -0.000000045286 Rises=F Damp=F
 DIIS: error= 1.61D-06 at cycle   3 NSaved=   3.
 NSaved= 3 IEnMin= 3 EnMin= -288.919648228868     IErMin= 3 ErrMin= 1.61D-06
 ErrMax= 1.61D-06  0.00D+00 EMaxC= 1.00D-01 BMatC= 6.09D-10 BMatP= 3.27D-08
 IDIUse=1 WtCom= 1.00D+00 WtEn= 0.00D+00
 Coeff-Com:  0.138D+00 0.150D+00 0.712D+00
 Coeff:      0.138D+00 0.150D+00 0.712D+00
 Gap=     0.225 Goal=   None    Shift=    0.000
 RMSDP=2.55D-07 MaxDP=6.79D-06 DE=-4.53D-08 OVMax= 6.01D-06

 Cycle  10  Pass 1  IDiag  1:
 RMSU=  2.41D-07    CP:  1.00D+00  5.62D-01  9.36D-01
 E= -288.919648229222     Delta-E=       -0.000000000354 Rises=F Damp=F
 DIIS: error= 1.09D-06 at cycle   4 NSaved=   4.
 NSaved= 4 IEnMin= 4 EnMin= -288.919648229222     IErMin= 4 ErrMin= 1.09D-06
 ErrMax= 1.09D-06  0.00D+00 EMaxC= 1.00D-01 BMatC= 1.71D-10 BMatP= 6.09D-10
 IDIUse=1 WtCom= 1.00D+00 WtEn= 0.00D+00
 Coeff-Com:  0.140D-01 0.318D-01 0.377D+00 0.578D+00
 Coeff:      0.140D-01 0.318D-01 0.377D+00 0.578D+00
 Gap=     0.225 Goal=   None    Shift=    0.000
 RMSDP=1.04D-07 MaxDP=3.11D-06 DE=-3.54D-10 OVMax= 2.64D-06

 Cycle  11  Pass 1  IDiag  1:
 RMSU=  7.19D-08    CP:  1.00D+00  5.69D-01  9.68D-01  7.49D-01
 E= -288.919648229336     Delta-E=       -0.000000000114 Rises=F Damp=F
 DIIS: error= 1.88D-07 at cycle   5 NSaved=   5.
 NSaved= 5 IEnMin= 5 EnMin= -288.919648229336     IErMin= 5 ErrMin= 1.88D-07
 ErrMax= 1.88D-07  0.00D+00 EMaxC= 1.00D-01 BMatC= 1.02D-11 BMatP= 1.71D-10
 IDIUse=1 WtCom= 1.00D+00 WtEn= 0.00D+00
 Coeff-Com: -0.544D-02 0.184D-02 0.114D+00 0.273D+00 0.616D+00
 Coeff:     -0.544D-02 0.184D-02 0.114D+00 0.273D+00 0.616D+00
 Gap=     0.225 Goal=   None    Shift=    0.000
 RMSDP=2.94D-08 MaxDP=4.66D-07 DE=-1.14D-10 OVMax= 6.18D-07

 Cycle  12  Pass 1  IDiag  1:
 RMSU=  1.38D-08    CP:  1.00D+00  5.69D-01  9.75D-01  7.44D-01  6.59D-01
 E= -288.919648229345     Delta-E=       -0.000000000009 Rises=F Damp=F
 DIIS: error= 1.94D-08 at cycle   6 NSaved=   6.
 NSaved= 6 IEnMin= 6 EnMin= -288.919648229345     IErMin= 6 ErrMin= 1.94D-08
 ErrMax= 1.94D-08  0.00D+00 EMaxC= 1.00D-01 BMatC= 7.58D-14 BMatP= 1.02D-11
 IDIUse=1 WtCom= 1.00D+00 WtEn= 0.00D+00
 Coeff-Com: -0.172D-02 0.379D-04 0.251D-01 0.655D-01 0.175D+00 0.736D+00
 Coeff:     -0.172D-02 0.379D-04 0.251D-01 0.655D-01 0.175D+00 0.736D+00
 Gap=     0.225 Goal=   None    Shift=    0.000
 RMSDP=4.04D-09 MaxDP=6.20D-08 DE=-9.09D-12 OVMax= 7.25D-08

 SCF Done:  E(RB3LYP) =  -288.919648229     A.U. after   12 cycles
            NFock= 12  Conv=0.40D-08     -V/T= 2.0092
 KE= 2.862868886396D+02 PE=-1.212472059680D+03 EE= 3.673137469330D+02
 Leave Link  502 at Mon Oct 14 02:25:38 2019, MaxMem= 10737418240 cpu:              42.7 elap:               1.8
 (Enter /apps/cent7/gaussian/g16-A.03/g16-haswell/g16/l601.exe)
 Copying SCF densities to generalized density rwf, IOpCl= 0 IROHF=0.

 **********************************************************************

            Population analysis using the SCF density.

 **********************************************************************

 Orbital symmetries:
       Occupied  (A) (A) (A) (A) (A) (A) (A) (A) (A) (A) (A) (A)
                 (A) (A) (A) (A) (A) (A) (A) (A) (A) (A) (A) (A)
                 (A)
       Virtual   (A) (A) (A) (A) (A) (A) (A) (A) (A) (A) (A) (A)
                 (A) (A) (A) (A) (A) (A) (A) (A) (A) (A) (A) (A)
                 (A) (A) (A) (A) (A) (A) (A) (A) (A) (A) (A) (A)
                 (A) (A) (A) (A) (A) (A) (A) (A) (A) (A) (A) (A)
                 (A) (A) (A) (A) (A) (A) (A) (A) (A) (A) (A) (A)
                 (A) (A) (A) (A) (A) (A) (A) (A) (A) (A) (A) (A)
                 (A) (A) (A) (A) (A) (A) (A) (A) (A) (A) (A) (A)
                 (A) (A) (A)
 The electronic state is 1-A.
 Alpha  occ. eigenvalues --  -19.15499 -14.33926 -10.22946 -10.17759 -10.17535
 Alpha  occ. eigenvalues --  -10.16801  -1.06432  -0.83233  -0.74469  -0.68875
 Alpha  occ. eigenvalues --   -0.68425  -0.57759  -0.51547  -0.47939  -0.44204
 Alpha  occ. eigenvalues --   -0.43508  -0.41039  -0.40459  -0.38647  -0.36785
 Alpha  occ. eigenvalues --   -0.35464  -0.33188  -0.32440  -0.31483  -0.15833
 Alpha virt. eigenvalues --    0.06716   0.08726   0.12204   0.13323   0.13833
 Alpha virt. eigenvalues --    0.15602   0.16301   0.16752   0.19500   0.19920
 Alpha virt. eigenvalues --    0.21385   0.21460   0.24419   0.26679   0.28475
 Alpha virt. eigenvalues --    0.29131   0.50280   0.52278   0.52763   0.57914
 Alpha virt. eigenvalues --    0.58416   0.60507   0.65565   0.66756   0.69646
 Alpha virt. eigenvalues --    0.72538   0.74655   0.76674   0.79557   0.81511
 Alpha virt. eigenvalues --    0.84472   0.86826   0.88410   0.89931   0.90418
 Alpha virt. eigenvalues --    0.91821   0.92623   0.93134   0.95739   0.97193
 Alpha virt. eigenvalues --    0.98346   0.99364   1.03546   1.06743   1.09251
 Alpha virt. eigenvalues --    1.21479   1.26332   1.32791   1.36099   1.41930
 Alpha virt. eigenvalues --    1.48130   1.56186   1.65932   1.68150   1.73618
 Alpha virt. eigenvalues --    1.75965   1.83515   1.84915   1.86239   1.88248
 Alpha virt. eigenvalues --    1.94312   1.99821   2.06153   2.11237   2.12579
 Alpha virt. eigenvalues --    2.16338   2.22141   2.25015   2.26212   2.27225
 Alpha virt. eigenvalues --    2.29468   2.32761   2.38798   2.43342   2.50639
 Alpha virt. eigenvalues --    2.53117   2.60135   2.71495   2.79508   2.83984
 Alpha virt. eigenvalues --    2.93645   3.67300   3.94581   4.16973   4.29009
 Alpha virt. eigenvalues --    4.31308   4.67221
          Condensed to atoms (all electrons):
               1          2          3          4          5          6
     1  C    5.255992   0.361141  -0.095603   0.000042  -0.090404  -0.055148
     2  C    0.361141   4.685731   0.357861  -0.039893   0.356845   0.356668
     3  N   -0.095603   0.357861   6.814804   0.116982  -0.073135  -0.048557
     4  O    0.000042  -0.039893   0.116982   8.224260  -0.008994   0.003988
     5  C   -0.090404   0.356845  -0.073135  -0.008994   5.232362  -0.048409
     6  C   -0.055148   0.356668  -0.048557   0.003988  -0.048409   5.179225
     7  H    0.359735  -0.025137   0.004605   0.000164   0.001718  -0.007992
     8  H    0.357813  -0.033280  -0.001291   0.000426  -0.006364   0.006039
     9  H    0.354609  -0.024833   0.006189  -0.001281   0.006347  -0.002203
    10  H    0.002958  -0.037515   0.331724  -0.026813   0.003530  -0.001225
    11  H    0.014602  -0.007119  -0.039467   0.238751  -0.001774   0.000465
    12  H    0.005342  -0.029339   0.002706   0.000059   0.369091  -0.010673
    13  H   -0.003733  -0.029271  -0.021294   0.020851   0.365084   0.005489
    14  H   -0.001155  -0.030745   0.004845  -0.000215   0.354814  -0.000115
    15  H   -0.005363  -0.025613   0.003359  -0.000082  -0.001128   0.367368
    16  H   -0.006257  -0.033054  -0.001436   0.000059   0.007367   0.360359
    17  H    0.005669  -0.027602   0.000185  -0.000078  -0.011574   0.368274
               7          8          9         10         11         12
     1  C    0.359735   0.357813   0.354609   0.002958   0.014602   0.005342
     2  C   -0.025137  -0.033280  -0.024833  -0.037515  -0.007119  -0.029339
     3  N    0.004605  -0.001291   0.006189   0.331724  -0.039467   0.002706
     4  O    0.000164   0.000426  -0.001281  -0.026813   0.238751   0.000059
     5  C    0.001718  -0.006364   0.006347   0.003530  -0.001774   0.369091
     6  C   -0.007992   0.006039  -0.002203  -0.001225   0.000465  -0.010673
     7  H    0.564076  -0.027061  -0.023714  -0.000109  -0.000413  -0.000150
     8  H   -0.027061   0.596141  -0.030015  -0.000186   0.006885   0.000014
     9  H   -0.023714  -0.030015   0.553429   0.000502  -0.001217  -0.000190
    10  H   -0.000109  -0.000186   0.000502   0.391691   0.004245   0.000015
    11  H   -0.000413   0.006885  -0.001217   0.004245   0.377673   0.000031
    12  H   -0.000150   0.000014  -0.000190   0.000015   0.000031   0.561693
    13  H    0.000004   0.001978  -0.000086   0.000267  -0.000727  -0.024217
    14  H    0.000612   0.001051   0.000015  -0.000135   0.000053  -0.028611
    15  H    0.005004   0.000038   0.000013  -0.000182   0.000010   0.000247
    16  H    0.000587  -0.000119   0.002251   0.004473  -0.000075   0.000167
    17  H    0.000085  -0.000223  -0.000147   0.000778   0.000007   0.007912
              13         14         15         16         17
     1  C   -0.003733  -0.001155  -0.005363  -0.006257   0.005669
     2  C   -0.029271  -0.030745  -0.025613  -0.033054  -0.027602
     3  N   -0.021294   0.004845   0.003359  -0.001436   0.000185
     4  O    0.020851  -0.000215  -0.000082   0.000059  -0.000078
     5  C    0.365084   0.354814  -0.001128   0.007367  -0.011574
     6  C    0.005489  -0.000115   0.367368   0.360359   0.368274
     7  H    0.000004   0.000612   0.005004   0.000587   0.000085
     8  H    0.001978   0.001051   0.000038  -0.000119  -0.000223
     9  H   -0.000086   0.000015   0.000013   0.002251  -0.000147
    10  H    0.000267  -0.000135  -0.000182   0.004473   0.000778
    11  H   -0.000727   0.000053   0.000010  -0.000075   0.000007
    12  H   -0.024217  -0.028611   0.000247   0.000167   0.007912
    13  H    0.561381  -0.032220  -0.000146  -0.000151   0.000145
    14  H   -0.032220   0.594017   0.000728  -0.000243   0.000154
    15  H   -0.000146   0.000728   0.561586  -0.027947  -0.027243
    16  H   -0.000151  -0.000243  -0.027947   0.581533  -0.030462
    17  H    0.000145   0.000154  -0.027243  -0.030462   0.561929
 Mulliken charges:
               1
     1  C   -0.460240
     2  C    0.225158
     3  N   -0.362477
     4  O   -0.528225
     5  C   -0.455375
     6  C   -0.473552
     7  H    0.147985
     8  H    0.128153
     9  H    0.160333
    10  H    0.325981
    11  H    0.408069
    12  H    0.145902
    13  H    0.156646
    14  H    0.137150
    15  H    0.149351
    16  H    0.142949
    17  H    0.152191
 Sum of Mulliken charges =  -0.00000
 Mulliken charges with hydrogens summed into heavy atoms:
               1
     1  C   -0.023770
     2  C    0.225158
     3  N   -0.036496
     4  O   -0.120156
     5  C   -0.015676
     6  C   -0.029060
 Electronic spatial extent (au):  <R**2>=            627.3631
 Charge=              0.0000 electrons
 Dipole moment (field-independent basis, Debye):
    X=             -1.4964    Y=              0.3988    Z=             -0.5322  Tot=              1.6375
 Quadrupole moment (field-independent basis, Debye-Ang):
   XX=            -42.2697   YY=            -34.9591   ZZ=            -40.1435
   XY=              1.9292   XZ=             -0.8191   YZ=             -0.1524
 Traceless Quadrupole moment (field-independent basis, Debye-Ang):
   XX=             -3.1456   YY=              4.1650   ZZ=             -1.0194
   XY=              1.9292   XZ=             -0.8191   YZ=             -0.1524
 Octapole moment (field-independent basis, Debye-Ang**2):
  XXX=              0.0602  YYY=            -10.2063  ZZZ=             -0.1528  XYY=              9.2358
  XXY=              5.5745  XXZ=             -1.9256  XZZ=              2.1091  YZZ=             -1.9477
  YYZ=             -0.8927  XYZ=              0.4539
 Hexadecapole moment (field-independent basis, Debye-Ang**3):
 XXXX=           -392.5268 YYYY=           -201.9417 ZZZZ=           -224.1884 XXXY=              5.6992
 XXXZ=             -1.2632 YYYX=             -8.5270 YYYZ=              2.0508 ZZZX=             -1.7941
 ZZZY=             -0.5229 XXYY=            -90.1801 XXZZ=            -99.4723 YYZZ=            -76.7635
 XXYZ=             -2.6100 YYXZ=             -0.7952 ZZXY=              1.9524
 N-N= 2.699517758780D+02 E-N=-1.212472058349D+03  KE= 2.862868886396D+02
 No NMR shielding tensors so no spin-rotation constants.
 Leave Link  601 at Mon Oct 14 02:25:38 2019, MaxMem= 10737418240 cpu:               3.1 elap:               0.2
 (Enter /apps/cent7/gaussian/g16-A.03/g16-haswell/g16/l701.exe)
 ... and contract with generalized density number  0.
 Compute integral first derivatives.
 Leave Link  701 at Mon Oct 14 02:25:38 2019, MaxMem= 10737418240 cpu:               2.4 elap:               0.1
 (Enter /apps/cent7/gaussian/g16-A.03/g16-haswell/g16/l702.exe)
 L702 exits ... SP integral derivatives will be done elsewhere.
 Leave Link  702 at Mon Oct 14 02:25:39 2019, MaxMem= 10737418240 cpu:               0.8 elap:               0.1
 (Enter /apps/cent7/gaussian/g16-A.03/g16-haswell/g16/l703.exe)
 Integral derivatives from FoFJK, PRISM(SPDF).
 Compute integral first derivatives, UseDBF=F ICtDFT=           0.
 Calling FoFJK, ICntrl=      2127 FMM=F ISym2X=0 I1Cent= 0 IOpClX= 0 NMat=1 NMatS=1 NMatT=0.
 FoFJK:  IHMeth= 1 ICntrl=    2127 DoSepK=F KAlg= 0 I1Cent=           0 FoldK=F
 IRaf=         0 NMat=       1 IRICut=       1 DoRegI=T DoRafI=F ISym2E= 0 IDoP0=0 IntGTp=1.
 FoFCou: FMM=F IPFlag=           0 FMFlag=      100000 FMFlg1=         800
         NFxFlg=           0 DoJE=F BraDBF=F KetDBF=F FulRan=T
         wScrn=  0.000000 ICntrl=      2127 IOpCl=  0 I1Cent=           0 NGrid=           0
         NMat0=    1 NMatS0=      1 NMatT0=    0 NMatD0=    1 NMtDS0=    0 NMtDT0=    0
 Symmetry not used in FoFCou.
 Leave Link  703 at Mon Oct 14 02:25:39 2019, MaxMem= 10737418240 cpu:              12.2 elap:               0.5
 (Enter /apps/cent7/gaussian/g16-A.03/g16-haswell/g16/l716.exe)
 Dipole        =-5.88713061D-01 1.56914967D-01-2.09367175D-01
 ***** Axes restored to original set *****
 -------------------------------------------------------------------
 Center     Atomic                   Forces (Hartrees/Bohr)
 Number     Number              X              Y              Z
 -------------------------------------------------------------------
      1        6          -0.004577617    0.009574651    0.010433457
      2        6           0.015343623    0.012890581    0.023468120
      3        7          -0.007303760   -0.069502837    0.024075301
      4        8          -0.012741889    0.059888932   -0.022179413
      5        6           0.014853912   -0.001573502   -0.002693015
      6        6          -0.005928726    0.009072125   -0.013372463
      7        1          -0.002371381   -0.003138474   -0.004284458
      8        1           0.000268241   -0.003483713   -0.007696304
      9        1           0.002542819   -0.001053356   -0.001137735
     10        1          -0.002937406    0.002832233   -0.010975792
     11        1           0.008319129   -0.010493395   -0.003478098
     12        1          -0.004312126    0.001902234    0.000522088
     13        1          -0.002731734    0.000936891   -0.001699946
     14        1          -0.005383996   -0.002824822   -0.000067610
     15        1           0.000445708   -0.002576649    0.003267642
     16        1           0.004904418   -0.002313646    0.001540923
     17        1           0.001610785   -0.000137254    0.004277303
 -------------------------------------------------------------------
 Cartesian Forces:  Max     0.069502837 RMS     0.015332023
 Leave Link  716 at Mon Oct 14 02:25:39 2019, MaxMem= 10737418240 cpu:               0.7 elap:               0.1
 (Enter /apps/cent7/gaussian/g16-A.03/g16-haswell/g16/l103.exe)

 GradGradGradGradGradGradGradGradGradGradGradGradGradGradGradGradGradGrad
 Berny optimization.
 FormGI is forming the generalized inverse of G from B-inverse, IUseBI=4.
 Internal  Forces:  Max     0.048188924 RMS     0.008463388
 Search for a local minimum.
 Step number   1 out of a maximum of   89
 All quantities printed in internal units (Hartrees-Bohrs-Radians)
 RMS Force = .84634D-02 SwitMx=.10000D-02 MixMth= 1
 Mixed Optimization -- RFO/linear search
 Second derivative matrix not updated -- first step.
 ITU=  0
     Eigenvalues ---    0.00230   0.00230   0.00230   0.00532   0.00816
     Eigenvalues ---    0.01835   0.04494   0.05093   0.05715   0.05715
     Eigenvalues ---    0.05715   0.05715   0.05715   0.05716   0.05785
     Eigenvalues ---    0.14952   0.15147   0.16000   0.16000   0.16000
     Eigenvalues ---    0.16000   0.16000   0.16000   0.16000   0.16000
     Eigenvalues ---    0.16000   0.16000   0.16000   0.22000   0.26702
     Eigenvalues ---    0.26848   0.26941   0.33706   0.34804   0.34804
     Eigenvalues ---    0.34809   0.34810   0.34810   0.34813   0.34814
     Eigenvalues ---    0.34818   0.34818   0.45981   0.53119   0.55479
 RFO step:  Lambda=-2.16234644D-02 EMin= 2.30000000D-03
 Linear search not attempted -- first point.
 Iteration  1 RMS(Cart)=  0.07546986 RMS(Int)=  0.00569913
 Iteration  2 RMS(Cart)=  0.00702574 RMS(Int)=  0.00020409
 Iteration  3 RMS(Cart)=  0.00005448 RMS(Int)=  0.00019599
 Iteration  4 RMS(Cart)=  0.00000001 RMS(Int)=  0.00019599
 ITry= 1 IFail=0 DXMaxC= 3.36D-01 DCOld= 1.00D+10 DXMaxT= 3.00D-01 DXLimC= 3.00D+00 Rises=F
 Variable       Old X    -DE/DX   Delta X   Delta X   Delta X     New X
                                 (Linear)    (Quad)   (Total)
    R1        2.94729  -0.00020   0.00000  -0.00068  -0.00068   2.94661
    R2        2.05984   0.00260   0.00000   0.00703   0.00703   2.06687
    R3        2.05971   0.00514   0.00000   0.01391   0.01391   2.07362
    R4        2.05994   0.00234   0.00000   0.00633   0.00633   2.06628
    R5        2.81129  -0.02136   0.00000  -0.05955  -0.05955   2.75175
    R6        2.95067  -0.00250   0.00000  -0.00868  -0.00868   2.94199
    R7        2.94515  -0.00496   0.00000  -0.01704  -0.01704   2.92810
    R8        2.56843   0.04819   0.00000   0.08717   0.08717   2.65559
    R9        1.90852  -0.00806   0.00000  -0.01675  -0.01675   1.89178
   R10        1.81409   0.00657   0.00000   0.01140   0.01140   1.82549
   R11        2.05978   0.00184   0.00000   0.00497   0.00497   2.06475
   R12        2.05995   0.00250   0.00000   0.00678   0.00678   2.06672
   R13        2.05972   0.00417   0.00000   0.01127   0.01127   2.07099
   R14        2.05984   0.00219   0.00000   0.00593   0.00593   2.06577
   R15        2.05985   0.00424   0.00000   0.01148   0.01148   2.07133
   R16        2.05979   0.00243   0.00000   0.00657   0.00657   2.06636
    A1        1.91064   0.00298   0.00000   0.01409   0.01395   1.92459
    A2        1.91068   0.00848   0.00000   0.04654   0.04621   1.95689
    A3        1.91063   0.00060   0.00000   0.00581   0.00558   1.91621
    A4        1.91066  -0.00660   0.00000  -0.04137  -0.04160   1.86907
    A5        1.91057  -0.00173   0.00000  -0.00921  -0.00925   1.90133
    A6        1.91061  -0.00373   0.00000  -0.01586  -0.01625   1.89435
    A7        1.91595   0.00282   0.00000   0.01233   0.01218   1.92813
    A8        1.94069  -0.00358   0.00000  -0.02188  -0.02201   1.91868
    A9        1.90659   0.00045   0.00000   0.00869   0.00882   1.91540
   A10        1.93138  -0.00097   0.00000  -0.01221  -0.01214   1.91924
   A11        1.86074  -0.00261   0.00000  -0.01316  -0.01311   1.84763
   A12        1.90660   0.00399   0.00000   0.02711   0.02718   1.93378
   A13        1.97907   0.03445   0.00000   0.14257   0.14223   2.12130
   A14        2.22077  -0.00948   0.00000  -0.02867  -0.02903   2.19175
   A15        2.08334  -0.02496   0.00000  -0.11390  -0.11423   1.96911
   A16        1.91064  -0.01485   0.00000  -0.08174  -0.08174   1.82890
   A17        1.91057   0.00443   0.00000   0.02476   0.02448   1.93505
   A18        1.91063   0.00085   0.00000   0.00253   0.00250   1.91313
   A19        1.91059   0.00516   0.00000   0.03020   0.02989   1.94048
   A20        1.91059  -0.00326   0.00000  -0.02146  -0.02146   1.88913
   A21        1.91072  -0.00405   0.00000  -0.01800  -0.01854   1.89219
   A22        1.91070  -0.00314   0.00000  -0.01804  -0.01810   1.89260
   A23        1.91064   0.00358   0.00000   0.01899   0.01880   1.92945
   A24        1.91061   0.00236   0.00000   0.01184   0.01172   1.92233
   A25        1.91066   0.00411   0.00000   0.02456   0.02431   1.93497
   A26        1.91061  -0.00364   0.00000  -0.02387  -0.02391   1.88670
   A27        1.91067  -0.00344   0.00000  -0.01657  -0.01687   1.89380
   A28        1.91060  -0.00298   0.00000  -0.01496  -0.01514   1.89546
    D1        2.79343   0.00132   0.00000   0.04439   0.04440   2.83783
    D2       -1.34669  -0.00038   0.00000   0.02262   0.02259  -1.32410
    D3        0.75891   0.00261   0.00000   0.04822   0.04809   0.80700
    D4       -1.39530   0.00026   0.00000   0.03086   0.03087  -1.36442
    D5        0.74778  -0.00145   0.00000   0.00909   0.00906   0.75684
    D6        2.85337   0.00154   0.00000   0.03469   0.03456   2.88793
    D7        0.69910   0.00125   0.00000   0.04349   0.04365   0.74275
    D8        2.84217  -0.00045   0.00000   0.02172   0.02184   2.86401
    D9       -1.33542   0.00254   0.00000   0.04732   0.04734  -1.28808
   D10        1.09798  -0.00059   0.00000   0.01012   0.01025   1.10822
   D11       -2.04369  -0.00212   0.00000  -0.04152  -0.04177  -2.08546
   D12       -1.05059   0.00266   0.00000   0.03758   0.03788  -1.01270
   D13        2.09093   0.00112   0.00000  -0.01407  -0.01413   2.07679
   D14       -3.12207  -0.00004   0.00000   0.01952   0.01965  -3.10241
   D15        0.01945  -0.00158   0.00000  -0.03213  -0.03236  -0.01292
   D16        2.59230   0.00162   0.00000   0.05257   0.05256   2.64486
   D17       -1.59658   0.00086   0.00000   0.04300   0.04282  -1.55376
   D18        0.49786   0.00070   0.00000   0.04096   0.04067   0.53853
   D19       -1.55671   0.00206   0.00000   0.04468   0.04495  -1.51176
   D20        0.53758   0.00131   0.00000   0.03510   0.03522   0.57280
   D21        2.63203   0.00115   0.00000   0.03306   0.03307   2.66510
   D22        0.48672   0.00071   0.00000   0.03783   0.03800   0.52472
   D23        2.58102  -0.00004   0.00000   0.02825   0.02826   2.60928
   D24       -1.60772  -0.00020   0.00000   0.02621   0.02611  -1.58161
   D25       -0.73428   0.00063   0.00000  -0.03310  -0.03317  -0.76745
   D26        1.36008  -0.00019   0.00000  -0.04345  -0.04363   1.31645
   D27       -2.82875   0.00012   0.00000  -0.03948  -0.03965  -2.86839
   D28       -2.80356  -0.00148   0.00000  -0.04494  -0.04485  -2.84841
   D29       -0.70920  -0.00230   0.00000  -0.05529  -0.05531  -0.76451
   D30        1.38516  -0.00199   0.00000  -0.05132  -0.05133   1.33383
   D31        1.39202  -0.00099   0.00000  -0.03758  -0.03739   1.35463
   D32       -2.79681  -0.00181   0.00000  -0.04793  -0.04785  -2.84466
   D33       -0.70245  -0.00150   0.00000  -0.04396  -0.04387  -0.74632
   D34       -0.35786  -0.00841   0.00000  -0.21643  -0.21578  -0.57365
   D35        2.78380  -0.00701   0.00000  -0.16925  -0.16989   2.61391
         Item               Value     Threshold  Converged?
 Maximum Force            0.048189     0.000450     NO 
 RMS     Force            0.008463     0.000300     NO 
 Maximum Displacement     0.336411     0.001800     NO 
 RMS     Displacement     0.078596     0.001200     NO 
 Predicted change in Energy=-1.284771D-02
 Lowest energy point so far.  Saving SCF results.
 GradGradGradGradGradGradGradGradGradGradGradGradGradGradGradGradGradGrad

 Leave Link  103 at Mon Oct 14 02:25:39 2019, MaxMem= 10737418240 cpu:               1.4 elap:               0.1
 (Enter /apps/cent7/gaussian/g16-A.03/g16-haswell/g16/l202.exe)
                          Input orientation:                          
 ---------------------------------------------------------------------
 Center     Atomic      Atomic             Coordinates (Angstroms)
 Number     Number       Type             X           Y           Z
 ---------------------------------------------------------------------
      1          6           0        2.019583   -0.788284   -1.285324
      2          6           0        1.496944   -0.027616   -0.028512
      3          7           0        1.972948    1.348545   -0.031555
      4          8           0        1.597055    2.254203   -1.038183
      5          6           0       -0.059489   -0.051665   -0.002717
      6          6           0        2.078497   -0.674048    1.253997
      7          1           0        1.932332   -1.868533   -1.137938
      8          1           0        1.446744   -0.538592   -2.187327
      9          1           0        3.069487   -0.537585   -1.459773
     10          1           0        2.548074    1.767470    0.672649
     11          1           0        1.503224    1.713921   -1.833459
     12          1           0       -0.432618   -0.001057    1.022965
     13          1           0       -0.449129    0.810298   -0.551626
     14          1           0       -0.449184   -0.964064   -0.468241
     15          1           0        2.025296   -1.764164    1.192246
     16          1           0        3.130338   -0.390800    1.375804
     17          1           0        1.524999   -0.349130    2.139295
 ---------------------------------------------------------------------
                    Distance matrix (angstroms):
                    1          2          3          4          5
     1  C    0.000000
     2  C    1.559276   0.000000
     3  N    2.477933   1.456162   0.000000
     4  O    3.081612   2.497229   1.405280   0.000000
     5  C    2.551515   1.556833   2.468242   3.022144   0.000000
     6  C    2.542572   1.549486   2.398888   3.749737   2.556887
     7  H    1.093742   2.193026   3.402252   4.137549   2.925249
     8  H    1.097315   2.219030   2.912993   3.023710   2.697842
     9  H    1.093427   2.186657   2.607622   3.184317   3.485631
    10  H    3.262643   2.195184   1.001085   2.017001   3.250347
    11  H    2.613065   2.508151   1.897630   0.966008   2.985127
    12  H    3.458499   2.197617   2.952996   3.667984   1.092617
    13  H    3.031223   2.182418   2.535082   2.551170   1.093664
    14  H    2.606402   2.204022   3.377214   3.856056   1.095922
    15  H    2.662842   2.187466   3.345054   4.615786   2.950749
    16  H    2.910906   2.184487   2.519034   3.895424   3.491465
    17  H    3.487905   2.191699   2.792015   4.108394   2.680915
                    6          7          8          9         10
     6  C    0.000000
     7  H    2.677594   0.000000
     8  H    3.501452   1.762315   0.000000
     9  H    2.892271   1.779922   1.778379   0.000000
    10  H    2.553326   4.108270   3.835402   3.183140   0.000000
    11  H    3.945341   3.674488   2.280839   2.768051   2.715724
    12  H    2.609979   3.708093   3.758579   4.326268   3.483523
    13  H    3.442738   3.631976   2.844179   3.875846   3.376130
    14  H    3.072358   2.634042   2.594383   3.680498   4.212655
    15  H    1.093159   2.334373   3.641190   3.102908   3.607730
    16  H    1.096101   3.152430   3.943632   2.840027   2.343413
    17  H    1.093473   3.635211   4.331475   3.921001   2.770871
                   11         12         13         14         15
    11  H    0.000000
    12  H    3.853283   0.000000
    13  H    2.504259   1.771414   0.000000
    14  H    3.584315   1.775205   1.776320   0.000000
    15  H    4.639454   3.029611   3.973880   3.085520   0.000000
    16  H    4.168540   3.601534   4.239128   4.067200   1.772270
    17  H    4.476542   2.280265   3.533059   3.327880   1.774688
                   16         17
    16  H    0.000000
    17  H    1.778136   0.000000
 Stoichiometry    C4H11NO
 Framework group  C1[X(C4H11NO)]
 Deg. of freedom    45
 Full point group                 C1      NOp   1
 RotChk:  IX=0 Diff= 1.60D-01
 Largest Abelian subgroup         C1      NOp   1
 Largest concise Abelian subgroup C1      NOp   1
                         Standard orientation:                         
 ---------------------------------------------------------------------
 Center     Atomic      Atomic             Coordinates (Angstroms)
 Number     Number       Type             X           Y           Z
 ---------------------------------------------------------------------
      1          6           0       -0.480659    1.092066   -1.112551
      2          6           0       -0.390706    0.011978    0.008458
      3          7           0        0.835069   -0.762248   -0.127396
      4          8           0        2.100208   -0.165504    0.007261
      5          6           0       -0.436494    0.693793    1.407301
      6          6           0       -1.551697   -1.002263   -0.147495
      7          1           0       -1.507520    1.456977   -1.205655
      8          1           0        0.152786    1.962407   -0.899585
      9          1           0       -0.169276    0.660905   -2.067917
     10          1           0        0.886004   -1.750609   -0.278123
     11          1           0        1.987582    0.731028   -0.334380
     12          1           0       -0.868346    0.022615    2.153515
     13          1           0        0.578375    0.950256    1.724111
     14          1           0       -1.033841    1.612226    1.380791
     15          1           0       -2.490443   -0.481985   -0.355016
     16          1           0       -1.348263   -1.683458   -0.981775
     17          1           0       -1.676875   -1.594045    0.763443
 ---------------------------------------------------------------------
 Rotational constants (GHZ):           4.3189658           2.6153595           2.5793870
 Leave Link  202 at Mon Oct 14 02:25:39 2019, MaxMem= 10737418240 cpu:               0.2 elap:               0.0
 (Enter /apps/cent7/gaussian/g16-A.03/g16-haswell/g16/l301.exe)
 Standard basis: 6-31G(d) (6D, 7F)
 Ernie: Thresh=  0.10000D-02 Tol=  0.10000D-05 Strict=F.
 There are   112 symmetry adapted cartesian basis functions of A   symmetry.
 There are   112 symmetry adapted basis functions of A   symmetry.
   112 basis functions,   212 primitive gaussians,   112 cartesian basis functions
    25 alpha electrons       25 beta electrons
       nuclear repulsion energy       267.8888445163 Hartrees.
 IExCor=  402 DFT=T Ex+Corr=B3LYP ExCW=0 ScaHFX=  0.200000
 ScaDFX=  0.800000  0.720000  1.000000  0.810000 ScalE2=  1.000000  1.000000
 IRadAn=      5 IRanWt=     -1 IRanGd=            0 ICorTp=0 IEmpDi=  4
 NAtoms=   17 NActive=   17 NUniq=   17 SFac= 1.00D+00 NAtFMM=   60 NAOKFM=F Big=F
 Integral buffers will be    131072 words long.
 Raffenetti 2 integral format.
 Two-electron integral symmetry is turned on.
 Leave Link  301 at Mon Oct 14 02:25:39 2019, MaxMem= 10737418240 cpu:               1.3 elap:               0.1
 (Enter /apps/cent7/gaussian/g16-A.03/g16-haswell/g16/l302.exe)
 NPDir=0 NMtPBC=     1 NCelOv=     1 NCel=       1 NClECP=     1 NCelD=      1
         NCelK=      1 NCelE2=     1 NClLst=     1 CellRange=     0.0.
 One-electron integrals computed using PRISM.
 One-electron integral symmetry used in STVInt
 NBasis=   112 RedAO= T EigKep=  3.41D-03  NBF=   112
 NBsUse=   112 1.00D-06 EigRej= -1.00D+00 NBFU=   112
 Precomputing XC quadrature grid using
 IXCGrd= 4 IRadAn=           5 IRanWt=          -1 IRanGd=           0 AccXCQ= 0.00D+00.
 Generated NRdTot=       0 NPtTot=           0 NUsed=           0 NTot=          32
 NSgBfM=   112   112   112   112   112 MxSgAt=    17 MxSgA2=    17.
 Leave Link  302 at Mon Oct 14 02:25:40 2019, MaxMem= 10737418240 cpu:               2.9 elap:               0.1
 (Enter /apps/cent7/gaussian/g16-A.03/g16-haswell/g16/l303.exe)
 DipDrv:  MaxL=1.
 Leave Link  303 at Mon Oct 14 02:25:40 2019, MaxMem= 10737418240 cpu:               0.5 elap:               0.0
 (Enter /apps/cent7/gaussian/g16-A.03/g16-haswell/g16/l401.exe)
 Initial guess from the checkpoint file:  "9.chk"
 B after Tr=    -0.000000    0.000000    0.000000
         Rot=    0.998531   -0.050461   -0.009070   -0.017509 Ang=  -6.21 deg.
 Guess basis will be translated and rotated to current coordinates.
 JPrj=2 DoOrth=T DoCkMO=T.
 Generating alternative initial guess.
 ExpMin= 1.61D-01 ExpMax= 5.48D+03 ExpMxC= 8.25D+02 IAcc=2 IRadAn=         4 AccDes= 0.00D+00
 Harris functional with IExCor=  402 and IRadAn=       4 diagonalized for initial guess.
 HarFok:  IExCor=  402 AccDes= 0.00D+00 IRadAn=         4 IDoV= 1 UseB2=F ITyADJ=14
 ICtDFT=  3500011 ScaDFX=  1.000000  1.000000  1.000000  1.000000
 FoFCou: FMM=F IPFlag=           0 FMFlag=      100000 FMFlg1=           0
         NFxFlg=           0 DoJE=T BraDBF=F KetDBF=T FulRan=T
         wScrn=  0.000000 ICntrl=       500 IOpCl=  0 I1Cent=   200000004 NGrid=           0
         NMat0=    1 NMatS0=      1 NMatT0=    0 NMatD0=    1 NMtDS0=    0 NMtDT0=    0
 Petite list used in FoFCou.
 Harris En= -288.985055089344    
 Leave Link  401 at Mon Oct 14 02:25:40 2019, MaxMem= 10737418240 cpu:               6.2 elap:               0.3
 (Enter /apps/cent7/gaussian/g16-A.03/g16-haswell/g16/l502.exe)
 Integral symmetry usage will be decided dynamically.
 Closed shell SCF:
 Using DIIS extrapolation, IDIIS=  1040.
 NGot= 10737418240 LenX= 10737388935 LenY= 10737375950
 Requested convergence on RMS density matrix=1.00D-08 within 128 cycles.
 Requested convergence on MAX density matrix=1.00D-06.
 Requested convergence on             energy=1.00D-06.
 No special actions if energy rises.
 Fock matrices will be formed incrementally for  20 cycles.
 Integral accuracy reduced to 1.0D-05 until final iterations.

 Cycle   1  Pass 0  IDiag  1:
 FoFJK:  IHMeth= 1 ICntrl=       0 DoSepK=F KAlg= 0 I1Cent=           0 FoldK=F
 IRaf= 990000000 NMat=       1 IRICut=       1 DoRegI=T DoRafI=F ISym2E= 0 IDoP0=0 IntGTp=1.
 FoFCou: FMM=F IPFlag=           0 FMFlag=      100000 FMFlg1=           0
         NFxFlg=           0 DoJE=F BraDBF=F KetDBF=F FulRan=T
         wScrn=  0.000000 ICntrl=         0 IOpCl=  0 I1Cent=           0 NGrid=           0
         NMat0=    1 NMatS0=      1 NMatT0=    0 NMatD0=    1 NMtDS0=    0 NMtDT0=    0
 Symmetry not used in FoFCou.
 E= -288.918218616793    
 DIIS: error= 5.58D-03 at cycle   1 NSaved=   1.
 NSaved= 1 IEnMin= 1 EnMin= -288.918218616793     IErMin= 1 ErrMin= 5.58D-03
 ErrMax= 5.58D-03  0.00D+00 EMaxC= 1.00D-01 BMatC= 8.47D-03 BMatP= 8.47D-03
 IDIUse=3 WtCom= 9.44D-01 WtEn= 5.58D-02
 Coeff-Com:  0.100D+01
 Coeff-En:   0.100D+01
 Coeff:      0.100D+01
 Gap=     1.681 Goal=   None    Shift=    0.000
 GapD=    1.681 DampG=2.000 DampE=1.000 DampFc=2.0000 IDamp=-1.
 RMSDP=1.59D-03 MaxDP=3.69D-02              OVMax= 4.07D-02

 Cycle   2  Pass 0  IDiag  1:
 RMSU=  1.59D-03    CP:  9.99D-01
 E= -288.932680992855     Delta-E=       -0.014462376062 Rises=F Damp=F
 DIIS: error= 1.47D-03 at cycle   2 NSaved=   2.
 NSaved= 2 IEnMin= 2 EnMin= -288.932680992855     IErMin= 2 ErrMin= 1.47D-03
 ErrMax= 1.47D-03  0.00D+00 EMaxC= 1.00D-01 BMatC= 5.62D-04 BMatP= 8.47D-03
 IDIUse=3 WtCom= 9.85D-01 WtEn= 1.47D-02
 Coeff-Com:  0.370D-01 0.963D+00
 Coeff-En:   0.000D+00 0.100D+01
 Coeff:      0.364D-01 0.964D+00
 Gap=     0.236 Goal=   None    Shift=    0.000
 RMSDP=3.91D-04 MaxDP=1.05D-02 DE=-1.45D-02 OVMax= 1.03D-02

 Cycle   3  Pass 0  IDiag  1:
 RMSU=  3.86D-04    CP:  9.99D-01  1.04D+00
 E= -288.932431217793     Delta-E=        0.000249775062 Rises=F Damp=F
 DIIS: error= 2.19D-03 at cycle   3 NSaved=   3.
 NSaved= 3 IEnMin= 2 EnMin= -288.932680992855     IErMin= 2 ErrMin= 1.47D-03
 ErrMax= 2.19D-03  0.00D+00 EMaxC= 1.00D-01 BMatC= 1.05D-03 BMatP= 5.62D-04
 IDIUse=3 WtCom= 1.76D-01 WtEn= 8.24D-01
 Coeff-Com: -0.423D-01 0.602D+00 0.440D+00
 Coeff-En:   0.000D+00 0.596D+00 0.404D+00
 Coeff:     -0.744D-02 0.597D+00 0.410D+00
 Gap=     0.237 Goal=   None    Shift=    0.000
 RMSDP=2.18D-04 MaxDP=6.93D-03 DE= 2.50D-04 OVMax= 6.51D-03

 Cycle   4  Pass 0  IDiag  1:
 RMSU=  8.39D-05    CP:  9.99D-01  1.08D+00  5.03D-01
 E= -288.933196819613     Delta-E=       -0.000765601820 Rises=F Damp=F
 DIIS: error= 1.55D-04 at cycle   4 NSaved=   4.
 NSaved= 4 IEnMin= 4 EnMin= -288.933196819613     IErMin= 4 ErrMin= 1.55D-04
 ErrMax= 1.55D-04  0.00D+00 EMaxC= 1.00D-01 BMatC= 7.51D-06 BMatP= 5.62D-04
 IDIUse=3 WtCom= 9.98D-01 WtEn= 1.55D-03
 Coeff-Com: -0.184D-01 0.184D+00 0.155D+00 0.679D+00
 Coeff-En:   0.000D+00 0.000D+00 0.000D+00 0.100D+01
 Coeff:     -0.184D-01 0.184D+00 0.155D+00 0.680D+00
 Gap=     0.236 Goal=   None    Shift=    0.000
 RMSDP=3.67D-05 MaxDP=6.83D-04 DE=-7.66D-04 OVMax= 1.00D-03

 Cycle   5  Pass 0  IDiag  1:
 RMSU=  3.07D-05    CP:  9.99D-01  1.08D+00  5.08D-01  8.21D-01
 E= -288.933203018401     Delta-E=       -0.000006198788 Rises=F Damp=F
 DIIS: error= 8.42D-05 at cycle   5 NSaved=   5.
 NSaved= 5 IEnMin= 5 EnMin= -288.933203018401     IErMin= 5 ErrMin= 8.42D-05
 ErrMax= 8.42D-05  0.00D+00 EMaxC= 1.00D-01 BMatC= 1.04D-06 BMatP= 7.51D-06
 IDIUse=1 WtCom= 1.00D+00 WtEn= 0.00D+00
 Coeff-Com: -0.336D-02 0.174D-01 0.229D-01 0.289D+00 0.674D+00
 Coeff:     -0.336D-02 0.174D-01 0.229D-01 0.289D+00 0.674D+00
 Gap=     0.236 Goal=   None    Shift=    0.000
 RMSDP=1.19D-05 MaxDP=2.20D-04 DE=-6.20D-06 OVMax= 2.57D-04

 Cycle   6  Pass 0  IDiag  1:
 RMSU=  9.09D-06    CP:  9.99D-01  1.09D+00  5.13D-01  8.87D-01  8.59D-01
 E= -288.933204000227     Delta-E=       -0.000000981826 Rises=F Damp=F
 DIIS: error= 2.14D-05 at cycle   6 NSaved=   6.
 NSaved= 6 IEnMin= 6 EnMin= -288.933204000227     IErMin= 6 ErrMin= 2.14D-05
 ErrMax= 2.14D-05  0.00D+00 EMaxC= 1.00D-01 BMatC= 6.99D-08 BMatP= 1.04D-06
 IDIUse=1 WtCom= 1.00D+00 WtEn= 0.00D+00
 Coeff-Com:  0.513D-03-0.117D-01-0.586D-02 0.428D-01 0.255D+00 0.719D+00
 Coeff:      0.513D-03-0.117D-01-0.586D-02 0.428D-01 0.255D+00 0.719D+00
 Gap=     0.236 Goal=   None    Shift=    0.000
 RMSDP=3.50D-06 MaxDP=6.70D-05 DE=-9.82D-07 OVMax= 1.00D-04

 Initial convergence to 1.0D-05 achieved.  Increase integral accuracy.
 Cycle   7  Pass 1  IDiag  1:
 E= -288.933217223545     Delta-E=       -0.000013223318 Rises=F Damp=F
 DIIS: error= 4.75D-06 at cycle   1 NSaved=   1.
 NSaved= 1 IEnMin= 1 EnMin= -288.933217223545     IErMin= 1 ErrMin= 4.75D-06
 ErrMax= 4.75D-06  0.00D+00 EMaxC= 1.00D-01 BMatC= 8.06D-09 BMatP= 8.06D-09
 IDIUse=1 WtCom= 1.00D+00 WtEn= 0.00D+00
 Coeff-Com:  0.100D+01
 Coeff:      0.100D+01
 Gap=     0.236 Goal=   None    Shift=    0.000
 RMSDP=3.50D-06 MaxDP=6.70D-05 DE=-1.32D-05 OVMax= 3.27D-05

 Cycle   8  Pass 1  IDiag  1:
 RMSU=  2.35D-06    CP:  1.00D+00
 E= -288.933217228242     Delta-E=       -0.000000004697 Rises=F Damp=F
 DIIS: error= 3.99D-06 at cycle   2 NSaved=   2.
 NSaved= 2 IEnMin= 2 EnMin= -288.933217228242     IErMin= 2 ErrMin= 3.99D-06
 ErrMax= 3.99D-06  0.00D+00 EMaxC= 1.00D-01 BMatC= 4.70D-09 BMatP= 8.06D-09
 IDIUse=1 WtCom= 1.00D+00 WtEn= 0.00D+00
 Coeff-Com:  0.416D+00 0.584D+00
 Coeff:      0.416D+00 0.584D+00
 Gap=     0.236 Goal=   None    Shift=    0.000
 RMSDP=8.56D-07 MaxDP=1.83D-05 DE=-4.70D-09 OVMax= 1.98D-05

 Cycle   9  Pass 1  IDiag  1:
 RMSU=  7.79D-07    CP:  1.00D+00  8.51D-01
 E= -288.933217231894     Delta-E=       -0.000000003653 Rises=F Damp=F
 DIIS: error= 1.63D-06 at cycle   3 NSaved=   3.
 NSaved= 3 IEnMin= 3 EnMin= -288.933217231894     IErMin= 3 ErrMin= 1.63D-06
 ErrMax= 1.63D-06  0.00D+00 EMaxC= 1.00D-01 BMatC= 7.10D-10 BMatP= 4.70D-09
 IDIUse=1 WtCom= 1.00D+00 WtEn= 0.00D+00
 Coeff-Com:  0.322D-02 0.276D+00 0.721D+00
 Coeff:      0.322D-02 0.276D+00 0.721D+00
 Gap=     0.236 Goal=   None    Shift=    0.000
 RMSDP=2.75D-07 MaxDP=5.99D-06 DE=-3.65D-09 OVMax= 6.71D-06

 Cycle  10  Pass 1  IDiag  1:
 RMSU=  1.46D-07    CP:  1.00D+00  9.06D-01  7.54D-01
 E= -288.933217232507     Delta-E=       -0.000000000613 Rises=F Damp=F
 DIIS: error= 2.43D-07 at cycle   4 NSaved=   4.
 NSaved= 4 IEnMin= 4 EnMin= -288.933217232507     IErMin= 4 ErrMin= 2.43D-07
 ErrMax= 2.43D-07  0.00D+00 EMaxC= 1.00D-01 BMatC= 1.86D-11 BMatP= 7.10D-10
 IDIUse=1 WtCom= 1.00D+00 WtEn= 0.00D+00
 Coeff-Com: -0.107D-01 0.962D-01 0.294D+00 0.621D+00
 Coeff:     -0.107D-01 0.962D-01 0.294D+00 0.621D+00
 Gap=     0.236 Goal=   None    Shift=    0.000
 RMSDP=5.09D-08 MaxDP=9.90D-07 DE=-6.13D-10 OVMax= 1.20D-06

 Cycle  11  Pass 1  IDiag  1:
 RMSU=  3.06D-08    CP:  1.00D+00  9.12D-01  7.69D-01  7.52D-01
 E= -288.933217232523     Delta-E=       -0.000000000016 Rises=F Damp=F
 DIIS: error= 7.17D-08 at cycle   5 NSaved=   5.
 NSaved= 5 IEnMin= 5 EnMin= -288.933217232523     IErMin= 5 ErrMin= 7.17D-08
 ErrMax= 7.17D-08  0.00D+00 EMaxC= 1.00D-01 BMatC= 1.43D-12 BMatP= 1.86D-11
 IDIUse=1 WtCom= 1.00D+00 WtEn= 0.00D+00
 Coeff-Com: -0.484D-02 0.322D-01 0.103D+00 0.290D+00 0.579D+00
 Coeff:     -0.484D-02 0.322D-01 0.103D+00 0.290D+00 0.579D+00
 Gap=     0.236 Goal=   None    Shift=    0.000
 RMSDP=1.10D-08 MaxDP=2.20D-07 DE=-1.60D-11 OVMax= 2.99D-07

 Cycle  12  Pass 1  IDiag  1:
 RMSU=  1.00D-08    CP:  1.00D+00  9.13D-01  7.70D-01  7.58D-01  8.91D-01
 E= -288.933217232525     Delta-E=       -0.000000000002 Rises=F Damp=F
 DIIS: error= 2.21D-08 at cycle   6 NSaved=   6.
 NSaved= 6 IEnMin= 6 EnMin= -288.933217232525     IErMin= 6 ErrMin= 2.21D-08
 ErrMax= 2.21D-08  0.00D+00 EMaxC= 1.00D-01 BMatC= 1.02D-13 BMatP= 1.43D-12
 IDIUse=1 WtCom= 1.00D+00 WtEn= 0.00D+00
 Coeff-Com: -0.765D-03 0.148D-02 0.685D-02 0.429D-01 0.230D+00 0.719D+00
 Coeff:     -0.765D-03 0.148D-02 0.685D-02 0.429D-01 0.230D+00 0.719D+00
 Gap=     0.236 Goal=   None    Shift=    0.000
 RMSDP=3.74D-09 MaxDP=7.40D-08 DE=-2.16D-12 OVMax= 1.03D-07

 SCF Done:  E(RB3LYP) =  -288.933217233     A.U. after   12 cycles
            NFock= 12  Conv=0.37D-08     -V/T= 2.0095
 KE= 2.862133522187D+02 PE=-1.208303557521D+03 EE= 3.652681435530D+02
 Leave Link  502 at Mon Oct 14 02:25:42 2019, MaxMem= 10737418240 cpu:              42.4 elap:               1.8
 (Enter /apps/cent7/gaussian/g16-A.03/g16-haswell/g16/l701.exe)
 ... and contract with generalized density number  0.
 Compute integral first derivatives.
 Leave Link  701 at Mon Oct 14 02:25:42 2019, MaxMem= 10737418240 cpu:               2.9 elap:               0.1
 (Enter /apps/cent7/gaussian/g16-A.03/g16-haswell/g16/l702.exe)
 L702 exits ... SP integral derivatives will be done elsewhere.
 Leave Link  702 at Mon Oct 14 02:25:42 2019, MaxMem= 10737418240 cpu:               0.4 elap:               0.0
 (Enter /apps/cent7/gaussian/g16-A.03/g16-haswell/g16/l703.exe)
 Integral derivatives from FoFJK, PRISM(SPDF).
 Compute integral first derivatives, UseDBF=F ICtDFT=           0.
 Calling FoFJK, ICntrl=      2127 FMM=F ISym2X=0 I1Cent= 0 IOpClX= 0 NMat=1 NMatS=1 NMatT=0.
 FoFJK:  IHMeth= 1 ICntrl=    2127 DoSepK=F KAlg= 0 I1Cent=           0 FoldK=F
 IRaf=         0 NMat=       1 IRICut=       1 DoRegI=T DoRafI=F ISym2E= 0 IDoP0=0 IntGTp=1.
 FoFCou: FMM=F IPFlag=           0 FMFlag=      100000 FMFlg1=         800
         NFxFlg=           0 DoJE=F BraDBF=F KetDBF=F FulRan=T
         wScrn=  0.000000 ICntrl=      2127 IOpCl=  0 I1Cent=           0 NGrid=           0
         NMat0=    1 NMatS0=      1 NMatT0=    0 NMatD0=    1 NMtDS0=    0 NMtDT0=    0
 Symmetry not used in FoFCou.
 Leave Link  703 at Mon Oct 14 02:25:42 2019, MaxMem= 10737418240 cpu:              11.5 elap:               0.5
 (Enter /apps/cent7/gaussian/g16-A.03/g16-haswell/g16/l716.exe)
 Dipole        =-5.71592697D-01 1.63112870D-01-2.66886876D-01
 ***** Axes restored to original set *****
 -------------------------------------------------------------------
 Center     Atomic                   Forces (Hartrees/Bohr)
 Number     Number              X              Y              Z
 -------------------------------------------------------------------
      1        6          -0.001045523    0.003148422    0.003865229
      2        6          -0.002089233    0.008217261    0.003397288
      3        7           0.005394840   -0.018445178    0.006217403
      4        8          -0.013192668    0.009303340    0.001049768
      5        6           0.004279567   -0.004460272   -0.001602859
      6        6          -0.000849781    0.003938911   -0.005752140
      7        1          -0.001114544   -0.001332512   -0.001593392
      8        1           0.000115323    0.000901102   -0.000617793
      9        1           0.001275955   -0.001213126    0.000044820
     10        1           0.001841292    0.002199658   -0.000595433
     11        1           0.007323327   -0.002064106   -0.006130083
     12        1          -0.001250243    0.001707503    0.000774699
     13        1           0.000103164   -0.000217621   -0.001360977
     14        1          -0.001607385   -0.000652584    0.001100742
     15        1          -0.000847842   -0.000421665    0.000661369
     16        1           0.001055295   -0.001589879   -0.000252112
     17        1           0.000608456    0.000980746    0.000793468
 -------------------------------------------------------------------
 Cartesian Forces:  Max     0.018445178 RMS     0.004430935
 Leave Link  716 at Mon Oct 14 02:25:43 2019, MaxMem= 10737418240 cpu:               0.5 elap:               0.0
 (Enter /apps/cent7/gaussian/g16-A.03/g16-haswell/g16/l103.exe)

 GradGradGradGradGradGradGradGradGradGradGradGradGradGradGradGradGradGrad
 Berny optimization.
 Using GEDIIS/GDIIS optimizer.
 FormGI is forming the generalized inverse of G from B-inverse, IUseBI=4.
 Internal  Forces:  Max     0.009875219 RMS     0.002264685
 Search for a local minimum.
 Step number   2 out of a maximum of   89
 All quantities printed in internal units (Hartrees-Bohrs-Radians)
 RMS Force = .22647D-02 SwitMx=.10000D-02 MixMth= 1
 Mixed Optimization -- RFO/linear search
 Update second derivatives using D2CorX and points    1    2
 DE= -1.36D-02 DEPred=-1.28D-02 R= 1.06D+00
 TightC=F SS=  1.41D+00  RLast= 4.33D-01 DXNew= 5.0454D-01 1.3002D+00
 Trust test= 1.06D+00 RLast= 4.33D-01 DXMaxT set to 5.05D-01
 ITU=  1  0
 Use linear search instead of GDIIS.
     Eigenvalues ---    0.00228   0.00230   0.00231   0.00532   0.00791
     Eigenvalues ---    0.01605   0.04480   0.05164   0.05394   0.05423
     Eigenvalues ---    0.05477   0.05564   0.05573   0.05597   0.05738
     Eigenvalues ---    0.14741   0.15045   0.15743   0.15995   0.16000
     Eigenvalues ---    0.16000   0.16000   0.16000   0.16000   0.16000
     Eigenvalues ---    0.16000   0.16000   0.16475   0.24712   0.26697
     Eigenvalues ---    0.26863   0.27555   0.32392   0.34753   0.34804
     Eigenvalues ---    0.34806   0.34810   0.34812   0.34812   0.34814
     Eigenvalues ---    0.34818   0.34877   0.46258   0.50280   0.55691
 RFO step:  Lambda=-8.66173276D-03 EMin= 2.28324450D-03
 Quartic linear search produced a step of  0.39860.
 Iteration  1 RMS(Cart)=  0.07701882 RMS(Int)=  0.02784619
 Iteration  2 RMS(Cart)=  0.03045394 RMS(Int)=  0.00307818
 Iteration  3 RMS(Cart)=  0.00282934 RMS(Int)=  0.00088693
 Iteration  4 RMS(Cart)=  0.00001596 RMS(Int)=  0.00088687
 Iteration  5 RMS(Cart)=  0.00000000 RMS(Int)=  0.00088687
 ITry= 1 IFail=0 DXMaxC= 3.70D-01 DCOld= 1.00D+10 DXMaxT= 5.05D-01 DXLimC= 3.00D+00 Rises=F
 Variable       Old X    -DE/DX   Delta X   Delta X   Delta X     New X
                                 (Linear)    (Quad)   (Total)
    R1        2.94661  -0.00236  -0.00027  -0.01079  -0.01106   2.93555
    R2        2.06687   0.00119   0.00280   0.00268   0.00549   2.07236
    R3        2.07362   0.00065   0.00555  -0.00083   0.00472   2.07834
    R4        2.06628   0.00094   0.00252   0.00194   0.00447   2.07074
    R5        2.75175  -0.00807  -0.02373  -0.01638  -0.04011   2.71163
    R6        2.94199  -0.00149  -0.00346  -0.00494  -0.00839   2.93359
    R7        2.92810  -0.00499  -0.00679  -0.01915  -0.02594   2.90216
    R8        2.65559   0.00988   0.03475   0.00374   0.03849   2.69409
    R9        1.89178   0.00156  -0.00668   0.00808   0.00140   1.89318
   R10        1.82549   0.00549   0.00455   0.00994   0.01448   1.83997
   R11        2.06475   0.00123   0.00198   0.00330   0.00528   2.07003
   R12        2.06672   0.00047   0.00270   0.00016   0.00287   2.06959
   R13        2.07099   0.00065   0.00449  -0.00024   0.00425   2.07525
   R14        2.06577   0.00042   0.00237   0.00017   0.00254   2.06831
   R15        2.07133   0.00057   0.00457  -0.00055   0.00402   2.07535
   R16        2.06636   0.00063   0.00262   0.00076   0.00338   2.06974
    A1        1.92459   0.00165   0.00556   0.00980   0.01525   1.93984
    A2        1.95689  -0.00080   0.01842  -0.01867  -0.00036   1.95653
    A3        1.91621   0.00091   0.00222   0.00703   0.00909   1.92530
    A4        1.86907  -0.00077  -0.01658   0.00116  -0.01548   1.85358
    A5        1.90133  -0.00093  -0.00369  -0.00120  -0.00503   1.89630
    A6        1.89435  -0.00014  -0.00648   0.00194  -0.00469   1.88966
    A7        1.92813   0.00090   0.00486   0.00440   0.00922   1.93735
    A8        1.91868  -0.00170  -0.00877  -0.00792  -0.01675   1.90193
    A9        1.91540   0.00054   0.00351  -0.00001   0.00362   1.91902
   A10        1.91924   0.00080  -0.00484   0.01154   0.00679   1.92604
   A11        1.84763  -0.00154  -0.00523  -0.00986  -0.01510   1.83253
   A12        1.93378   0.00106   0.01083   0.00200   0.01288   1.94666
   A13        2.12130  -0.00082   0.05669  -0.03893   0.01355   2.13485
   A14        2.19175   0.00227  -0.01157   0.02093   0.00490   2.19664
   A15        1.96911  -0.00154  -0.04553   0.01153  -0.03818   1.93094
   A16        1.82890  -0.00057  -0.03258   0.01475  -0.01783   1.81107
   A17        1.93505   0.00096   0.00976   0.00210   0.01161   1.94666
   A18        1.91313  -0.00111   0.00100  -0.01157  -0.01052   1.90261
[...]
   zz         0.557891D+02      0.826709D+01      0.919838D+01

 ----------------------------------------------------------------------
 1\1\GINC-BROWN-A117\Freq\RB3LYP\6-31G(d)\C4H11N1O1\FINEJ\14-Oct-2019\0
 \\#P Geom=AllCheck Guess=TCheck SCRF=Check GenChk RB3LYP/6-31G(d) Freq
 \\Title Card Required\\0,1\C,1.996981773,-0.7895503668,-1.312029047\C,
 1.5162944916,-0.0697275195,-0.044547069\N,2.0386996239,1.3208572916,-0
 .0832521617\O,1.379491019,2.0503950997,-1.1483787589\C,-0.019702489,-0
 .1147098947,0.0536932561\C,2.1556008159,-0.6989447457,1.203347919\H,1.
 6854390047,-1.8398436679,-1.3025088518\H,1.5757473583,-0.3171380437,-2
 .2047077291\H,3.0898211841,-0.7529970016,-1.3826247811\H,1.6891252987,
 1.7961748655,0.7526262073\H,2.1291954858,2.3116544532,-1.7047302924\H,
 -0.3662277278,0.3680557918,0.976776177\H,-0.4731139058,0.4057525165,-0
 .794355334\H,-0.3830486563,-1.1490560206,0.0611899815\H,1.8539489203,-
 1.7476082385,1.2979883582\H,3.2481189807,-0.6542679268,1.1463378039\H,
 1.8387288231,-0.1801465925,2.1174743219\\Version=ES64L-G16RevA.03\Stat
 e=1-A\HF=-288.9677794\RMSD=3.164e-09\RMSF=5.069e-05\ZeroPoint=0.153534
 9\Thermal=0.1535349\Dipole=0.1383348,-0.1468747,0.1019902\DipoleDeriv=
 0.0557247,0.0134889,0.0259231,0.0109711,0.0439316,-0.0064604,0.0075086
 ,-0.0403775,-0.0176531,0.351696,0.0210934,-0.0194005,0.0628689,0.41146
 7,-0.0157465,-0.0135106,0.0290127,0.205987,-0.3963983,-0.2661104,0.053
 2928,-0.1698702,-0.0650208,-0.1610878,0.0154851,-0.1463641,0.1156126,-
 0.1637013,0.1613005,-0.2110855,0.0357928,-0.6673499,0.1615812,-0.06890
 99,0.1684922,-0.5088588,-0.080928,-0.0379775,-0.0131383,0.0285079,0.02
 19787,0.0319254,-0.0191986,0.0161397,0.0551055,0.0506137,-0.0002689,-0
 .027155,0.0165388,0.0139016,0.0519971,-0.0265276,0.0391158,0.0419835,0
 .0391945,-0.0671691,0.0065994,-0.0458943,-0.1407612,-0.0208185,0.01776
 75,0.013876,0.0497167,0.0293813,0.0339984,-0.0574611,0.0321765,0.04968
 9,0.0781991,-0.0422606,0.046626,-0.0947037,-0.1603385,0.0149136,0.0436
 412,-0.01248,0.0588911,-0.0098006,0.0119986,-0.0099392,0.0358614,0.188
 7928,0.1366566,0.1221398,0.0452167,0.0923623,-0.0151093,0.0408664,-0.0
 531469,-0.0088684,0.1425758,0.0005939,0.044543,0.0077855,0.3273458,0.0
 129764,0.028883,0.0151959,0.2536244,-0.0035357,0.0182803,0.0368326,0.0
 356062,0.005815,-0.0959903,0.0862074,-0.0892142,-0.1103978,0.0124509,0
 .0406125,-0.0529255,0.0548498,0.0488272,0.0503784,-0.0750789,0.0567481
 ,-0.0412894,0.0089701,-0.0644407,0.0112821,-0.0897765,-0.1430245,0.005
 0864,0.0082554,-0.0000909,0.0626998,0.043869,-0.06249,-0.0004009,-0.04
 0298,-0.1282717,0.0398544,-0.0128155,0.0123112,0.0407319,-0.1479851,0.
 0114022,-0.0195151,-0.0107055,0.0702327,0.0009098,0.0132351,0.0067462,
 0.0415393,0.0296181,0.0461162,0.0568281,0.0387105,-0.0000138,-0.107894
 9,0.0280947,-0.0651307,-0.1210911\Polar=51.2311629,-0.0339829,55.84530
 68,-0.8134052,-3.3759252,56.4083313\Quadrupole=-1.5058444,0.0545629,1.
 4512815,1.1978388,-1.4744373,-0.3010797\PG=C01 [X(C4H11N1O1)]\NImag=0\
 \0.57812821,0.01932317,0.56493362,0.03254547,-0.04408839,0.50805585,-0
 .09102891,0.01505457,0.02765005,0.49391748,0.01650056,-0.09524027,-0.0
 3847681,-0.01694033,0.47007444,0.03023934,-0.03341328,-0.15030404,0.00
 882640,0.01576525,0.52857834,0.00432093,0.00573094,-0.00036325,-0.0891
 0847,-0.00997882,-0.00352997,0.25922558,-0.00507602,-0.03142837,-0.007
 98333,-0.07121291,-0.14615310,-0.01431909,-0.03552438,0.44073055,-0.01
 082784,-0.03513589,0.00027637,-0.00557043,-0.01911724,-0.08646479,-0.0
 6103864,0.08634048,0.54264063,0.00039578,0.00052936,-0.00115981,0.0016
 9834,-0.00469389,0.00981777,-0.09161934,0.02670625,-0.04761350,0.42504
 179,-0.00051780,-0.00013275,-0.00143124,0.02686230,-0.01772273,0.03468
 369,0.02631133,-0.08457759,0.04910359,0.05970123,0.14783505,-0.0001238
 2,-0.00178179,-0.00196432,-0.00642038,0.01188107,-0.01503218,-0.039339
 89,0.05011043,-0.15021856,-0.15735228,-0.16831594,0.35340900,-0.016374
 52,0.00415712,0.00675967,-0.16965731,0.00490492,0.00446706,-0.01703879
 ,-0.01470445,0.00286215,-0.00055058,-0.00066552,-0.00031848,0.46115816
 ,0.01636154,0.00189154,-0.00170534,0.00820481,-0.07802280,-0.00025210,
 -0.04550696,-0.01848931,0.00179576,0.00048810,0.00221232,0.00054292,-0
 .00492694,0.58696251,0.03044457,-0.00176114,-0.00423954,0.00716653,-0.
 00007429,-0.08155701,0.00134817,0.00077654,0.00201173,0.00138820,-0.00
 072121,0.00081838,0.01119103,-0.00412968,0.58584486,0.00424410,-0.0047
 2633,0.00632508,-0.09697228,0.01693844,-0.03476618,0.00427984,0.000483
 80,0.00567706,0.00064684,-0.00502469,0.00310551,-0.02091154,0.01625063
 ,-0.02922661,0.56847966,-0.00635204,0.00819719,-0.01190972,0.01604777,
 -0.09348845,0.02732172,0.01212927,-0.02225293,0.03306832,-0.00132216,-
 0.00892627,0.00473812,0.00316759,0.00175467,0.00034658,0.02206431,0.56
 756824,-0.00994309,0.00962048,-0.03220084,-0.03485281,0.03231201,-0.14
 263526,-0.00189074,0.01126213,-0.00832453,0.00139089,-0.00191773,0.003
 05959,-0.00434723,-0.00054673,0.00009826,-0.04040297,0.03344791,0.5026
 2294,-0.07162013,-0.07351045,0.00153991,0.00160928,0.00988656,-0.00137
 773,-0.00010067,0.00093663,0.00114134,0.00015535,0.00026503,0.00044867
 ,0.00013789,0.00045391,-0.00007459,-0.00006283,-0.00034227,-0.00032945
 ,0.07296021,-0.07202365,-0.29108366,0.00356038,-0.00575068,-0.01374387
 ,0.00321130,0.00143448,-0.00096104,-0.00342013,-0.00012192,-0.00020784
 ,-0.00062482,-0.00076363,-0.00011117,0.00059013,-0.00009073,0.00024051
 ,0.00116426,0.08031886,0.31643387,0.00220515,0.00551967,-0.04893704,-0
 .00971471,-0.02555554,0.00182310,0.00125341,-0.00281874,-0.00689983,0.
 00018897,0.00115403,0.00140887,-0.00058306,0.00017388,0.00064401,-0.00
 046339,-0.00070550,0.00142281,-0.00289617,-0.00371104,0.05124457,-0.09
 174362,0.04523667,-0.08508679,0.00335923,-0.00601601,0.00881492,-0.000
 00020,-0.00012244,-0.00098181,-0.00011853,0.00089542,0.00091279,0.0008
 2335,-0.00073858,0.00053699,-0.00049047,0.00097289,0.00143628,0.003838
 70,-0.00416463,0.00969831,0.09478147,0.04525790,-0.09964326,0.09656384
 ,-0.00688406,0.00788245,-0.01317551,-0.00062193,0.00079564,0.00038067,
 0.00025541,-0.00164915,0.00003307,-0.00055076,0.00023914,0.00033003,0.
 00087300,-0.00180589,-0.00201889,0.01355504,-0.01268864,0.02587119,-0.
 05096826,0.10586103,-0.08350823,0.09455548,-0.22340634,-0.01165586,0.0
 1304971,-0.02308848,-0.00045582,0.00181089,-0.00071691,0.00065226,0.00
 127486,0.00275124,-0.00133384,0.00057793,0.00084812,0.00279815,-0.0043
 4566,-0.00373735,0.00088227,-0.00019639,0.00080095,0.09143534,-0.10414
 391,0.24410961,-0.31156113,-0.00984695,0.01411341,-0.01200453,-0.00108
 360,0.00011700,0.00117091,-0.00069028,-0.00094982,0.00000963,0.0003704
 5,-0.00015468,0.00083392,0.00161045,0.00281058,0.00027994,-0.00023361,
 -0.00103783,-0.00735541,-0.00007517,0.00002168,-0.01114537,-0.00112523
 ,0.00091491,0.33874266,-0.01100432,-0.04984686,0.00159869,0.01628661,-
 0.00059525,-0.00043168,0.00060094,0.00121803,0.00081720,-0.00021729,-0
 .00032739,0.00010103,0.00026255,-0.00160889,-0.00267749,-0.00020693,0.
 00009132,0.00070243,-0.03232846,0.00082297,0.00158427,0.01532869,0.000
 63642,-0.00188308,0.01076981,0.04864504,0.01174737,0.00103240,-0.05044
 434,0.02926918,0.00241305,-0.00225968,-0.00067864,0.00130243,0.0015814
 1,-0.00001966,0.00026261,0.00005182,0.00056850,-0.00301064,-0.00481934
 ,0.00148540,0.00019895,0.00133732,0.00078463,0.00023994,-0.00115666,-0
 .02716956,-0.00295404,0.00301032,-0.01646148,0.00049820,0.05290421,-0.
 00023723,-0.00059106,-0.00002241,-0.00128027,-0.01701239,-0.01166473,-
 0.07986515,0.08595092,0.14348861,0.00195372,-0.00490531,-0.03034349,0.
 00139735,-0.00060677,-0.00230819,0.00020063,0.00124616,0.00017655,0.00
 069321,0.00015577,-0.00012819,-0.00005977,0.00007308,-0.00006565,0.000
 39484,-0.00033213,-0.00021211,0.07752461,-0.00352702,-0.00725449,0.002
 24649,0.01530051,-0.02050564,-0.03312327,0.05665819,-0.13234430,-0.135
 28707,-0.00422574,0.00383843,0.03045287,0.00087658,0.00176855,-0.00046
 557,0.00062424,0.00069533,-0.00156520,0.00058037,-0.00112155,-0.002121
 68,-0.00014276,0.00025545,0.00010151,0.00000712,0.00023487,0.00039302,
 -0.06610704,0.15386611,-0.00053004,-0.00005203,0.00141012,0.00594161,-
 0.00039079,-0.00122883,0.08904758,-0.13557502,-0.26517835,0.00862927,0
 .00283000,-0.03336552,-0.00014797,0.00156676,0.00041095,-0.00016847,0.
 00054030,0.00165208,-0.00003333,0.00002731,0.00006990,0.00001975,0.000
 18413,-0.00001373,-0.00000902,0.00005644,0.00005918,-0.09826788,0.1314
 6844,0.30098657,0.00063036,-0.00011325,0.00060093,-0.00138299,0.000408
 36,-0.00270585,0.01542474,0.01439464,-0.02556260,-0.34125869,-0.104096
 91,0.22966573,-0.00056671,-0.00009620,-0.00051822,0.00059298,0.0009486
 2,0.00001513,-0.00021775,0.00008087,-0.00005239,-0.00009878,-0.0000032
 7,-0.00012141,-0.00022447,0.00019666,-0.00007669,-0.00041821,0.0013141
 6,-0.00400609,0.32708649,0.00030434,0.00028061,0.00091395,-0.00086157,
 -0.00263800,0.00589451,-0.01396568,-0.01059274,0.01554709,-0.07404714,
 -0.03885964,0.07392206,0.00040799,-0.00004220,-0.00006532,-0.00022071,
 -0.00127912,-0.00032339,0.00005356,0.00036214,-0.00050050,-0.00071094,
 -0.00062980,-0.00075696,0.00036149,-0.00029947,-0.00000121,0.00126568,
 -0.00026807,-0.00031085,0.08673993,0.05407233,0.00031175,-0.00020505,0
 .00057499,-0.00142272,0.00106198,-0.00233927,0.01896585,0.01033438,-0.
 02500987,0.18191326,0.07941118,-0.16075903,-0.00060863,-0.00119450,-0.
 00029154,0.00029258,0.00045367,-0.00017916,-0.00002367,0.00005692,-0.0
 0020133,-0.00031437,-0.00012885,-0.00003793,0.00008864,-0.00001101,0.0
 0004730,-0.00098848,0.00476590,-0.00512240,-0.19792400,-0.09469088,0.1
 9284254,-0.00697406,-0.00117158,-0.00104158,-0.01048264,0.01630398,0.0
 2937663,0.00273558,0.00155577,-0.00022298,-0.00020325,-0.00006546,-0.0
 0003984,-0.07239769,0.03353141,0.06482310,0.00147663,0.00000356,0.0016
 6587,0.00014330,0.00012264,-0.00029500,0.00009184,-0.00021261,-0.00004
 229,-0.00078609,0.00107319,0.00200023,-0.00012290,-0.00119091,-0.00073
 204,-0.00002030,0.00004899,0.00005615,0.07911976,0.00032241,0.00039294
 ,0.00053205,-0.00106986,-0.00188300,0.00094158,0.00004898,0.00135728,0
 .00119287,-0.00014106,-0.00018373,-0.00011509,0.03448319,-0.09970182,-
 0.09552662,-0.00006399,-0.00013272,-0.00048810,-0.00013759,0.00045073,
 0.00023654,-0.00006080,-0.00004282,-0.00022738,0.00012105,0.00047934,-
 0.00028280,0.00004732,0.00018201,-0.00027479,0.00004544,-0.00008736,0.
 00002160,-0.03800576,0.10350443,0.00109608,0.00063693,0.00114942,-0.00
 010469,-0.00106642,-0.00296277,-0.00028547,0.00036100,0.00048092,0.000
 21248,0.00059706,-0.00001265,0.06550662,-0.09620388,-0.23343009,-0.000
 76217,0.00046430,0.00052821,-0.00019177,-0.00001334,0.00003183,-0.0002
 4421,0.00000132,0.00037778,0.00023671,-0.00032427,-0.00001227,0.000761
 18,0.00058724,0.00019741,-0.00002797,0.00000501,0.00003054,-0.07317811
 ,0.10694724,0.25197564,0.00125020,-0.00020749,-0.00135993,-0.01341884,
 0.01723182,-0.02740255,0.00160458,0.00162603,-0.00100966,0.00072240,-0
 .00097135,0.00102757,-0.09265551,0.05211806,-0.08430611,-0.00682242,-0
 .00129968,0.00199069,-0.00004109,-0.00005794,0.00007746,-0.00015457,0.
 00020334,0.00105621,0.00025576,-0.00033981,0.00011202,-0.00022023,-0.0
 0020317,-0.00006874,0.00044237,0.00014810,0.00029116,0.00420597,-0.005
 99053,0.00796782,0.10097483,-0.00001151,-0.00025347,0.00043832,-0.0004
 4181,0.00055532,-0.00170370,0.00067217,-0.00003430,-0.00003353,-0.0014
 8153,-0.00134489,-0.00012526,0.05396581,-0.11169054,0.10041471,-0.0002
 0791,0.00010101,-0.00027699,0.00011761,-0.00006914,0.00009276,0.000284
 55,0.00025393,-0.00030708,-0.00012167,0.00005410,-0.00019130,-0.000002
 04,-0.00001411,-0.00012794,0.00007985,0.00007713,0.00013697,-0.0076324
 4,0.00818696,-0.01286490,-0.05825893,0.11698000,0.00033735,-0.00037049
 ,0.00071818,0.00029915,-0.00267690,0.00168434,-0.00090255,0.00060234,-
 0.00073786,0.00155648,0.00071255,-0.00025154,-0.08601640,0.09934380,-0
 .21414419,-0.00008322,-0.00018248,0.00062790,0.00000445,-0.00003389,-0
 .00000413,0.00014001,0.00005252,0.00020676,-0.00012431,-0.00003700,0.0
 0009089,-0.00015175,0.00010147,-0.00014634,0.00050146,0.00009199,0.000
 17719,-0.01092832,0.01355729,-0.02023075,0.09325233,-0.11045997,0.2300
 6559,0.00116680,-0.00062611,-0.00035245,-0.00665275,-0.03196961,-0.000
 28949,-0.01046376,-0.00278586,0.00013665,0.00149092,0.00102067,-0.0000
 9849,-0.07577185,-0.07871008,0.00089458,0.00134865,-0.00069446,0.00034
 570,-0.00028313,0.00074498,0.00053296,-0.00005524,0.00004388,0.0000454
 9,0.00032986,0.00021219,-0.00034514,0.00011007,0.00058890,0.00024666,0
 .00023456,0.00004784,-0.00029597,0.00311871,0.01008775,-0.00110576,0.0
 0460562,0.01335426,0.00167682,0.08096362,0.00044578,-0.00019673,-0.000
 26566,0.00120418,-0.00123315,-0.00010527,-0.00090333,0.00099930,0.0006
 2606,-0.00027314,0.00025089,-0.00030082,-0.07997388,-0.28413117,0.0016
 6986,0.00028031,-0.00000220,0.00012724,0.00015201,0.00069963,0.0000921
 6,-0.00005676,-0.00008271,-0.00006666,-0.00005313,0.00030705,0.0000850
 3,0.00041689,0.00040665,0.00031057,-0.00008457,0.00004334,-0.00014686,
 -0.00392027,-0.01271478,0.00068751,-0.00468442,-0.01361117,-0.00107967
 ,0.08763591,0.30848059,0.00021311,0.00043482,0.00003752,-0.00006962,0.
 00158731,-0.00176247,-0.00024730,0.00065389,0.00013973,0.00052352,-0.0
 0003200,0.00022116,0.00055439,0.00114956,-0.04904472,-0.00013315,-0.00
 045167,-0.00010682,0.00040756,-0.00021523,0.00004714,0.00006473,0.0001
 5288,-0.00005532,-0.00018153,-0.00007560,-0.00006260,0.00029600,0.0003
 4795,0.00022323,0.00026161,0.00005290,0.00017174,-0.01019341,-0.027086
 96,0.00101898,0.00989790,0.02472858,0.00132726,-0.00108545,-0.00143060
 ,0.04776875,0.00006753,-0.00026832,0.00047763,0.00308583,0.01437253,-0
 .00014070,-0.00134671,-0.00017090,-0.00127368,0.00101729,0.00107826,-0
 .00087666,0.00043347,0.00044388,0.00028472,-0.06964767,-0.07194563,0.0
 0599883,0.00027368,-0.00005064,0.00007226,-0.00013252,0.00014619,0.000
 17822,-0.00003632,-0.00016375,-0.00001532,-0.00025280,-0.00038643,-0.0
 0016175,-0.00018635,0.00032663,-0.00026500,-0.00007742,0.00007764,0.00
 001341,0.00021452,-0.00012603,0.00015899,-0.00031385,-0.00004150,-0.00
 035439,0.07149347,-0.00020359,0.00033605,-0.00101067,-0.00501552,-0.01
 315287,-0.00094402,0.00186150,0.00040283,0.00296897,-0.00024682,-0.000
 87085,0.00062282,-0.00061423,0.00009783,-0.00066082,-0.07096563,-0.292
 19850,0.02027591,-0.00001053,0.00069662,0.00043360,0.00020241,0.000241
 11,-0.00003281,0.00006275,-0.00000647,0.00002875,-0.00009898,0.0005943
 2,-0.00025703,0.00025859,-0.00015236,-0.00000430,0.00004445,-0.0000642
 5,0.00008600,0.00004065,0.00035284,0.00002674,0.00070194,0.00054990,0.
 00017833,0.07836644,0.31674869,0.00060324,0.00079746,0.00129090,0.0095
 4768,0.02646812,-0.00150202,-0.00209278,-0.00033812,-0.00472553,-0.000
 35391,0.00270058,-0.00115432,0.00074871,-0.00025038,0.00075811,0.00550
 849,0.01889797,-0.04889719,-0.00020718,-0.00054458,-0.00051506,-0.0001
 1364,-0.00020783,0.00038211,0.00003876,0.00000133,-0.00009947,-0.00041
 110,0.00030771,0.00010792,-0.00019194,0.00027382,0.00004896,-0.0001027
 2,-0.00014752,-0.00002459,0.00033422,-0.00019195,-0.00006643,-0.000528
 12,-0.00021292,0.00012515,-0.00471461,-0.02270970,0.05238487,0.0003416
 8,-0.00019059,0.00118388,-0.01476823,-0.00083644,0.00137472,0.00066270
 ,-0.00090922,0.00135616,0.00081056,-0.00003639,-0.00010823,0.00005395,
 0.00204336,-0.00368952,-0.31345627,-0.01156152,0.01652943,-0.00000885,
 0.00005328,-0.00005975,0.00037214,0.00010335,-0.00002859,0.00072267,-0
 .00018543,-0.00066290,-0.00032403,-0.00011941,-0.00015072,-0.00002939,
 0.00014912,-0.00009798,0.00037126,-0.00010263,0.00009062,-0.00108819,-
 0.00021596,0.00006141,0.00028109,-0.00010813,0.00014439,-0.00700938,-0
 .00007051,0.00067671,0.34085517,-0.00043708,-0.00002310,-0.00060928,0.
 01407586,-0.00020486,-0.00174281,0.00110598,0.00037825,-0.00012573,-0.
 00067110,0.00025021,-0.00050679,0.00050672,-0.00131251,0.00213962,-0.0
 1269591,-0.04979989,0.00002504,-0.00015709,-0.00000977,-0.00000474,0.0
 0005100,-0.00014433,-0.00007328,-0.00013215,0.00035495,-0.00001776,0.0
 0024231,-0.00004655,0.00001099,-0.00002921,-0.00001700,0.00012816,-0.0
 0032541,0.00002378,0.00014216,0.00089409,0.00044245,0.00027408,0.00026
 712,0.00023461,0.00009510,-0.03231516,0.00069363,0.00205011,0.01256771
 ,0.04865313,-0.00128613,-0.00007707,0.00161462,-0.02820852,-0.00263886
 ,0.00187908,0.00003484,-0.00076856,0.00078841,0.00046272,-0.00056550,0
 .00013642,-0.00105437,0.00274278,-0.00462044,0.01834206,-0.00003021,-0
 .05116235,0.00002947,-0.00003544,-0.00011162,0.00030078,0.00009324,0.0
 0024802,0.00055808,-0.00002781,-0.00056850,0.00022621,0.00010558,-0.00
 004762,0.00004708,0.00012711,-0.00001467,-0.00010942,0.00029316,0.0002
 3166,-0.00188383,0.00014188,0.00030943,0.00025737,-0.00008595,-0.00007
 344,0.00203559,-0.00031963,-0.00119467,-0.01717282,-0.00154984,0.05339
 248,-0.00100597,0.00122029,-0.00180983,0.00308704,-0.00801607,-0.01115
 662,0.00011821,-0.00045757,0.00038898,-0.00019222,-0.00022125,0.000015
 97,0.00108639,-0.00092061,-0.00076523,-0.07318577,0.03717120,0.0632547
 6,-0.00012176,0.00018811,0.00014246,0.00073233,-0.00014507,-0.00075116
 ,0.00037312,0.00004748,-0.00032584,0.00050615,-0.00004761,0.00039117,-
 0.00000786,-0.00004764,0.00002142,-0.00019869,0.00033842,0.00001525,0.
 00012459,0.00002557,0.00021810,-0.00010932,-0.00003596,-0.00009836,0.0
 0241721,-0.00431292,-0.00874180,-0.00778687,0.01705233,0.02742090,0.07
 416342,0.00063733,-0.00092898,0.00162672,-0.00485985,0.00607179,0.0113
 9270,-0.00005268,0.00095182,0.00127858,-0.00023856,0.00041590,-0.00063
 388,-0.00053304,0.00018386,-0.00018535,0.03668809,-0.10876227,-0.10180
 037,0.00016681,0.00029022,0.00025961,0.00000953,0.00052144,0.00066283,
 0.00005868,-0.00015976,0.00000337,0.00025758,-0.00028700,-0.00000650,-
 0.00004371,0.00003021,0.00001070,-0.00015955,0.00023301,-0.00004296,-0
 .00024877,0.00001388,0.00007761,0.00008068,-0.00000004,-0.00008929,0.0
 1065678,-0.01426851,-0.02689409,-0.00058060,0.00052700,0.00259511,-0.0
 4183871,0.11516744,-0.00352429,0.00428788,-0.00363151,0.00931914,-0.01
 454164,-0.02282806,0.00017519,-0.00175165,0.00035702,-0.00023666,0.000
 25347,0.00090163,0.00175185,-0.00060014,0.00071244,0.06247184,-0.10185
 261,-0.22410561,-0.00010441,-0.00005539,0.00033249,0.00055048,-0.00103
 387,-0.00167886,0.00001889,0.00010835,0.00034041,-0.00038456,0.0016845
 9,-0.00001458,0.00009520,-0.00017934,0.00006194,-0.00103625,0.00042693
 ,0.00065073,0.00002344,0.00032940,0.00037372,-0.00003537,0.00009599,0.
 00002471,-0.00141752,0.00131786,0.00308125,0.00055320,-0.00023502,-0.0
 0080681,-0.06822016,0.11174519,0.24622909\\0.,-0.00000335,0.00006827,-
 0.00003372,0.00001921,0.00005591,-0.00006087,0.00012571,-0.00019455,0.
 00008501,-0.00015514,0.00015876,0.00001970,-0.00002249,-0.00001231,-0.
 00002887,0.00002191,-0.00002719,-0.00000412,-0.00000268,-0.00002203,-0
 .00001002,0.00000481,-0.00003878,-0.00000223,0.00000648,-0.00001333,-0
 .00000519,-0.00001578,0.00001475,0.00000534,0.00000671,0.00000565,-0.0
 0001885,0.00000033,0.00000362,0.00000399,0.00001447,0.00000064,0.00001
 901,0.00001149,-0.00000072,0.00001106,0.00000142,-0.00000374,0.0000188
 9,-0.00001393,0.00000434,0.00000086,0.00000084,0.00000074\\\@


 LOGIC IS A SYSTEMATIC METHOD OF COMING TO THE
 WRONG CONCLUSION WITH CONFIDENCE.
 Job cpu time:       0 days  0 hours  5 minutes 12.4 seconds.
 Elapsed time:       0 days  0 hours  0 minutes 13.6 seconds.
 File lengths (MBytes):  RWF=     30 Int=      0 D2E=      0 Chk=      2 Scr=      1
 Normal termination of Gaussian 16 at Mon Oct 14 02:26:32 2019.
real 57.76
user 1223.45
sys 15.27
Machine:
brown-a117
brown-a117
brown-a117
brown-a117
brown-a117
brown-a117
brown-a117
brown-a117
brown-a117
brown-a117
brown-a117
brown-a117
brown-a117
brown-a117
brown-a117
brown-a117
brown-a117
brown-a117
brown-a117
brown-a117
brown-a117
brown-a117
brown-a117
brown-a117
