Title Card Required                                                     
Freq      RB3LYP                                                      6-31G(d)            
Number of atoms                            I               18
Info1-9                                    I   N=           9
          46          46        1002           0           0         100
           6          18        -502
Full Title                                 C   N=           2
Title Card Required     
Route                                      C   N=           6
#P opt freq b3lyp/6-31g(d) geom=connectivity temperature=0.0
01          
Charge                                     I                1
Multiplicity                               I                1
Number of electrons                        I               50
Number of alpha electrons                  I               25
Number of beta electrons                   I               25
Number of basis functions                  I              114
Number of independent functions            I              114
Number of point charges in /Mol/           I                0
Number of translation vectors              I                0
Atomic numbers                             I   N=          18
           6           6           7           8           6           6
           1           1           1           1           1           1
           1           1           1           1           1           1
Nuclear charges                            R   N=          18
  6.00000000E+00  6.00000000E+00  7.00000000E+00  8.00000000E+00  6.00000000E+00
  6.00000000E+00  1.00000000E+00  1.00000000E+00  1.00000000E+00  1.00000000E+00
  1.00000000E+00  1.00000000E+00  1.00000000E+00  1.00000000E+00  1.00000000E+00
  1.00000000E+00  1.00000000E+00  1.00000000E+00
Current cartesian coordinates              R   N=          54
 -7.78131509E-01  2.92044375E+00 -4.57993617E-01 -8.76906023E-01  8.17453228E-02
  8.51265558E-02  1.58691366E+00 -1.09439896E+00 -1.01310944E+00  3.89044391E+00
 -2.21455722E-01  7.78691967E-03 -9.12820588E-01 -5.24866620E-01  2.90859010E+00
 -3.00397858E+00 -1.23829425E+00 -1.37367426E+00 -2.56966014E+00  3.76507210E+00
  1.31444108E-01  7.03870630E-01  3.88320073E+00  6.21274602E-01 -5.49618914E-01
  3.32981580E+00 -2.47702701E+00  1.63368749E+00 -2.99427889E+00 -6.13691996E-01
  3.95928783E+00  1.58682782E+00 -3.71454164E-01 -9.82984848E-01 -2.56574431E+00
  3.25342106E+00  7.27741675E-01  2.62791749E-01  3.88550639E+00 -2.61272847E+00
  3.04095002E-01  3.74145621E+00 -4.81582609E+00 -5.35740779E-01 -6.70113273E-01
 -2.93526548E+00 -8.35502054E-01 -3.40488036E+00 -2.99127752E+00 -3.28955867E+00
 -1.08582042E+00  1.63184714E+00 -9.12709264E-01 -2.95293710E+00
Number of symbols in /Mol/                 I                0
Force Field                                I                0
Atom Types                                 C   N=          18
                                                            
                                                            
                                                            
                                    
Int Atom Types                             I   N=          18
           0           0           0           0           0           0
           0           0           0           0           0           0
           0           0           0           0           0           0
MM charges                                 R   N=          18
  0.00000000E+00  0.00000000E+00  0.00000000E+00  0.00000000E+00  0.00000000E+00
  0.00000000E+00  0.00000000E+00  0.00000000E+00  0.00000000E+00  0.00000000E+00
  0.00000000E+00  0.00000000E+00  0.00000000E+00  0.00000000E+00  0.00000000E+00
  0.00000000E+00  0.00000000E+00  0.00000000E+00
Integer atomic weights                     I   N=          18
          12          12          14          16          12          12
           1           1           1           1           1           1
           1           1           1           1           1           1
Real atomic weights                        R   N=          18
  1.20000000E+01  1.20000000E+01  1.40030740E+01  1.59949146E+01  1.20000000E+01
  1.20000000E+01  1.00782504E+00  1.00782504E+00  1.00782504E+00  1.00782504E+00
  1.00782504E+00  1.00782504E+00  1.00782504E+00  1.00782504E+00  1.00782504E+00
  1.00782504E+00  1.00782504E+00  1.00782504E+00
Atom fragment info                         I   N=          18
           0           0           0           0           0           0
           0           0           0           0           0           0
           0           0           0           0           0           0
Atom residue num                           I   N=          18
           0           0           0           0           0           0
           0           0           0           0           0           0
           0           0           0           0           0           0
Nuclear spins                              I   N=          18
           0           0           2           0           0           0
           1           1           1           1           1           1
           1           1           1           1           1           1
Nuclear ZEff                               R   N=          18
 -3.60000000E+00 -3.60000000E+00 -4.55000000E+00 -5.60000000E+00 -3.60000000E+00
 -3.60000000E+00 -1.00000000E+00 -1.00000000E+00 -1.00000000E+00 -1.00000000E+00
 -1.00000000E+00 -1.00000000E+00 -1.00000000E+00 -1.00000000E+00 -1.00000000E+00
 -1.00000000E+00 -1.00000000E+00 -1.00000000E+00
Nuclear ZNuc                               R   N=          18
  6.00000000E+00  6.00000000E+00  7.00000000E+00  8.00000000E+00  6.00000000E+00
  6.00000000E+00  1.00000000E+00  1.00000000E+00  1.00000000E+00  1.00000000E+00
  1.00000000E+00  1.00000000E+00  1.00000000E+00  1.00000000E+00  1.00000000E+00
  1.00000000E+00  1.00000000E+00  1.00000000E+00
Nuclear QMom                               R   N=          18
  0.00000000E+00  0.00000000E+00  2.04400000E+00  0.00000000E+00  0.00000000E+00
  0.00000000E+00  0.00000000E+00  0.00000000E+00  0.00000000E+00  0.00000000E+00
  0.00000000E+00  0.00000000E+00  0.00000000E+00  0.00000000E+00  0.00000000E+00
  0.00000000E+00  0.00000000E+00  0.00000000E+00
Nuclear GFac                               R   N=          18
  0.00000000E+00  0.00000000E+00  4.03761000E-01  0.00000000E+00  0.00000000E+00
  0.00000000E+00  2.79284600E+00  2.79284600E+00  2.79284600E+00  2.79284600E+00
  2.79284600E+00  2.79284600E+00  2.79284600E+00  2.79284600E+00  2.79284600E+00
  2.79284600E+00  2.79284600E+00  2.79284600E+00
MicOpt                                     I   N=          18
          -1          -1          -1          -1          -1          -1
          -1          -1          -1          -1          -1          -1
          -1          -1          -1          -1          -1          -1
Number of residues                         I                0
Number of secondary structures             I                0
Redundant internal dimensions              I   N=           4
          87          17          31          39
Redundant internal coordinate indices      I   N=         348
           1           2           0           0           1           7
           0           0           1           8           0           0
           1           9           0           0           2           3
           0           0           2           5           0           0
           2           6           0           0           3           4
           0           0           3          10           0           0
           3          18           0           0           4          11
           0           0           5          12           0           0
           5          13           0           0           5          14
           0           0           6          15           0           0
           6          16           0           0           6          17
           0           0           2           1           7           0
           2           1           8           0           2           1
           9           0           7           1           8           0
           7           1           9           0           8           1
           9           0           1           2           3           0
           1           2           5           0           1           2
           6           0           3           2           5           0
           3           2           6           0           5           2
           6           0           2           3           4           0
           2           3          10           0           2           3
          18           0           4           3          10           0
           4           3          18           0          10           3
          18           0           3           4          11           0
           2           5          12           0           2           5
          13           0           2           5          14           0
          12           5          13           0          12           5
          14           0          13           5          14           0
           2           6          15           0           2           6
          16           0           2           6          17           0
          15           6          16           0          15           6
          17           0          16           6          17           0
           7           1           2           3           7           1
           2           5           7           1           2           6
           8           1           2           3           8           1
           2           5           8           1           2           6
           9           1           2           3           9           1
           2           5           9           1           2           6
           1           2           3           4           1           2
           3          10           1           2           3          18
           5           2           3           4           5           2
           3          10           5           2           3          18
           6           2           3           4           6           2
           3          10           6           2           3          18
           1           2           5          12           1           2
           5          13           1           2           5          14
           3           2           5          12           3           2
           5          13           3           2           5          14
           6           2           5          12           6           2
           5          13           6           2           5          14
           1           2           6          15           1           2
           6          16           1           2           6          17
           3           2           6          15           3           2
           6          16           3           2           6          17
           5           2           6          15           5           2
           6          16           5           2           6          17
           2           3           4          11          10           3
           4          11          18           3           4          11
Redundant internal coordinates             R   N=          87
  2.89187564E+00  2.06649673E+00  2.07076103E+00  2.07275163E+00  2.94276147E+00
  2.88811604E+00  2.89741988E+00  2.66655412E+00  1.94197472E+00  1.94883594E+00
  1.84890580E+00  2.07099328E+00  2.06548195E+00  2.06652610E+00  2.06672951E+00
  2.07189799E+00  2.07140215E+00  1.89444519E+00  1.96377257E+00  1.96121667E+00
  1.85642493E+00  1.86784124E+00  1.91448399E+00  1.86882591E+00  1.97164996E+00
  1.95813968E+00  1.86639212E+00  1.81796363E+00  1.96859697E+00  2.03705173E+00
  1.91178378E+00  1.93212411E+00  1.79335021E+00  1.90778274E+00  1.87064837E+00
  1.84815000E+00  1.95000130E+00  1.95240222E+00  1.89650513E+00  1.90070392E+00
  1.87583436E+00  1.88575040E+00  1.89369967E+00  1.96132489E+00  1.95702116E+00
  1.87205766E+00  1.86993634E+00  1.90556472E+00  3.04734119E+00 -1.18574165E+00
  1.06313566E+00 -1.18618762E+00  8.63914846E-01  3.11279216E+00  9.85103294E-01
  3.03520576E+00 -9.99102239E-01  1.06868461E+00  3.09594283E+00 -1.12810254E+00
 -1.04925191E+00  9.78006312E-01  3.03714625E+00 -3.13729098E+00 -1.11003276E+00
  9.49107179E-01 -3.14128102E+00 -1.00519114E+00  1.07520862E+00 -1.08974884E+00
  1.04634105E+00  3.12674081E+00  8.98432433E-01  3.03452232E+00 -1.16826323E+00
 -1.14876419E+00  9.18274589E-01  3.07258702E+00  3.11912209E+00 -1.09702444E+00
  1.05728799E+00  1.10170998E+00 -3.11443654E+00 -9.60124114E-01 -1.07824283E+00
  3.11315882E+00  1.13064730E+00
ZRed-IntVec                                I   N=          87
           0           0           0           0           0           0
           0           0           0           0           0           0
           0           0           0           0           0           0
           0           0           0           0           0           0
           0           0           0           0           0           0
           0           0           0           0           0           0
           0           0           0           0           0           0
           0           0           0           0           0           0
           0           0           0           0           0           0
           0           0           0           0           0           0
           0           0           0           0           0           0
           0           0           0           0           0           0
           0           0           0           0           0           0
           0           0           0           0           0           0
           0           0           0
ZRed-FPVec                                 R   N=          87
  0.00000000E+00  0.00000000E+00  0.00000000E+00  0.00000000E+00  0.00000000E+00
  0.00000000E+00  0.00000000E+00  0.00000000E+00  0.00000000E+00  0.00000000E+00
  0.00000000E+00  0.00000000E+00  0.00000000E+00  0.00000000E+00  0.00000000E+00
  0.00000000E+00  0.00000000E+00  0.00000000E+00  0.00000000E+00  0.00000000E+00
  0.00000000E+00  0.00000000E+00  0.00000000E+00  0.00000000E+00  0.00000000E+00
  0.00000000E+00  0.00000000E+00  0.00000000E+00  0.00000000E+00  0.00000000E+00
  0.00000000E+00  0.00000000E+00  0.00000000E+00  0.00000000E+00  0.00000000E+00
  0.00000000E+00  0.00000000E+00  0.00000000E+00  0.00000000E+00  0.00000000E+00
  0.00000000E+00  0.00000000E+00  0.00000000E+00  0.00000000E+00  0.00000000E+00
  0.00000000E+00  0.00000000E+00  0.00000000E+00  0.00000000E+00  0.00000000E+00
  0.00000000E+00  0.00000000E+00  0.00000000E+00  0.00000000E+00  0.00000000E+00
  0.00000000E+00  0.00000000E+00  0.00000000E+00  0.00000000E+00  0.00000000E+00
  0.00000000E+00  0.00000000E+00  0.00000000E+00  0.00000000E+00  0.00000000E+00
  0.00000000E+00  0.00000000E+00  0.00000000E+00  0.00000000E+00  0.00000000E+00
  0.00000000E+00  0.00000000E+00  0.00000000E+00  0.00000000E+00  0.00000000E+00
  0.00000000E+00  0.00000000E+00  0.00000000E+00  0.00000000E+00  0.00000000E+00
  0.00000000E+00  0.00000000E+00  0.00000000E+00  0.00000000E+00  0.00000000E+00
  0.00000000E+00  0.00000000E+00
ZRed-Constraint1                           R   N=          87
  2.89187564E+00  2.06649673E+00  2.07076103E+00  2.07275163E+00  2.94276147E+00
  2.88811604E+00  2.89741988E+00  2.66655412E+00  1.94197472E+00  1.94883594E+00
  1.84890580E+00  2.07099328E+00  2.06548195E+00  2.06652610E+00  2.06672951E+00
  2.07189799E+00  2.07140215E+00  1.89444519E+00  1.96377257E+00  1.96121667E+00
  1.85642493E+00  1.86784124E+00  1.91448399E+00  1.86882591E+00  1.97164996E+00
  1.95813968E+00  1.86639212E+00  1.81796363E+00  1.96859697E+00  2.03705173E+00
  1.91178378E+00  1.93212411E+00  1.79335021E+00  1.90778274E+00  1.87064837E+00
  1.84815000E+00  1.95000130E+00  1.95240222E+00  1.89650513E+00  1.90070392E+00
  1.87583436E+00  1.88575040E+00  1.89369967E+00  1.96132489E+00  1.95702116E+00
  1.87205766E+00  1.86993634E+00  1.90556472E+00  3.04734119E+00 -1.18574165E+00
  1.06313566E+00 -1.18618762E+00  8.63914846E-01  3.11279216E+00  9.85103294E-01
  3.03520576E+00 -9.99102239E-01  1.06868461E+00  3.09594283E+00 -1.12810254E+00
 -1.04925191E+00  9.78006312E-01  3.03714625E+00 -3.13729098E+00 -1.11003276E+00
  9.49107179E-01 -3.14128102E+00 -1.00519114E+00  1.07520862E+00 -1.08974884E+00
  1.04634105E+00  3.12674081E+00  8.98432433E-01  3.03452232E+00 -1.16826323E+00
 -1.14876419E+00  9.18274589E-01  3.07258702E+00  3.11912209E+00 -1.09702444E+00
  1.05728799E+00  1.10170998E+00 -3.11443654E+00 -9.60124114E-01 -1.07824283E+00
  3.11315882E+00  1.13064730E+00
ZRed-Constraint2                           R   N=          87
  2.94728635E+00  2.05984163E+00  2.05971189E+00  2.05994375E+00  2.81129172E+00
  2.95066584E+00  2.94514608E+00  2.56842506E+00  1.88972613E+00  1.88972612E+00
  1.81408859E+00  2.05977665E+00  2.05994981E+00  2.05972125E+00  2.05983714E+00
  2.05985433E+00  2.05979442E+00  1.91064131E+00  1.91068305E+00  1.91063285E+00
  1.91066076E+00  1.91057469E+00  1.91060675E+00  1.91595427E+00  1.94069382E+00
  1.90658568E+00  1.93138208E+00  1.86074333E+00  1.90660355E+00  1.97907048E+00
  1.89651043E+00  1.89651043E+00  1.89651044E+00  1.89651044E+00  1.89733057E+00
  1.91064331E+00  1.91057152E+00  1.91062989E+00  1.91059010E+00  1.91058532E+00
  1.91072454E+00  1.91069805E+00  1.91064127E+00  1.91061098E+00  1.91066268E+00
  1.91061150E+00  1.91067264E+00  1.91060034E+00  2.79342571E+00 -1.34668585E+00
  7.58910188E-01 -1.39529533E+00  7.47778426E-01  2.85337446E+00  6.99097603E-01
  2.84217136E+00 -1.33541792E+00  1.09797905E+00 -3.07446316E+00 -1.01276404E+00
 -1.05058910E+00  1.06015399E+00  3.12185311E+00 -3.12206515E+00 -1.01132205E+00
  1.05037706E+00  2.59230472E+00 -1.59658401E+00  4.97862008E-01 -1.55671404E+00
  5.37582535E-01  2.63202855E+00  4.86719213E-01  2.58101579E+00 -1.60772350E+00
 -7.34279233E-01  1.36008054E+00 -2.82874555E+00 -2.80356252E+00 -7.09202748E-01
  1.38515647E+00  1.39201914E+00 -2.79680639E+00 -7.02447173E-01 -3.57861270E-01
 -2.46860436E+00  1.75288182E+00
SymInf integers                            I   N=          26
           1           1           1           1           1           0
           0           0           0           0           0           0
           0           0           0           0           0           0
           0           0           0           0           0           0
           0           0
RotTr to input orientation                 R   N=          12
 -4.68508061E-03  8.86507720E-01 -4.62690082E-01  1.82046047E-01 -4.54207237E-01
 -8.72098058E-01 -9.83278845E-01 -8.83167500E-02 -1.59257228E-01  2.83206930E+00
  6.26371271E-01 -3.69816199E-01
Number of contracted shells                I               48
Number of primitive shells                 I              114
Pure/Cartesian d shells                    I                1
Pure/Cartesian f shells                    I                0
Highest angular momentum                   I                2
Largest degree of contraction              I                6
Shell types                                I   N=          48
           0          -1          -1           2           0          -1
          -1           2           0          -1          -1           2
           0          -1          -1           2           0          -1
          -1           2           0          -1          -1           2
           0           0           0           0           0           0
           0           0           0           0           0           0
           0           0           0           0           0           0
           0           0           0           0           0           0
Number of primitives per shell             I   N=          48
           6           3           1           1           6           3
           1           1           6           3           1           1
           6           3           1           1           6           3
           1           1           6           3           1           1
           3           1           3           1           3           1
           3           1           3           1           3           1
           3           1           3           1           3           1
           3           1           3           1           3           1
Shell to atom map                          I   N=          48
           1           1           1           1           2           2
           2           2           3           3           3           3
           4           4           4           4           5           5
           5           5           6           6           6           6
           7           7           8           8           9           9
          10          10          11          11          12          12
          13          13          14          14          15          15
          16          16          17          17          18          18
Primitive exponents                        R   N=         114
  3.04752488E+03  4.57369518E+02  1.03948685E+02  2.92101553E+01  9.28666296E+00
  3.16392696E+00  7.86827235E+00  1.88128854E+00  5.44249258E-01  1.68714478E-01
  8.00000000E-01  3.04752488E+03  4.57369518E+02  1.03948685E+02  2.92101553E+01
  9.28666296E+00  3.16392696E+00  7.86827235E+00  1.88128854E+00  5.44249258E-01
  1.68714478E-01  8.00000000E-01  4.17351146E+03  6.27457911E+02  1.42902093E+02
  4.02343293E+01  1.28202129E+01  4.39043701E+00  1.16263619E+01  2.71627981E+00
  7.72218397E-01  2.12031498E-01  8.00000000E-01  5.48467166E+03  8.25234946E+02
  1.88046958E+02  5.29645000E+01  1.68975704E+01  5.79963534E+00  1.55396162E+01
  3.59993359E+00  1.01376175E+00  2.70005823E-01  8.00000000E-01  3.04752488E+03
  4.57369518E+02  1.03948685E+02  2.92101553E+01  9.28666296E+00  3.16392696E+00
  7.86827235E+00  1.88128854E+00  5.44249258E-01  1.68714478E-01  8.00000000E-01
  3.04752488E+03  4.57369518E+02  1.03948685E+02  2.92101553E+01  9.28666296E+00
  3.16392696E+00  7.86827235E+00  1.88128854E+00  5.44249258E-01  1.68714478E-01
  8.00000000E-01  1.87311370E+01  2.82539436E+00  6.40121692E-01  1.61277759E-01
  1.87311370E+01  2.82539436E+00  6.40121692E-01  1.61277759E-01  1.87311370E+01
  2.82539436E+00  6.40121692E-01  1.61277759E-01  1.87311370E+01  2.82539436E+00
  6.40121692E-01  1.61277759E-01  1.87311370E+01  2.82539436E+00  6.40121692E-01
  1.61277759E-01  1.87311370E+01  2.82539436E+00  6.40121692E-01  1.61277759E-01
  1.87311370E+01  2.82539436E+00  6.40121692E-01  1.61277759E-01  1.87311370E+01
  2.82539436E+00  6.40121692E-01  1.61277759E-01  1.87311370E+01  2.82539436E+00
  6.40121692E-01  1.61277759E-01  1.87311370E+01  2.82539436E+00  6.40121692E-01
  1.61277759E-01  1.87311370E+01  2.82539436E+00  6.40121692E-01  1.61277759E-01
  1.87311370E+01  2.82539436E+00  6.40121692E-01  1.61277759E-01
Contraction coefficients                   R   N=         114
  1.83473713E-03  1.40373228E-02  6.88426223E-02  2.32184443E-01  4.67941348E-01
  3.62311985E-01 -1.19332420E-01 -1.60854152E-01  1.14345644E+00  1.00000000E+00
  1.00000000E+00  1.83473713E-03  1.40373228E-02  6.88426223E-02  2.32184443E-01
  4.67941348E-01  3.62311985E-01 -1.19332420E-01 -1.60854152E-01  1.14345644E+00
  1.00000000E+00  1.00000000E+00  1.83477216E-03  1.39946270E-02  6.85865518E-02
  2.32240873E-01  4.69069948E-01  3.60455199E-01 -1.14961182E-01 -1.69117479E-01
  1.14585195E+00  1.00000000E+00  1.00000000E+00  1.83107443E-03  1.39501722E-02
  6.84450781E-02  2.32714336E-01  4.70192898E-01  3.58520853E-01 -1.10777550E-01
 -1.48026263E-01  1.13076702E+00  1.00000000E+00  1.00000000E+00  1.83473713E-03
  1.40373228E-02  6.88426223E-02  2.32184443E-01  4.67941348E-01  3.62311985E-01
 -1.19332420E-01 -1.60854152E-01  1.14345644E+00  1.00000000E+00  1.00000000E+00
  1.83473713E-03  1.40373228E-02  6.88426223E-02  2.32184443E-01  4.67941348E-01
  3.62311985E-01 -1.19332420E-01 -1.60854152E-01  1.14345644E+00  1.00000000E+00
  1.00000000E+00  3.34946043E-02  2.34726953E-01  8.13757326E-01  1.00000000E+00
  3.34946043E-02  2.34726953E-01  8.13757326E-01  1.00000000E+00  3.34946043E-02
  2.34726953E-01  8.13757326E-01  1.00000000E+00  3.34946043E-02  2.34726953E-01
  8.13757326E-01  1.00000000E+00  3.34946043E-02  2.34726953E-01  8.13757326E-01
  1.00000000E+00  3.34946043E-02  2.34726953E-01  8.13757326E-01  1.00000000E+00
  3.34946043E-02  2.34726953E-01  8.13757326E-01  1.00000000E+00  3.34946043E-02
  2.34726953E-01  8.13757326E-01  1.00000000E+00  3.34946043E-02  2.34726953E-01
  8.13757326E-01  1.00000000E+00  3.34946043E-02  2.34726953E-01  8.13757326E-01
  1.00000000E+00  3.34946043E-02  2.34726953E-01  8.13757326E-01  1.00000000E+00
  3.34946043E-02  2.34726953E-01  8.13757326E-01  1.00000000E+00
P(S=P) Contraction coefficients            R   N=         114
  0.00000000E+00  0.00000000E+00  0.00000000E+00  0.00000000E+00  0.00000000E+00
  0.00000000E+00  6.89990666E-02  3.16423961E-01  7.44308291E-01  1.00000000E+00
  0.00000000E+00  0.00000000E+00  0.00000000E+00  0.00000000E+00  0.00000000E+00
  0.00000000E+00  0.00000000E+00  6.89990666E-02  3.16423961E-01  7.44308291E-01
  1.00000000E+00  0.00000000E+00  0.00000000E+00  0.00000000E+00  0.00000000E+00
  0.00000000E+00  0.00000000E+00  0.00000000E+00  6.75797439E-02  3.23907296E-01
  7.40895140E-01  1.00000000E+00  0.00000000E+00  0.00000000E+00  0.00000000E+00
  0.00000000E+00  0.00000000E+00  0.00000000E+00  0.00000000E+00  7.08742682E-02
  3.39752839E-01  7.27158577E-01  1.00000000E+00  0.00000000E+00  0.00000000E+00
  0.00000000E+00  0.00000000E+00  0.00000000E+00  0.00000000E+00  0.00000000E+00
  6.89990666E-02  3.16423961E-01  7.44308291E-01  1.00000000E+00  0.00000000E+00
  0.00000000E+00  0.00000000E+00  0.00000000E+00  0.00000000E+00  0.00000000E+00
  0.00000000E+00  6.89990666E-02  3.16423961E-01  7.44308291E-01  1.00000000E+00
  0.00000000E+00  0.00000000E+00  0.00000000E+00  0.00000000E+00  0.00000000E+00
  0.00000000E+00  0.00000000E+00  0.00000000E+00  0.00000000E+00  0.00000000E+00
  0.00000000E+00  0.00000000E+00  0.00000000E+00  0.00000000E+00  0.00000000E+00
  0.00000000E+00  0.00000000E+00  0.00000000E+00  0.00000000E+00  0.00000000E+00
  0.00000000E+00  0.00000000E+00  0.00000000E+00  0.00000000E+00  0.00000000E+00
  0.00000000E+00  0.00000000E+00  0.00000000E+00  0.00000000E+00  0.00000000E+00
  0.00000000E+00  0.00000000E+00  0.00000000E+00  0.00000000E+00  0.00000000E+00
  0.00000000E+00  0.00000000E+00  0.00000000E+00  0.00000000E+00  0.00000000E+00
  0.00000000E+00  0.00000000E+00  0.00000000E+00  0.00000000E+00  0.00000000E+00
  0.00000000E+00  0.00000000E+00  0.00000000E+00  0.00000000E+00
Coordinates of each shell                  R   N=         144
 -7.78131509E-01  2.92044375E+00 -4.57993617E-01 -7.78131509E-01  2.92044375E+00
 -4.57993617E-01 -7.78131509E-01  2.92044375E+00 -4.57993617E-01 -7.78131509E-01
  2.92044375E+00 -4.57993617E-01 -8.76906023E-01  8.17453228E-02  8.51265558E-02
 -8.76906023E-01  8.17453228E-02  8.51265558E-02 -8.76906023E-01  8.17453228E-02
  8.51265558E-02 -8.76906023E-01  8.17453228E-02  8.51265558E-02  1.58691366E+00
 -1.09439896E+00 -1.01310944E+00  1.58691366E+00 -1.09439896E+00 -1.01310944E+00
  1.58691366E+00 -1.09439896E+00 -1.01310944E+00  1.58691366E+00 -1.09439896E+00
 -1.01310944E+00  3.89044391E+00 -2.21455722E-01  7.78691967E-03  3.89044391E+00
 -2.21455722E-01  7.78691967E-03  3.89044391E+00 -2.21455722E-01  7.78691967E-03
  3.89044391E+00 -2.21455722E-01  7.78691967E-03 -9.12820588E-01 -5.24866620E-01
  2.90859010E+00 -9.12820588E-01 -5.24866620E-01  2.90859010E+00 -9.12820588E-01
 -5.24866620E-01  2.90859010E+00 -9.12820588E-01 -5.24866620E-01  2.90859010E+00
 -3.00397858E+00 -1.23829425E+00 -1.37367426E+00 -3.00397858E+00 -1.23829425E+00
 -1.37367426E+00 -3.00397858E+00 -1.23829425E+00 -1.37367426E+00 -3.00397858E+00
 -1.23829425E+00 -1.37367426E+00 -2.56966014E+00  3.76507210E+00  1.31444108E-01
 -2.56966014E+00  3.76507210E+00  1.31444108E-01  7.03870630E-01  3.88320073E+00
  6.21274602E-01  7.03870630E-01  3.88320073E+00  6.21274602E-01 -5.49618914E-01
  3.32981580E+00 -2.47702701E+00 -5.49618914E-01  3.32981580E+00 -2.47702701E+00
  1.63368749E+00 -2.99427889E+00 -6.13691996E-01  1.63368749E+00 -2.99427889E+00
 -6.13691996E-01  3.95928783E+00  1.58682782E+00 -3.71454164E-01  3.95928783E+00
  1.58682782E+00 -3.71454164E-01 -9.82984848E-01 -2.56574431E+00  3.25342106E+00
 -9.82984848E-01 -2.56574431E+00  3.25342106E+00  7.27741675E-01  2.62791749E-01
  3.88550639E+00  7.27741675E-01  2.62791749E-01  3.88550639E+00 -2.61272847E+00
  3.04095002E-01  3.74145621E+00 -2.61272847E+00  3.04095002E-01  3.74145621E+00
 -4.81582609E+00 -5.35740779E-01 -6.70113273E-01 -4.81582609E+00 -5.35740779E-01
 -6.70113273E-01 -2.93526548E+00 -8.35502054E-01 -3.40488036E+00 -2.93526548E+00
 -8.35502054E-01 -3.40488036E+00 -2.99127752E+00 -3.28955867E+00 -1.08582042E+00
 -2.99127752E+00 -3.28955867E+00 -1.08582042E+00  1.63184714E+00 -9.12709264E-01
 -2.95293710E+00  1.63184714E+00 -9.12709264E-01 -2.95293710E+00
Num ILSW                                   I              100
ILSW                                       I   N=         100
           0           1           0           0           2           0
           0           0           0           0         402          -1
           5           0           0           0           2           0
           0           0           0           0           1           0