 Entering Gaussian System, Link 0=/apps/cent7/gaussian/g16-A.03/g16-haswell/g16/g16
 Initial command:
 /apps/cent7/gaussian/g16-A.03/g16-haswell/g16/l1.exe "/scratch/brown/finej/gaussian/Gau-161822.inp" -scrdir="/scratch/brown/finej/gaussian/"
 Entering Link 1 = /apps/cent7/gaussian/g16-A.03/g16-haswell/g16/l1.exe PID=    161824.
  
 Copyright (c) 1988,1990,1992,1993,1995,1998,2003,2009,2016,
            Gaussian, Inc.  All Rights Reserved.
  
 This is part of the Gaussian(R) 16 program.  It is based on
 the Gaussian(R) 09 system (copyright 2009, Gaussian, Inc.),
 the Gaussian(R) 03 system (copyright 2003, Gaussian, Inc.),
 the Gaussian(R) 98 system (copyright 1998, Gaussian, Inc.),
 the Gaussian(R) 94 system (copyright 1995, Gaussian, Inc.),
 the Gaussian 92(TM) system (copyright 1992, Gaussian, Inc.),
 the Gaussian 90(TM) system (copyright 1990, Gaussian, Inc.),
 the Gaussian 88(TM) system (copyright 1988, Gaussian, Inc.),
 the Gaussian 86(TM) system (copyright 1986, Carnegie Mellon
 University), and the Gaussian 82(TM) system (copyright 1983,
 Carnegie Mellon University). Gaussian is a federally registered
 trademark of Gaussian, Inc.
  
 This software contains proprietary and confidential information,
 including trade secrets, belonging to Gaussian, Inc.
  
 This software is provided under written license and may be
 used, copied, transmitted, or stored only in accord with that
 written license.
  
 The following legend is applicable only to US Government
 contracts under FAR:
  
                    RESTRICTED RIGHTS LEGEND
  
 Use, reproduction and disclosure by the US Government is
 subject to restrictions as set forth in subparagraphs (a)
 and (c) of the Commercial Computer Software - Restricted
 Rights clause in FAR 52.227-19.
  
 Gaussian, Inc.
 340 Quinnipiac St., Bldg. 40, Wallingford CT 06492
  
  
 ---------------------------------------------------------------
 Warning -- This program may not be used in any manner that
 competes with the business of Gaussian, Inc. or will provide
 assistance to any competitor of Gaussian, Inc.  The licensee
 of this program is prohibited from giving any competitor of
 Gaussian, Inc. access to this program.  By using this program,
 the user acknowledges that Gaussian, Inc. is engaged in the
 business of creating and licensing software in the field of
 computational chemistry and represents and warrants to the
 licensee that it is not a competitor of Gaussian, Inc. and that
 it will not use this program in any manner prohibited above.
 ---------------------------------------------------------------
  

 Cite this work as:
 Gaussian 16, Revision A.03,
 M. J. Frisch, G. W. Trucks, H. B. Schlegel, G. E. Scuseria, 
 M. A. Robb, J. R. Cheeseman, G. Scalmani, V. Barone, 
 G. A. Petersson, H. Nakatsuji, X. Li, M. Caricato, A. V. Marenich, 
 J. Bloino, B. G. Janesko, R. Gomperts, B. Mennucci, H. P. Hratchian, 
 J. V. Ortiz, A. F. Izmaylov, J. L. Sonnenberg, D. Williams-Young, 
 F. Ding, F. Lipparini, F. Egidi, J. Goings, B. Peng, A. Petrone, 
 T. Henderson, D. Ranasinghe, V. G. Zakrzewski, J. Gao, N. Rega, 
 G. Zheng, W. Liang, M. Hada, M. Ehara, K. Toyota, R. Fukuda, 
 J. Hasegawa, M. Ishida, T. Nakajima, Y. Honda, O. Kitao, H. Nakai, 
 T. Vreven, K. Throssell, J. A. Montgomery, Jr., J. E. Peralta, 
 F. Ogliaro, M. J. Bearpark, J. J. Heyd, E. N. Brothers, K. N. Kudin, 
 V. N. Staroverov, T. A. Keith, R. Kobayashi, J. Normand, 
 K. Raghavachari, A. P. Rendell, J. C. Burant, S. S. Iyengar, 
 J. Tomasi, M. Cossi, J. M. Millam, M. Klene, C. Adamo, R. Cammi, 
 J. W. Ochterski, R. L. Martin, K. Morokuma, O. Farkas, 
 J. B. Foresman, and D. J. Fox, Gaussian, Inc., Wallingford CT, 2016.
 
 ******************************************
 Gaussian 16:  ES64L-G16RevA.03 25-Dec-2016
                14-Oct-2019 
 ******************************************
 %chk=9_p.chk
 %nprocshared=24
 Will use up to   24 processors via shared memory.
 %mem=80GB
 --------------------------------------------------------------
 #P opt freq b3lyp/6-31g(d) geom=connectivity temperature=0.001
 --------------------------------------------------------------
 1/18=20,19=15,26=3,38=1,57=2,112=-1000/1,3;
 2/9=110,12=2,17=6,18=5,40=1/2;
 3/5=1,6=6,7=1,11=2,25=1,30=1,71=1,74=-5/1,2,3;
 4//1;
 5/5=2,38=5/2;
 6/7=2,8=2,9=2,10=2,28=1/1;
 7//1,2,3,16;
 1/18=20,19=15,26=3/3(2);
 2/9=110/2;
 99//99;
 2/9=110/2;
 3/5=1,6=6,7=1,11=2,25=1,30=1,71=1,74=-5/1,2,3;
 4/5=5,16=3,69=1/1;
 5/5=2,38=5/2;
 7//1,2,3,16;
 1/18=20,19=15,26=3/3(-5);
 2/9=110/2;
 6/7=2,8=2,9=2,10=2,19=2,28=1/1;
 99/9=1/99;
 Leave Link    1 at Mon Oct 14 02:27:02 2019, MaxMem= 10737418240 cpu:               1.5 elap:               0.1
 (Enter /apps/cent7/gaussian/g16-A.03/g16-haswell/g16/l101.exe)
 -------------------
 Title Card Required
 -------------------
 Symbolic Z-matrix:
 Charge =  1 Multiplicity = 1
 C                     2.0476   -0.764    -1.2874 
 C                     1.5073   -0.008    -0.0348 
 N                     2.0241    1.387    -0.0271 
 O                     1.6058    2.1233   -1.0902 
 C                    -0.0537   -0.0174    0.0004 
 C                     2.0542   -0.6929    1.2539 
 H                     1.9762   -1.839    -1.1218 
 H                     1.455    -0.4907   -2.1604 
 H                     3.0894   -0.4907   -1.4554 
 H                     1.71988   1.83631   0.81288 
 H                     1.3279    1.5359   -1.7968 
 H                    -0.3937   -0.0194    1.036 
 H                    -0.4339    0.8704   -0.5051 
 H                    -0.4231   -0.9096   -0.5051 
 H                     2.0053   -1.7757    1.1386 
 H                     3.0892   -0.391     1.4145 
 H                     1.4507   -0.391     2.1099 
 H                     3.02367   1.35796  -0.03142 
 
 ITRead=  0  0  0  0  0  0  0  0  0  0  0  0  0  0  0  0  0  0
 MicOpt= -1 -1 -1 -1 -1 -1 -1 -1 -1 -1 -1 -1 -1 -1 -1 -1 -1 -1
 NAtoms=     18 NQM=       18 NQMF=       0 NMMI=      0 NMMIF=      0
                NMic=       0 NMicF=      0.
                    Isotopes and Nuclear Properties:
 (Nuclear quadrupole moments (NQMom) in fm**2, nuclear magnetic moments (NMagM)
  in nuclear magnetons)

  Atom         1           2           3           4           5           6           7           8           9          10
 IAtWgt=          12          12          14          16          12          12           1           1           1           1
 AtmWgt=  12.0000000  12.0000000  14.0030740  15.9949146  12.0000000  12.0000000   1.0078250   1.0078250   1.0078250   1.0078250
 NucSpn=           0           0           2           0           0           0           1           1           1           1
 AtZEff=  -0.0000000  -0.0000000  -0.0000000  -0.0000000  -0.0000000  -0.0000000  -0.0000000  -0.0000000  -0.0000000  -0.0000000
 NQMom=    0.0000000   0.0000000   2.0440000   0.0000000   0.0000000   0.0000000   0.0000000   0.0000000   0.0000000   0.0000000
 NMagM=    0.0000000   0.0000000   0.4037610   0.0000000   0.0000000   0.0000000   2.7928460   2.7928460   2.7928460   2.7928460
 AtZNuc=   6.0000000   6.0000000   7.0000000   8.0000000   6.0000000   6.0000000   1.0000000   1.0000000   1.0000000   1.0000000

  Atom        11          12          13          14          15          16          17          18
 IAtWgt=           1           1           1           1           1           1           1           1
 AtmWgt=   1.0078250   1.0078250   1.0078250   1.0078250   1.0078250   1.0078250   1.0078250   1.0078250
 NucSpn=           1           1           1           1           1           1           1           1
 AtZEff=  -0.0000000  -0.0000000  -0.0000000  -0.0000000  -0.0000000  -0.0000000  -0.0000000  -0.0000000
 NQMom=    0.0000000   0.0000000   0.0000000   0.0000000   0.0000000   0.0000000   0.0000000   0.0000000
 NMagM=    2.7928460   2.7928460   2.7928460   2.7928460   2.7928460   2.7928460   2.7928460   2.7928460
 AtZNuc=   1.0000000   1.0000000   1.0000000   1.0000000   1.0000000   1.0000000   1.0000000   1.0000000
 Leave Link  101 at Mon Oct 14 02:27:02 2019, MaxMem= 10737418240 cpu:               8.7 elap:               0.4
 (Enter /apps/cent7/gaussian/g16-A.03/g16-haswell/g16/l103.exe)

 GradGradGradGradGradGradGradGradGradGradGradGradGradGradGradGradGradGrad
 Berny optimization.
 Initialization pass.
                           ----------------------------
                           !    Initial Parameters    !
                           ! (Angstroms and Degrees)  !
 --------------------------                            --------------------------
 ! Name  Definition              Value          Derivative Info.                !
 --------------------------------------------------------------------------------
 ! R1    R(1,2)                  1.5596         estimate D2E/DX2                !
 ! R2    R(1,7)                  1.09           estimate D2E/DX2                !
 ! R3    R(1,8)                  1.09           estimate D2E/DX2                !
 ! R4    R(1,9)                  1.0901         estimate D2E/DX2                !
 ! R5    R(2,3)                  1.4877         estimate D2E/DX2                !
 ! R6    R(2,5)                  1.5614         estimate D2E/DX2                !
 ! R7    R(2,6)                  1.5585         estimate D2E/DX2                !
 ! R8    R(3,4)                  1.3592         estimate D2E/DX2                !
 ! R9    R(3,10)                 1.0            estimate D2E/DX2                !
 ! R10   R(3,18)                 1.0            estimate D2E/DX2                !
 ! R11   R(4,11)                 0.96           estimate D2E/DX2                !
 ! R12   R(5,12)                 1.09           estimate D2E/DX2                !
 ! R13   R(5,13)                 1.0901         estimate D2E/DX2                !
 ! R14   R(5,14)                 1.09           estimate D2E/DX2                !
 ! R15   R(6,15)                 1.09           estimate D2E/DX2                !
 ! R16   R(6,16)                 1.09           estimate D2E/DX2                !
 ! R17   R(6,17)                 1.09           estimate D2E/DX2                !
 ! A1    A(2,1,7)              109.4717         estimate D2E/DX2                !
 ! A2    A(2,1,8)              109.4741         estimate D2E/DX2                !
 ! A3    A(2,1,9)              109.4712         estimate D2E/DX2                !
 ! A4    A(7,1,8)              109.4728         estimate D2E/DX2                !
 ! A5    A(7,1,9)              109.4679         estimate D2E/DX2                !
 ! A6    A(8,1,9)              109.4697         estimate D2E/DX2                !
 ! A7    A(1,2,3)              109.7761         estimate D2E/DX2                !
 ! A8    A(1,2,5)              111.1936         estimate D2E/DX2                !
 ! A9    A(1,2,6)              109.2393         estimate D2E/DX2                !
 ! A10   A(3,2,5)              110.66           estimate D2E/DX2                !
 ! A11   A(3,2,6)              106.6127         estimate D2E/DX2                !
 ! A12   A(5,2,6)              109.2403         estimate D2E/DX2                !
 ! A13   A(2,3,4)              113.3924         estimate D2E/DX2                !
 ! A14   A(2,3,10)             108.662          estimate D2E/DX2                !
 ! A15   A(2,3,18)             108.662          estimate D2E/DX2                !
 ! A16   A(4,3,10)             108.662          estimate D2E/DX2                !
 ! A17   A(4,3,18)             108.662          estimate D2E/DX2                !
 ! A18   A(10,3,18)            108.709          estimate D2E/DX2                !
 ! A19   A(3,4,11)             109.4718         estimate D2E/DX2                !
 ! A20   A(2,5,12)             109.4677         estimate D2E/DX2                !
 ! A21   A(2,5,13)             109.471          estimate D2E/DX2                !
 ! A22   A(2,5,14)             109.4687         estimate D2E/DX2                !
 ! A23   A(12,5,13)            109.4685         estimate D2E/DX2                !
 ! A24   A(12,5,14)            109.4765         estimate D2E/DX2                !
 ! A25   A(13,5,14)            109.4749         estimate D2E/DX2                !
 ! A26   A(2,6,15)             109.4717         estimate D2E/DX2                !
 ! A27   A(2,6,16)             109.4699         estimate D2E/DX2                !
 ! A28   A(2,6,17)             109.4729         estimate D2E/DX2                !
 ! A29   A(15,6,16)            109.47           estimate D2E/DX2                !
 ! A30   A(15,6,17)            109.4735         estimate D2E/DX2                !
 ! A31   A(16,6,17)            109.4693         estimate D2E/DX2                !
 ! D1    D(7,1,2,3)            160.0515         estimate D2E/DX2                !
 ! D2    D(7,1,2,5)            -77.1594         estimate D2E/DX2                !
 ! D3    D(7,1,2,6)             43.4824         estimate D2E/DX2                !
 ! D4    D(8,1,2,3)            -79.9445         estimate D2E/DX2                !
 ! D5    D(8,1,2,5)             42.8445         estimate D2E/DX2                !
 ! D6    D(8,1,2,6)            163.4863         estimate D2E/DX2                !
 ! D7    D(9,1,2,3)             40.0553         estimate D2E/DX2                !
 ! D8    D(9,1,2,5)            162.8444         estimate D2E/DX2                !
 ! D9    D(9,1,2,6)            -76.5138         estimate D2E/DX2                !
 ! D10   D(1,2,3,4)             62.9096         estimate D2E/DX2                !
 ! D11   D(1,2,3,10)          -176.1538         estimate D2E/DX2                !
 ! D12   D(1,2,3,18)           -58.0271         estimate D2E/DX2                !
 ! D13   D(5,2,3,4)            -60.1943         estimate D2E/DX2                !
 ! D14   D(5,2,3,10)            60.7423         estimate D2E/DX2                !
 ! D15   D(5,2,3,18)           178.869          estimate D2E/DX2                !
 ! D16   D(6,2,3,4)           -178.8812         estimate D2E/DX2                !
 ! D17   D(6,2,3,10)           -57.9445         estimate D2E/DX2                !
 ! D18   D(6,2,3,18)            60.1822         estimate D2E/DX2                !
 ! D19   D(1,2,5,12)           148.5281         estimate D2E/DX2                !
 ! D20   D(1,2,5,13)           -91.4775         estimate D2E/DX2                !
 ! D21   D(1,2,5,14)            28.5254         estimate D2E/DX2                !
 ! D22   D(3,2,5,12)           -89.1931         estimate D2E/DX2                !
 ! D23   D(3,2,5,13)            30.8012         estimate D2E/DX2                !
 ! D24   D(3,2,5,14)           150.8041         estimate D2E/DX2                !
 ! D25   D(6,2,5,12)            27.887          estimate D2E/DX2                !
 ! D26   D(6,2,5,13)           147.8813         estimate D2E/DX2                !
 ! D27   D(6,2,5,14)           -92.1158         estimate D2E/DX2                !
 ! D28   D(1,2,6,15)           -42.0711         estimate D2E/DX2                !
 ! D29   D(1,2,6,16)            77.9269         estimate D2E/DX2                !
 ! D30   D(1,2,6,17)          -162.0752         estimate D2E/DX2                !
 ! D31   D(3,2,6,15)          -160.6323         estimate D2E/DX2                !
 ! D32   D(3,2,6,16)           -40.6343         estimate D2E/DX2                !
 ! D33   D(3,2,6,17)            79.3636         estimate D2E/DX2                !
 ! D34   D(5,2,6,15)            79.7568         estimate D2E/DX2                !
 ! D35   D(5,2,6,16)          -160.2452         estimate D2E/DX2                !
 ! D36   D(5,2,6,17)           -40.2473         estimate D2E/DX2                !
 ! D37   D(2,3,4,11)           -20.5039         estimate D2E/DX2                !
 ! D38   D(10,3,4,11)         -141.4406         estimate D2E/DX2                !
 ! D39   D(18,3,4,11)          100.4327         estimate D2E/DX2                !
 --------------------------------------------------------------------------------
 Trust Radius=3.00D-01 FncErr=1.00D-07 GrdErr=1.00D-06 EigMax=2.50D+02 EigMin=1.00D-04
 Number of steps in this run=     97 maximum allowed number of steps=    108.
 GradGradGradGradGradGradGradGradGradGradGradGradGradGradGradGradGradGrad

 Leave Link  103 at Mon Oct 14 02:27:02 2019, MaxMem= 10737418240 cpu:               0.2 elap:               0.0
 (Enter /apps/cent7/gaussian/g16-A.03/g16-haswell/g16/l202.exe)
                          Input orientation:                          
 ---------------------------------------------------------------------
 Center     Atomic      Atomic             Coordinates (Angstroms)
 Number     Number       Type             X           Y           Z
 ---------------------------------------------------------------------
      1          6           0        2.047600   -0.764000   -1.287400
      2          6           0        1.507300   -0.008000   -0.034800
      3          7           0        2.024100    1.387000   -0.027100
      4          8           0        1.605800    2.123300   -1.090200
      5          6           0       -0.053700   -0.017400    0.000400
      6          6           0        2.054200   -0.692900    1.253900
      7          1           0        1.976200   -1.839000   -1.121800
      8          1           0        1.455000   -0.490700   -2.160400
      9          1           0        3.089400   -0.490700   -1.455400
     10          1           0        1.719883    1.836308    0.812885
     11          1           0        1.327900    1.535900   -1.796800
     12          1           0       -0.393700   -0.019400    1.036000
     13          1           0       -0.433900    0.870400   -0.505100
     14          1           0       -0.423100   -0.909600   -0.505100
     15          1           0        2.005300   -1.775700    1.138600
     16          1           0        3.089200   -0.391000    1.414500
     17          1           0        1.450700   -0.391000    2.109900
     18          1           0        3.023669    1.357960   -0.031420
 ---------------------------------------------------------------------
                    Distance matrix (angstroms):
                    1          2          3          4          5
     1  C    0.000000
     2  C    1.559637   0.000000
     3  N    2.493132   1.487672   0.000000
     4  O    2.927555   2.380338   1.359152   0.000000
     5  C    2.575131   1.561425   2.508057   2.919922   0.000000
     6  C    2.542303   1.558504   2.442919   3.691456   2.543778
     7  H    1.090021   2.180366   3.407013   3.979700   2.949246
     8  H    1.089953   2.180346   2.898379   2.828615   2.677545
     9  H    1.090075   2.180400   2.588564   3.027777   3.496061
    10  H    3.358600   2.040890   1.000000   1.927981   2.691090
    11  H    2.463127   2.349565   1.907539   0.959974   2.747997
    12  H    3.451458   2.181867   2.992307   3.620758   1.089987
    13  H    3.072637   2.181978   2.556780   2.464240   1.090078
    14  H    2.595679   2.181859   3.389933   3.695573   1.089958
    15  H    2.628840   2.179366   3.370739   4.508808   2.937107
    16  H    2.919644   2.179350   2.524665   3.846518   3.466565
    17  H    3.469447   2.179365   2.838457   4.072640   2.617783
    18  H    2.651963   2.040890   1.000000   1.927981   3.370879
                    6          7          8          9         10
     6  C    0.000000
     7  H    2.638860   0.000000
     8  H    3.472372   1.779959   0.000000
     9  H    2.907375   1.780005   1.779969   0.000000
    10  H    2.589045   4.161321   3.784911   3.526423   0.000000
    11  H    3.847315   3.502266   2.062878   2.706759   2.656003
    12  H    2.548195   3.685576   3.722471   4.308269   2.821465
    13  H    3.424709   3.678281   2.856668   3.894779   2.703488
    14  H    3.045990   2.645892   2.538258   3.662814   3.724174
    15  H    1.090019   2.261473   3.582940   3.091170   3.637878
    16  H    1.090028   3.125426   3.931979   2.871631   2.682884
    17  H    1.089996   3.580047   4.271466   3.925130   2.591449
    18  H    2.607287   3.536477   3.226580   2.334434   1.625277
                   11         12         13         14         15
    11  H    0.000000
    12  H    3.661642   0.000000
    13  H    2.283707   1.779986   0.000000
    14  H    3.273371   1.779975   1.780033   0.000000
    15  H    4.476845   2.974948   3.956424   3.057614   0.000000
    16  H    4.138547   3.523059   4.205737   4.036095   1.779987
    17  H    4.357789   2.166370   3.461369   3.258573   1.780000
    18  H    2.454355   3.836003   3.523758   4.152881   3.496548
                   16         17         18
    16  H    0.000000
    17  H    1.779962   0.000000
    18  H    2.270207   3.180935   0.000000
 Stoichiometry    C4H12NO(1+)
 Framework group  C1[X(C4H12NO)]
 Deg. of freedom    48
 Full point group                 C1      NOp   1
 Largest Abelian subgroup         C1      NOp   1
 Largest concise Abelian subgroup C1      NOp   1
                         Standard orientation:                         
 ---------------------------------------------------------------------
 Center     Atomic      Atomic             Coordinates (Angstroms)
 Number     Number       Type             X           Y           Z
 ---------------------------------------------------------------------
      1          6           0       -0.410654    1.219419   -0.995517
      2          6           0       -0.382361    0.026590    0.008885
      3          7           0        0.840414   -0.790742   -0.214625
      4          8           0        1.994059   -0.109801    0.014981
      5          6           0       -0.446002    0.530327    1.485451
      6          6           0       -1.599148   -0.907014   -0.268148
      7          1           0       -1.429358    1.597425   -1.082109
      8          1           0        0.242282    2.013992   -0.634513
      9          1           0       -0.064702    0.880424   -1.972075
     10          1           0        0.810631   -1.584024    0.393500
     11          1           0        1.823815    0.833709   -0.033554
     12          1           0       -0.965650   -0.206083    2.098426
     13          1           0        0.566025    0.670325    1.865548
     14          1           0       -0.982678    1.478256    1.523082
     15          1           0       -2.485865   -0.301855   -0.456978
     16          1           0       -1.390173   -1.527222   -1.139831
     17          1           0       -1.772401   -1.544956    0.598516
     18          1           0        0.841692   -1.112316   -1.161509
 ---------------------------------------------------------------------
 Rotational constants (GHZ):           4.2646897           2.6649948           2.6594527
 Leave Link  202 at Mon Oct 14 02:27:02 2019, MaxMem= 10737418240 cpu:               0.9 elap:               0.1
 (Enter /apps/cent7/gaussian/g16-A.03/g16-haswell/g16/l301.exe)
 Standard basis: 6-31G(d) (6D, 7F)
 Ernie: Thresh=  0.10000D-02 Tol=  0.10000D-05 Strict=F.
 There are   114 symmetry adapted cartesian basis functions of A   symmetry.
 There are   114 symmetry adapted basis functions of A   symmetry.
   114 basis functions,   216 primitive gaussians,   114 cartesian basis functions
    25 alpha electrons       25 beta electrons
       nuclear repulsion energy       283.4323952423 Hartrees.
 IExCor=  402 DFT=T Ex+Corr=B3LYP ExCW=0 ScaHFX=  0.200000
 ScaDFX=  0.800000  0.720000  1.000000  0.810000 ScalE2=  1.000000  1.000000
 IRadAn=      5 IRanWt=     -1 IRanGd=            0 ICorTp=0 IEmpDi=  4
 NAtoms=   18 NActive=   18 NUniq=   18 SFac= 1.00D+00 NAtFMM=   60 NAOKFM=F Big=F
 Integral buffers will be    131072 words long.
 Raffenetti 2 integral format.
 Two-electron integral symmetry is turned on.
 Leave Link  301 at Mon Oct 14 02:27:03 2019, MaxMem= 10737418240 cpu:               1.2 elap:               0.1
 (Enter /apps/cent7/gaussian/g16-A.03/g16-haswell/g16/l302.exe)
 NPDir=0 NMtPBC=     1 NCelOv=     1 NCel=       1 NClECP=     1 NCelD=      1
         NCelK=      1 NCelE2=     1 NClLst=     1 CellRange=     0.0.
 One-electron integrals computed using PRISM.
 One-electron integral symmetry used in STVInt
 NBasis=   114 RedAO= T EigKep=  3.32D-03  NBF=   114
 NBsUse=   114 1.00D-06 EigRej= -1.00D+00 NBFU=   114
 Precomputing XC quadrature grid using
 IXCGrd= 4 IRadAn=           5 IRanWt=          -1 IRanGd=           0 AccXCQ= 0.00D+00.
 Generated NRdTot=       0 NPtTot=           0 NUsed=           0 NTot=          32
 NSgBfM=   114   114   114   114   114 MxSgAt=    18 MxSgA2=    18.
 Leave Link  302 at Mon Oct 14 02:27:03 2019, MaxMem= 10737418240 cpu:               3.3 elap:               0.2
 (Enter /apps/cent7/gaussian/g16-A.03/g16-haswell/g16/l303.exe)
 DipDrv:  MaxL=1.
 Leave Link  303 at Mon Oct 14 02:27:03 2019, MaxMem= 10737418240 cpu:               0.8 elap:               0.1
 (Enter /apps/cent7/gaussian/g16-A.03/g16-haswell/g16/l401.exe)
 ExpMin= 1.61D-01 ExpMax= 5.48D+03 ExpMxC= 8.25D+02 IAcc=3 IRadAn=         5 AccDes= 0.00D+00
 Harris functional with IExCor=  402 and IRadAn=       5 diagonalized for initial guess.
 HarFok:  IExCor=  402 AccDes= 0.00D+00 IRadAn=         5 IDoV= 1 UseB2=F ITyADJ=14
 ICtDFT=  3500011 ScaDFX=  1.000000  1.000000  1.000000  1.000000
 FoFCou: FMM=F IPFlag=           0 FMFlag=      100000 FMFlg1=           0
         NFxFlg=           0 DoJE=T BraDBF=F KetDBF=T FulRan=T
         wScrn=  0.000000 ICntrl=       500 IOpCl=  0 I1Cent=   200000004 NGrid=           0
         NMat0=    1 NMatS0=      1 NMatT0=    0 NMatD0=    1 NMtDS0=    0 NMtDT0=    0
 Petite list used in FoFCou.
 Harris En= -289.399115457054    
 JPrj=0 DoOrth=F DoCkMO=F.
 Leave Link  401 at Mon Oct 14 02:27:03 2019, MaxMem= 10737418240 cpu:               6.1 elap:               0.3
 (Enter /apps/cent7/gaussian/g16-A.03/g16-haswell/g16/l502.exe)
 Integral symmetry usage will be decided dynamically.
 Closed shell SCF:
 Using DIIS extrapolation, IDIIS=  1040.
 NGot= 10737418240 LenX= 10737387936 LenY= 10737374499
 Requested convergence on RMS density matrix=1.00D-08 within 128 cycles.
 Requested convergence on MAX density matrix=1.00D-06.
 Requested convergence on             energy=1.00D-06.
 No special actions if energy rises.
 Fock matrices will be formed incrementally for  20 cycles.
 Integral accuracy reduced to 1.0D-05 until final iterations.

 Cycle   1  Pass 0  IDiag  1:
 FoFJK:  IHMeth= 1 ICntrl=       0 DoSepK=F KAlg= 0 I1Cent=           0 FoldK=F
 IRaf= 990000000 NMat=       1 IRICut=       1 DoRegI=T DoRafI=F ISym2E= 0 IDoP0=0 IntGTp=1.
 FoFCou: FMM=F IPFlag=           0 FMFlag=      100000 FMFlg1=           0
         NFxFlg=           0 DoJE=F BraDBF=F KetDBF=F FulRan=T
         wScrn=  0.000000 ICntrl=         0 IOpCl=  0 I1Cent=           0 NGrid=           0
         NMat0=    1 NMatS0=      1 NMatT0=    0 NMatD0=    1 NMtDS0=    0 NMtDT0=    0
 Symmetry not used in FoFCou.
 E= -289.102836543818    
 DIIS: error= 4.60D-02 at cycle   1 NSaved=   1.
 NSaved= 1 IEnMin= 1 EnMin= -289.102836543818     IErMin= 1 ErrMin= 4.60D-02
 ErrMax= 4.60D-02  0.00D+00 EMaxC= 1.00D-01 BMatC= 2.12D-01 BMatP= 2.12D-01
 IDIUse=3 WtCom= 5.40D-01 WtEn= 4.60D-01
 Coeff-Com:  0.100D+01
 Coeff-En:   0.100D+01
 Coeff:      0.100D+01
 Gap=     0.402 Goal=   None    Shift=    0.000
 GapD=    0.402 DampG=2.000 DampE=0.500 DampFc=1.0000 IDamp=-1.
 RMSDP=7.65D-03 MaxDP=1.26D-01              OVMax= 1.87D-01

 Cycle   2  Pass 0  IDiag  1:
 RMSU=  7.57D-03    CP:  9.65D-01
 E= -289.037093729732     Delta-E=        0.065742814086 Rises=F Damp=F
 DIIS: error= 5.17D-02 at cycle   2 NSaved=   2.
 NSaved= 2 IEnMin= 1 EnMin= -289.102836543818     IErMin= 1 ErrMin= 4.60D-02
 ErrMax= 5.17D-02  0.00D+00 EMaxC= 1.00D-01 BMatC= 2.85D-01 BMatP= 2.12D-01
 IDIUse=2 WtCom= 0.00D+00 WtEn= 1.00D+00
 Coeff-En:   0.566D+00 0.434D+00
 Coeff:      0.566D+00 0.434D+00
 Gap=     0.370 Goal=   None    Shift=    0.000
 RMSDP=3.99D-03 MaxDP=6.02D-02 DE= 6.57D-02 OVMax= 9.66D-02

 Cycle   3  Pass 0  IDiag  1:
 RMSU=  1.30D-03    CP:  9.79D-01  5.05D-01
 E= -289.306290041379     Delta-E=       -0.269196311647 Rises=F Damp=F
 DIIS: error= 4.33D-03 at cycle   3 NSaved=   3.
 NSaved= 3 IEnMin= 3 EnMin= -289.306290041379     IErMin= 3 ErrMin= 4.33D-03
 ErrMax= 4.33D-03  0.00D+00 EMaxC= 1.00D-01 BMatC= 3.32D-03 BMatP= 2.12D-01
 IDIUse=3 WtCom= 9.57D-01 WtEn= 4.33D-02
 Coeff-Com:  0.173D+00 0.136D+00 0.691D+00
 Coeff-En:   0.000D+00 0.000D+00 0.100D+01
 Coeff:      0.166D+00 0.130D+00 0.705D+00
 Gap=     0.375 Goal=   None    Shift=    0.000
 RMSDP=5.88D-04 MaxDP=1.65D-02 DE=-2.69D-01 OVMax= 1.71D-02

 Cycle   4  Pass 0  IDiag  1:
 RMSU=  5.08D-04    CP:  9.83D-01  4.82D-01  8.37D-01
 E= -289.307979151110     Delta-E=       -0.001689109732 Rises=F Damp=F
 DIIS: error= 2.45D-03 at cycle   4 NSaved=   4.
 NSaved= 4 IEnMin= 4 EnMin= -289.307979151110     IErMin= 4 ErrMin= 2.45D-03
 ErrMax= 2.45D-03  0.00D+00 EMaxC= 1.00D-01 BMatC= 1.40D-03 BMatP= 3.32D-03
 IDIUse=3 WtCom= 9.75D-01 WtEn= 2.45D-02
 Coeff-Com:  0.264D-01 0.134D-01 0.398D+00 0.562D+00
 Coeff-En:   0.000D+00 0.000D+00 0.289D+00 0.711D+00
 Coeff:      0.258D-01 0.131D-01 0.395D+00 0.566D+00
 Gap=     0.374 Goal=   None    Shift=    0.000
 RMSDP=2.68D-04 MaxDP=6.67D-03 DE=-1.69D-03 OVMax= 7.82D-03

 Cycle   5  Pass 0  IDiag  1:
 RMSU=  1.08D-04    CP:  9.81D-01  4.84D-01  8.66D-01  5.32D-01
 E= -289.309079143814     Delta-E=       -0.001099992704 Rises=F Damp=F
 DIIS: error= 4.10D-04 at cycle   5 NSaved=   5.
 NSaved= 5 IEnMin= 5 EnMin= -289.309079143814     IErMin= 5 ErrMin= 4.10D-04
 ErrMax= 4.10D-04  0.00D+00 EMaxC= 1.00D-01 BMatC= 2.35D-05 BMatP= 1.40D-03
 IDIUse=3 WtCom= 9.96D-01 WtEn= 4.10D-03
 Coeff-Com:  0.168D-02-0.143D-02 0.111D+00 0.209D+00 0.679D+00
 Coeff-En:   0.000D+00 0.000D+00 0.000D+00 0.000D+00 0.100D+01
 Coeff:      0.167D-02-0.143D-02 0.111D+00 0.208D+00 0.681D+00
 Gap=     0.374 Goal=   None    Shift=    0.000
 RMSDP=4.41D-05 MaxDP=1.14D-03 DE=-1.10D-03 OVMax= 1.03D-03

 Cycle   6  Pass 0  IDiag  1:
 RMSU=  2.85D-05    CP:  9.81D-01  4.84D-01  8.70D-01  5.62D-01  7.32D-01
 E= -289.309094928684     Delta-E=       -0.000015784870 Rises=F Damp=F
 DIIS: error= 1.77D-04 at cycle   6 NSaved=   6.
 NSaved= 6 IEnMin= 6 EnMin= -289.309094928684     IErMin= 6 ErrMin= 1.77D-04
 ErrMax= 1.77D-04  0.00D+00 EMaxC= 1.00D-01 BMatC= 3.70D-06 BMatP= 2.35D-05
 IDIUse=3 WtCom= 9.98D-01 WtEn= 1.77D-03
 Coeff-Com: -0.261D-03-0.148D-02 0.426D-01 0.897D-01 0.378D+00 0.491D+00
 Coeff-En:   0.000D+00 0.000D+00 0.000D+00 0.000D+00 0.150D-01 0.985D+00
 Coeff:     -0.261D-03-0.147D-02 0.425D-01 0.896D-01 0.377D+00 0.492D+00
 Gap=     0.374 Goal=   None    Shift=    0.000
 RMSDP=1.40D-05 MaxDP=3.77D-04 DE=-1.58D-05 OVMax= 3.48D-04

 Cycle   7  Pass 0  IDiag  1:
 RMSU=  5.46D-06    CP:  9.81D-01  4.84D-01  8.72D-01  5.65D-01  7.67D-01
                    CP:  5.96D-01
 E= -289.309097732750     Delta-E=       -0.000002804066 Rises=F Damp=F
 DIIS: error= 7.35D-06 at cycle   7 NSaved=   7.
 NSaved= 7 IEnMin= 7 EnMin= -289.309097732750     IErMin= 7 ErrMin= 7.35D-06
 ErrMax= 7.35D-06  0.00D+00 EMaxC= 1.00D-01 BMatC= 1.49D-08 BMatP= 3.70D-06
 IDIUse=1 WtCom= 1.00D+00 WtEn= 0.00D+00
 Coeff-Com: -0.106D-03-0.273D-03 0.445D-02 0.105D-01 0.484D-01 0.903D-01
 Coeff-Com:  0.847D+00
 Coeff:     -0.106D-03-0.273D-03 0.445D-02 0.105D-01 0.484D-01 0.903D-01
 Coeff:      0.847D+00
 Gap=     0.374 Goal=   None    Shift=    0.000
 RMSDP=1.70D-06 MaxDP=3.89D-05 DE=-2.80D-06 OVMax= 2.87D-05

 Initial convergence to 1.0D-05 achieved.  Increase integral accuracy.
 Cycle   8  Pass 1  IDiag  1:
 E= -289.309095039180     Delta-E=        0.000002693570 Rises=F Damp=F
 DIIS: error= 4.95D-06 at cycle   1 NSaved=   1.
 NSaved= 1 IEnMin= 1 EnMin= -289.309095039180     IErMin= 1 ErrMin= 4.95D-06
 ErrMax= 4.95D-06  0.00D+00 EMaxC= 1.00D-01 BMatC= 9.35D-09 BMatP= 9.35D-09
 IDIUse=1 WtCom= 1.00D+00 WtEn= 0.00D+00
 Coeff-Com:  0.100D+01
 Coeff:      0.100D+01
 Gap=     0.374 Goal=   None    Shift=    0.000
 RMSDP=1.70D-06 MaxDP=3.89D-05 DE= 2.69D-06 OVMax= 3.31D-05

 Cycle   9  Pass 1  IDiag  1:
 RMSU=  2.37D-06    CP:  1.00D+00
 E= -289.309095046497     Delta-E=       -0.000000007317 Rises=F Damp=F
 DIIS: error= 4.37D-06 at cycle   2 NSaved=   2.
 NSaved= 2 IEnMin= 2 EnMin= -289.309095046497     IErMin= 2 ErrMin= 4.37D-06
 ErrMax= 4.37D-06  0.00D+00 EMaxC= 1.00D-01 BMatC= 4.06D-09 BMatP= 9.35D-09
 IDIUse=1 WtCom= 1.00D+00 WtEn= 0.00D+00
 Coeff-Com:  0.361D+00 0.639D+00
 Coeff:      0.361D+00 0.639D+00
 Gap=     0.374 Goal=   None    Shift=    0.000
 RMSDP=8.14D-07 MaxDP=2.30D-05 DE=-7.32D-09 OVMax= 1.93D-05

 Cycle  10  Pass 1  IDiag  1:
 RMSU=  7.51D-07    CP:  1.00D+00  8.71D-01
 E= -289.309095049443     Delta-E=       -0.000000002946 Rises=F Damp=F
 DIIS: error= 2.09D-06 at cycle   3 NSaved=   3.
 NSaved= 3 IEnMin= 3 EnMin= -289.309095049443     IErMin= 3 ErrMin= 2.09D-06
 ErrMax= 2.09D-06  0.00D+00 EMaxC= 1.00D-01 BMatC= 9.62D-10 BMatP= 4.06D-09
 IDIUse=1 WtCom= 1.00D+00 WtEn= 0.00D+00
 Coeff-Com: -0.326D-02 0.323D+00 0.680D+00
 Coeff:     -0.326D-02 0.323D+00 0.680D+00
 Gap=     0.374 Goal=   None    Shift=    0.000
 RMSDP=2.65D-07 MaxDP=7.22D-06 DE=-2.95D-09 OVMax= 6.57D-06

 Cycle  11  Pass 1  IDiag  1:
 RMSU=  1.19D-07    CP:  1.00D+00  9.20D-01  7.28D-01
 E= -289.309095050311     Delta-E=       -0.000000000869 Rises=F Damp=F
 DIIS: error= 4.19D-07 at cycle   4 NSaved=   4.
 NSaved= 4 IEnMin= 4 EnMin= -289.309095050311     IErMin= 4 ErrMin= 4.19D-07
 ErrMax= 4.19D-07  0.00D+00 EMaxC= 1.00D-01 BMatC= 3.00D-11 BMatP= 9.62D-10
 IDIUse=1 WtCom= 1.00D+00 WtEn= 0.00D+00
 Coeff-Com: -0.108D-01 0.132D+00 0.312D+00 0.567D+00
 Coeff:     -0.108D-01 0.132D+00 0.312D+00 0.567D+00
 Gap=     0.374 Goal=   None    Shift=    0.000
 RMSDP=4.67D-08 MaxDP=1.31D-06 DE=-8.69D-10 OVMax= 1.13D-06

 Cycle  12  Pass 1  IDiag  1:
 RMSU=  2.79D-08    CP:  1.00D+00  9.25D-01  7.40D-01  7.10D-01
 E= -289.309095050333     Delta-E=       -0.000000000022 Rises=F Damp=F
 DIIS: error= 1.47D-07 at cycle   5 NSaved=   5.
 NSaved= 5 IEnMin= 5 EnMin= -289.309095050333     IErMin= 5 ErrMin= 1.47D-07
 ErrMax= 1.47D-07  0.00D+00 EMaxC= 1.00D-01 BMatC= 3.41D-12 BMatP= 3.00D-11
 IDIUse=1 WtCom= 1.00D+00 WtEn= 0.00D+00
 Coeff-Com: -0.566D-02 0.504D-01 0.124D+00 0.313D+00 0.518D+00
 Coeff:     -0.566D-02 0.504D-01 0.124D+00 0.313D+00 0.518D+00
 Gap=     0.374 Goal=   None    Shift=    0.000
 RMSDP=1.30D-08 MaxDP=3.77D-07 DE=-2.18D-11 OVMax= 4.03D-07

 Cycle  13  Pass 1  IDiag  1:
 RMSU=  8.51D-09    CP:  1.00D+00  9.26D-01  7.38D-01  6.99D-01  6.69D-01
 E= -289.309095050336     Delta-E=       -0.000000000003 Rises=F Damp=F
 DIIS: error= 1.66D-08 at cycle   6 NSaved=   6.
 NSaved= 6 IEnMin= 6 EnMin= -289.309095050336     IErMin= 6 ErrMin= 1.66D-08
 ErrMax= 1.66D-08  0.00D+00 EMaxC= 1.00D-01 BMatC= 5.65D-14 BMatP= 3.41D-12
 IDIUse=1 WtCom= 1.00D+00 WtEn= 0.00D+00
 Coeff-Com: -0.696D-03 0.335D-02 0.884D-02 0.383D-01 0.142D+00 0.809D+00
 Coeff:     -0.696D-03 0.335D-02 0.884D-02 0.383D-01 0.142D+00 0.809D+00
 Gap=     0.374 Goal=   None    Shift=    0.000
 RMSDP=2.87D-09 MaxDP=5.88D-08 DE=-3.07D-12 OVMax= 5.37D-08

 SCF Done:  E(RB3LYP) =  -289.309095050     A.U. after   13 cycles
            NFock= 13  Conv=0.29D-08     -V/T= 2.0086
 KE= 2.868398925370D+02 PE=-1.228627670292D+03 EE= 3.690462874621D+02
 Leave Link  502 at Mon Oct 14 02:27:05 2019, MaxMem= 10737418240 cpu:              47.3 elap:               2.0
 (Enter /apps/cent7/gaussian/g16-A.03/g16-haswell/g16/l601.exe)
 Copying SCF densities to generalized density rwf, IOpCl= 0 IROHF=0.

 **********************************************************************

            Population analysis using the SCF density.

 **********************************************************************

 Orbital symmetries:
       Occupied  (A) (A) (A) (A) (A) (A) (A) (A) (A) (A) (A) (A)
                 (A) (A) (A) (A) (A) (A) (A) (A) (A) (A) (A) (A)
                 (A)
       Virtual   (A) (A) (A) (A) (A) (A) (A) (A) (A) (A) (A) (A)
                 (A) (A) (A) (A) (A) (A) (A) (A) (A) (A) (A) (A)
                 (A) (A) (A) (A) (A) (A) (A) (A) (A) (A) (A) (A)
                 (A) (A) (A) (A) (A) (A) (A) (A) (A) (A) (A) (A)
                 (A) (A) (A) (A) (A) (A) (A) (A) (A) (A) (A) (A)
                 (A) (A) (A) (A) (A) (A) (A) (A) (A) (A) (A) (A)
                 (A) (A) (A) (A) (A) (A) (A) (A) (A) (A) (A) (A)
                 (A) (A) (A) (A) (A)
 The electronic state is 1-A.
 Alpha  occ. eigenvalues --  -19.41807 -14.71028 -10.44648 -10.37007 -10.36414
 Alpha  occ. eigenvalues --  -10.35911  -1.36830  -1.13387  -0.99716  -0.89037
 Alpha  occ. eigenvalues --   -0.87907  -0.83315  -0.81756  -0.79053  -0.68800
 Alpha  occ. eigenvalues --   -0.63624  -0.62577  -0.61010  -0.58186  -0.57898
 Alpha  occ. eigenvalues --   -0.56531  -0.55170  -0.53723  -0.52366  -0.52093
 Alpha virt. eigenvalues --   -0.14675  -0.14158  -0.10053  -0.08712  -0.06578
 Alpha virt. eigenvalues --   -0.04025  -0.03182  -0.02183  -0.00945  -0.00460
 Alpha virt. eigenvalues --    0.01553   0.02651   0.02985   0.04897   0.05976
 Alpha virt. eigenvalues --    0.08674   0.09102   0.31704   0.32484   0.33861
 Alpha virt. eigenvalues --    0.34453   0.35612   0.39618   0.44281   0.49001
 Alpha virt. eigenvalues --    0.49660   0.52065   0.53731   0.55835   0.58065
 Alpha virt. eigenvalues --    0.60117   0.62046   0.65173   0.66839   0.69556
 Alpha virt. eigenvalues --    0.70542   0.71959   0.73127   0.73819   0.75116
 Alpha virt. eigenvalues --    0.76589   0.77756   0.78371   0.80808   0.81666
 Alpha virt. eigenvalues --    0.85145   0.88233   0.96610   1.05994   1.12745
 Alpha virt. eigenvalues --    1.17320   1.22731   1.28669   1.40218   1.42857
 Alpha virt. eigenvalues --    1.44635   1.51217   1.54593   1.62655   1.64240
 Alpha virt. eigenvalues --    1.64710   1.71963   1.77765   1.85469   1.86193
 Alpha virt. eigenvalues --    1.87524   1.95503   1.96588   2.01842   2.05368
 Alpha virt. eigenvalues --    2.06359   2.09007   2.09948   2.12165   2.12616
 Alpha virt. eigenvalues --    2.16999   2.27098   2.33700   2.36883   2.49218
 Alpha virt. eigenvalues --    2.52653   2.55515   2.65562   3.44434   3.74260
 Alpha virt. eigenvalues --    3.98315   4.10216   4.11824   4.45049
          Condensed to atoms (all electrons):
               1          2          3          4          5          6
     1  C    5.180000   0.356907  -0.056361  -0.002519  -0.058130  -0.059260
     2  C    0.356907   5.042752   0.205407  -0.034934   0.348163   0.348323
     3  N   -0.056361   0.205407   6.529174   0.154964  -0.053382  -0.054197
     4  O   -0.002519  -0.034934   0.154964   8.140983  -0.006936   0.004265
     5  C   -0.058130   0.348163  -0.053382  -0.006936   5.185539  -0.056849
     6  C   -0.059260   0.348323  -0.054197   0.004265  -0.056849   5.183285
     7  H    0.381760  -0.023012   0.003134   0.000178  -0.002368  -0.005523
     8  H    0.366004  -0.034247  -0.001578   0.000443  -0.006026   0.005103
     9  H    0.366333  -0.034581  -0.003494  -0.000660   0.004886  -0.002620
    10  H    0.006207  -0.019454   0.307052  -0.031401  -0.004306  -0.000796
    11  H    0.012125  -0.000886  -0.034785   0.245624   0.000343   0.000572
    12  H    0.004160  -0.033086   0.000522   0.000081   0.376048  -0.007560
    13  H   -0.002106  -0.031622  -0.010017   0.011088   0.363853   0.004500
    14  H   -0.003978  -0.030626   0.003022   0.000167   0.382774   0.000551
    15  H   -0.005534  -0.021670   0.003017  -0.000063  -0.000295   0.378035
    16  H   -0.002232  -0.039853  -0.004494   0.000112   0.005309   0.367272
    17  H    0.004757  -0.029472  -0.001670  -0.000091  -0.008886   0.371174
    18  H   -0.007305  -0.014863   0.295005  -0.030881   0.005708   0.000600
               7          8          9         10         11         12
     1  C    0.381760   0.366004   0.366333   0.006207   0.012125   0.004160
     2  C   -0.023012  -0.034247  -0.034581  -0.019454  -0.000886  -0.033086
     3  N    0.003134  -0.001578  -0.003494   0.307052  -0.034785   0.000522
     4  O    0.000178   0.000443  -0.000660  -0.031401   0.245624   0.000081
     5  C   -0.002368  -0.006026   0.004886  -0.004306   0.000343   0.376048
     6  C   -0.005523   0.005103  -0.002620  -0.000796   0.000572  -0.007560
     7  H    0.447772  -0.019034  -0.018033  -0.000062  -0.000249  -0.000028
     8  H   -0.019034   0.523142  -0.028377  -0.000261   0.008513   0.000027
     9  H   -0.018033  -0.028377   0.526422  -0.000106  -0.000720  -0.000150
    10  H   -0.000062  -0.000261  -0.000106   0.327572   0.003385   0.001890
    11  H   -0.000249   0.008513  -0.000720   0.003385   0.296485  -0.000059
    12  H   -0.000028   0.000027  -0.000150   0.001890  -0.000059   0.493672
    13  H   -0.000087   0.001458  -0.000178  -0.000726   0.002348  -0.022637
    14  H    0.001200   0.000614   0.000242  -0.000145  -0.000308  -0.020366
    15  H    0.004417   0.000120   0.000103  -0.000168  -0.000005  -0.000072
    16  H   -0.000010  -0.000133   0.001193  -0.000599  -0.000012   0.000222
    17  H    0.000177  -0.000172  -0.000118   0.003719  -0.000009   0.006992
    18  H   -0.000143  -0.000242   0.006366  -0.024339   0.000686  -0.000188
              13         14         15         16         17         18
     1  C   -0.002106  -0.003978  -0.005534  -0.002232   0.004757  -0.007305
     2  C   -0.031622  -0.030626  -0.021670  -0.039853  -0.029472  -0.014863
     3  N   -0.010017   0.003022   0.003017  -0.004494  -0.001670   0.295005
     4  O    0.011088   0.000167  -0.000063   0.000112  -0.000091  -0.030881
     5  C    0.363853   0.382774  -0.000295   0.005309  -0.008886   0.005708
     6  C    0.004500   0.000551   0.378035   0.367272   0.371174   0.000600
     7  H   -0.000087   0.001200   0.004417  -0.000010   0.000177  -0.000143
     8  H    0.001458   0.000614   0.000120  -0.000133  -0.000172  -0.000242
     9  H   -0.000178   0.000242   0.000103   0.001193  -0.000118   0.006366
    10  H   -0.000726  -0.000145  -0.000168  -0.000599   0.003719  -0.024339
    11  H    0.002348  -0.000308  -0.000005  -0.000012  -0.000009   0.000686
    12  H   -0.022637  -0.020366  -0.000072   0.000222   0.006992  -0.000188
    13  H    0.516924  -0.018873  -0.000050  -0.000211   0.000197   0.000305
    14  H   -0.018873   0.464722   0.000328  -0.000080  -0.000063  -0.000107
    15  H   -0.000050   0.000328   0.455827  -0.018628  -0.019248  -0.000108
    16  H   -0.000211  -0.000080  -0.018628   0.537657  -0.026300   0.007776
    17  H    0.000197  -0.000063  -0.019248  -0.026300   0.503296  -0.000569
    18  H    0.000305  -0.000107  -0.000108   0.007776  -0.000569   0.342288
 Mulliken charges:
               1
     1  C   -0.480829
     2  C    0.046754
     3  N   -0.281318
     4  O   -0.450418
     5  C   -0.475444
     6  C   -0.476873
     7  H    0.229912
     8  H    0.184644
     9  H    0.183493
    10  H    0.432537
    11  H    0.466951
    12  H    0.200531
    13  H    0.185834
    14  H    0.220925
    15  H    0.223994
    16  H    0.173010
    17  H    0.196286
    18  H    0.420011
 Sum of Mulliken charges =   1.00000
 Mulliken charges with hydrogens summed into heavy atoms:
               1
     1  C    0.117220
     2  C    0.046754
     3  N    0.571231
     4  O    0.016533
     5  C    0.131846
     6  C    0.116417
 Electronic spatial extent (au):  <R**2>=            618.6692
 Charge=              1.0000 electrons
 Dipole moment (field-independent basis, Debye):
    X=              0.3201    Y=             -1.2049    Z=             -0.9117  Tot=              1.5445
 Quadrupole moment (field-independent basis, Debye-Ang):
   XX=            -32.7419   YY=            -28.0434   ZZ=            -32.7833
   XY=             -0.2626   XZ=             -0.9612   YZ=              0.5734
 Traceless Quadrupole moment (field-independent basis, Debye-Ang):
   XX=             -1.5523   YY=              3.1462   ZZ=             -1.5938
   XY=             -0.2626   XZ=             -0.9612   YZ=              0.5734
 Octapole moment (field-independent basis, Debye-Ang**2):
  XXX=              0.6791  YYY=             -7.2580  ZZZ=             -2.1925  XYY=              8.2795
  XXY=              4.1393  XXZ=             -1.7384  XZZ=              3.1017  YZZ=             -3.2287
  YYZ=             -0.5530  XYZ=              1.7212
 Hexadecapole moment (field-independent basis, Debye-Ang**3):
 XXXX=           -340.8599 YYYY=           -185.5370 ZZZZ=           -201.5116 XXXY=              6.3698
 XXXZ=              2.2932 YYYX=             -9.6019 YYYZ=              0.3964 ZZZX=             -5.9068
 ZZZY=              3.5897 XXYY=            -77.1368 XXZZ=            -90.0272 YYZZ=            -62.5850
 XXYZ=             -0.7160 YYXZ=             -1.0886 ZZXY=             -3.3863
 N-N= 2.834323952423D+02 E-N=-1.228627670780D+03  KE= 2.868398925370D+02
 No NMR shielding tensors so no spin-rotation constants.
 Leave Link  601 at Mon Oct 14 02:27:05 2019, MaxMem= 10737418240 cpu:               2.8 elap:               0.1
 (Enter /apps/cent7/gaussian/g16-A.03/g16-haswell/g16/l701.exe)
 ... and contract with generalized density number  0.
 Compute integral first derivatives.
 Leave Link  701 at Mon Oct 14 02:27:05 2019, MaxMem= 10737418240 cpu:               2.2 elap:               0.1
 (Enter /apps/cent7/gaussian/g16-A.03/g16-haswell/g16/l702.exe)
 L702 exits ... SP integral derivatives will be done elsewhere.
 Leave Link  702 at Mon Oct 14 02:27:06 2019, MaxMem= 10737418240 cpu:               0.5 elap:               0.0
 (Enter /apps/cent7/gaussian/g16-A.03/g16-haswell/g16/l703.exe)
 Integral derivatives from FoFJK, PRISM(SPDF).
 Compute integral first derivatives, UseDBF=F ICtDFT=           0.
 Calling FoFJK, ICntrl=      2127 FMM=F ISym2X=0 I1Cent= 0 IOpClX= 0 NMat=1 NMatS=1 NMatT=0.
 FoFJK:  IHMeth= 1 ICntrl=    2127 DoSepK=F KAlg= 0 I1Cent=           0 FoldK=F
 IRaf=         0 NMat=       1 IRICut=       1 DoRegI=T DoRafI=F ISym2E= 0 IDoP0=0 IntGTp=1.
 FoFCou: FMM=F IPFlag=           0 FMFlag=      100000 FMFlg1=         800
         NFxFlg=           0 DoJE=F BraDBF=F KetDBF=F FulRan=T
         wScrn=  0.000000 ICntrl=      2127 IOpCl=  0 I1Cent=           0 NGrid=           0
         NMat0=    1 NMatS0=      1 NMatT0=    0 NMatD0=    1 NMtDS0=    0 NMtDT0=    0
 Symmetry not used in FoFCou.
 Leave Link  703 at Mon Oct 14 02:27:06 2019, MaxMem= 10737418240 cpu:              12.7 elap:               0.6
 (Enter /apps/cent7/gaussian/g16-A.03/g16-haswell/g16/l716.exe)
 Dipole        = 1.25930240D-01-4.74057574D-01-3.58689783D-01
 ***** Axes restored to original set *****
 -------------------------------------------------------------------
 Center     Atomic                   Forces (Hartrees/Bohr)
 Number     Number              X              Y              Z
 -------------------------------------------------------------------
      1        6          -0.003062649    0.022422292    0.010071323
      2        6          -0.015018094   -0.056489404    0.011641917
      3        7          -0.009084005   -0.030353499   -0.007288497
      4        8          -0.005299153    0.046547912   -0.011062684
      5        6           0.017119342    0.008939065   -0.000194477
      6        6          -0.002332336    0.014893783   -0.010103310
      7        1          -0.001458163    0.000589557   -0.001673733
      8        1           0.000797285   -0.004116648   -0.007174323
      9        1           0.005410579   -0.004146311   -0.004069578
     10        1          -0.008445780    0.018303499    0.018359844
     11        1          -0.001516876   -0.012935325   -0.009331108
     12        1          -0.004790028    0.001171152   -0.000104941
     13        1          -0.007184576   -0.000456859   -0.002137000
     14        1          -0.001248161   -0.000505561    0.000404261
     15        1           0.000083362   -0.000027982    0.001928767
     16        1           0.006438153   -0.004882520    0.004216792
     17        1           0.002021922   -0.001154792    0.004966129
     18        1           0.027569176    0.002201642    0.001550617
 -------------------------------------------------------------------
 Cartesian Forces:  Max     0.056489404 RMS     0.013842086
 Leave Link  716 at Mon Oct 14 02:27:06 2019, MaxMem= 10737418240 cpu:               0.5 elap:               0.0
 (Enter /apps/cent7/gaussian/g16-A.03/g16-haswell/g16/l103.exe)

 GradGradGradGradGradGradGradGradGradGradGradGradGradGradGradGradGradGrad
 Berny optimization.
 FormGI is forming the generalized inverse of G from B-inverse, IUseBI=4.
 Internal  Forces:  Max     0.036257966 RMS     0.007705517
 Search for a local minimum.
 Step number   1 out of a maximum of   97
 All quantities printed in internal units (Hartrees-Bohrs-Radians)
 RMS Force = .77055D-02 SwitMx=.10000D-02 MixMth= 1
 Mixed Optimization -- RFO/linear search
 Second derivative matrix not updated -- first step.
 ITU=  0
     Eigenvalues ---    0.00230   0.00230   0.00230   0.00532   0.01835
     Eigenvalues ---    0.04360   0.04783   0.04960   0.05276   0.05715
     Eigenvalues ---    0.05715   0.05715   0.05715   0.05715   0.05716
     Eigenvalues ---    0.06050   0.11794   0.14059   0.14276   0.14535
     Eigenvalues ---    0.16000   0.16000   0.16000   0.16000   0.16000
     Eigenvalues ---    0.16000   0.16000   0.16000   0.16000   0.16000
     Eigenvalues ---    0.22123   0.26702   0.26848   0.26941   0.33706
     Eigenvalues ---    0.34804   0.34804   0.34809   0.34810   0.34810
     Eigenvalues ---    0.34813   0.34814   0.34818   0.34818   0.47688
     Eigenvalues ---    0.47688   0.53119   0.55479
 RFO step:  Lambda=-1.84693429D-02 EMin= 2.30000000D-03
 Linear search not attempted -- first point.
 Iteration  1 RMS(Cart)=  0.05148810 RMS(Int)=  0.00168847
 Iteration  2 RMS(Cart)=  0.00202093 RMS(Int)=  0.00074630
 Iteration  3 RMS(Cart)=  0.00000379 RMS(Int)=  0.00074629
 Iteration  4 RMS(Cart)=  0.00000001 RMS(Int)=  0.00074629
 ITry= 1 IFail=0 DXMaxC= 1.96D-01 DCOld= 1.00D+10 DXMaxT= 3.00D-01 DXLimC= 3.00D+00 Rises=F
 Variable       Old X    -DE/DX   Delta X   Delta X   Delta X     New X
                                 (Linear)    (Quad)   (Total)
    R1        2.94729  -0.00428   0.00000  -0.01491  -0.01491   2.93238
    R2        2.05984  -0.00074   0.00000  -0.00202  -0.00202   2.05782
    R3        2.05971   0.00428   0.00000   0.01168   0.01168   2.07139
    R4        2.05994   0.00476   0.00000   0.01299   0.01299   2.07293
    R5        2.81129   0.02336   0.00000   0.06572   0.06572   2.87701
    R6        2.95067  -0.00400   0.00000  -0.01400  -0.01400   2.93667
    R7        2.94515  -0.00087   0.00000  -0.00301  -0.00301   2.94214
    R8        2.56843   0.03626   0.00000   0.06596   0.06596   2.63439
    R9        1.88973   0.02622   0.00000   0.05293   0.05293   1.94265
   R10        1.88973   0.02749   0.00000   0.05549   0.05549   1.94521
   R11        1.81409   0.01522   0.00000   0.02655   0.02655   1.84064
   R12        2.05978   0.00139   0.00000   0.00380   0.00380   2.06357
   R13        2.05995   0.00312   0.00000   0.00852   0.00852   2.06847
   R14        2.05972   0.00065   0.00000   0.00177   0.00177   2.06150
   R15        2.05984  -0.00018   0.00000  -0.00049  -0.00049   2.05935
   R16        2.05985   0.00538   0.00000   0.01468   0.01468   2.07454
   R17        2.05979   0.00246   0.00000   0.00671   0.00671   2.06650
    A1        1.91064  -0.00247   0.00000  -0.02172  -0.02126   1.88938
    A2        1.91068   0.00911   0.00000   0.05403   0.05294   1.96362
    A3        1.91063   0.00753   0.00000   0.04709   0.04594   1.95658
    A4        1.91066  -0.00492   0.00000  -0.03732  -0.03684   1.87382
    A5        1.91057  -0.00352   0.00000  -0.02574  -0.02535   1.88523
    A6        1.91061  -0.00573   0.00000  -0.01635  -0.01869   1.89192
    A7        1.91595  -0.00197   0.00000  -0.03670  -0.03643   1.87953
    A8        1.94069   0.00059   0.00000   0.01517   0.01284   1.95354
    A9        1.90659   0.00215   0.00000   0.03355   0.03209   1.93868
   A10        1.93138  -0.00182   0.00000  -0.03125  -0.03089   1.90049
   A11        1.86074  -0.00214   0.00000  -0.02508  -0.02416   1.83658
   A12        1.90660   0.00316   0.00000   0.04405   0.04292   1.94953
   A13        1.97907   0.02082   0.00000   0.09123   0.09053   2.06960
   A14        1.89651  -0.00033   0.00000   0.00669   0.00777   1.90428
   A15        1.89651  -0.00212   0.00000   0.00898   0.00821   1.90472
   A16        1.89651  -0.01185   0.00000  -0.07052  -0.07105   1.82546
   A17        1.89651  -0.00705   0.00000  -0.02057  -0.02283   1.87368
   A18        1.89733  -0.00007   0.00000  -0.01950  -0.02040   1.87693
   A19        1.91064  -0.00830   0.00000  -0.04653  -0.04653   1.86411
   A20        1.91057   0.00534   0.00000   0.03220   0.03157   1.94214
   A21        1.91063   0.00841   0.00000   0.04913   0.04853   1.95916
   A22        1.91059  -0.00124   0.00000  -0.01122  -0.01104   1.89955
   A23        1.91059  -0.00548   0.00000  -0.02216  -0.02343   1.88715
   A24        1.91072  -0.00270   0.00000  -0.01910  -0.01895   1.89178
   A25        1.91070  -0.00434   0.00000  -0.02886  -0.02867   1.88203
   A26        1.91064  -0.00042   0.00000  -0.00766  -0.00750   1.90315
   A27        1.91061   0.00822   0.00000   0.04791   0.04721   1.95782
   A28        1.91066   0.00564   0.00000   0.03502   0.03428   1.94495
   A29        1.91061  -0.00503   0.00000  -0.03505  -0.03486   1.87575
   A30        1.91067  -0.00322   0.00000  -0.02178  -0.02166   1.88901
   A31        1.91060  -0.00519   0.00000  -0.01844  -0.01988   1.89072
    D1        2.79343   0.00119   0.00000   0.04294   0.04288   2.83631
    D2       -1.34669  -0.00209   0.00000  -0.01186  -0.01188  -1.35857
    D3        0.75891   0.00364   0.00000   0.07476   0.07492   0.83383
    D4       -1.39530  -0.00077   0.00000   0.01702   0.01621  -1.37908
    D5        0.74778  -0.00405   0.00000  -0.03778  -0.03855   0.70923
    D6        2.85337   0.00168   0.00000   0.04884   0.04825   2.90162
    D7        0.69910   0.00240   0.00000   0.05893   0.05954   0.75864
    D8        2.84217  -0.00088   0.00000   0.00413   0.00478   2.84695
    D9       -1.33542   0.00485   0.00000   0.09074   0.09157  -1.24384
   D10        1.09798   0.00044   0.00000  -0.00874  -0.00843   1.08955
   D11       -3.07446  -0.00125   0.00000  -0.03403  -0.03363  -3.10810
   D12       -1.01276  -0.00271   0.00000  -0.04853  -0.04905  -1.06182
   D13       -1.05059   0.00227   0.00000   0.01830   0.01846  -1.03213
   D14        1.06015   0.00058   0.00000  -0.00698  -0.00675   1.05341
   D15        3.12185  -0.00088   0.00000  -0.02149  -0.02217   3.09969
   D16       -3.12207   0.00074   0.00000  -0.00263  -0.00234  -3.12441
   D17       -1.01132  -0.00095   0.00000  -0.02791  -0.02755  -1.03887
   D18        1.05038  -0.00241   0.00000  -0.04241  -0.04297   1.00741
   D19        2.59230   0.00286   0.00000   0.07636   0.07616   2.66846
   D20       -1.59658   0.00457   0.00000   0.09902   0.09957  -1.49702
   D21        0.49786   0.00365   0.00000   0.08690   0.08705   0.58491
   D22       -1.55671  -0.00052   0.00000   0.01824   0.01795  -1.53876
   D23        0.53758   0.00120   0.00000   0.04090   0.04136   0.57895
   D24        2.63203   0.00028   0.00000   0.02878   0.02885   2.66088
   D25        0.48672  -0.00228   0.00000  -0.00407  -0.00468   0.48203
   D26        2.58102  -0.00057   0.00000   0.01859   0.01873   2.59974
   D27       -1.60772  -0.00148   0.00000   0.00647   0.00621  -1.60151
   D28       -0.73428  -0.00308   0.00000  -0.08777  -0.08823  -0.82251
   D29        1.36008  -0.00446   0.00000  -0.10605  -0.10695   1.25314
   D30       -2.82875  -0.00233   0.00000  -0.07785  -0.07792  -2.90667
   D31       -2.80356  -0.00069   0.00000  -0.04804  -0.04803  -2.85159
   D32       -0.70920  -0.00207   0.00000  -0.06632  -0.06675  -0.77595
   D33        1.38516   0.00006   0.00000  -0.03812  -0.03772   1.34744
   D34        1.39202   0.00098   0.00000  -0.02040  -0.01990   1.37212
   D35       -2.79681  -0.00040   0.00000  -0.03868  -0.03861  -2.83542
   D36       -0.70245   0.00173   0.00000  -0.01048  -0.00959  -0.71204
   D37       -0.35786  -0.00151   0.00000  -0.04374  -0.04462  -0.40248
   D38       -2.46860  -0.00632   0.00000  -0.06196  -0.05972  -2.52832
   D39        1.75288   0.00441   0.00000   0.01271   0.01135   1.76423
         Item               Value     Threshold  Converged?
 Maximum Force            0.036258     0.000450     NO 
 RMS     Force            0.007706     0.000300     NO 
 Maximum Displacement     0.195865     0.001800     NO 
 RMS     Displacement     0.051402     0.001200     NO 
 Predicted change in Energy=-1.073247D-02
 Lowest energy point so far.  Saving SCF results.
 GradGradGradGradGradGradGradGradGradGradGradGradGradGradGradGradGradGrad

 Leave Link  103 at Mon Oct 14 02:27:06 2019, MaxMem= 10737418240 cpu:               1.2 elap:               0.1
 (Enter /apps/cent7/gaussian/g16-A.03/g16-haswell/g16/l202.exe)
                          Input orientation:                          
 ---------------------------------------------------------------------
 Center     Atomic      Atomic             Coordinates (Angstroms)
 Number     Number       Type             X           Y           Z
 ---------------------------------------------------------------------
      1          6           0        2.038152   -0.763609   -1.293202
      2          6           0        1.488942   -0.056603   -0.025752
      3          7           0        2.003464    1.376232   -0.035704
      4          8           0        1.621471    2.214730   -1.081840
      5          6           0       -0.064709   -0.033110   -0.001533
      6          6           0        2.075292   -0.692699    1.268677
      7          1           0        1.949425   -1.839340   -1.149177
      8          1           0        1.471688   -0.506609   -2.195738
      9          1           0        3.095473   -0.531075   -1.470104
     10          1           0        1.678241    1.856462    0.813065
     11          1           0        1.378176    1.639547   -1.829300
     12          1           0       -0.444502    0.006832    1.021510
     13          1           0       -0.474953    0.820301   -0.550637
     14          1           0       -0.438109   -0.943777   -0.471971
     15          1           0        2.000312   -1.777524    1.197196
     16          1           0        3.135320   -0.444101    1.409033
     17          1           0        1.525697   -0.369558    2.157142
     18          1           0        3.032473    1.365369   -0.011002
 ---------------------------------------------------------------------
                    Distance matrix (angstroms):
                    1          2          3          4          5
     1  C    0.000000
     2  C    1.551747   0.000000
     3  N    2.482221   1.522447   0.000000
     4  O    3.014764   2.508354   1.394059   0.000000
     5  C    2.573726   1.554017   2.502948   3.010491   0.000000
     6  C    2.563129   1.556911   2.446843   3.766169   2.574509
     7  H    1.088951   2.156914   3.403328   4.067871   2.938756
     8  H    1.096131   2.216223   2.914382   2.944299   2.720158
     9  H    1.096948   2.211836   2.624463   3.140522   3.520145
    10  H    3.380926   2.097442   1.028007   1.929311   2.696651
    11  H    2.549143   2.478301   1.917631   0.974025   2.867130
    12  H    3.480667   2.199770   2.997581   3.683360   1.091996
    13  H    3.062004   2.213898   2.591672   2.573248   1.094589
    14  H    2.615101   2.167883   3.396181   3.819684   1.090896
    15  H    2.689151   2.172251   3.386182   4.612550   2.957067
    16  H    2.933928   2.217955   2.584951   3.945323   3.521193
    17  H    3.510379   2.205520   2.843346   4.144722   2.702308
    18  H    2.676799   2.098739   1.029363   1.964442   3.398289
                    6          7          8          9         10
     6  C    0.000000
     7  H    2.678926   0.000000
     8  H    3.521526   1.760595   0.000000
     9  H    2.927083   1.768610   1.778714   0.000000
    10  H    2.619819   4.193195   3.831405   3.594681   0.000000
    11  H    3.939899   3.590480   2.179222   2.791009   2.668179
    12  H    2.626747   3.721709   3.779695   4.362214   2.823229
    13  H    3.478911   3.648225   2.873406   3.926777   2.751283
    14  H    3.067586   2.638363   2.609562   3.694969   3.737860
    15  H    1.089760   2.347738   3.661512   3.141258   3.668397
    16  H    1.097798   3.146025   3.970636   2.880725   2.787624
    17  H    1.093547   3.643014   4.355373   3.955654   2.604799
    18  H    2.605651   3.569116   3.273136   2.393625   1.659579
                   11         12         13         14         15
    11  H    0.000000
    12  H    3.756998   0.000000
    13  H    2.395878   1.770397   0.000000
    14  H    3.437266   1.770363   1.766216   0.000000
    15  H    4.606854   3.031816   3.991310   3.070367   0.000000
    16  H    4.232723   3.628863   4.298033   4.069060   1.763841
    17  H    4.466541   2.304998   3.570775   3.331441   1.768934
    18  H    2.473474   3.873120   3.590312   4.193994   3.521771
                   16         17         18
    16  H    0.000000
    17  H    1.776545   0.000000
    18  H    2.302446   3.159303   0.000000
 Stoichiometry    C4H12NO(1+)
 Framework group  C1[X(C4H12NO)]
 Deg. of freedom    48
 Full point group                 C1      NOp   1
 RotChk:  IX=2 Diff= 4.18D-01
 Largest Abelian subgroup         C1      NOp   1
 Largest concise Abelian subgroup C1      NOp   1
                         Standard orientation:                         
 ---------------------------------------------------------------------
 Center     Atomic      Atomic             Coordinates (Angstroms)
 Number     Number       Type             X           Y           Z
 ---------------------------------------------------------------------
      1          6           0       -0.433000    0.882006   -1.303935
      2          6           0       -0.433619    0.047985    0.004624
      3          7           0        0.840846   -0.784627    0.023119
      4          8           0        2.068483   -0.124440    0.044565
      5          6           0       -0.462726    0.951468    1.268682
      6          6           0       -1.597664   -0.985917    0.009097
      7          1           0       -1.447976    1.232128   -1.485733
      8          1           0        0.211123    1.766426   -1.237516
      9          1           0       -0.118273    0.288821   -2.171329
     10          1           0        0.847416   -1.371120    0.867383
     11          1           0        1.916109    0.765444   -0.320965
     12          1           0       -0.927295    0.437295    2.112635
     13          1           0        0.539097    1.270039    1.573621
     14          1           0       -1.045386    1.846985    1.048202
     15          1           0       -2.516999   -0.487596   -0.297620
     16          1           0       -1.420824   -1.811992   -0.691965
     17          1           0       -1.753441   -1.408066    1.005776
     18          1           0        0.844718   -1.413696   -0.791648
 ---------------------------------------------------------------------
 Rotational constants (GHZ):           4.2044717           2.5733527           2.5562294
 Leave Link  202 at Mon Oct 14 02:27:06 2019, MaxMem= 10737418240 cpu:               0.3 elap:               0.0
 (Enter /apps/cent7/gaussian/g16-A.03/g16-haswell/g16/l301.exe)
 Standard basis: 6-31G(d) (6D, 7F)
 Ernie: Thresh=  0.10000D-02 Tol=  0.10000D-05 Strict=F.
 There are   114 symmetry adapted cartesian basis functions of A   symmetry.
 There are   114 symmetry adapted basis functions of A   symmetry.
   114 basis functions,   216 primitive gaussians,   114 cartesian basis functions
    25 alpha electrons       25 beta electrons
       nuclear repulsion energy       279.7699225933 Hartrees.
 IExCor=  402 DFT=T Ex+Corr=B3LYP ExCW=0 ScaHFX=  0.200000
 ScaDFX=  0.800000  0.720000  1.000000  0.810000 ScalE2=  1.000000  1.000000
 IRadAn=      5 IRanWt=     -1 IRanGd=            0 ICorTp=0 IEmpDi=  4
 NAtoms=   18 NActive=   18 NUniq=   18 SFac= 1.00D+00 NAtFMM=   60 NAOKFM=F Big=F
 Integral buffers will be    131072 words long.
 Raffenetti 2 integral format.
 Two-electron integral symmetry is turned on.
 Leave Link  301 at Mon Oct 14 02:27:06 2019, MaxMem= 10737418240 cpu:               1.3 elap:               0.1
 (Enter /apps/cent7/gaussian/g16-A.03/g16-haswell/g16/l302.exe)
 NPDir=0 NMtPBC=     1 NCelOv=     1 NCel=       1 NClECP=     1 NCelD=      1
         NCelK=      1 NCelE2=     1 NClLst=     1 CellRange=     0.0.
 One-electron integrals computed using PRISM.
 One-electron integral symmetry used in STVInt
 NBasis=   114 RedAO= T EigKep=  3.52D-03  NBF=   114
 NBsUse=   114 1.00D-06 EigRej= -1.00D+00 NBFU=   114
 Precomputing XC quadrature grid using
 IXCGrd= 4 IRadAn=           5 IRanWt=          -1 IRanGd=           0 AccXCQ= 0.00D+00.
 Generated NRdTot=       0 NPtTot=           0 NUsed=           0 NTot=          32
 NSgBfM=   114   114   114   114   114 MxSgAt=    18 MxSgA2=    18.
 Leave Link  302 at Mon Oct 14 02:27:06 2019, MaxMem= 10737418240 cpu:               2.8 elap:               0.1
 (Enter /apps/cent7/gaussian/g16-A.03/g16-haswell/g16/l303.exe)
 DipDrv:  MaxL=1.
 Leave Link  303 at Mon Oct 14 02:27:07 2019, MaxMem= 10737418240 cpu:               1.1 elap:               0.1
 (Enter /apps/cent7/gaussian/g16-A.03/g16-haswell/g16/l401.exe)
 Initial guess from the checkpoint file:  "9_p.chk"
 B after Tr=     0.000000   -0.000000   -0.000000
         Rot=    0.989038    0.147591   -0.001783   -0.004307 Ang=  16.98 deg.
 Guess basis will be translated and rotated to current coordinates.
 JPrj=2 DoOrth=T DoCkMO=T.
 Generating alternative initial guess.
 ExpMin= 1.61D-01 ExpMax= 5.48D+03 ExpMxC= 8.25D+02 IAcc=2 IRadAn=         4 AccDes= 0.00D+00
 Harris functional with IExCor=  402 and IRadAn=       4 diagonalized for initial guess.
 HarFok:  IExCor=  402 AccDes= 0.00D+00 IRadAn=         4 IDoV= 1 UseB2=F ITyADJ=14
 ICtDFT=  3500011 ScaDFX=  1.000000  1.000000  1.000000  1.000000
 FoFCou: FMM=F IPFlag=           0 FMFlag=      100000 FMFlg1=           0
         NFxFlg=           0 DoJE=T BraDBF=F KetDBF=T FulRan=T
         wScrn=  0.000000 ICntrl=       500 IOpCl=  0 I1Cent=   200000004 NGrid=           0
         NMat0=    1 NMatS0=      1 NMatT0=    0 NMatD0=    1 NMtDS0=    0 NMtDT0=    0
 Petite list used in FoFCou.
 Harris En= -289.406697665979    
 Leave Link  401 at Mon Oct 14 02:27:07 2019, MaxMem= 10737418240 cpu:               5.6 elap:               0.3
 (Enter /apps/cent7/gaussian/g16-A.03/g16-haswell/g16/l502.exe)
 Integral symmetry usage will be decided dynamically.
 Closed shell SCF:
 Using DIIS extrapolation, IDIIS=  1040.
 NGot= 10737418240 LenX= 10737387936 LenY= 10737374499
 Requested convergence on RMS density matrix=1.00D-08 within 128 cycles.
 Requested convergence on MAX density matrix=1.00D-06.
 Requested convergence on             energy=1.00D-06.
 No special actions if energy rises.
 Fock matrices will be formed incrementally for  20 cycles.
 Integral accuracy reduced to 1.0D-05 until final iterations.

 Cycle   1  Pass 0  IDiag  1:
 FoFJK:  IHMeth= 1 ICntrl=       0 DoSepK=F KAlg= 0 I1Cent=           0 FoldK=F
 IRaf= 990000000 NMat=       1 IRICut=       1 DoRegI=T DoRafI=F ISym2E= 0 IDoP0=0 IntGTp=1.
 FoFCou: FMM=F IPFlag=           0 FMFlag=      100000 FMFlg1=           0
         NFxFlg=           0 DoJE=F BraDBF=F KetDBF=F FulRan=T
         wScrn=  0.000000 ICntrl=         0 IOpCl=  0 I1Cent=           0 NGrid=           0
         NMat0=    1 NMatS0=      1 NMatT0=    0 NMatD0=    1 NMtDS0=    0 NMtDT0=    0
 Symmetry not used in FoFCou.
 E= -289.313411955886    
 DIIS: error= 3.60D-03 at cycle   1 NSaved=   1.
 NSaved= 1 IEnMin= 1 EnMin= -289.313411955886     IErMin= 1 ErrMin= 3.60D-03
 ErrMax= 3.60D-03  0.00D+00 EMaxC= 1.00D-01 BMatC= 3.76D-03 BMatP= 3.76D-03
 IDIUse=3 WtCom= 9.64D-01 WtEn= 3.60D-02
 Coeff-Com:  0.100D+01
 Coeff-En:   0.100D+01
 Coeff:      0.100D+01
 Gap=     1.517 Goal=   None    Shift=    0.000
 GapD=    1.517 DampG=2.000 DampE=1.000 DampFc=2.0000 IDamp=-1.
 RMSDP=9.54D-04 MaxDP=1.51D-02              OVMax= 2.00D-02

 Cycle   2  Pass 0  IDiag  1:
 RMSU=  9.53D-04    CP:  9.99D-01
 E= -289.319214189243     Delta-E=       -0.005802233357 Rises=F Damp=F
 DIIS: error= 1.65D-03 at cycle   2 NSaved=   2.
 NSaved= 2 IEnMin= 2 EnMin= -289.319214189243     IErMin= 2 ErrMin= 1.65D-03
 ErrMax= 1.65D-03  0.00D+00 EMaxC= 1.00D-01 BMatC= 6.70D-04 BMatP= 3.76D-03
 IDIUse=3 WtCom= 9.84D-01 WtEn= 1.65D-02
 Coeff-Com:  0.198D+00 0.802D+00
 Coeff-En:   0.000D+00 0.100D+01
 Coeff:      0.195D+00 0.805D+00
 Gap=     0.376 Goal=   None    Shift=    0.000
 RMSDP=3.44D-04 MaxDP=1.03D-02 DE=-5.80D-03 OVMax= 8.94D-03

 Cycle   3  Pass 0  IDiag  1:
 RMSU=  3.40D-04    CP:  1.00D+00  9.90D-01
 E= -289.319350388260     Delta-E=       -0.000136199017 Rises=F Damp=F
 DIIS: error= 1.59D-03 at cycle   3 NSaved=   3.
 NSaved= 3 IEnMin= 3 EnMin= -289.319350388260     IErMin= 3 ErrMin= 1.59D-03
 ErrMax= 1.59D-03  0.00D+00 EMaxC= 1.00D-01 BMatC= 5.56D-04 BMatP= 6.70D-04
 IDIUse=3 WtCom= 9.84D-01 WtEn= 1.59D-02
 Coeff-Com: -0.346D-01 0.479D+00 0.555D+00
 Coeff-En:   0.000D+00 0.439D+00 0.561D+00
 Coeff:     -0.341D-01 0.478D+00 0.556D+00
 Gap=     0.376 Goal=   None    Shift=    0.000
 RMSDP=1.59D-04 MaxDP=5.31D-03 DE=-1.36D-04 OVMax= 5.01D-03

 Cycle   4  Pass 0  IDiag  1:
 RMSU=  5.70D-05    CP:  1.00D+00  1.04D+00  5.89D-01
 E= -289.319795590186     Delta-E=       -0.000445201926 Rises=F Damp=F
 DIIS: error= 2.67D-04 at cycle   4 NSaved=   4.
 NSaved= 4 IEnMin= 4 EnMin= -289.319795590186     IErMin= 4 ErrMin= 2.67D-04
 ErrMax= 2.67D-04  0.00D+00 EMaxC= 1.00D-01 BMatC= 1.36D-05 BMatP= 5.56D-04
 IDIUse=3 WtCom= 9.97D-01 WtEn= 2.67D-03
 Coeff-Com: -0.203D-01 0.211D+00 0.269D+00 0.540D+00
 Coeff-En:   0.000D+00 0.000D+00 0.000D+00 0.100D+01
 Coeff:     -0.203D-01 0.210D+00 0.269D+00 0.541D+00
 Gap=     0.374 Goal=   None    Shift=    0.000
 RMSDP=2.98D-05 MaxDP=1.09D-03 DE=-4.45D-04 OVMax= 9.74D-04

 Cycle   5  Pass 0  IDiag  1:
 RMSU=  2.03D-05    CP:  1.00D+00  1.05D+00  5.97D-01  6.44D-01
 E= -289.319804619054     Delta-E=       -0.000009028868 Rises=F Damp=F
 DIIS: error= 1.02D-04 at cycle   5 NSaved=   5.
 NSaved= 5 IEnMin= 5 EnMin= -289.319804619054     IErMin= 5 ErrMin= 1.02D-04
 ErrMax= 1.02D-04  0.00D+00 EMaxC= 1.00D-01 BMatC= 1.69D-06 BMatP= 1.36D-05
 IDIUse=3 WtCom= 9.99D-01 WtEn= 1.02D-03
 Coeff-Com: -0.588D-02 0.489D-01 0.693D-01 0.293D+00 0.595D+00
 Coeff-En:   0.000D+00 0.000D+00 0.000D+00 0.586D-01 0.941D+00
 Coeff:     -0.588D-02 0.489D-01 0.692D-01 0.293D+00 0.595D+00
 Gap=     0.375 Goal=   None    Shift=    0.000
 RMSDP=8.85D-06 MaxDP=2.91D-04 DE=-9.03D-06 OVMax= 2.72D-04

 Initial convergence to 1.0D-05 achieved.  Increase integral accuracy.
 Cycle   6  Pass 1  IDiag  1:
 E= -289.319805531759     Delta-E=       -0.000000912705 Rises=F Damp=F
 DIIS: error= 1.38D-05 at cycle   1 NSaved=   1.
 NSaved= 1 IEnMin= 1 EnMin= -289.319805531759     IErMin= 1 ErrMin= 1.38D-05
 ErrMax= 1.38D-05  0.00D+00 EMaxC= 1.00D-01 BMatC= 4.66D-08 BMatP= 4.66D-08
 IDIUse=1 WtCom= 1.00D+00 WtEn= 0.00D+00
 Coeff-Com:  0.100D+01
 Coeff:      0.100D+01
 Gap=     0.375 Goal=   None    Shift=    0.000
 RMSDP=8.85D-06 MaxDP=2.91D-04 DE=-9.13D-07 OVMax= 7.56D-05

 Cycle   7  Pass 1  IDiag  1:
 RMSU=  3.73D-06    CP:  1.00D+00
 E= -289.319805521269     Delta-E=        0.000000010489 Rises=F Damp=F
 DIIS: error= 1.60D-05 at cycle   2 NSaved=   2.
 NSaved= 2 IEnMin= 1 EnMin= -289.319805531759     IErMin= 1 ErrMin= 1.38D-05
 ErrMax= 1.60D-05  0.00D+00 EMaxC= 1.00D-01 BMatC= 5.99D-08 BMatP= 4.66D-08
 IDIUse=1 WtCom= 1.00D+00 WtEn= 0.00D+00
 Coeff-Com:  0.534D+00 0.466D+00
 Coeff:      0.534D+00 0.466D+00
 Gap=     0.375 Goal=   None    Shift=    0.000
 RMSDP=2.16D-06 MaxDP=3.63D-05 DE= 1.05D-08 OVMax= 4.29D-05

 Cycle   8  Pass 1  IDiag  1:
 RMSU=  1.32D-06    CP:  1.00D+00  5.42D-01
 E= -289.319805574991     Delta-E=       -0.000000053722 Rises=F Damp=F
 DIIS: error= 3.39D-06 at cycle   3 NSaved=   3.
 NSaved= 3 IEnMin= 3 EnMin= -289.319805574991     IErMin= 3 ErrMin= 3.39D-06
 ErrMax= 3.39D-06  0.00D+00 EMaxC= 1.00D-01 BMatC= 1.49D-09 BMatP= 4.66D-08
 IDIUse=1 WtCom= 1.00D+00 WtEn= 0.00D+00
 Coeff-Com:  0.129D+00 0.181D+00 0.690D+00
 Coeff:      0.129D+00 0.181D+00 0.690D+00
 Gap=     0.374 Goal=   None    Shift=    0.000
 RMSDP=3.87D-07 MaxDP=1.18D-05 DE=-5.37D-08 OVMax= 9.23D-06

 Cycle   9  Pass 1  IDiag  1:
 RMSU=  3.23D-07    CP:  1.00D+00  5.78D-01  8.74D-01
 E= -289.319805576061     Delta-E=       -0.000000001070 Rises=F Damp=F
 DIIS: error= 1.08D-06 at cycle   4 NSaved=   4.
 NSaved= 4 IEnMin= 4 EnMin= -289.319805576061     IErMin= 4 ErrMin= 1.08D-06
 ErrMax= 1.08D-06  0.00D+00 EMaxC= 1.00D-01 BMatC= 2.54D-10 BMatP= 1.49D-09
 IDIUse=1 WtCom= 1.00D+00 WtEn= 0.00D+00
 Coeff-Com:  0.178D-01 0.520D-01 0.357D+00 0.573D+00
 Coeff:      0.178D-01 0.520D-01 0.357D+00 0.573D+00
 Gap=     0.374 Goal=   None    Shift=    0.000
 RMSDP=1.21D-07 MaxDP=2.91D-06 DE=-1.07D-09 OVMax= 3.95D-06

 Cycle  10  Pass 1  IDiag  1:
 RMSU=  7.84D-08    CP:  1.00D+00  5.86D-01  8.99D-01  7.50D-01
 E= -289.319805576240     Delta-E=       -0.000000000179 Rises=F Damp=F
 DIIS: error= 3.38D-07 at cycle   5 NSaved=   5.
 NSaved= 5 IEnMin= 5 EnMin= -289.319805576240     IErMin= 5 ErrMin= 3.38D-07
 ErrMax= 3.38D-07  0.00D+00 EMaxC= 1.00D-01 BMatC= 2.68D-11 BMatP= 2.54D-10
 IDIUse=1 WtCom= 1.00D+00 WtEn= 0.00D+00
 Coeff-Com: -0.702D-02 0.530D-02 0.112D+00 0.300D+00 0.590D+00
 Coeff:     -0.702D-02 0.530D-02 0.112D+00 0.300D+00 0.590D+00
 Gap=     0.374 Goal=   None    Shift=    0.000
 RMSDP=3.34D-08 MaxDP=1.14D-06 DE=-1.79D-10 OVMax= 1.16D-06

 Cycle  11  Pass 1  IDiag  1:
 RMSU=  2.04D-08    CP:  1.00D+00  5.86D-01  9.07D-01  7.68D-01  7.01D-01
 E= -289.319805576260     Delta-E=       -0.000000000020 Rises=F Damp=F
 DIIS: error= 7.10D-08 at cycle   6 NSaved=   6.
 NSaved= 6 IEnMin= 6 EnMin= -289.319805576260     IErMin= 6 ErrMin= 7.10D-08
 ErrMax= 7.10D-08  0.00D+00 EMaxC= 1.00D-01 BMatC= 1.18D-12 BMatP= 2.68D-11
 IDIUse=1 WtCom= 1.00D+00 WtEn= 0.00D+00
 Coeff-Com: -0.437D-02 0.235D-03 0.408D-01 0.121D+00 0.287D+00 0.554D+00
 Coeff:     -0.437D-02 0.235D-03 0.408D-01 0.121D+00 0.287D+00 0.554D+00
 Gap=     0.374 Goal=   None    Shift=    0.000
 RMSDP=8.06D-09 MaxDP=2.10D-07 DE=-2.00D-11 OVMax= 2.06D-07

 SCF Done:  E(RB3LYP) =  -289.319805576     A.U. after   11 cycles
            NFock= 11  Conv=0.81D-08     -V/T= 2.0096
 KE= 2.865711201003D+02 PE=-1.221323585475D+03 EE= 3.656627372051D+02
 Leave Link  502 at Mon Oct 14 02:27:09 2019, MaxMem= 10737418240 cpu:              42.8 elap:               1.8
 (Enter /apps/cent7/gaussian/g16-A.03/g16-haswell/g16/l701.exe)
 ... and contract with generalized density number  0.
 Compute integral first derivatives.
 Leave Link  701 at Mon Oct 14 02:27:09 2019, MaxMem= 10737418240 cpu:               2.9 elap:               0.1
 (Enter /apps/cent7/gaussian/g16-A.03/g16-haswell/g16/l702.exe)
 L702 exits ... SP integral derivatives will be done elsewhere.
 Leave Link  702 at Mon Oct 14 02:27:09 2019, MaxMem= 10737418240 cpu:               0.4 elap:               0.0
 (Enter /apps/cent7/gaussian/g16-A.03/g16-haswell/g16/l703.exe)
 Integral derivatives from FoFJK, PRISM(SPDF).
 Compute integral first derivatives, UseDBF=F ICtDFT=           0.
 Calling FoFJK, ICntrl=      2127 FMM=F ISym2X=0 I1Cent= 0 IOpClX= 0 NMat=1 NMatS=1 NMatT=0.
 FoFJK:  IHMeth= 1 ICntrl=    2127 DoSepK=F KAlg= 0 I1Cent=           0 FoldK=F
 IRaf=         0 NMat=       1 IRICut=       1 DoRegI=T DoRafI=F ISym2E= 0 IDoP0=0 IntGTp=1.
 FoFCou: FMM=F IPFlag=           0 FMFlag=      100000 FMFlg1=         800
         NFxFlg=           0 DoJE=F BraDBF=F KetDBF=F FulRan=T
         wScrn=  0.000000 ICntrl=      2127 IOpCl=  0 I1Cent=           0 NGrid=           0
         NMat0=    1 NMatS0=      1 NMatT0=    0 NMatD0=    1 NMtDS0=    0 NMtDT0=    0
 Symmetry not used in FoFCou.
 Leave Link  703 at Mon Oct 14 02:27:09 2019, MaxMem= 10737418240 cpu:              12.3 elap:               0.5
 (Enter /apps/cent7/gaussian/g16-A.03/g16-haswell/g16/l716.exe)
 Dipole        = 9.96550925D-02-5.19856434D-01-2.18492827D-01
 ***** Axes restored to original set *****
 -------------------------------------------------------------------
 Center     Atomic                   Forces (Hartrees/Bohr)
 Number     Number              X              Y              Z
 -------------------------------------------------------------------
      1        6          -0.000492066    0.010351849    0.004194100
      2        6          -0.007625398   -0.020798841   -0.000009498
      3        7           0.005616688   -0.001045636    0.011434520
      4        8          -0.005812354    0.008437411   -0.005881266
      5        6           0.008584197    0.002154809    0.000244189
      6        6          -0.000222555    0.009102320   -0.005961592
      7        1          -0.000777357   -0.001912665   -0.001127746
      8        1          -0.000217301   -0.000176780   -0.000274476
      9        1           0.000505248   -0.001870510    0.000709216
     10        1           0.000344096    0.001859512    0.000145018
     11        1           0.001245331   -0.002373177   -0.003131805
     12        1          -0.000729301    0.000732851    0.000628815
     13        1           0.000133945   -0.000778644   -0.001793742
     14        1          -0.001131562   -0.001175256    0.000704185
     15        1          -0.001198908   -0.001398435    0.000227694
     16        1           0.000624378   -0.002081470   -0.001062368
     17        1           0.000093848    0.000523551    0.000473041
     18        1           0.001059070    0.000449113    0.000481715
 -------------------------------------------------------------------
 Cartesian Forces:  Max     0.020798841 RMS     0.004646528
 Leave Link  716 at Mon Oct 14 02:27:09 2019, MaxMem= 10737418240 cpu:               0.4 elap:               0.0
 (Enter /apps/cent7/gaussian/g16-A.03/g16-haswell/g16/l103.exe)

 GradGradGradGradGradGradGradGradGradGradGradGradGradGradGradGradGradGrad
 Berny optimization.
 Using GEDIIS/GDIIS optimizer.
 FormGI is forming the generalized inverse of G from B-inverse, IUseBI=4.
 Internal  Forces:  Max     0.011661957 RMS     0.002251071
 Search for a local minimum.
 Step number   2 out of a maximum of   97
 All quantities printed in internal units (Hartrees-Bohrs-Radians)
 RMS Force = .22511D-02 SwitMx=.10000D-02 MixMth= 1
 Mixed Optimization -- RFO/linear search
 Update second derivatives using D2CorX and points    1    2
 DE= -1.07D-02 DEPred=-1.07D-02 R= 9.98D-01
 TightC=F SS=  1.41D+00  RLast= 3.94D-01 DXNew= 5.0454D-01 1.1834D+00
 Trust test= 9.98D-01 RLast= 3.94D-01 DXMaxT set to 5.05D-01
 ITU=  1  0
 Use linear search instead of GDIIS.
     Eigenvalues ---    0.00229   0.00230   0.00232   0.00533   0.01818
     Eigenvalues ---    0.03953   0.04409   0.04994   0.05193   0.05262
     Eigenvalues ---    0.05302   0.05522   0.05622   0.05640   0.05683
     Eigenvalues ---    0.05887   0.12312   0.14185   0.14402   0.14541
     Eigenvalues ---    0.15735   0.16000   0.16000   0.16000   0.16000
     Eigenvalues ---    0.16000   0.16000   0.16000   0.16000   0.16453
     Eigenvalues ---    0.23065   0.26647   0.26791   0.27544   0.32283
     Eigenvalues ---    0.34758   0.34804   0.34806   0.34810   0.34812
     Eigenvalues ---    0.34814   0.34816   0.34817   0.35097   0.47314
     Eigenvalues ---    0.47691   0.51047   0.55336
 RFO step:  Lambda=-5.09449799D-03 EMin= 2.29000458D-03
[...]
 7592,0.0088332,0.2391562,0.0339316,-0.0058098,0.0446946,0.2202387,0.28
 33981,0.1201095,-0.0170041,0.0879092,0.3397079,-0.0705461,-0.0014862,-
 0.0834529,0.3422234,0.0368677,0.0005778,-0.0001038,0.0330632,0.0511782
 ,-0.0787935,0.0403932,-0.0716793,-0.0448985,0.0472621,0.0123834,-0.005
 2587,0.0445032,0.0713857,0.0544908,-0.0320374,0.057047,-0.0110182,0.08
 06854,0.0006099,0.005157,-0.0185077,-0.0211225,-0.0057592,0.0040109,-0
 .0078314,0.104854,0.0857411,-0.0358987,-0.0194374,-0.0322097,0.0134189
 ,-0.0033137,-0.0192303,-0.0131661,0.0822297,-0.0876642,-0.0092905,-0.0
 033912,-0.042323,0.0894479,0.0064011,0.0350586,0.0226122,0.0427149,0.0
 465983,0.0559867,0.0349692,0.0478577,0.0328284,-0.0895647,0.0163371,-0
 .0416603,-0.0240914,0.1757391,0.0307975,-0.0170161,0.0276078,0.1881365
 ,0.0478514,-0.0107539,0.0427966,0.1704014\Polar=50.606577,-0.8989433,5
 3.61053,0.1182999,-2.6901456,54.2591589\Quadrupole=-1.0102272,-0.27285
 64,1.2830836,2.3539472,-0.6068171,0.2498221\PG=C01 [X(C4H12N1O1)]\NIma
 g=0\\0.57881924,0.01767398,0.56299263,0.03649503,-0.03902546,0.5136787
 4,-0.09964492,0.01191751,0.03095307,0.51691878,0.01648231,-0.08730577,
 -0.03347750,-0.04240972,0.35909250,0.03472118,-0.02460952,-0.15783881,
 0.00263457,0.01177723,0.52432173,0.00356320,0.01186760,0.00030220,-0.0
 8980719,0.00060685,-0.00019592,0.71382409,-0.00454441,-0.03513965,-0.0
 0709428,-0.00183177,-0.05943922,-0.01869163,-0.05479931,0.43207670,-0.
 00945208,-0.03583656,0.00007389,-0.00088642,-0.01155158,-0.08391394,-0
 .07170903,0.09497409,0.65241373,-0.00020007,-0.00011386,-0.00071738,0.
 00421638,0.00249050,0.00314915,-0.09897397,0.04042248,-0.00867237,0.17
 396981,-0.00080417,0.00190070,-0.00106176,0.01544189,-0.01610794,0.031
 46360,0.04931125,-0.12174168,0.02564753,-0.15655254,0.25379530,-0.0002
 0713,-0.00368184,-0.00126360,-0.00214217,0.00769765,-0.00797248,-0.042
 16774,0.06722603,-0.18252225,-0.09509464,0.05581868,0.56247581,-0.0160
 5876,0.00393845,0.00681038,-0.18319819,0.00418796,0.00270804,-0.018301
 20,-0.01258982,0.00176258,-0.00091973,0.00016068,-0.00127887,0.4763376
 0,0.01473028,0.00297113,-0.00026299,0.01568011,-0.07755366,-0.00013779
 ,-0.04658238,-0.01412548,-0.00076740,-0.00064264,0.00218527,-0.0004185
 9,-0.00600871,0.59619694,0.03103565,0.00033033,-0.00234964,0.00542400,
 -0.00008645,-0.08452179,-0.00044384,-0.00019818,0.00023375,-0.00025083
 ,-0.00089429,0.00049733,0.00654974,-0.00235343,0.59928322,0.00558683,-
 0.00531951,0.00803248,-0.10164746,0.01832185,-0.03555409,0.00311875,-0
 .00130774,0.00678250,0.00041116,-0.00525449,0.00250780,-0.01876051,0.0
 1650202,-0.02932366,0.57242350,-0.00613336,0.00894323,-0.01000278,0.01
 378580,-0.08662603,0.02268072,0.01285701,-0.02884615,0.03431814,-0.000
 59620,-0.00962434,0.00374836,0.00352660,0.00231650,-0.00034119,0.01881
 457,0.56642835,-0.01073843,0.00981538,-0.03136055,-0.03357827,0.029052
 26,-0.14828481,-0.00027207,0.01160561,-0.00572742,0.00041757,-0.003618
 83,0.00312407,-0.00532060,-0.00051897,0.00035860,-0.04119858,0.0420406
 5,0.51152491,-0.05759925,-0.05684613,0.00113142,0.00144288,0.01160843,
 -0.00125751,-0.00075494,0.00205419,0.00213975,0.00032116,0.00017372,0.
 00040887,0.00014448,0.00016859,-0.00035520,0.00019015,-0.00011883,-0.0
 0050102,0.05994761,-0.05565543,-0.31317883,0.00057145,-0.00263065,-0.0
 1339698,-0.00025011,0.00140817,0.00010161,-0.00156647,-0.00020725,0.00
 037840,-0.00023004,-0.00063394,0.00020696,0.00059961,-0.00019172,0.000
 53250,0.00120360,0.06005252,0.33600495,0.00162615,0.00343958,-0.046066
 91,-0.00679263,-0.02758140,0.00030650,0.00236635,-0.00374000,-0.007435
 01,-0.00010829,0.00114513,0.00088742,-0.00067113,0.00036674,0.00068825
 ,-0.00047581,-0.00022168,0.00110673,-0.00225254,-0.00070651,0.05147521
 ,-0.10318336,0.04634944,-0.09464048,0.00510354,-0.00740397,0.01049497,
 -0.00004637,0.00002046,-0.00114681,-0.00009276,0.00070288,0.00045570,0
 .00098954,-0.00070846,0.00051697,-0.00085369,0.00140221,0.00188180,0.0
 0282027,-0.00252844,0.00616123,0.10501656,0.04448451,-0.08647812,0.082
 63523,-0.00738809,0.00479427,-0.01289861,-0.00082674,0.00118025,0.0001
 5233,0.00012519,-0.00143417,0.00027668,-0.00063166,0.00032797,0.000350
 65,0.00102092,-0.00111056,-0.00155377,0.01556883,-0.01133727,0.0275414
 7,-0.05026245,0.09475173,-0.09218164,0.08302780,-0.22436578,-0.0117519
 5,0.01204762,-0.02149068,-0.00068080,0.00170187,-0.00126573,0.00042117
 ,0.00102834,0.00236476,-0.00158921,0.00042998,0.00101797,0.00292532,-0
 .00399620,-0.00350633,0.00000284,0.00036676,0.00010099,0.10192567,-0.0
 8986655,0.24351310,-0.30947529,-0.02642134,0.01471711,-0.01092510,-0.0
 0172355,-0.00005363,0.00082030,-0.00050361,-0.00052685,0.00031559,0.00
 049979,-0.00031023,0.00086729,0.00131699,0.00249740,0.00041376,0.00015
 014,-0.00088044,-0.00596560,-0.00032299,-0.00005579,-0.01106778,-0.002
 00527,0.00115395,0.33497614,-0.02558520,-0.05039681,0.00213084,0.01554
 780,-0.00150093,-0.00147216,0.00132207,0.00151245,0.00085012,-0.000292
 56,-0.00017851,0.00022910,0.00043060,-0.00104917,-0.00267299,-0.000362
 63,-0.00020789,0.00073884,-0.03308721,-0.00106794,0.00186711,0.0133675
 6,0.00069429,-0.00210546,0.02778425,0.05159991,0.01344859,0.00121539,-
 0.05386550,0.02890870,0.00499853,-0.00148083,0.00007730,0.00095256,0.0
 0149687,0.00009956,-0.00000677,0.00003171,0.00041183,-0.00265260,-0.00
 478621,0.00110913,0.00001267,0.00162946,0.00002826,0.00042181,-0.00051
 341,-0.02629342,-0.00490853,0.00385673,-0.01776392,0.00084655,0.053939
 84,-0.00084553,-0.00253045,0.00025866,0.00630358,-0.00297480,-0.009946
 13,-0.12039785,0.05826247,0.11286227,0.00767451,-0.00563452,-0.0194774
 1,0.00157993,-0.00077456,-0.00237543,-0.00026980,0.00018710,0.00007031
 ,0.00057540,-0.00026910,-0.00063057,0.00009487,0.00024986,0.00007122,0
 .00015377,-0.00004292,-0.00003362,0.11892985,-0.00290942,-0.00656817,0
 .00207601,0.01238647,-0.01337918,-0.02507250,0.06743653,-0.12794404,-0
 .14233822,-0.00871741,0.00857502,0.03345535,0.00070990,0.00178349,-0.0
 0031039,0.00075195,0.00129114,-0.00120003,0.00057746,-0.00035374,-0.00
 183646,-0.00016147,0.00019835,0.00003984,-0.00005067,0.00033886,0.0004
 0798,-0.06776823,0.13637367,0.00001043,0.00125436,0.00064389,-0.000891
 21,-0.00406596,0.00165557,0.10865098,-0.12213036,-0.27165641,0.0086448
 6,-0.00591636,-0.03597287,-0.00060714,0.00132655,0.00072333,-0.0002118
 7,0.00074700,0.00257171,-0.00004291,0.00017090,0.00033330,0.00000844,-
 0.00007078,-0.00015634,0.00016196,-0.00011130,-0.00006717,-0.11159518,
 0.12345071,0.30057283,0.00120452,-0.00081511,0.00084736,0.00025353,-0.
 00054555,0.00105576,0.00349930,-0.00434001,-0.02437433,-0.08810911,0.0
 9365814,0.16560046,0.00006500,-0.00021858,0.00047594,0.00018329,-0.000
 07027,0.00014172,-0.00067160,0.00013060,0.00001827,0.00053750,-0.00033
 548,-0.00072618,-0.00095093,0.00065619,-0.00039938,-0.00104658,0.00227
 233,-0.00320054,0.08500520,0.00190726,0.00114720,0.00224378,-0.0006139
 6,0.00208383,0.00393609,-0.01169625,0.00771297,0.03834532,0.10059221,-
 0.11185157,-0.17396074,-0.00004685,-0.00061108,-0.00019468,0.00002866,
 -0.00117531,-0.00056445,-0.00047111,0.00029404,-0.00118440,-0.00130145
 ,-0.00227888,-0.00260139,0.00025737,-0.00037964,-0.00004912,0.00206618
 ,-0.00370522,0.00437494,-0.09041230,0.10752138,0.00030026,-0.00017814,
 0.00114941,0.00185328,0.00210210,0.00115554,0.01369662,-0.01486357,-0.
 03459529,0.12410132,-0.11782293,-0.32883748,0.00017654,-0.00046647,-0.
 00021546,-0.00047771,-0.00140613,-0.00051795,-0.00009956,-0.00010408,-
 0.00019252,-0.00033897,-0.00089734,0.00022350,-0.00010137,0.00010100,0
 .00006841,-0.00325583,0.00391866,-0.00293168,-0.13555434,0.13063673,0.
 36370704,-0.00637150,-0.00131876,-0.00143311,-0.01243760,0.01483693,0.
 02957487,0.00159212,0.00129953,0.00071508,0.00009740,-0.00021905,-0.00
 006631,-0.07946474,0.03517020,0.07282011,0.00158453,-0.00019911,0.0015
 2230,0.00004707,0.00006795,-0.00021566,0.00002395,-0.00024645,0.000016
 15,-0.00052068,0.00087326,0.00176243,-0.00060380,-0.00122403,-0.000119
 26,-0.00010332,0.00023107,-0.00000288,0.08711338,-0.00000090,0.0006423
 2,0.00037426,-0.00226145,-0.00227177,0.00188464,-0.00017316,0.00134258
 ,0.00124782,0.00007291,-0.00026918,-0.00020590,0.03649439,-0.09232944,
 -0.09091931,-0.00005311,-0.00013029,-0.00035332,-0.00022426,0.00035256
 ,0.00022099,-0.00005574,-0.00007736,-0.00021919,0.00000041,0.00052394,
 -0.00016883,-0.00005802,0.00013147,-0.00026437,0.00012586,0.00005200,0
 .00002627,-0.03871304,0.09514231,0.00007652,0.00039360,0.00088730,-0.0
 0033921,0.00059458,-0.00036841,-0.00027650,0.00010883,0.00032266,0.000
 13403,0.00052136,0.00011256,0.07456182,-0.09229177,-0.24386830,-0.0006
 8626,0.00053953,0.00064812,-0.00011290,-0.00004186,-0.00005414,-0.0002
 0664,-0.00003273,0.00034782,0.00005161,-0.00014460,0.00031633,0.001327
 36,0.00054714,-0.00006693,-0.00027785,-0.00023982,-0.00004018,-0.08219
 369,0.10115346,0.26037700,0.00143000,-0.00044183,-0.00148356,-0.013539
 55,0.01753732,-0.02702313,0.00096300,0.00132809,-0.00141275,0.00077312
 ,-0.00036470,0.00105993,-0.09157693,0.05225649,-0.08050342,-0.00626006
 ,-0.00142966,0.00190189,-0.00002576,-0.00001363,0.00005561,-0.00010089
 ,0.00015491,0.00097280,0.00022606,-0.00031841,0.00016110,-0.00023487,-
 0.00018261,-0.00017321,-0.00059058,-0.00040011,0.00029018,0.00490403,-
 0.00697569,0.00844041,0.09978068,0.00002475,-0.00030717,0.00035482,-0.
 00211053,-0.00030980,-0.00254889,0.00049564,0.00042655,-0.00057704,-0.
 00111451,-0.00097585,0.00009424,0.05459147,-0.11484342,0.10486607,-0.0
 0040031,0.00012874,-0.00013518,0.00016145,-0.00003469,0.00010549,0.000
 37445,0.00020234,-0.00034761,-0.00012483,0.00003484,-0.00024335,-0.000
 04848,0.00000351,-0.00025700,-0.00010420,0.00009648,0.00024931,-0.0071
 5515,0.00766004,-0.01158964,-0.05746330,0.12042114,0.00031636,-0.00061
 273,0.00083629,0.00023885,-0.00326286,0.00179120,-0.00081099,0.0007988
 8,-0.00062764,0.00146363,0.00064070,0.00014122,-0.08261681,0.10452527,
 -0.21732672,0.00020471,-0.00008000,0.00053773,0.00010293,-0.00008061,-
 0.00000092,0.00018394,0.00009207,0.00024345,-0.00009269,-0.00002607,0.
 00004063,-0.00013692,0.00017497,-0.00031726,0.00019738,0.00007481,0.00
 014878,-0.01073061,0.01408109,-0.01918700,0.08940510,-0.11503090,0.231
 18610,0.00144520,-0.00025771,-0.00030295,-0.00985937,-0.03214400,-0.00
 109623,-0.00881906,-0.00053051,-0.00066123,0.00078153,0.00071753,0.000
 14481,-0.07471160,-0.08014750,-0.00270738,0.00148013,-0.00037688,0.000
 34106,-0.00045621,0.00049254,0.00050573,-0.00008338,0.00005215,0.00009
 999,0.00025822,0.00023879,-0.00031540,-0.00044206,0.00040459,0.0002508
 3,0.00000367,-0.00018034,-0.00013287,0.00396955,0.01133071,-0.00054045
 ,0.00480542,0.01312452,0.00187818,0.08214360,0.00054976,0.00004980,-0.
 00023453,-0.00055966,-0.00041266,0.00008725,0.00186563,0.00149599,0.00
 048683,-0.00049680,-0.00005202,-0.00026755,-0.08303964,-0.29703071,-0.
 00897315,0.00039043,0.00011908,0.00015855,0.00013454,0.00049738,0.0000
 3340,-0.00012285,-0.00004281,-0.00000232,-0.00002097,0.00026345,0.0000
 6641,0.00037984,0.00012148,0.00008960,0.00005686,0.00000661,-0.0000473
 5,-0.00339389,-0.01101462,0.00026743,-0.00454131,-0.01340409,-0.001482
 15,0.08859928,0.31829826,0.00009426,0.00002401,0.00005239,-0.00025416,
 0.00077814,-0.00186740,-0.00013941,0.00059878,-0.00041409,0.00068633,0
 .00027319,0.00035139,-0.00284549,-0.00938154,-0.04694219,-0.00006057,-
 0.00022898,-0.00017386,0.00055768,-0.00011703,0.00008815,0.00012149,0.
 00023059,-0.00008147,-0.00017028,-0.00006725,-0.00009162,0.00049589,0.
 00036427,-0.00003384,-0.00014839,-0.00004578,0.00009621,-0.01016226,-0
 .02723178,-0.00029452,0.00970237,0.02474413,0.00187785,0.00282272,0.00
 981174,0.04704857,0.00000240,-0.00017782,0.00048095,0.00307108,0.01392
 463,0.00015944,-0.00158721,0.00088204,-0.00209093,0.00053234,0.0017059
 1,-0.00108137,0.00034002,0.00020854,0.00035593,-0.06655524,-0.07414073
 ,0.00348667,0.00037092,-0.00006258,0.00011050,-0.00012267,0.00013248,0
 .00012842,-0.00000074,-0.00017001,0.00005433,-0.00012490,-0.00041940,-
 0.00009368,-0.00004124,0.00011033,0.00010085,-0.00008576,0.00017117,-0
 .00000938,0.00011979,-0.00014322,0.00015704,-0.00040861,0.00010281,-0.
 00052647,0.06998591,-0.00010091,0.00038562,-0.00095098,-0.00310657,-0.
 01352950,0.00091946,0.00154933,0.00002786,0.00208333,-0.00043942,0.000
 08457,-0.00016225,-0.00066019,0.00046275,-0.00076000,-0.07278043,-0.30
 304999,0.01360503,-0.00008281,0.00062137,0.00018724,0.00016911,0.00026
 700,-0.00006532,0.00006773,0.00003796,0.00002191,-0.00008203,0.0003968
 7,-0.00008354,0.00001968,-0.00017281,-0.00008299,0.00008815,-0.0001088
 4,0.00009886,0.00001276,0.00032171,0.00001643,0.00053300,0.00042914,0.
 00017950,0.07836017,0.32519234,0.00048513,0.00015426,0.00101349,0.0083
 1080,0.02666581,-0.00170690,-0.00214782,0.00119351,-0.00488467,-0.0001
 3436,0.00298173,-0.00081269,0.00078673,-0.00034244,0.00090123,0.002845
 35,0.01151108,-0.04646387,-0.00008192,-0.00027373,-0.00084812,-0.00013
 070,-0.00032339,0.00035730,-0.00002654,0.00006384,-0.00014497,-0.00023
 669,0.00025346,-0.00051523,-0.00002181,0.00012859,0.00046662,-0.000095
 26,-0.00015214,-0.00000225,0.00031525,-0.00018113,-0.00009541,-0.00053
 705,-0.00009611,0.00009681,-0.00164329,-0.01518670,0.05110180,0.000534
 64,0.00003586,0.00110134,-0.01226575,-0.00122758,0.00090608,0.00036584
 ,-0.00066601,0.00073879,0.00056218,0.00022109,-0.00009870,0.00046858,0
 .00171296,-0.00286173,-0.31325085,-0.00879664,0.01052683,-0.00006008,0
 .00004108,-0.00008542,0.00031713,0.00006702,-0.00004544,0.00062888,-0.
 00013637,-0.00055690,-0.00027632,-0.00008116,0.00000412,-0.00013723,-0
 .00004483,-0.00005785,0.00030392,-0.00011427,0.00007023,-0.00066832,-0
 .00021417,0.00009451,0.00023512,-0.00004845,0.00013815,-0.00810661,0.0
 0015207,0.00071283,0.33918520,-0.00031194,-0.00001714,-0.00077351,0.01
 459724,-0.00229312,-0.00055046,0.00185157,0.00083187,-0.00030327,-0.00
 046146,0.00027433,-0.00033829,0.00047629,-0.00098326,0.00213658,-0.008
 07596,-0.04853168,-0.00010548,-0.00023617,0.00000563,-0.00002931,0.000
 06057,-0.00019628,-0.00009393,-0.00018639,0.00031595,-0.00006715,0.000
 29386,-0.00007225,-0.00002298,0.00002553,0.00010879,0.00013365,-0.0002
 9639,-0.00003536,0.00011170,0.00073855,0.00047724,0.00018287,0.0002859
 0,0.00022406,0.00013747,-0.03255683,0.00118824,0.00122620,0.00852894,0
 .04934291,-0.00095060,-0.00008079,0.00170610,-0.02839738,-0.00261380,0
 .00103968,-0.00064350,-0.00095084,0.00078550,0.00033345,-0.00033675,0.
 00003030,-0.00073322,0.00278366,-0.00456820,0.01198600,0.00051067,-0.0
 5279398,-0.00006375,-0.00011988,-0.00015404,0.00029646,0.00003479,0.00
 019843,0.00043522,0.00015261,-0.00053518,0.00016686,0.00017980,-0.0001
 3699,-0.00010375,0.00002336,-0.00003855,-0.00015913,0.00029024,0.00015
 717,-0.00170335,0.00008014,0.00043926,0.00026049,-0.00004576,-0.000078
 53,0.00174836,-0.00049953,-0.00058305,-0.01005182,-0.00298619,0.053295
 09,-0.00100865,0.00138119,-0.00180448,0.00367335,-0.00862871,-0.011551
 80,0.00026322,-0.00023269,0.00014841,-0.00005336,-0.00032777,0.0000342
 3,0.00108911,-0.00084072,-0.00066171,-0.07965631,0.04075310,0.07151818
 ,-0.00019385,0.00019549,0.00011958,0.00079367,-0.00007861,-0.00076605,
 0.00029151,0.00009961,-0.00036266,0.00051454,-0.00008217,0.00051001,-0
 .00005850,-0.00004888,-0.00003380,-0.00022533,0.00039116,-0.00008820,0
 .00001454,0.00004959,0.00023700,-0.00011901,-0.00004202,-0.00016222,0.
 00270771,-0.00384212,-0.00821476,-0.00780989,0.01534165,0.02727379,0.0
 7997798,0.00119528,-0.00113153,0.00184645,-0.00559254,0.00490523,0.013
 99713,-0.00037184,0.00124974,0.00119866,-0.00000639,0.00043974,-0.0006
 2184,-0.00069920,0.00014390,-0.00022513,0.03943175,-0.10238182,-0.0997
 2303,0.00014224,0.00027254,0.00025062,-0.00013344,0.00060305,0.0007337
 3,0.00006300,-0.00015542,-0.00005099,0.00017718,-0.00032139,0.00007823
 ,-0.00001451,0.00013343,0.00011154,-0.00008381,0.00021268,-0.00013379,
 -0.00021707,-0.00003246,0.00006537,0.00005613,0.00001535,-0.00014533,0
 .01151267,-0.01263872,-0.02729806,-0.00094806,0.00012476,0.00287188,-0
 .04437918,0.10865450,-0.00325628,0.00352040,-0.00301879,0.00868812,-0.
 01255075,-0.02214846,0.00070827,-0.00135761,0.00045802,-0.00039066,0.0
 0034176,0.00068149,0.00168466,-0.00039021,0.00084372,0.07021325,-0.099
 32862,-0.23316765,-0.00009825,0.00006749,0.00031810,0.00069698,-0.0006
 4852,-0.00118398,0.00006430,0.00010800,0.00017596,-0.00010210,0.001681
 60,-0.00070930,0.00002313,-0.00048271,0.00001450,-0.00094763,0.0003137
 3,0.00050675,-0.00003220,0.00026597,0.00035034,-0.00005327,0.00005577,
 0.00000553,-0.00094755,0.00074252,0.00241426,0.00017849,0.00067844,0.0
 0093626,-0.07655666,0.10692880,0.25383210,0.00180130,0.00107848,-0.000
 74805,-0.00765797,-0.00293891,0.00127438,-0.38932203,-0.02292337,-0.00
 421658,-0.00130618,0.00656434,-0.00828722,0.00111013,-0.00182262,-0.00
 019254,0.00186184,0.00038514,0.00068107,-0.00013265,0.00012738,0.00032
 444,-0.00014612,-0.00008113,0.00002374,-0.00004539,-0.00032484,-0.0003
 3592,-0.01158472,-0.00294265,-0.00130664,0.00095710,0.00002301,-0.0004
 6387,0.00017677,0.00004302,0.00006912,-0.00001967,0.00005685,-0.000091
 63,-0.00022314,0.00018644,-0.00014964,-0.00009718,0.00014249,-0.000185
 90,-0.00002646,-0.00007496,0.00030586,-0.00020073,-0.00013221,0.000127
 38,0.40485512,-0.00100240,0.00149054,0.00065095,-0.03085190,0.00325074
 ,-0.00051446,-0.03612198,-0.06072236,-0.00636364,0.02593774,-0.0053980
 8,0.01134093,-0.00020634,-0.00806868,-0.00035405,-0.00151626,0.0019245
 1,-0.00044684,0.00042456,0.00010150,0.00014199,0.00023158,-0.00006382,
 -0.00007795,0.00121995,-0.00038535,-0.00079648,0.01856662,0.00313011,0
 .00143034,-0.00008916,0.00101777,-0.00141026,0.00028258,0.00017696,0.0
 0013772,0.00032021,0.00013490,-0.00007716,-0.00219817,0.00043632,0.000
 07588,0.00055983,0.00008442,-0.00032478,0.00151853,-0.00076470,0.00070
 638,0.00029105,-0.00009358,0.00005394,0.02263354,0.06374880,-0.0018234
 1,0.00084991,0.00008810,-0.00197799,-0.00052363,0.00132429,-0.00631410
 ,-0.01013368,-0.06274197,-0.03408255,0.00979566,-0.01331668,0.00021016
 ,0.00055201,0.00003113,0.00138199,-0.00050323,0.00049509,0.00049382,0.
 00008870,-0.00003957,0.00001338,-0.00011359,-0.00017373,0.00090021,-0.
 00048817,-0.00007106,0.03253731,0.00420781,0.00606340,-0.00355345,-0.0
 0044053,0.00033911,-0.00028513,-0.00007765,0.00020602,0.00002696,0.000
 15056,-0.00003791,0.00004301,0.00009192,0.00036063,-0.00038983,-0.0000
 6297,-0.00029434,-0.00071351,0.00066365,0.00030072,0.00036113,0.000115
 77,-0.00030885,0.01317199,-0.00417254,0.06777563\\-0.00000600,0.000009
 30,-0.00000096,-0.00000403,-0.00003876,0.00001239,-0.00000479,0.000035
 91,-0.00004557,-0.00000790,-0.00000442,0.00003044,0.00000346,0.0000048
 2,0.00000659,-0.00000952,0.00001103,-0.00000447,0.,-0.00000085,0.00000
 096,-0.00000211,0.00000055,0.00000123,0.00000277,-0.00000235,0.0000011
 9,-0.00000166,0.00000749,-0.00000373,0.00001172,-0.00000709,0.00000739
 ,0.00000224,-0.00000090,-0.00000377,-0.00000106,0.00000201,-0.00000062
 ,0.00000183,0.00000112,-0.00000460,0.00000433,-0.00000334,0.00000348,0
 .00000264,-0.00000410,0.00000150,0.00000073,-0.00000124,-0.00000028,0.
 00000734,-0.00000919,-0.00000117\\\@


 FROM AN ANONYMOUS WRITER, ON PERSPECTIVE:

 MAN, DESPITE HIS ARTISTIC PRETENSIONS, HIS SOPHISTICATION AND MANY 
 ACCOMPLISHMENTS, OWES THE FACT OF HIS EXISTENCE TO A SIX-INCH LAYER OF 
 TOPSOIL AND THE FACT THAT IT RAINS.
 Job cpu time:       0 days  0 hours  5 minutes 42.6 seconds.
 Elapsed time:       0 days  0 hours  0 minutes 14.8 seconds.
 File lengths (MBytes):  RWF=     32 Int=      0 D2E=      0 Chk=      2 Scr=      1
 Normal termination of Gaussian 16 at Mon Oct 14 02:27:53 2019.
real 51.30
user 1106.15
sys 12.93
Machine:
brown-a171
brown-a171
brown-a171
brown-a171
brown-a171
brown-a171
brown-a171
brown-a171
brown-a171
brown-a171
brown-a171
brown-a171
brown-a171
brown-a171
brown-a171
brown-a171
brown-a171
brown-a171
brown-a171
brown-a171
brown-a171
brown-a171
brown-a171
brown-a171
