Title Card Required                                                     
Freq      RB3LYP                                                      6-31G(d)            
Number of atoms                            I                5
Info1-9                                    I   N=           9
          20          20        1002           0           0         100
           6          18        -502
Full Title                                 C   N=           2
Title Card Required     
Route                                      C   N=           6
#P opt freq b3lyp/6-31g(d) geom=connectivity temperature=0.0
01          
Charge                                     I                1
Multiplicity                               I                1
Number of electrons                        I               10
Number of alpha electrons                  I                5
Number of beta electrons                   I                5
Number of basis functions                  I               23
Number of independent functions            I               23
Number of point charges in /Mol/           I                0
Number of translation vectors              I                0
Atomic numbers                             I   N=           5
           7           1           1           1           1
Nuclear charges                            R   N=           5
  7.00000000E+00  1.00000000E+00  1.00000000E+00  1.00000000E+00  1.00000000E+00
Current cartesian coordinates              R   N=          15
 -0.00000000E+00  0.00000000E+00  0.00000000E+00  1.12315366E+00  1.12315366E+00
  1.12315366E+00 -1.12315366E+00 -1.12315366E+00  1.12315366E+00 -1.12315366E+00
  1.12315366E+00 -1.12315366E+00  1.12315366E+00 -1.12315366E+00 -1.12315366E+00
Number of symbols in /Mol/                 I                0
Force Field                                I                0
Atom Types                                 C   N=           5
                                                            
Int Atom Types                             I   N=           5
           0           0           0           0           0
MM charges                                 R   N=           5
  0.00000000E+00  0.00000000E+00  0.00000000E+00  0.00000000E+00  0.00000000E+00
Integer atomic weights                     I   N=           5
          14           1           1           1           1
Real atomic weights                        R   N=           5
  1.40030740E+01  1.00782504E+00  1.00782504E+00  1.00782504E+00  1.00782504E+00
Atom fragment info                         I   N=           5
           0           0           0           0           0
Atom residue num                           I   N=           5
           0           0           0           0           0
Nuclear spins                              I   N=           5
           2           1           1           1           1
Nuclear ZEff                               R   N=           5
 -4.55000000E+00 -1.00000000E+00 -1.00000000E+00 -1.00000000E+00 -1.00000000E+00
Nuclear ZNuc                               R   N=           5
  7.00000000E+00  1.00000000E+00  1.00000000E+00  1.00000000E+00  1.00000000E+00
Nuclear QMom                               R   N=           5
  2.04400000E+00  0.00000000E+00  0.00000000E+00  0.00000000E+00  0.00000000E+00
Nuclear GFac                               R   N=           5
  4.03761000E-01  2.79284600E+00  2.79284600E+00  2.79284600E+00  2.79284600E+00
MicOpt                                     I   N=           5
          -1          -1          -1          -1          -1
Number of residues                         I                0
Number of secondary structures             I                0
Redundant internal dimensions              I   N=           4
          14           4           6           4
Redundant internal coordinate indices      I   N=          56
           1           2           0           0           1           3
           0           0           1           4           0           0
           1           5           0           0           2           1
           3           0           2           1           4           0
           2           1           5           0           3           1
           4           0           3           1           5           0
           4           1           5           0           2           1
           4           3           2           1           5           3
           2           1           5           4           3           1
           5           4
Redundant internal coordinates             R   N=          14
  1.94535920E+00  1.94535920E+00  1.94535920E+00  1.94535920E+00  1.91063324E+00
  1.91063324E+00  1.91063324E+00  1.91063324E+00  1.91063324E+00  1.91063324E+00
 -2.09439510E+00  2.09439510E+00 -2.09439510E+00  2.09439510E+00
ZRed-IntVec                                I   N=          14
           0           0           0           0           0           0
           0           0           0           0           0           0
           0           0
ZRed-FPVec                                 R   N=          14
  0.00000000E+00  0.00000000E+00  0.00000000E+00  0.00000000E+00  0.00000000E+00
  0.00000000E+00  0.00000000E+00  0.00000000E+00  0.00000000E+00  0.00000000E+00
  0.00000000E+00  0.00000000E+00  0.00000000E+00  0.00000000E+00
ZRed-Constraint1                           R   N=          14
  1.94535920E+00  1.94535920E+00  1.94535920E+00  1.94535920E+00  1.91063324E+00
  1.91063324E+00  1.91063324E+00  1.91063324E+00  1.91063324E+00  1.91063324E+00
 -2.09439510E+00  2.09439510E+00 -2.09439510E+00  2.09439510E+00
ZRed-Constraint2                           R   N=          14
  1.88972612E+00  1.88972612E+00  1.88972612E+00  1.88972612E+00  1.91063323E+00
  1.91063323E+00  1.91063324E+00  1.91063324E+00  1.91063323E+00  1.91063323E+00
 -2.09439510E+00  2.09439510E+00 -2.09439510E+00  2.09439510E+00
SymInf integers                            I   N=          26
           4           4           1           1           1           1
          -1          -1          -1           1          -1          -1
          -1           1           0           0           0           0
           0           0           0           0           0           0
           0           0
RotTr to input orientation                 R   N=          12
 -5.77360431E-01 -8.16489396E-01 -2.09975926E-09  5.77345187E-01 -4.08255473E-01
 -7.07106784E-01  5.77345190E-01 -4.08255479E-01  7.07106779E-01  2.29057672E-02
  1.95844341E+00  1.53861039E-16
Number of contracted shells                I               12
Number of primitive shells                 I               27
Pure/Cartesian d shells                    I                1
Pure/Cartesian f shells                    I                0
Highest angular momentum                   I                2
Largest degree of contraction              I                6
Shell types                                I   N=          12
           0          -1          -1           2           0           0
           0           0           0           0           0           0
Number of primitives per shell             I   N=          12
           6           3           1           1           3           1
           3           1           3           1           3           1
Shell to atom map                          I   N=          12
           1           1           1           1           2           2
           3           3           4           4           5           5
Primitive exponents                        R   N=          27
  4.17351146E+03  6.27457911E+02  1.42902093E+02  4.02343293E+01  1.28202129E+01
  4.39043701E+00  1.16263619E+01  2.71627981E+00  7.72218397E-01  2.12031498E-01
  8.00000000E-01  1.87311370E+01  2.82539436E+00  6.40121692E-01  1.61277759E-01
  1.87311370E+01  2.82539436E+00  6.40121692E-01  1.61277759E-01  1.87311370E+01
  2.82539436E+00  6.40121692E-01  1.61277759E-01  1.87311370E+01  2.82539436E+00
  6.40121692E-01  1.61277759E-01
Contraction coefficients                   R   N=          27
  1.83477216E-03  1.39946270E-02  6.85865518E-02  2.32240873E-01  4.69069948E-01
  3.60455199E-01 -1.14961182E-01 -1.69117479E-01  1.14585195E+00  1.00000000E+00
  1.00000000E+00  3.34946043E-02  2.34726953E-01  8.13757326E-01  1.00000000E+00
  3.34946043E-02  2.34726953E-01  8.13757326E-01  1.00000000E+00  3.34946043E-02
  2.34726953E-01  8.13757326E-01  1.00000000E+00  3.34946043E-02  2.34726953E-01
  8.13757326E-01  1.00000000E+00
P(S=P) Contraction coefficients            R   N=          27
  0.00000000E+00  0.00000000E+00  0.00000000E+00  0.00000000E+00  0.00000000E+00
  0.00000000E+00  6.75797439E-02  3.23907296E-01  7.40895140E-01  1.00000000E+00
  0.00000000E+00  0.00000000E+00  0.00000000E+00  0.00000000E+00  0.00000000E+00
  0.00000000E+00  0.00000000E+00  0.00000000E+00  0.00000000E+00  0.00000000E+00
  0.00000000E+00  0.00000000E+00  0.00000000E+00  0.00000000E+00  0.00000000E+00
  0.00000000E+00  0.00000000E+00
Coordinates of each shell                  R   N=          36
  0.00000000E+00  0.00000000E+00  0.00000000E+00  0.00000000E+00  0.00000000E+00
  0.00000000E+00  0.00000000E+00  0.00000000E+00  0.00000000E+00  0.00000000E+00
  0.00000000E+00  0.00000000E+00  1.12315366E+00  1.12315366E+00  1.12315366E+00
  1.12315366E+00  1.12315366E+00  1.12315366E+00 -1.12315366E+00 -1.12315366E+00
  1.12315366E+00 -1.12315366E+00 -1.12315366E+00  1.12315366E+00 -1.12315366E+00
  1.12315366E+00 -1.12315366E+00 -1.12315366E+00  1.12315366E+00 -1.12315366E+00
  1.12315366E+00 -1.12315366E+00 -1.12315366E+00  1.12315366E+00 -1.12315366E+00
 -1.12315366E+00
Num ILSW                                   I              100
ILSW                                       I   N=         100
           0           1           0           0           2           0
           0           0           0           0         402          -1
           5           0           0           0           2           0
           0           0           0           0           1           0
           1           0           0           0           0           0
           0           0      100000           0          -1           0
           0           0           0           0           0           0
           0           0           0           1           0           0
           0 -2000000000           1           0           0           0
           0           0           4          52           0           0
           0           0           5           0           0           0
           0           0           0           5           0           1
           0           0           0           0           0           0
           0           0           0           0           0           0
           0           0           0           0           0           0
           0           0           0           0           0           0
           0           0           0           0
Num RLSW                                   I               52
RLSW                                       R   N=          52
  8.00000000E-01  7.20000000E-01  1.00000000E+00  8.10000000E-01  2.00000000E-01
  0.00000000E+00  0.00000000E+00  1.00000000E+00  0.00000000E+00  0.00000000E+00
  0.00000000E+00  0.00000000E+00  1.00000000E+00  0.00000000E+00  0.00000000E+00
  0.00000000E+00  0.00000000E+00  1.00000000E+00  0.00000000E+00  0.00000000E+00
  0.00000000E+00  0.00000000E+00  1.00000000E+00  0.00000000E+00  0.00000000E+00
  0.00000000E+00  0.00000000E+00  1.00000000E+00  0.00000000E+00  0.00000000E+00
  0.00000000E+00  0.00000000E+00  1.00000000E+00  0.00000000E+00  0.00000000E+00
  0.00000000E+00  0.00000000E+00  0.00000000E+00  1.00000000E+00  1.00000000E+00
  0.00000000E+00  1.00000000E+00  0.00000000E+00  0.00000000E+00  0.00000000E+00
  0.00000000E+00  0.00000000E+00  0.00000000E+00  0.00000000E+00  0.00000000E+00
  0.00000000E+00  0.00000000E+00
MxBond                                     I                4
NBond                                      I   N=           5
           4           1           1           1           1
IBond                                      I   N=          20
           2           3           4           5           1           0
           0           0           1           0           0           0
           1           0           0           0           1           0
           0           0
RBond                                      R   N=          20
  1.00000000E+00  1.00000000E+00  1.00000000E+00  1.00000000E+00  1.00000000E+00
  0.00000000E+00  0.00000000E+00  0.00000000E+00  1.00000000E+00  0.00000000E+00
  0.00000000E+00  0.00000000E+00  1.00000000E+00  0.00000000E+00  0.00000000E+00
  0.00000000E+00  1.00000000E+00  0.00000000E+00  0.00000000E+00  0.00000000E+00
Virial Ratio                               R      2.010597026411317E+00
SCF Energy                                 R     -5.689388936852917E+01
Total Energy                               R     -5.689388936852917E+01
RMS Force                                  R      2.920826593385324E-07
RMS Density                                R      1.332280146884612E-10
NImag                                      I                0
Job Status                                 I                1
Nuclear derivative order                   I                2
External E-field                           R   N=          35
  0.00000000E+00  0.00000000E+00  0.00000000E+00  0.00000000E+00  0.00000000E+00
  0.00000000E+00  0.00000000E+00  0.00000000E+00  0.00000000E+00  0.00000000E+00
  0.00000000E+00  0.00000000E+00  0.00000000E+00  0.00000000E+00  0.00000000E+00
  0.00000000E+00  0.00000000E+00  0.00000000E+00  0.00000000E+00  0.00000000E+00
  0.00000000E+00  0.00000000E+00  0.00000000E+00  0.00000000E+00  0.00000000E+00
  0.00000000E+00  0.00000000E+00  0.00000000E+00  0.00000000E+00  0.00000000E+00
  0.00000000E+00  0.00000000E+00  0.00000000E+00  0.00000000E+00  0.00000000E+00
IOpCl                                      I                0
IROHF                                      I                0
Alpha Orbital Energies                     R   N=          23
 -1.47146362E+01 -1.24844767E+00 -8.26540791E-01 -8.26540791E-01 -8.26540791E-01
 -2.10832406E-01 -1.29734737E-01 -1.29734737E-01 -1.29734737E-01  3.40771783E-01
  3.40771783E-01  3.40771783E-01  5.71414478E-01  5.71414478E-01  5.71414478E-01
  6.00866297E-01  9.94252244E-01  1.24921881E+00  1.24921881E+00  1.98400564E+00
  1.98400564E+00  1.98400564E+00  3.37977005E+00
Alpha MO coefficients                      R   N=         529
  9.92575628E-01  3.49251525E-02  0.00000000E+00  0.00000000E+00  0.00000000E+00
  4.75789286E-03  0.00000000E+00  0.00000000E+00  0.00000000E+00 -8.46974047E-03
 -8.46974047E-03 -8.46974047E-03  0.00000000E+00  0.00000000E+00  0.00000000E+00
  2.99725407E-04 -5.11999153E-04  2.99725407E-04 -5.11999153E-04  2.99725407E-04
 -5.11999153E-04  2.99725407E-04 -5.11999153E-04 -2.06177265E-01  4.43380484E-01
  0.00000000E+00  0.00000000E+00  0.00000000E+00  4.48020955E-01  0.00000000E+00
  0.00000000E+00  0.00000000E+00  7.58420392E-03  7.58420392E-03  7.58420392E-03
  0.00000000E+00  0.00000000E+00  0.00000000E+00  1.17145446E-01 -6.56520622E-03
  1.17145446E-01 -6.56520622E-03  1.17145446E-01 -6.56520622E-03  1.17145446E-01
 -6.56520622E-03  0.00000000E+00  0.00000000E+00  0.00000000E+00  5.27819063E-01
  0.00000000E+00  0.00000000E+00  0.00000000E+00  3.04056765E-01  0.00000000E+00
  0.00000000E+00  0.00000000E+00  0.00000000E+00  0.00000000E+00  2.51654940E-02
  0.00000000E+00  1.62817534E-01  5.02087807E-02 -1.62817534E-01 -5.02087807E-02
  1.62817534E-01  5.02087807E-02 -1.62817534E-01 -5.02087807E-02  0.00000000E+00
  0.00000000E+00  0.00000000E+00  0.00000000E+00  5.27819063E-01  0.00000000E+00
  0.00000000E+00  0.00000000E+00  3.04056765E-01  0.00000000E+00  0.00000000E+00
  0.00000000E+00  2.51654940E-02  0.00000000E+00  0.00000000E+00  1.62817534E-01
  5.02087807E-02  1.62817534E-01  5.02087807E-02 -1.62817534E-01 -5.02087807E-02
 -1.62817534E-01 -5.02087807E-02  0.00000000E+00  0.00000000E+00  5.27819063E-01
  0.00000000E+00  0.00000000E+00  0.00000000E+00  3.04056765E-01  0.00000000E+00
  0.00000000E+00  0.00000000E+00  0.00000000E+00  0.00000000E+00  0.00000000E+00
  0.00000000E+00  2.51654940E-02  1.62817534E-01  5.02087807E-02 -1.62817534E-01
 -5.02087807E-02 -1.62817534E-01 -5.02087807E-02  1.62817534E-01  5.02087807E-02
 -1.38983384E-01  2.76530466E-01  0.00000000E+00  0.00000000E+00  0.00000000E+00
  1.74998029E+00  0.00000000E+00  0.00000000E+00  0.00000000E+00 -2.02819320E-02
 -2.02819320E-02 -2.02819320E-02  0.00000000E+00  0.00000000E+00  0.00000000E+00
 -8.25052855E-02 -6.96616729E-01 -8.25052855E-02 -6.96616729E-01 -8.25052855E-02
 -6.96616729E-01 -8.25052855E-02 -6.96616729E-01  0.00000000E+00  0.00000000E+00
  0.00000000E+00  4.36262910E-01  0.00000000E+00  0.00000000E+00  0.00000000E+00
  9.34429837E-01  0.00000000E+00  0.00000000E+00  0.00000000E+00  0.00000000E+00
  0.00000000E+00 -3.03500888E-02  0.00000000E+00 -1.27321711E-01 -9.11046206E-01
  1.27321711E-01  9.11046206E-01 -1.27321711E-01 -9.11046206E-01  1.27321711E-01
  9.11046206E-01  0.00000000E+00  0.00000000E+00  0.00000000E+00  0.00000000E+00
  4.36262910E-01  0.00000000E+00  0.00000000E+00  0.00000000E+00  9.34429837E-01
  0.00000000E+00  0.00000000E+00  0.00000000E+00 -3.03500888E-02  0.00000000E+00
  0.00000000E+00 -1.27321711E-01 -9.11046206E-01 -1.27321711E-01 -9.11046206E-01
  1.27321711E-01  9.11046206E-01  1.27321711E-01  9.11046206E-01  0.00000000E+00
  0.00000000E+00  4.36262910E-01  0.00000000E+00  0.00000000E+00  0.00000000E+00
  9.34429837E-01  0.00000000E+00  0.00000000E+00  0.00000000E+00  0.00000000E+00
  0.00000000E+00  0.00000000E+00  0.00000000E+00 -3.03500888E-02 -1.27321711E-01
 -9.11046206E-01  1.27321711E-01  9.11046206E-01  1.27321711E-01  9.11046206E-01
 -1.27321711E-01 -9.11046206E-01  0.00000000E+00  0.00000000E+00  0.00000000E+00
 -4.55720872E-01  0.00000000E+00  0.00000000E+00  0.00000000E+00  1.21872061E+00
  0.00000000E+00  0.00000000E+00  0.00000000E+00  0.00000000E+00  0.00000000E+00
 -1.88275672E-01  0.00000000E+00 -4.34964506E-01  3.73279672E-02  4.34964506E-01
 -3.73279672E-02 -4.34964506E-01  3.73279672E-02  4.34964506E-01 -3.73279672E-02
  0.00000000E+00  0.00000000E+00  0.00000000E+00  0.00000000E+00 -4.55720872E-01
  0.00000000E+00  0.00000000E+00  0.00000000E+00  1.21872061E+00  0.00000000E+00
  0.00000000E+00  0.00000000E+00 -1.88275672E-01  0.00000000E+00  0.00000000E+00
 -4.34964506E-01  3.73279672E-02 -4.34964506E-01  3.73279672E-02  4.34964506E-01
 -3.73279672E-02  4.34964506E-01 -3.73279672E-02  0.00000000E+00  0.00000000E+00
 -4.55720872E-01  0.00000000E+00  0.00000000E+00  0.00000000E+00  1.21872061E+00
  0.00000000E+00  0.00000000E+00  0.00000000E+00  0.00000000E+00  0.00000000E+00
  0.00000000E+00  0.00000000E+00 -1.88275672E-01 -4.34964506E-01  3.73279672E-02
  4.34964506E-01 -3.73279672E-02  4.34964506E-01 -3.73279672E-02 -4.34964506E-01
  3.73279672E-02  0.00000000E+00  0.00000000E+00  0.00000000E+00 -9.15723543E-01
  0.00000000E+00  0.00000000E+00  0.00000000E+00  1.42551572E+00  0.00000000E+00
  0.00000000E+00  0.00000000E+00  0.00000000E+00  0.00000000E+00  1.46593232E-01
  0.00000000E+00  3.57490623E-01 -9.75623965E-01 -3.57490623E-01  9.75623965E-01
  3.57490623E-01 -9.75623965E-01 -3.57490623E-01  9.75623965E-01  0.00000000E+00
  0.00000000E+00 -9.15723543E-01  0.00000000E+00  0.00000000E+00  0.00000000E+00
  1.42551572E+00  0.00000000E+00  0.00000000E+00  0.00000000E+00  0.00000000E+00
  0.00000000E+00  0.00000000E+00  0.00000000E+00  1.46593232E-01  3.57490623E-01
 -9.75623965E-01 -3.57490623E-01  9.75623965E-01 -3.57490623E-01  9.75623965E-01
  3.57490623E-01 -9.75623965E-01  0.00000000E+00  0.00000000E+00  0.00000000E+00
  0.00000000E+00 -9.15723543E-01  0.00000000E+00  0.00000000E+00  0.00000000E+00
  1.42551572E+00  0.00000000E+00  0.00000000E+00  0.00000000E+00  1.46593232E-01
  0.00000000E+00  0.00000000E+00  3.57490623E-01 -9.75623965E-01  3.57490623E-01
 -9.75623965E-01 -3.57490623E-01  9.75623965E-01 -3.57490623E-01  9.75623965E-01
  5.77742300E-02 -9.35136204E-01  0.00000000E+00  0.00000000E+00  0.00000000E+00
  1.68025092E+00  0.00000000E+00  0.00000000E+00  0.00000000E+00 -1.14380190E-01
 -1.14380190E-01 -1.14380190E-01  0.00000000E+00  0.00000000E+00  0.00000000E+00
  5.78232864E-01 -6.01130015E-01  5.78232864E-01 -6.01130015E-01  5.78232864E-01
 -6.01130015E-01  5.78232864E-01 -6.01130015E-01 -1.22133600E-01 -1.62177377E+00
  0.00000000E+00  0.00000000E+00  0.00000000E+00  4.61606227E+00  0.00000000E+00
  0.00000000E+00  0.00000000E+00 -2.60944894E-01 -2.60944894E-01 -2.60944894E-01
  0.00000000E+00  0.00000000E+00  0.00000000E+00 -5.04586922E-01 -6.39617787E-01
 -5.04586922E-01 -6.39617787E-01 -5.04586922E-01 -6.39617787E-01 -5.04586922E-01
 -6.39617787E-01  5.60223439E-15  5.40852006E-14 -0.00000000E+00 -0.00000000E+00
 -0.00000000E+00 -1.70604577E-13 -0.00000000E+00 -0.00000000E+00 -0.00000000E+00
 -8.60309956E-01  8.71629875E-01 -1.13199185E-02 -0.00000000E+00 -0.00000000E+00
 -0.00000000E+00  2.02267961E-14  2.32011481E-14  2.02267961E-14  2.32011481E-14
  2.02267961E-14  2.32011481E-14  2.02267961E-14  2.32011481E-14  3.07313595E-15
  2.33886822E-14  0.00000000E+00  0.00000000E+00  0.00000000E+00 -8.13906249E-14
  0.00000000E+00  0.00000000E+00  0.00000000E+00 -5.09771301E-01 -4.90164627E-01
  9.99935928E-01  0.00000000E+00  0.00000000E+00  0.00000000E+00  9.16073473E-15
  1.05887615E-14  9.16073473E-15  1.05887615E-14  9.16073473E-15  1.05887615E-14
  9.16073473E-15  1.05887615E-14  0.00000000E+00  0.00000000E+00  0.00000000E+00
  5.91539601E-02  0.00000000E+00  0.00000000E+00  0.00000000E+00  7.05572834E-01
  0.00000000E+00  0.00000000E+00  0.00000000E+00  0.00000000E+00  0.00000000E+00
  1.18473372E+00  0.00000000E+00 -5.64915892E-01  1.13546210E-02  5.64915892E-01
 -1.13546210E-02 -5.64915892E-01  1.13546210E-02  5.64915892E-01 -1.13546210E-02
  0.00000000E+00  0.00000000E+00  5.91539601E-02  0.00000000E+00  0.00000000E+00
  0.00000000E+00  7.05572834E-01  0.00000000E+00  0.00000000E+00  0.00000000E+00
  0.00000000E+00  0.00000000E+00  0.00000000E+00  0.00000000E+00  1.18473372E+00
 -5.64915892E-01  1.13546210E-02  5.64915892E-01 -1.13546210E-02  5.64915892E-01
 -1.13546210E-02 -5.64915892E-01  1.13546210E-02  0.00000000E+00  0.00000000E+00
  0.00000000E+00  0.00000000E+00  5.91539601E-02  0.00000000E+00  0.00000000E+00
  0.00000000E+00  7.05572834E-01  0.00000000E+00  0.00000000E+00  0.00000000E+00
  1.18473372E+00  0.00000000E+00  0.00000000E+00 -5.64915892E-01  1.13546210E-02
 -5.64915892E-01  1.13546210E-02  5.64915892E-01 -1.13546210E-02  5.64915892E-01
 -1.13546210E-02 -4.87283084E-01  1.04565411E+00  0.00000000E+00  0.00000000E+00
  0.00000000E+00  3.71964410E+00  0.00000000E+00  0.00000000E+00  0.00000000E+00
 -1.56790716E+00 -1.56790716E+00 -1.56790716E+00  0.00000000E+00  0.00000000E+00
  0.00000000E+00  1.19553594E-01 -5.43332952E-01  1.19553594E-01 -5.43332952E-01
  1.19553594E-01 -5.43332952E-01  1.19553594E-01 -5.43332952E-01
Orthonormal basis                          R   N=         529
  2.70734117E-02  1.38592757E-01  0.00000000E+00  0.00000000E+00  0.00000000E+00
  1.73924806E-01  0.00000000E+00  0.00000000E+00  0.00000000E+00  1.19485104E-01
  1.19485104E-01  1.19485104E-01  0.00000000E+00  0.00000000E+00  0.00000000E+00
  7.47382771E-02  1.22993717E-01  7.47382771E-02  1.22993717E-01  7.47382771E-02
  1.22993717E-01  7.47382771E-02  1.22993717E-01  9.01120777E-01  2.85110716E-01
  0.00000000E+00  0.00000000E+00  0.00000000E+00  2.06702304E-02  0.00000000E+00
  0.00000000E+00  0.00000000E+00  2.96818534E-02  2.96818534E-02  2.96818534E-02
  0.00000000E+00  0.00000000E+00  0.00000000E+00 -8.39543264E-02 -1.07824554E-01
 -8.39543264E-02 -1.07824554E-01 -8.39543264E-02 -1.07824554E-01 -8.39543264E-02
 -1.07824554E-01  3.95686320E-01 -5.58660991E-01  0.00000000E+00  0.00000000E+00
  0.00000000E+00  9.68000146E-03  0.00000000E+00  0.00000000E+00  0.00000000E+00
 -3.25352558E-01 -3.25352558E-01 -3.25352558E-01  0.00000000E+00  0.00000000E+00
  0.00000000E+00  1.25574643E-01  2.92928821E-01  1.25574643E-01  2.92928821E-01
  1.25574643E-01  2.92928821E-01  1.25574643E-01  2.92928821E-01  5.63400926E-16
 -1.10996500E-15  0.00000000E+00  0.00000000E+00  0.00000000E+00  3.59835383E-16
  0.00000000E+00  0.00000000E+00  0.00000000E+00 -6.84762710E-01  9.73511313E-01
 -2.88748603E-01  0.00000000E+00  0.00000000E+00  0.00000000E+00  1.06168442E-16
  5.43745050E-17  1.06168442E-16  5.43745050E-17  1.06168442E-16  5.43745050E-17
  1.06168442E-16  5.43745050E-17 -4.60761668E-17  3.86433880E-16  0.00000000E+00
  0.00000000E+00  0.00000000E+00 -7.17344224E-17  0.00000000E+00  0.00000000E+00
  0.00000000E+00 -7.28766102E-01 -2.28638851E-01  9.57404953E-01  0.00000000E+00
  0.00000000E+00  0.00000000E+00  8.53756756E-19 -1.88182973E-16  8.53756756E-19
 -1.88182973E-16  8.53756756E-19 -1.88182973E-16  8.53756756E-19 -1.88182973E-16
  1.40658810E-01 -1.94055730E-01  0.00000000E+00  0.00000000E+00  0.00000000E+00
 -1.76611682E-01  0.00000000E+00  0.00000000E+00  0.00000000E+00  7.79037680E-02
  7.79037680E-02  7.79037680E-02  0.00000000E+00  0.00000000E+00  0.00000000E+00
  7.05534655E-01 -3.76122952E-01  7.05534655E-01 -3.76122952E-01  7.05534655E-01
 -3.76122952E-01  7.05534655E-01 -3.76122952E-01 -3.66253020E-01  2.00922148E+00
  0.00000000E+00  0.00000000E+00  0.00000000E+00 -2.81921641E-01  0.00000000E+00
  0.00000000E+00  0.00000000E+00 -1.01259276E+00 -1.01259276E+00 -1.01259276E+00
  0.00000000E+00  0.00000000E+00  0.00000000E+00  2.85565600E-01  1.18062679E-01
  2.85565600E-01  1.18062679E-01  2.85565600E-01  1.18062679E-01  2.85565600E-01
  1.18062679E-01 -4.23657456E-01 -6.20540715E-01  0.00000000E+00  0.00000000E+00
  0.00000000E+00  6.41005151E+00  0.00000000E+00  0.00000000E+00  0.00000000E+00
 -1.17797430E+00 -1.17797430E+00 -1.17797430E+00  0.00000000E+00  0.00000000E+00
  0.00000000E+00 -1.26706529E-01 -1.13270869E+00 -1.26706529E-01 -1.13270869E+00
 -1.26706529E-01 -1.13270869E+00 -1.26706529E-01 -1.13270869E+00  0.00000000E+00
  0.00000000E+00  0.00000000E+00  0.00000000E+00  2.68732547E-01  0.00000000E+00
  0.00000000E+00  0.00000000E+00  3.70957748E-01  0.00000000E+00  0.00000000E+00
  0.00000000E+00  1.21207128E-01  0.00000000E+00  0.00000000E+00  1.76785795E-01
  1.27522143E-01  1.76785795E-01  1.27522143E-01 -1.76785795E-01 -1.27522143E-01
 -1.76785795E-01 -1.27522143E-01  0.00000000E+00  0.00000000E+00  0.00000000E+00
  0.00000000E+00 -3.23478127E-01  0.00000000E+00  0.00000000E+00  0.00000000E+00
 -2.44319554E-01  0.00000000E+00  0.00000000E+00  0.00000000E+00  8.06056603E-01
  0.00000000E+00  0.00000000E+00  1.30395574E-01 -2.42052360E-02  1.30395574E-01
 -2.42052360E-02 -1.30395574E-01  2.42052360E-02 -1.30395574E-01  2.42052360E-02
  0.00000000E+00  0.00000000E+00  0.00000000E+00  0.00000000E+00  1.02047650E+00
  0.00000000E+00  0.00000000E+00  0.00000000E+00 -3.55333406E-01  0.00000000E+00
  0.00000000E+00  0.00000000E+00  3.28641600E-01  0.00000000E+00  0.00000000E+00
 -8.57128430E-02 -2.38476272E-01 -8.57128430E-02 -2.38476272E-01  8.57128430E-02
  2.38476272E-01  8.57128430E-02  2.38476272E-01  0.00000000E+00  0.00000000E+00
  0.00000000E+00  0.00000000E+00 -4.41760626E-02  0.00000000E+00  0.00000000E+00
  0.00000000E+00 -7.71508807E-01  0.00000000E+00  0.00000000E+00  0.00000000E+00
 -8.00442999E-01  0.00000000E+00  0.00000000E+00  7.88967633E-01 -3.19209206E-01
  7.88967633E-01 -3.19209206E-01 -7.88967633E-01  3.19209206E-01 -7.88967633E-01
  3.19209206E-01  0.00000000E+00  0.00000000E+00  0.00000000E+00  0.00000000E+00
  5.46323626E-01  0.00000000E+00  0.00000000E+00  0.00000000E+00 -2.01544742E+00
  0.00000000E+00  0.00000000E+00  0.00000000E+00 -2.21253273E-01  0.00000000E+00
  0.00000000E+00 -2.77697766E-02  1.26896702E+00 -2.77697766E-02  1.26896702E+00
  2.77697766E-02 -1.26896702E+00  2.77697766E-02 -1.26896702E+00  0.00000000E+00
  0.00000000E+00  0.00000000E+00  2.68732547E-01  0.00000000E+00  0.00000000E+00
  0.00000000E+00  3.70957748E-01  0.00000000E+00  0.00000000E+00  0.00000000E+00
  0.00000000E+00  0.00000000E+00  1.21207128E-01  0.00000000E+00  1.76785795E-01
  1.27522143E-01 -1.76785795E-01 -1.27522143E-01  1.76785795E-01  1.27522143E-01
 -1.76785795E-01 -1.27522143E-01  0.00000000E+00  0.00000000E+00  0.00000000E+00
 -3.23478127E-01  0.00000000E+00  0.00000000E+00  0.00000000E+00 -2.44319554E-01
  0.00000000E+00  0.00000000E+00  0.00000000E+00  0.00000000E+00  0.00000000E+00
  8.06056603E-01  0.00000000E+00  1.30395574E-01 -2.42052360E-02 -1.30395574E-01
  2.42052360E-02  1.30395574E-01 -2.42052360E-02 -1.30395574E-01  2.42052360E-02
  0.00000000E+00  0.00000000E+00  0.00000000E+00  1.02047650E+00  0.00000000E+00
  0.00000000E+00  0.00000000E+00 -3.55333406E-01  0.00000000E+00  0.00000000E+00
  0.00000000E+00  0.00000000E+00  0.00000000E+00  3.28641600E-01  0.00000000E+00
 -8.57128430E-02 -2.38476272E-01  8.57128430E-02  2.38476272E-01 -8.57128430E-02
 -2.38476272E-01  8.57128430E-02  2.38476272E-01  0.00000000E+00  0.00000000E+00
  0.00000000E+00 -4.41760626E-02  0.00000000E+00  0.00000000E+00  0.00000000E+00
 -7.71508807E-01  0.00000000E+00  0.00000000E+00  0.00000000E+00  0.00000000E+00
  0.00000000E+00 -8.00442999E-01  0.00000000E+00  7.88967633E-01 -3.19209206E-01
 -7.88967633E-01  3.19209206E-01  7.88967633E-01 -3.19209206E-01 -7.88967633E-01
  3.19209206E-01  0.00000000E+00  0.00000000E+00  0.00000000E+00  5.46323626E-01
  0.00000000E+00  0.00000000E+00  0.00000000E+00 -2.01544742E+00  0.00000000E+00
  0.00000000E+00  0.00000000E+00  0.00000000E+00  0.00000000E+00 -2.21253273E-01
  0.00000000E+00 -2.77697766E-02  1.26896702E+00  2.77697766E-02 -1.26896702E+00