Title Card Required                                                     
Freq      RB3LYP                                                      6-31G(d)            
Number of atoms                            I                4
Info1-9                                    I   N=           9
          18          18        1002           0           0         100
           6          18        -502
Full Title                                 C   N=           2
Title Card Required     
Route                                      C   N=           6
#P opt freq b3lyp/6-31g(d) geom=connectivity temperature=0.0
01          
Charge                                     I                0
Multiplicity                               I                1
Number of electrons                        I               10
Number of alpha electrons                  I                5
Number of beta electrons                   I                5
Number of basis functions                  I               21
Number of independent functions            I               21
Number of point charges in /Mol/           I                0
Number of translation vectors              I                0
Atomic numbers                             I   N=           4
           7           1           1           1
Nuclear charges                            R   N=           4
  7.00000000E+00  1.00000000E+00  1.00000000E+00  1.00000000E+00
Current cartesian coordinates              R   N=          12
  1.48738957E-22  7.42047070E-17  2.25551421E-01  1.91723311E-16  1.77365445E+00
 -5.26286649E-01 -1.53602981E+00 -8.86827224E-01 -5.26286649E-01  1.53602981E+00
 -8.86827224E-01 -5.26286649E-01
Number of symbols in /Mol/                 I                0
Force Field                                I                0
Atom Types                                 C   N=           4
                                                
Int Atom Types                             I   N=           4
           0           0           0           0
MM charges                                 R   N=           4
  0.00000000E+00  0.00000000E+00  0.00000000E+00  0.00000000E+00
Integer atomic weights                     I   N=           4
          14           1           1           1
Real atomic weights                        R   N=           4
  1.40030740E+01  1.00782504E+00  1.00782504E+00  1.00782504E+00
Atom fragment info                         I   N=           4
           0           0           0           0
Atom residue num                           I   N=           4
           0           0           0           0
Nuclear spins                              I   N=           4
           2           1           1           1
Nuclear ZEff                               R   N=           4
 -4.55000000E+00 -1.00000000E+00 -1.00000000E+00 -1.00000000E+00
Nuclear ZNuc                               R   N=           4
  7.00000000E+00  1.00000000E+00  1.00000000E+00  1.00000000E+00
Nuclear QMom                               R   N=           4
  2.04400000E+00  0.00000000E+00  0.00000000E+00  0.00000000E+00
Nuclear GFac                               R   N=           4
  4.03761000E-01  2.79284600E+00  2.79284600E+00  2.79284600E+00
MicOpt                                     I   N=           4
          -1          -1          -1          -1
Number of residues                         I                0
Number of secondary structures             I                0
Redundant internal dimensions              I   N=           4
           7           3           3           1
Redundant internal coordinate indices      I   N=          28
           1           2           0           0           1           3
           0           0           1           4           0           0
           2           1           3           0           2           1
           4           0           3           1           4           0
           2           1           4           3
Redundant internal coordinates             R   N=           7
  1.92642430E+00  1.92642430E+00  1.92642430E+00  1.84577501E+00  1.84577501E+00
  1.84577501E+00 -1.95274926E+00
ZRed-IntVec                                I   N=           7
           0           0           0           0           0           0
           0
ZRed-FPVec                                 R   N=           7
  0.00000000E+00  0.00000000E+00  0.00000000E+00  0.00000000E+00  0.00000000E+00
  0.00000000E+00  0.00000000E+00
ZRed-Constraint1                           R   N=           7
  1.92642430E+00  1.92642430E+00  1.92642430E+00  1.84577501E+00  1.84577501E+00
  1.84577501E+00 -1.95274926E+00
ZRed-Constraint2                           R   N=           7
  1.88972613E+00  1.88972612E+00  1.88972612E+00  1.91063293E+00  1.91063293E+00
  1.91063376E+00 -2.09439485E+00
SymInf integers                            I   N=          26
           2           2           1           1           1          -1
           1           1           0           0           0           0
           0           0           0           0           0           0
           0           0           0           0           0           0
           0           0
RotTr to input orientation                 R   N=          12
  1.47892302E-12  1.22781465E-07 -1.00000000E+00 -1.20503762E-05 -1.00000000E+00
 -1.22781465E-07 -1.00000000E+00  1.20503762E-05  6.39830643E-16  1.56959575E-01
  1.95844166E+00  4.44089210E-16
Number of contracted shells                I               10
Number of primitive shells                 I               23
Pure/Cartesian d shells                    I                1
Pure/Cartesian f shells                    I                0
Highest angular momentum                   I                2
Largest degree of contraction              I                6
Shell types                                I   N=          10
           0          -1          -1           2           0           0
           0           0           0           0
Number of primitives per shell             I   N=          10
           6           3           1           1           3           1
           3           1           3           1
Shell to atom map                          I   N=          10
           1           1           1           1           2           2
           3           3           4           4
Primitive exponents                        R   N=          23
  4.17351146E+03  6.27457911E+02  1.42902093E+02  4.02343293E+01  1.28202129E+01
  4.39043701E+00  1.16263619E+01  2.71627981E+00  7.72218397E-01  2.12031498E-01
  8.00000000E-01  1.87311370E+01  2.82539436E+00  6.40121692E-01  1.61277759E-01
  1.87311370E+01  2.82539436E+00  6.40121692E-01  1.61277759E-01  1.87311370E+01
  2.82539436E+00  6.40121692E-01  1.61277759E-01
Contraction coefficients                   R   N=          23
  1.83477216E-03  1.39946270E-02  6.85865518E-02  2.32240873E-01  4.69069948E-01
  3.60455199E-01 -1.14961182E-01 -1.69117479E-01  1.14585195E+00  1.00000000E+00
  1.00000000E+00  3.34946043E-02  2.34726953E-01  8.13757326E-01  1.00000000E+00
  3.34946043E-02  2.34726953E-01  8.13757326E-01  1.00000000E+00  3.34946043E-02
  2.34726953E-01  8.13757326E-01  1.00000000E+00
P(S=P) Contraction coefficients            R   N=          23
  0.00000000E+00  0.00000000E+00  0.00000000E+00  0.00000000E+00  0.00000000E+00
  0.00000000E+00  6.75797439E-02  3.23907296E-01  7.40895140E-01  1.00000000E+00
  0.00000000E+00  0.00000000E+00  0.00000000E+00  0.00000000E+00  0.00000000E+00
  0.00000000E+00  0.00000000E+00  0.00000000E+00  0.00000000E+00  0.00000000E+00
  0.00000000E+00  0.00000000E+00  0.00000000E+00
Coordinates of each shell                  R   N=          30
  1.11318463E-22  7.42051305E-17  2.25551421E-01  1.11318463E-22  7.42051305E-17
  2.25551421E-01  1.11318463E-22  7.42051305E-17  2.25551421E-01  1.11318463E-22
  7.42051305E-17  2.25551421E-01  1.27815548E-16  1.77365445E+00 -5.26286649E-01
  1.27815548E-16  1.77365445E+00 -5.26286649E-01 -1.53602981E+00 -8.86827224E-01
 -5.26286649E-01 -1.53602981E+00 -8.86827224E-01 -5.26286649E-01  1.53602981E+00
 -8.86827224E-01 -5.26286649E-01  1.53602981E+00 -8.86827224E-01 -5.26286649E-01
Num ILSW                                   I              100
ILSW                                       I   N=         100
           0           1           0           0           2           0
           0           0           0           0         402          -1
           5           0           0           0           2           0
           0           0           0           0           1           0
           1           0           0           0           0           0
           0           0      100000           0          -1           0
           0           0           0           0           0           0
           0           0           0           1           0           0
           0 -2000000000           1           0           0           0
           0           0           4          52           0           0
           0           0           5           0           0           0
           0           0           0           4           0           1
           0           0           0           0           0           0
           0           0           0           0           0           0
           0           0           0           0           0           0
           0           0           0           0           0           0
           0           0           0           0
Num RLSW                                   I               52
RLSW                                       R   N=          52
  8.00000000E-01  7.20000000E-01  1.00000000E+00  8.10000000E-01  2.00000000E-01
  0.00000000E+00  0.00000000E+00  1.00000000E+00  0.00000000E+00  0.00000000E+00
  0.00000000E+00  0.00000000E+00  1.00000000E+00  0.00000000E+00  0.00000000E+00
  0.00000000E+00  0.00000000E+00  1.00000000E+00  0.00000000E+00  0.00000000E+00
  0.00000000E+00  0.00000000E+00  1.00000000E+00  0.00000000E+00  0.00000000E+00
  0.00000000E+00  0.00000000E+00  1.00000000E+00  0.00000000E+00  0.00000000E+00
  0.00000000E+00  0.00000000E+00  1.00000000E+00  0.00000000E+00  0.00000000E+00
  0.00000000E+00  0.00000000E+00  0.00000000E+00  1.00000000E+00  1.00000000E+00
  0.00000000E+00  1.00000000E+00  0.00000000E+00  0.00000000E+00  0.00000000E+00
  0.00000000E+00  0.00000000E+00  0.00000000E+00  0.00000000E+00  0.00000000E+00
  0.00000000E+00  0.00000000E+00
MxBond                                     I                3
NBond                                      I   N=           4
           3           1           1           1
IBond                                      I   N=          12
           2           3           4           1           0           0
           1           0           0           1           0           0
RBond                                      R   N=          12
  1.00000000E+00  1.00000000E+00  1.00000000E+00  1.00000000E+00  0.00000000E+00
  0.00000000E+00  1.00000000E+00  0.00000000E+00  0.00000000E+00  1.00000000E+00
  0.00000000E+00  0.00000000E+00
Virial Ratio                               R      2.009173322109849E+00
SCF Energy                                 R     -5.654794779741894E+01
Total Energy                               R     -5.654794779741894E+01
RMS Force                                  R      1.005522359345900E-05
NImag                                      I                0
Job Status                                 I                1
Nuclear derivative order                   I                2
External E-field                           R   N=          35
  0.00000000E+00  0.00000000E+00  0.00000000E+00  0.00000000E+00  0.00000000E+00
  0.00000000E+00  0.00000000E+00  0.00000000E+00  0.00000000E+00  0.00000000E+00
  0.00000000E+00  0.00000000E+00  0.00000000E+00  0.00000000E+00  0.00000000E+00
  0.00000000E+00  0.00000000E+00  0.00000000E+00  0.00000000E+00  0.00000000E+00
  0.00000000E+00  0.00000000E+00  0.00000000E+00  0.00000000E+00  0.00000000E+00
  0.00000000E+00  0.00000000E+00  0.00000000E+00  0.00000000E+00  0.00000000E+00
  0.00000000E+00  0.00000000E+00  0.00000000E+00  0.00000000E+00  0.00000000E+00
IOpCl                                      I                0
IROHF                                      I                0
Alpha Orbital Energies                     R   N=          21
 -1.43060321E+01 -8.45341433E-01 -4.52245526E-01 -4.52245526E-01 -2.52408640E-01
  7.85946985E-02  1.67786273E-01  1.67786273E-01  6.83190422E-01  6.83190422E-01
  7.21898349E-01  9.15126919E-01  9.15126919E-01  9.22320516E-01  1.15613336E+00
  1.67543677E+00  1.67543677E+00  1.94052369E+00  2.40301713E+00  2.40301713E+00
  3.66833317E+00
Alpha MO coefficients                      R   N=         441
  9.92708102E-01  3.46394658E-02  0.00000000E+00  6.85021120E-16 -1.33651824E-03
  3.75495111E-03  0.00000000E+00  4.14689045E-16  3.83356753E-04 -8.17486257E-03
 -8.17486257E-03 -8.20545570E-03  0.00000000E+00  0.00000000E+00  1.88646442E-15
  2.39528715E-04 -3.42460219E-04  2.39528715E-04 -3.42460219E-04  2.39528715E-04
 -3.42460219E-04 -1.98729658E-01  4.15178304E-01  0.00000000E+00 -2.02071607E-15
 -1.16845258E-01  4.26332968E-01  0.00000000E+00  7.07876097E-15 -5.88291520E-02
  6.85010438E-03  6.85010438E-03 -5.40330334E-03  0.00000000E+00  0.00000000E+00
 -9.01089979E-16  1.40045987E-01  1.21491852E-02  1.40045987E-01  1.21491852E-02
  1.40045987E-01  1.21491852E-02  2.02472118E-16  3.53762362E-15  0.00000000E+00
  4.81954902E-01 -2.14572435E-15 -1.41272474E-14  0.00000000E+00  2.47446792E-01
  3.98210252E-15 -1.36438750E-02  1.36438750E-02  1.69366097E-15  0.00000000E+00
  0.00000000E+00 -3.54978016E-02  2.79693961E-01  1.95422989E-01 -1.39846980E-01
 -9.77114946E-02 -1.39846980E-01 -9.77114946E-02  0.00000000E+00  0.00000000E+00
  4.81954902E-01  0.00000000E+00  0.00000000E+00  0.00000000E+00  2.47446792E-01
  0.00000000E+00  0.00000000E+00  0.00000000E+00  0.00000000E+00  0.00000000E+00
 -1.57545898E-02 -3.54978016E-02  0.00000000E+00  0.00000000E+00  0.00000000E+00
 -2.42222075E-01 -1.69241273E-01  2.42222075E-01  1.69241273E-01 -7.63614141E-02
  1.65330428E-01  0.00000000E+00 -1.10915042E-16  5.52740374E-01  3.42435691E-01
  0.00000000E+00  2.93248194E-16  4.64943643E-01  8.27200742E-03  8.27200742E-03
 -4.21542140E-02  0.00000000E+00  0.00000000E+00 -6.63840303E-16 -6.58213382E-02
 -6.68938748E-02 -6.58213382E-02 -6.68938748E-02 -6.58213382E-02 -6.68938748E-02
 -1.27260315E-01  1.68311760E-01  0.00000000E+00  2.68991748E-14 -1.99858497E-01
  1.81213014E+00  0.00000000E+00  8.84083077E-14 -4.77571010E-01 -3.39354988E-02
 -3.39354988E-02 -2.89953692E-02  0.00000000E+00  0.00000000E+00 -1.44494905E-15
 -5.66200556E-02 -9.19892070E-01 -5.66200556E-02 -9.19892070E-01 -5.66200556E-02
 -9.19892070E-01  0.00000000E+00  0.00000000E+00  4.18575130E-01  0.00000000E+00
  0.00000000E+00  0.00000000E+00  1.00862775E+00  0.00000000E+00  0.00000000E+00
  0.00000000E+00  0.00000000E+00  0.00000000E+00  7.16270306E-03 -1.59706705E-02
  0.00000000E+00  0.00000000E+00  0.00000000E+00  9.14175561E-02  1.41365685E+00
 -9.14175561E-02 -1.41365685E+00 -8.71072635E-15  3.44569617E-14  0.00000000E+00
 -4.18575130E-01 -2.29549845E-14  8.06153086E-14  0.00000000E+00 -1.00862775E+00
 -2.40407899E-14 -6.20308281E-03  6.20308281E-03  6.21575551E-15  0.00000000E+00
  0.00000000E+00  1.59706705E-02  1.05559901E-01  1.63235033E+00 -5.27799507E-02
 -8.16175165E-01 -5.27799507E-02 -8.16175165E-01  0.00000000E+00  0.00000000E+00
 -3.55349822E-01  0.00000000E+00  0.00000000E+00  0.00000000E+00  1.14789895E+00
  0.00000000E+00  0.00000000E+00  0.00000000E+00  0.00000000E+00  0.00000000E+00
  1.42200105E-01  8.87619716E-02  0.00000000E+00  0.00000000E+00  0.00000000E+00
  6.72049390E-01 -1.02458634E-01 -6.72049390E-01  1.02458634E-01 -9.76049929E-16
 -1.14550827E-14  0.00000000E+00 -3.55349822E-01 -5.58959491E-15  2.53321011E-14
  0.00000000E+00  1.14789895E+00  7.16676592E-15  1.23148903E-01 -1.23148903E-01
 -4.16830762E-15  0.00000000E+00  0.00000000E+00  8.87619716E-02 -7.76015793E-01
  1.18309040E-01  3.88007896E-01 -5.91545199E-02  3.88007896E-01 -5.91545199E-02
  1.88551113E-02 -1.73592023E-01  0.00000000E+00  1.55955927E-14 -9.82164220E-01
 -5.08759712E-02  0.00000000E+00 -2.30855783E-14  1.11854687E+00 -4.59269293E-02
 -4.59269293E-02 -4.77193296E-02  0.00000000E+00  0.00000000E+00 -5.00827448E-16
  3.98073527E-02  1.39481286E-01  3.98073527E-02  1.39481286E-01  3.98073527E-02
  1.39481286E-01 -6.52139582E-14  8.72743550E-13  0.00000000E+00  9.89845929E-01
 -2.59738297E-13 -1.39805929E-12  0.00000000E+00 -1.41411669E+00  1.94338372E-14
  8.65266897E-02 -8.65266897E-02  2.84233662E-13  0.00000000E+00  0.00000000E+00
  6.99851473E-02 -5.50046841E-01  1.47365883E+00  2.75023421E-01 -7.36829416E-01
  2.75023421E-01 -7.36829416E-01  0.00000000E+00  0.00000000E+00 -9.89845929E-01
  0.00000000E+00  0.00000000E+00  0.00000000E+00  1.41411669E+00  0.00000000E+00
  0.00000000E+00  0.00000000E+00  0.00000000E+00  0.00000000E+00 -9.99124152E-02
 -6.99851473E-02  0.00000000E+00  0.00000000E+00  0.00000000E+00 -4.76354538E-01
  1.27622598E+00  4.76354538E-01 -1.27622598E+00  6.28421538E-02 -7.39511872E-01
  0.00000000E+00  1.08322360E-12  2.40694979E-01  1.12171479E+00  0.00000000E+00
 -1.56461995E-12  2.03762263E-03 -1.26871883E-02 -1.26871883E-02 -2.49153685E-01
  0.00000000E+00  0.00000000E+00  7.55061535E-14  6.97704094E-01 -5.92731018E-01
  6.97704094E-01 -5.92731018E-01  6.97704094E-01 -5.92731018E-01 -8.91928201E-02
 -1.52757110E+00  0.00000000E+00  3.92569568E-14  1.45089194E-01  4.08043528E+00
  0.00000000E+00 -6.97374013E-14 -8.48722177E-01 -4.02195456E-01 -4.02195456E-01
 -3.85982617E-02  0.00000000E+00  0.00000000E+00  1.70830493E-15 -3.69215945E-01
 -7.81672571E-01 -3.69215945E-01 -7.81672571E-01 -3.69215945E-01 -7.81672571E-01
 -5.27272668E-16  1.54626170E-14  0.00000000E+00  1.86114119E-02 -8.40870266E-16
 -3.46633032E-14  0.00000000E+00  4.25146755E-02  7.54048840E-15 -5.67901924E-01
  5.67901924E-01  6.38215167E-15  0.00000000E+00  0.00000000E+00  7.54090894E-01
 -3.51487786E-02 -4.26368692E-03  1.75743893E-02  2.13184346E-03  1.75743893E-02
  2.13184346E-03  0.00000000E+00  0.00000000E+00  1.86114119E-02  0.00000000E+00
  0.00000000E+00  0.00000000E+00  4.25146755E-02  0.00000000E+00  0.00000000E+00
  0.00000000E+00  0.00000000E+00  0.00000000E+00 -6.55756657E-01  7.54090894E-01
  0.00000000E+00  0.00000000E+00  0.00000000E+00  3.04397352E-02  3.69246119E-03
 -3.04397352E-02 -3.69246119E-03 -5.34702996E-02 -4.72673237E-01  0.00000000E+00
  2.62091734E-15 -2.00459141E-02  1.54368854E+00  0.00000000E+00 -1.01735567E-14
 -4.66949179E-01  4.41592866E-01  4.41592866E-01 -1.05935658E+00  0.00000000E+00
  0.00000000E+00  9.43572761E-15 -4.63402321E-01 -2.10935408E-01 -4.63402321E-01
 -2.10935408E-01 -4.63402321E-01 -2.10935408E-01  0.00000000E+00  0.00000000E+00
 -6.44819837E-02  0.00000000E+00  0.00000000E+00  0.00000000E+00 -6.54642502E-01
  0.00000000E+00  0.00000000E+00  0.00000000E+00  0.00000000E+00  0.00000000E+00
  9.08744815E-01  7.89212452E-01  0.00000000E+00  0.00000000E+00  0.00000000E+00
 -7.90030105E-01  2.84495778E-02  7.90030105E-01 -2.84495778E-02  1.69616395E-15
 -1.60061559E-14  0.00000000E+00 -6.44819837E-02  4.00806989E-16  8.46692857E-15
  0.00000000E+00 -6.54642502E-01 -4.94818177E-16  7.86996096E-01 -7.86996096E-01
  1.22749861E-14  0.00000000E+00  0.00000000E+00  7.89212452E-01  9.12248188E-01
 -3.28507428E-02 -4.56124094E-01  1.64253714E-02 -4.56124094E-01  1.64253714E-02
 -4.66763485E-01  1.16059352E+00  0.00000000E+00  3.02154732E-15  1.00061055E-01
  3.20196263E+00  0.00000000E+00 -1.38467085E-14 -3.34884882E-01 -1.50160148E+00
 -1.50160148E+00 -1.52705643E+00  0.00000000E+00  0.00000000E+00  3.44784635E-15
  1.35471880E-01 -5.65378949E-01  1.35471880E-01 -5.65378949E-01  1.35471880E-01
 -5.65378949E-01
Orthonormal basis                          R   N=         441
  3.00135023E-02  1.51600398E-01  0.00000000E+00 -3.70697040E-18 -1.99958385E-02
  1.85063476E-01  0.00000000E+00 -1.07090879E-17 -3.67654299E-02  1.31815000E-01
  1.31815000E-01  1.24059559E-01  0.00000000E+00  0.00000000E+00  1.65548672E-18
  8.95559504E-02  1.38129371E-01  8.95559504E-02  1.38129371E-01  8.95559504E-02
  1.38129371E-01  2.77040606E-17 -5.37746640E-17  0.00000000E+00  2.78638852E-01
 -3.43233359E-17 -1.37361509E-16  0.00000000E+00  3.79091505E-01 -4.62798188E-17
 -4.55655171E-02  4.55655171E-02 -7.07585187E-17  0.00000000E+00  0.00000000E+00
 -8.31912452E-02  2.89175174E-01  2.06770635E-01 -1.44587587E-01 -1.03385317E-01
 -1.44587587E-01 -1.03385317E-01  6.07128302E-02  1.67883630E-01  0.00000000E+00
 -1.62736800E-16  4.54842914E-01  1.00021855E-01  0.00000000E+00  1.06416085E-16
  5.02415823E-01  9.32943962E-02  9.32943962E-02  1.29878957E-01  0.00000000E+00
  0.00000000E+00 -2.33002728E-17 -1.12029452E-01 -6.95641050E-02 -1.12029452E-01
 -6.95641050E-02 -1.12029452E-01 -6.95641050E-02 -1.46618209E-14 -2.49550211E-15
  0.00000000E+00  2.94004663E-01  2.28269456E-15  5.82423366E-17  0.00000000E+00
  2.06618992E-01  1.13235858E-15  1.11468772E-01 -1.11468772E-01  1.39053338E-17
  0.00000000E+00  0.00000000E+00  8.42185903E-01 -2.02295118E-01  2.48914165E-02
  1.01147559E-01 -1.24457083E-02  1.01147559E-01 -1.24457083E-02  9.49395889E-01
  1.68827246E-01  0.00000000E+00  5.12212937E-15 -1.54636432E-01 -1.84746531E-03
  0.00000000E+00  3.38292441E-15 -7.42755288E-02 -6.17557850E-02 -6.17557850E-02
  4.09812524E-04  0.00000000E+00  0.00000000E+00  1.37331150E-14 -5.72577965E-02
 -6.74651744E-02 -5.72577965E-02 -6.74651744E-02 -5.72577965E-02 -6.74651744E-02
 -2.53636894E-01  4.55419413E-01  0.00000000E+00  1.78020141E-15 -5.39453709E-01
 -2.11025443E-02  0.00000000E+00  1.45736767E-16 -4.07409374E-02  7.46429220E-02
  7.46429220E-02  5.90122842E-01  0.00000000E+00  0.00000000E+00 -1.56587554E-15
 -1.71224544E-01 -2.81606949E-01 -1.71224544E-01 -2.81606949E-01 -1.71224544E-01
 -2.81606949E-01  3.99472830E-16 -1.50385947E-15  0.00000000E+00  4.93869506E-01
  1.49159810E-15  4.83844916E-16  0.00000000E+00  6.42555231E-02  7.11057259E-17
  6.02645780E-01 -6.02645780E-01 -2.27420690E-15  0.00000000E+00  0.00000000E+00
 -4.39688521E-01 -2.66437201E-01 -9.04639147E-02  1.33218601E-01  4.52319573E-02
  1.33218601E-01  4.52319573E-02  2.64179445E-02 -2.23768176E-01  0.00000000E+00
  1.86312312E-15  2.16108356E-01  7.56439467E-02  0.00000000E+00 -6.69134510E-16
 -1.09190214E-01 -5.39721347E-01 -5.39721347E-01  7.54812108E-01  0.00000000E+00
  0.00000000E+00 -3.15470858E-16 -1.09173677E-01  2.35081307E-01 -1.09173677E-01
  2.35081307E-01 -1.09173677E-01  2.35081307E-01 -1.24735857E-16  3.50247829E-16
  0.00000000E+00  9.03435707E-01  4.06783635E-16 -2.57671209E-16  0.00000000E+00
 -4.54540015E-01 -2.19920818E-16 -4.19530477E-01  4.19530477E-01 -1.78595553E-15
  0.00000000E+00  0.00000000E+00 -7.65903837E-02 -3.55661497E-03 -3.94901976E-01
  1.77830749E-03  1.97450988E-01  1.77830749E-03  1.97450988E-01  2.69856053E-02
 -4.00501744E-01  0.00000000E+00  7.97228143E-16 -8.96133624E-01  2.62948635E-01
  0.00000000E+00 -1.07942958E-16  1.01278467E+00 -1.06947520E-01 -1.06947520E-01
 -1.29868103E-01  0.00000000E+00  0.00000000E+00 -3.53908000E-17 -6.26846015E-02
  2.21309232E-01 -6.26846015E-02  2.21309232E-01 -6.26846015E-02  2.21309232E-01
  1.33359973E-01 -3.14120772E-01  0.00000000E+00  6.69342262E-17  2.73206499E-02
 -1.07542839E-01  0.00000000E+00  7.99875940E-16  3.82492661E-01 -1.34116057E-01
 -1.34116057E-01  5.08120097E-01  0.00000000E+00  0.00000000E+00 -9.33613469E-17
  8.20606349E-01 -4.10295049E-01  8.20606349E-01 -4.10295049E-01  8.20606349E-01
 -4.10295049E-01  1.10974658E-16 -7.84514580E-16  0.00000000E+00 -6.42020423E-02
 -1.40021784E-16  1.15541886E-15  0.00000000E+00 -7.48724183E-01 -3.81706314E-16
  6.24551474E-01 -6.24551474E-01  3.01378971E-16  0.00000000E+00  0.00000000E+00
  5.21794987E-01  1.27511564E+00 -4.87008945E-01 -6.37557820E-01  2.43504473E-01
 -6.37557820E-01  2.43504473E-01 -3.68176440E-01  1.95825349E+00  0.00000000E+00
  3.50622423E-16 -4.83583893E-02 -2.02366947E-01  0.00000000E+00 -1.91077797E-15
  4.05727144E-01 -1.08948992E+00 -1.08948992E+00 -8.78342646E-01  0.00000000E+00
  0.00000000E+00  3.15110459E-16  3.44547071E-01  1.66990936E-01  3.44547071E-01
  1.66990936E-01  3.44547071E-01  1.66990936E-01  9.19394586E-16 -2.54840922E-15
  0.00000000E+00  5.38288971E-01 -2.97904578E-16 -3.65464148E-15  0.00000000E+00
 -1.96687495E+00  6.38394498E-16  1.44909625E-01 -1.44909625E-01  2.72333644E-15
  0.00000000E+00  0.00000000E+00  1.34689149E-01 -7.80314856E-02  2.10827887E+00
  3.90157428E-02 -1.05413944E+00  3.90157428E-02 -1.05413944E+00 -3.93624631E-01
 -5.28336248E-01  0.00000000E+00  5.60846900E-16  1.95237318E-01  5.82727139E+00
  0.00000000E+00 -4.72497524E-15 -1.06764095E+00 -1.03537424E+00 -1.03537424E+00
 -1.23527856E+00  0.00000000E+00  0.00000000E+00  1.57105349E-16 -1.54333139E-01
 -1.33735793E+00 -1.54333139E-01 -1.33735793E+00 -1.54333139E-01 -1.33735793E+00
  0.00000000E+00  0.00000000E+00  2.73375616E-01  0.00000000E+00  0.00000000E+00
  0.00000000E+00  3.72759964E-01  0.00000000E+00  0.00000000E+00  0.00000000E+00
  0.00000000E+00  0.00000000E+00 -9.73756708E-02 -8.25535509E-02  0.00000000E+00
  0.00000000E+00  0.00000000E+00 -2.51629092E-01 -1.77211159E-01  2.51629092E-01
  1.77211159E-01  0.00000000E+00  0.00000000E+00  3.27354382E-01  0.00000000E+00
  0.00000000E+00  0.00000000E+00  2.52223929E-01  0.00000000E+00  0.00000000E+00
  0.00000000E+00  0.00000000E+00  0.00000000E+00  6.07858118E-01  5.15332482E-01
  0.00000000E+00  0.00000000E+00  0.00000000E+00  1.87165662E-01 -3.50318823E-02
 -1.87165662E-01  3.50318823E-02  0.00000000E+00  0.00000000E+00  3.43497619E-15
  0.00000000E+00  0.00000000E+00  0.00000000E+00 -1.16516059E-15  0.00000000E+00
  0.00000000E+00  0.00000000E+00  0.00000000E+00  0.00000000E+00 -6.46666643E-01
  7.62772740E-01  0.00000000E+00  0.00000000E+00  0.00000000E+00  3.35671784E-16
  1.35628792E-15 -3.35671784E-16 -1.35628792E-15  0.00000000E+00  0.00000000E+00
  1.02127873E+00  0.00000000E+00  0.00000000E+00  0.00000000E+00 -3.77076218E-01
  0.00000000E+00  0.00000000E+00  0.00000000E+00  0.00000000E+00  0.00000000E+00
 -2.48774021E-01 -2.10906673E-01  0.00000000E+00  0.00000000E+00  0.00000000E+00
  1.18886243E-01  3.39817600E-01 -1.18886243E-01 -3.39817600E-01  0.00000000E+00
  0.00000000E+00  4.56412241E-02  0.00000000E+00  0.00000000E+00  0.00000000E+00
  7.93714871E-01  0.00000000E+00  0.00000000E+00  0.00000000E+00  0.00000000E+00
  0.00000000E+00 -6.35022524E-01 -5.38362035E-01  0.00000000E+00  0.00000000E+00
  0.00000000E+00  1.11914065E+00 -4.19259504E-01 -1.11914065E+00  4.19259504E-01
  0.00000000E+00  0.00000000E+00 -5.39508990E-01  0.00000000E+00  0.00000000E+00
  0.00000000E+00  1.96254567E+00  0.00000000E+00  0.00000000E+00  0.00000000E+00
  0.00000000E+00  0.00000000E+00 -1.55059425E-01 -1.31456924E-01  0.00000000E+00
  0.00000000E+00  0.00000000E+00 -7.55576281E-02  1.82845735E+00  7.55576281E-02
 -1.82845735E+00
Total SCF Density                          R   N=         231
  2.06158784E+00 -1.21492459E-01  4.01814134E-01 -6.10999842E-24  1.28812529E-23
  4.64561055E-01 -2.91832905E-23  6.15249513E-23  3.98307583E-17  4.64561055E-01
 -4.06283819E-02  8.56537813E-02 -1.74948704E-22  8.71399130E-22  6.38353044E-01
 -2.14292616E-01  4.67498615E-01  4.19454725E-23  2.00344880E-22  2.78916056E-01
  5.98072203E-01 -7.04778565E-24  1.57780557E-23  2.38516389E-01  1.94020789E-17
 -5.97470534E-23  4.03441169E-23  1.22459829E-01 -3.36624610E-23  7.53610011E-23
  2.01805583E-17  2.38516389E-01  5.91047343E-22  1.92696302E-22  8.06840291E-18
  1.22459829E-01 -4.68641908E-02  1.04916047E-01 -5.97470535E-23  5.91047343E-22
  5.27733036E-01  2.68267860E-01 -5.36277563E-24  4.24359066E-22  4.39267214E-01
 -2.02164668E-02  7.85691275E-03 -6.42077484E-18 -1.31514648E-02  7.56559223E-03
  1.14447194E-02 -3.29229450E-18 -6.75226617E-03  6.87979508E-03  7.36667477E-04
 -2.02164668E-02  7.85691275E-03  4.60410887E-18  1.31514648E-02  7.56559223E-03
  1.14447194E-02  2.36579760E-18  6.75226617E-03  6.87979508E-03 -7.95381781E-06
  7.36667477E-04 -7.70574067E-03 -1.89938824E-02  2.77505662E-23 -8.52212854E-23
 -4.53160379E-02 -3.35390497E-02  1.19464164E-23 -5.47466329E-23 -3.85692154E-02
 -6.37269381E-04 -6.37269381E-04  3.74700590E-03 -1.83757775E-18  7.14904895E-19
 -1.51860035E-02  5.32913214E-18  7.31731034E-19  1.17548421E-18 -7.79684538E-03
  2.68008369E-18  5.20930495E-19  6.17576458E-20  7.32642134E-20 -5.71076551E-20
  4.96414196E-04  1.22769326E-23 -8.58967869E-24 -3.42166790E-02 -2.81392636E-18
  6.99202561E-24 -1.35317398E-23 -1.75676342E-02 -1.54443952E-18 -1.08484399E-24
  5.04622280E-19 -3.80506822E-19 -1.46602749E-24  1.11850660E-03  2.52018784E-03
 -2.71378710E-23 -7.69095530E-24 -2.61475439E-18 -3.42166790E-02 -6.02315522E-23
 -1.60731109E-23 -1.01542452E-18 -1.75676342E-02 -4.05428113E-23  9.68655133E-04
 -9.68655133E-04  6.33326704E-24 -3.97774858E-19  2.14957851E-19  2.52018784E-03
 -4.51345970E-02  9.45401646E-02  4.52340660E-17  2.69599751E-01 -1.05492281E-01
  7.43350902E-02  2.27274565E-17  1.38418746E-01 -7.76838151E-02 -6.80642502E-03
  8.45801268E-03  4.03194078E-03  2.36607737E-18 -3.44362925E-18 -1.98570415E-02
  2.04348192E-01  4.70748881E-03 -1.20547550E-02  3.35035469E-17  1.88370135E-01
 -7.67881247E-02 -3.54570759E-02  1.68289255E-17  9.67135834E-02 -6.36334787E-02
 -6.26730140E-03  4.39800590E-03  5.51404605E-03  1.49570906E-18 -2.42644686E-18
 -1.38741730E-02  1.21526074E-01  8.56253103E-02 -4.51345970E-02  9.45401646E-02
 -2.33480233E-01 -1.34799875E-01 -1.05492281E-01  7.43350902E-02 -1.19874151E-01
 -6.92093732E-02 -7.76838151E-02  4.64190325E-03 -2.99031560E-03  4.03194078E-03