 Entering Gaussian System, Link 0=g16
 Input=ammonia.com
 Output=ammonia.log
 Initial command:
 /apps/cent7/gaussian/g16-A.03/g16-haswell/g16/l1.exe "/scratch/brown/finej/0062_qm/train_original_basis_set/Gau-443359.inp" -scrdir="/scratch/brown/finej/0062_qm/train_original_basis_set/"
 Entering Link 1 = /apps/cent7/gaussian/g16-A.03/g16-haswell/g16/l1.exe PID=    443360.
  
 Copyright (c) 1988,1990,1992,1993,1995,1998,2003,2009,2016,
            Gaussian, Inc.  All Rights Reserved.
  
 This is part of the Gaussian(R) 16 program.  It is based on
 the Gaussian(R) 09 system (copyright 2009, Gaussian, Inc.),
 the Gaussian(R) 03 system (copyright 2003, Gaussian, Inc.),
 the Gaussian(R) 98 system (copyright 1998, Gaussian, Inc.),
 the Gaussian(R) 94 system (copyright 1995, Gaussian, Inc.),
 the Gaussian 92(TM) system (copyright 1992, Gaussian, Inc.),
 the Gaussian 90(TM) system (copyright 1990, Gaussian, Inc.),
 the Gaussian 88(TM) system (copyright 1988, Gaussian, Inc.),
 the Gaussian 86(TM) system (copyright 1986, Carnegie Mellon
 University), and the Gaussian 82(TM) system (copyright 1983,
 Carnegie Mellon University). Gaussian is a federally registered
 trademark of Gaussian, Inc.
  
 This software contains proprietary and confidential information,
 including trade secrets, belonging to Gaussian, Inc.
  
 This software is provided under written license and may be
 used, copied, transmitted, or stored only in accord with that
 written license.
  
 The following legend is applicable only to US Government
 contracts under FAR:
  
                    RESTRICTED RIGHTS LEGEND
  
 Use, reproduction and disclosure by the US Government is
 subject to restrictions as set forth in subparagraphs (a)
 and (c) of the Commercial Computer Software - Restricted
 Rights clause in FAR 52.227-19.
  
 Gaussian, Inc.
 340 Quinnipiac St., Bldg. 40, Wallingford CT 06492
  
  
 ---------------------------------------------------------------
 Warning -- This program may not be used in any manner that
 competes with the business of Gaussian, Inc. or will provide
 assistance to any competitor of Gaussian, Inc.  The licensee
 of this program is prohibited from giving any competitor of
 Gaussian, Inc. access to this program.  By using this program,
 the user acknowledges that Gaussian, Inc. is engaged in the
 business of creating and licensing software in the field of
 computational chemistry and represents and warrants to the
 licensee that it is not a competitor of Gaussian, Inc. and that
 it will not use this program in any manner prohibited above.
 ---------------------------------------------------------------
  

 Cite this work as:
 Gaussian 16, Revision A.03,
 M. J. Frisch, G. W. Trucks, H. B. Schlegel, G. E. Scuseria, 
 M. A. Robb, J. R. Cheeseman, G. Scalmani, V. Barone, 
 G. A. Petersson, H. Nakatsuji, X. Li, M. Caricato, A. V. Marenich, 
 J. Bloino, B. G. Janesko, R. Gomperts, B. Mennucci, H. P. Hratchian, 
 J. V. Ortiz, A. F. Izmaylov, J. L. Sonnenberg, D. Williams-Young, 
 F. Ding, F. Lipparini, F. Egidi, J. Goings, B. Peng, A. Petrone, 
 T. Henderson, D. Ranasinghe, V. G. Zakrzewski, J. Gao, N. Rega, 
 G. Zheng, W. Liang, M. Hada, M. Ehara, K. Toyota, R. Fukuda, 
 J. Hasegawa, M. Ishida, T. Nakajima, Y. Honda, O. Kitao, H. Nakai, 
 T. Vreven, K. Throssell, J. A. Montgomery, Jr., J. E. Peralta, 
 F. Ogliaro, M. J. Bearpark, J. J. Heyd, E. N. Brothers, K. N. Kudin, 
 V. N. Staroverov, T. A. Keith, R. Kobayashi, J. Normand, 
 K. Raghavachari, A. P. Rendell, J. C. Burant, S. S. Iyengar, 
 J. Tomasi, M. Cossi, J. M. Millam, M. Klene, C. Adamo, R. Cammi, 
 J. W. Ochterski, R. L. Martin, K. Morokuma, O. Farkas, 
 J. B. Foresman, and D. J. Fox, Gaussian, Inc., Wallingford CT, 2016.
 
 ******************************************
 Gaussian 16:  ES64L-G16RevA.03 25-Dec-2016
                13-Oct-2019 
 ******************************************
 %nprocshared=24
 Will use up to   24 processors via shared memory.
 %mem=10GB
 %chk=ammonia.chk
 --------------------------------------------------------------
 #P opt freq b3lyp/6-31g(d) geom=connectivity temperature=0.001
 --------------------------------------------------------------
 1/18=20,19=15,26=3,38=1,57=2,112=-1000/1,3;
 2/9=110,12=2,17=6,18=5,40=1/2;
 3/5=1,6=6,7=1,11=2,25=1,30=1,71=1,74=-5/1,2,3;
 4//1;
 5/5=2,38=5/2;
 6/7=2,8=2,9=2,10=2,28=1/1;
 7//1,2,3,16;
 1/18=20,19=15,26=3/3(2);
 2/9=110/2;
 99//99;
 2/9=110/2;
 3/5=1,6=6,7=1,11=2,25=1,30=1,71=1,74=-5/1,2,3;
 4/5=5,16=3,69=1/1;
 5/5=2,38=5/2;
 7//1,2,3,16;
 1/18=20,19=15,26=3/3(-5);
 2/9=110/2;
 6/7=2,8=2,9=2,10=2,19=2,28=1/1;
 99/9=1/99;
 Leave Link    1 at Sun Oct 13 20:06:34 2019, MaxMem=  1342177280 cpu:               2.3 elap:               0.4
 (Enter /apps/cent7/gaussian/g16-A.03/g16-haswell/g16/l101.exe)
 -------------------
 Title Card Required
 -------------------
 Symbolic Z-matrix:
 Charge =  0 Multiplicity = 1
 N                     0.01212   1.03636   0. 
 H                     0.34544   0.09355   0. 
 H                     0.34546   1.50776   0.8165 
 H                     0.34546   1.50776  -0.8165 
 
 ITRead=  0  0  0  0
 MicOpt= -1 -1 -1 -1
 NAtoms=      4 NQM=        4 NQMF=       0 NMMI=      0 NMMIF=      0
                NMic=       0 NMicF=      0.
                    Isotopes and Nuclear Properties:
 (Nuclear quadrupole moments (NQMom) in fm**2, nuclear magnetic moments (NMagM)
  in nuclear magnetons)

  Atom         1           2           3           4
 IAtWgt=          14           1           1           1
 AtmWgt=  14.0030740   1.0078250   1.0078250   1.0078250
 NucSpn=           2           1           1           1
 AtZEff=  -0.0000000  -0.0000000  -0.0000000  -0.0000000
 NQMom=    2.0440000   0.0000000   0.0000000   0.0000000
 NMagM=    0.4037610   2.7928460   2.7928460   2.7928460
 AtZNuc=   7.0000000   1.0000000   1.0000000   1.0000000
 Leave Link  101 at Sun Oct 13 20:06:38 2019, MaxMem=  1342177280 cpu:              18.6 elap:               3.9
 (Enter /apps/cent7/gaussian/g16-A.03/g16-haswell/g16/l103.exe)

 GradGradGradGradGradGradGradGradGradGradGradGradGradGradGradGradGradGrad
 Berny optimization.
 Initialization pass.
                           ----------------------------
                           !    Initial Parameters    !
                           ! (Angstroms and Degrees)  !
 --------------------------                            --------------------------
 ! Name  Definition              Value          Derivative Info.                !
 --------------------------------------------------------------------------------
 ! R1    R(1,2)                  1.0            estimate D2E/DX2                !
 ! R2    R(1,3)                  1.0            estimate D2E/DX2                !
 ! R3    R(1,4)                  1.0            estimate D2E/DX2                !
 ! A1    A(2,1,3)              109.4712         estimate D2E/DX2                !
 ! A2    A(2,1,4)              109.4712         estimate D2E/DX2                !
 ! A3    A(3,1,4)              109.4713         estimate D2E/DX2                !
 ! D1    D(2,1,4,3)           -120.0            estimate D2E/DX2                !
 --------------------------------------------------------------------------------
 Trust Radius=3.00D-01 FncErr=1.00D-07 GrdErr=1.00D-06 EigMax=2.50D+02 EigMin=1.00D-04
 Number of steps in this run=     20 maximum allowed number of steps=    100.
 GradGradGradGradGradGradGradGradGradGradGradGradGradGradGradGradGradGrad

 Leave Link  103 at Sun Oct 13 20:06:38 2019, MaxMem=  1342177280 cpu:               0.2 elap:               0.0
 (Enter /apps/cent7/gaussian/g16-A.03/g16-haswell/g16/l202.exe)
                          Input orientation:                          
 ---------------------------------------------------------------------
 Center     Atomic      Atomic             Coordinates (Angstroms)
 Number     Number       Type             X           Y           Z
 ---------------------------------------------------------------------
      1          7           0        0.012121    1.036364    0.000000
      2          1           0        0.345443    0.093551    0.000000
      3          1           0        0.345460    1.507764    0.816497
      4          1           0        0.345460    1.507764   -0.816497
 ---------------------------------------------------------------------
                    Distance matrix (angstroms):
                    1          2          3          4
     1  N    0.000000
     2  H    1.000000   0.000000
     3  H    1.000000   1.632993   0.000000
     4  H    1.000000   1.632993   1.632993   0.000000
 Stoichiometry    H3N
 Framework group  C3V[C3(N),3SGV(H)]
 Deg. of freedom     2
 Full point group                 C3V     NOp   6
 Largest Abelian subgroup         CS      NOp   2
 Largest concise Abelian subgroup CS      NOp   2
                         Standard orientation:                         
 ---------------------------------------------------------------------
 Center     Atomic      Atomic             Coordinates (Angstroms)
 Number     Number       Type             X           Y           Z
 ---------------------------------------------------------------------
      1          7           0        0.000000    0.000000    0.100000
      2          1           0        0.000000    0.942809   -0.233333
      3          1           0       -0.816497   -0.471405   -0.233333
      4          1           0        0.816497   -0.471405   -0.233333
 ---------------------------------------------------------------------
 Rotational constants (GHZ):         311.9520310         311.9520310         188.0456786
 Leave Link  202 at Sun Oct 13 20:06:38 2019, MaxMem=  1342177280 cpu:               0.2 elap:               0.0
 (Enter /apps/cent7/gaussian/g16-A.03/g16-haswell/g16/l301.exe)
 Standard basis: 6-31G(d) (6D, 7F)
 Ernie: Thresh=  0.10000D-02 Tol=  0.10000D-05 Strict=F.
 There are    15 symmetry adapted cartesian basis functions of A'  symmetry.
 There are     6 symmetry adapted cartesian basis functions of A"  symmetry.
 There are    15 symmetry adapted basis functions of A'  symmetry.
 There are     6 symmetry adapted basis functions of A"  symmetry.
    21 basis functions,    40 primitive gaussians,    21 cartesian basis functions
     5 alpha electrons        5 beta electrons
       nuclear repulsion energy        12.0848827635 Hartrees.
 IExCor=  402 DFT=T Ex+Corr=B3LYP ExCW=0 ScaHFX=  0.200000
 ScaDFX=  0.800000  0.720000  1.000000  0.810000 ScalE2=  1.000000  1.000000
 IRadAn=      5 IRanWt=     -1 IRanGd=            0 ICorTp=0 IEmpDi=  4
 NAtoms=    4 NActive=    4 NUniq=    2 SFac= 4.00D+00 NAtFMM=   60 NAOKFM=F Big=F
 Integral buffers will be    131072 words long.
 Raffenetti 2 integral format.
 Two-electron integral symmetry is turned on.
 Leave Link  301 at Sun Oct 13 20:06:38 2019, MaxMem=  1342177280 cpu:               3.0 elap:               0.6
 (Enter /apps/cent7/gaussian/g16-A.03/g16-haswell/g16/l302.exe)
 NPDir=0 NMtPBC=     1 NCelOv=     1 NCel=       1 NClECP=     1 NCelD=      1
         NCelK=      1 NCelE2=     1 NClLst=     1 CellRange=     0.0.
 One-electron integrals computed using PRISM.
 One-electron integral symmetry used in STVInt
 NBasis=    21 RedAO= T EigKep=  2.21D-02  NBF=    15     6
 NBsUse=    21 1.00D-06 EigRej= -1.00D+00 NBFU=    15     6
 Precomputing XC quadrature grid using
 IXCGrd= 4 IRadAn=           5 IRanWt=          -1 IRanGd=           0 AccXCQ= 0.00D+00.
 Generated NRdTot=       0 NPtTot=           0 NUsed=           0 NTot=          32
 NSgBfM=    21    21    21    21    21 MxSgAt=     4 MxSgA2=     4.
 Leave Link  302 at Sun Oct 13 20:06:41 2019, MaxMem=  1342177280 cpu:              11.9 elap:               2.5
 (Enter /apps/cent7/gaussian/g16-A.03/g16-haswell/g16/l303.exe)
 DipDrv:  MaxL=1.
 Leave Link  303 at Sun Oct 13 20:06:41 2019, MaxMem=  1342177280 cpu:               2.0 elap:               0.4
 (Enter /apps/cent7/gaussian/g16-A.03/g16-haswell/g16/l401.exe)
 ExpMin= 1.61D-01 ExpMax= 4.17D+03 ExpMxC= 6.27D+02 IAcc=3 IRadAn=         5 AccDes= 0.00D+00
 Harris functional with IExCor=  402 and IRadAn=       5 diagonalized for initial guess.
 HarFok:  IExCor=  402 AccDes= 0.00D+00 IRadAn=         5 IDoV= 1 UseB2=F ITyADJ=14
 ICtDFT=  3500011 ScaDFX=  1.000000  1.000000  1.000000  1.000000
 FoFCou: FMM=F IPFlag=           0 FMFlag=      100000 FMFlg1=           0
         NFxFlg=           0 DoJE=T BraDBF=F KetDBF=T FulRan=T
         wScrn=  0.000000 ICntrl=       500 IOpCl=  0 I1Cent=   200000004 NGrid=           0
         NMat0=    1 NMatS0=      1 NMatT0=    0 NMatD0=    1 NMtDS0=    0 NMtDT0=    0
 Petite list used in FoFCou.
 Harris En= -56.5794887537104    
 JPrj=0 DoOrth=F DoCkMO=F.
 Initial guess orbital symmetries:
       Occupied  (A1) (A1) (E) (E) (A1)
       Virtual   (A1) (E) (E) (A1) (E) (E) (E) (E) (A1) (A1) (E)
                 (E) (A1) (E) (E) (A1)
 The electronic state of the initial guess is 1-A1.
 Leave Link  401 at Sun Oct 13 20:06:47 2019, MaxMem=  1342177280 cpu:              26.4 elap:               5.5
 (Enter /apps/cent7/gaussian/g16-A.03/g16-haswell/g16/l502.exe)
 Keep R1 ints in memory in symmetry-blocked form, NReq=20711020.
 FoFCou: FMM=F IPFlag=           0 FMFlag=           0 FMFlg1=           0
         NFxFlg=           0 DoJE=F BraDBF=F KetDBF=F FulRan=T
         wScrn=  0.000000 ICntrl=       600 IOpCl=  0 I1Cent=           0 NGrid=           0
         NMat0=    1 NMatS0=    231 NMatT0=    0 NMatD0=    1 NMtDS0=    0 NMtDT0=    0
 Petite list used in FoFCou.
 Closed shell SCF:
 Using DIIS extrapolation, IDIIS=  1040.
 NGot=  1342177280 LenX=  1342160536 LenY=  1342159654
 Requested convergence on RMS density matrix=1.00D-08 within 128 cycles.
 Requested convergence on MAX density matrix=1.00D-06.
 Requested convergence on             energy=1.00D-06.
 No special actions if energy rises.
 Integral accuracy reduced to 1.0D-05 until final iterations.

 Cycle   1  Pass 0  IDiag  1:
 E= -56.4576138628241    
 DIIS: error= 7.80D-02 at cycle   1 NSaved=   1.
 NSaved= 1 IEnMin= 1 EnMin= -56.4576138628241     IErMin= 1 ErrMin= 7.80D-02
 ErrMax= 7.80D-02  0.00D+00 EMaxC= 1.00D-01 BMatC= 1.04D-01 BMatP= 1.04D-01
 IDIUse=3 WtCom= 2.20D-01 WtEn= 7.80D-01
 Coeff-Com:  0.100D+01
 Coeff-En:   0.100D+01
 Coeff:      0.100D+01
 Gap=     0.198 Goal=   None    Shift=    0.000
 GapD=    0.198 DampG=1.000 DampE=0.500 DampFc=0.5000 IDamp=-1.
 Damping current iteration by 5.00D-01
 RMSDP=2.54D-02 MaxDP=2.00D-01              OVMax= 1.95D-01

 Cycle   2  Pass 0  IDiag  1:
 E= -56.4929312221920     Delta-E=       -0.035317359368 Rises=F Damp=T
 DIIS: error= 1.44D-02 at cycle   2 NSaved=   2.
 NSaved= 2 IEnMin= 2 EnMin= -56.4929312221920     IErMin= 2 ErrMin= 1.44D-02
 ErrMax= 1.44D-02  0.00D+00 EMaxC= 1.00D-01 BMatC= 3.95D-03 BMatP= 1.04D-01
 IDIUse=3 WtCom= 8.56D-01 WtEn= 1.44D-01
 Coeff-Com:  0.140D+00 0.860D+00
 Coeff-En:   0.237D+00 0.763D+00
 Coeff:      0.154D+00 0.846D+00
 Gap=     0.316 Goal=   None    Shift=    0.000
 RMSDP=2.75D-03 MaxDP=1.92D-02 DE=-3.53D-02 OVMax= 1.06D-01

 Cycle   3  Pass 0  IDiag  1:
 E= -56.5465927408461     Delta-E=       -0.053661518654 Rises=F Damp=F
 DIIS: error= 2.03D-03 at cycle   3 NSaved=   3.
 NSaved= 3 IEnMin= 3 EnMin= -56.5465927408461     IErMin= 3 ErrMin= 2.03D-03
 ErrMax= 2.03D-03  0.00D+00 EMaxC= 1.00D-01 BMatC= 8.44D-05 BMatP= 3.95D-03
 IDIUse=3 WtCom= 9.80D-01 WtEn= 2.03D-02
 Coeff-Com:  0.241D-01-0.351D-02 0.979D+00
 Coeff-En:   0.000D+00 0.000D+00 0.100D+01
 Coeff:      0.236D-01-0.344D-02 0.980D+00
 Gap=     0.328 Goal=   None    Shift=    0.000
 RMSDP=3.25D-04 MaxDP=2.71D-03 DE=-5.37D-02 OVMax= 2.67D-03

 Cycle   4  Pass 0  IDiag  1:
 E= -56.5466564805349     Delta-E=       -0.000063739689 Rises=F Damp=F
 DIIS: error= 3.20D-04 at cycle   4 NSaved=   4.
 NSaved= 4 IEnMin= 4 EnMin= -56.5466564805349     IErMin= 4 ErrMin= 3.20D-04
 ErrMax= 3.20D-04  0.00D+00 EMaxC= 1.00D-01 BMatC= 2.67D-06 BMatP= 8.44D-05
 IDIUse=3 WtCom= 9.97D-01 WtEn= 3.20D-03
 Coeff-Com:  0.504D-02-0.152D-01 0.244D+00 0.766D+00
 Coeff-En:   0.000D+00 0.000D+00 0.000D+00 0.100D+01
 Coeff:      0.502D-02-0.152D-01 0.244D+00 0.766D+00
 Gap=     0.328 Goal=   None    Shift=    0.000
 RMSDP=5.56D-05 MaxDP=4.19D-04 DE=-6.37D-05 OVMax= 4.26D-04

 Cycle   5  Pass 0  IDiag  1:
 E= -56.5466585657564     Delta-E=       -0.000002085222 Rises=F Damp=F
 DIIS: error= 3.63D-05 at cycle   5 NSaved=   5.
 NSaved= 5 IEnMin= 5 EnMin= -56.5466585657564     IErMin= 5 ErrMin= 3.63D-05
 ErrMax= 3.63D-05  0.00D+00 EMaxC= 1.00D-01 BMatC= 2.32D-08 BMatP= 2.67D-06
 IDIUse=1 WtCom= 1.00D+00 WtEn= 0.00D+00
 Coeff-Com:  0.418D-03-0.181D-03 0.352D-03-0.172D-01 0.102D+01
 Coeff:      0.418D-03-0.181D-03 0.352D-03-0.172D-01 0.102D+01
 Gap=     0.328 Goal=   None    Shift=    0.000
 RMSDP=5.33D-06 MaxDP=4.39D-05 DE=-2.09D-06 OVMax= 3.86D-05

 Initial convergence to 1.0D-05 achieved.  Increase integral accuracy.
 Cycle   6  Pass 1  IDiag  1:
 E= -56.5466583001815     Delta-E=        0.000000265575 Rises=F Damp=F
 DIIS: error= 1.04D-06 at cycle   1 NSaved=   1.
 NSaved= 1 IEnMin= 1 EnMin= -56.5466583001815     IErMin= 1 ErrMin= 1.04D-06
 ErrMax= 1.04D-06  0.00D+00 EMaxC= 1.00D-01 BMatC= 1.41D-11 BMatP= 1.41D-11
 IDIUse=1 WtCom= 1.00D+00 WtEn= 0.00D+00
 Coeff-Com:  0.100D+01
 Coeff:      0.100D+01
 Gap=     0.328 Goal=   None    Shift=    0.000
 RMSDP=5.33D-06 MaxDP=4.39D-05 DE= 2.66D-07 OVMax= 3.29D-06

 Cycle   7  Pass 1  IDiag  1:
 E= -56.5466583002011     Delta-E=       -0.000000000020 Rises=F Damp=F
 DIIS: error= 2.31D-07 at cycle   2 NSaved=   2.
 NSaved= 2 IEnMin= 2 EnMin= -56.5466583002011     IErMin= 2 ErrMin= 2.31D-07
 ErrMax= 2.31D-07  0.00D+00 EMaxC= 1.00D-01 BMatC= 1.13D-12 BMatP= 1.41D-11
 IDIUse=1 WtCom= 1.00D+00 WtEn= 0.00D+00
 Coeff-Com:  0.175D+00 0.825D+00
 Coeff:      0.175D+00 0.825D+00
 Gap=     0.328 Goal=   None    Shift=    0.000
 RMSDP=1.03D-07 MaxDP=7.48D-07 DE=-1.95D-11 OVMax= 7.11D-07

 Cycle   8  Pass 1  IDiag  1:
 E= -56.5466583002022     Delta-E=       -0.000000000001 Rises=F Damp=F
 DIIS: error= 1.09D-07 at cycle   3 NSaved=   3.
 NSaved= 3 IEnMin= 3 EnMin= -56.5466583002022     IErMin= 3 ErrMin= 1.09D-07
 ErrMax= 1.09D-07  0.00D+00 EMaxC= 1.00D-01 BMatC= 2.45D-13 BMatP= 1.13D-12
 IDIUse=1 WtCom= 1.00D+00 WtEn= 0.00D+00
 Coeff-Com:  0.319D-01 0.326D+00 0.642D+00
 Coeff:      0.319D-01 0.326D+00 0.642D+00
 Gap=     0.328 Goal=   None    Shift=    0.000
 RMSDP=3.05D-08 MaxDP=2.10D-07 DE=-1.08D-12 OVMax= 2.40D-07

 Cycle   9  Pass 1  IDiag  1:
 E= -56.5466583002024     Delta-E=       -0.000000000000 Rises=F Damp=F
 DIIS: error= 5.05D-08 at cycle   4 NSaved=   4.
 NSaved= 4 IEnMin= 4 EnMin= -56.5466583002024     IErMin= 4 ErrMin= 5.05D-08
 ErrMax= 5.05D-08  0.00D+00 EMaxC= 1.00D-01 BMatC= 4.62D-14 BMatP= 2.45D-13
 IDIUse=1 WtCom= 1.00D+00 WtEn= 0.00D+00
 Coeff-Com: -0.221D-01 0.244D-01 0.318D+00 0.679D+00
 Coeff:     -0.221D-01 0.244D-01 0.318D+00 0.679D+00
 Gap=     0.328 Goal=   None    Shift=    0.000
 RMSDP=9.81D-09 MaxDP=6.04D-08 DE=-2.84D-13 OVMax= 5.71D-08

 SCF Done:  E(RB3LYP) =  -56.5466583002     A.U. after    9 cycles
            NFock=  9  Conv=0.98D-08     -V/T= 2.0080
 KE= 5.609721330614D+01 PE=-1.560650863037D+02 EE= 3.133633193386D+01
 Leave Link  502 at Sun Oct 13 20:07:05 2019, MaxMem=  1342177280 cpu:              86.8 elap:              18.1
 (Enter /apps/cent7/gaussian/g16-A.03/g16-haswell/g16/l601.exe)
 Copying SCF densities to generalized density rwf, IOpCl= 0 IROHF=0.

 **********************************************************************

            Population analysis using the SCF density.

 **********************************************************************

 Orbital symmetries:
       Occupied  (A1) (A1) (E) (E) (A1)
       Virtual   (A1) (E) (E) (E) (E) (A1) (A1) (E) (E) (A1) (E)
                 (E) (A1) (E) (E) (A1)
 The electronic state is 1-A1.
 Alpha  occ. eigenvalues --  -14.29671  -0.84506  -0.46119  -0.46119  -0.24214
 Alpha virt. eigenvalues --    0.08560   0.17594   0.17594   0.68995   0.68995
 Alpha virt. eigenvalues --    0.72165   0.91416   0.93430   0.93430   1.12581
 Alpha virt. eigenvalues --    1.67623   1.67623   2.00996   2.42220   2.42220
 Alpha virt. eigenvalues --    3.68771
          Condensed to atoms (all electrons):
               1          2          3          4
     1  N    6.922971   0.328377   0.328377   0.328377
     2  H    0.328377   0.428962  -0.030019  -0.030019
     3  H    0.328377  -0.030019   0.428962  -0.030019
     4  H    0.328377  -0.030019  -0.030019   0.428962
 Mulliken charges:
               1
     1  N   -0.908101
     2  H    0.302700
     3  H    0.302700
     4  H    0.302700
 Sum of Mulliken charges =  -0.00000
 Mulliken charges with hydrogens summed into heavy atoms:
               1
     1  N   -0.000000
 Electronic spatial extent (au):  <R**2>=             25.8354
 Charge=             -0.0000 electrons
 Dipole moment (field-independent basis, Debye):
    X=             -0.0000    Y=              0.0000    Z=             -1.7033  Tot=              1.7033
 Quadrupole moment (field-independent basis, Debye-Ang):
   XX=             -5.9717   YY=             -5.9717   ZZ=             -8.8767
   XY=             -0.0000   XZ=              0.0000   YZ=             -0.0000
 Traceless Quadrupole moment (field-independent basis, Debye-Ang):
   XX=              0.9683   YY=              0.9683   ZZ=             -1.9367
   XY=             -0.0000   XZ=              0.0000   YZ=             -0.0000
 Octapole moment (field-independent basis, Debye-Ang**2):
  XXX=             -0.0000  YYY=              0.8364  ZZZ=             -1.5563  XYY=              0.0000
  XXY=             -0.8364  XXZ=             -0.7973  XZZ=              0.0000  YZZ=             -0.0000
  YYZ=             -0.7973  XYZ=              0.0000
 Hexadecapole moment (field-independent basis, Debye-Ang**3):
 XXXX=             -9.2121 YYYY=             -9.2121 ZZZZ=             -9.4273 XXXY=              0.0000
 XXXZ=              0.0000 YYYX=             -0.0000 YYYZ=             -0.2657 ZZZX=             -0.0000
 ZZZY=              0.0000 XXYY=             -3.0707 XXZZ=             -3.2101 YYZZ=             -3.2101
 XXYZ=              0.2657 YYXZ=             -0.0000 ZZXY=              0.0000
 N-N= 1.208488276353D+01 E-N=-1.560650874883D+02  KE= 5.609721330614D+01
 Symmetry A'   KE= 5.344057509914D+01
 Symmetry A"   KE= 2.656638206993D+00
 No NMR shielding tensors so no spin-rotation constants.
 Leave Link  601 at Sun Oct 13 20:07:08 2019, MaxMem=  1342177280 cpu:              15.6 elap:               3.3
 (Enter /apps/cent7/gaussian/g16-A.03/g16-haswell/g16/l701.exe)
 ... and contract with generalized density number  0.
 Compute integral first derivatives.
 Leave Link  701 at Sun Oct 13 20:07:11 2019, MaxMem=  1342177280 cpu:              12.3 elap:               2.5
 (Enter /apps/cent7/gaussian/g16-A.03/g16-haswell/g16/l702.exe)
 L702 exits ... SP integral derivatives will be done elsewhere.
 Leave Link  702 at Sun Oct 13 20:07:11 2019, MaxMem=  1342177280 cpu:               2.1 elap:               0.5
 (Enter /apps/cent7/gaussian/g16-A.03/g16-haswell/g16/l703.exe)
 Integral derivatives from FoFJK, PRISM(SPDF).
 Compute integral first derivatives, UseDBF=F ICtDFT=           0.
 Calling FoFJK, ICntrl=      2127 FMM=F ISym2X=1 I1Cent= 0 IOpClX= 0 NMat=1 NMatS=1 NMatT=0.
 FoFJK:  IHMeth= 1 ICntrl=    2127 DoSepK=F KAlg= 0 I1Cent=           0 FoldK=F
 IRaf=         0 NMat=       1 IRICut=       1 DoRegI=T DoRafI=F ISym2E= 1 IDoP0=0 IntGTp=1.
 FoFCou: FMM=F IPFlag=           0 FMFlag=      100000 FMFlg1=         800
         NFxFlg=           0 DoJE=F BraDBF=F KetDBF=F FulRan=T
         wScrn=  0.000000 ICntrl=      2127 IOpCl=  0 I1Cent=           0 NGrid=           0
         NMat0=    1 NMatS0=      1 NMatT0=    0 NMatD0=    1 NMtDS0=    0 NMtDT0=    0
 Petite list used in FoFCou.
 Leave Link  703 at Sun Oct 13 20:07:14 2019, MaxMem=  1342177280 cpu:              13.0 elap:               2.7
 (Enter /apps/cent7/gaussian/g16-A.03/g16-haswell/g16/l716.exe)
 Dipole        =-4.44089210D-16 6.66133815D-16-6.70125664D-01
 ***** Axes restored to original set *****
 -------------------------------------------------------------------
 Center     Atomic                   Forces (Hartrees/Bohr)
 Number     Number              X              Y              Z
 -------------------------------------------------------------------
      1        7          -0.021994669    0.000000265    0.000000000
      2        1           0.007331420   -0.011351715   -0.000000001
      3        1           0.007331625    0.005675724    0.009830798
      4        1           0.007331625    0.005675726   -0.009830796
 -------------------------------------------------------------------
 Cartesian Forces:  Max     0.021994669 RMS     0.009271816
 Leave Link  716 at Sun Oct 13 20:07:14 2019, MaxMem=  1342177280 cpu:               2.4 elap:               0.5
 (Enter /apps/cent7/gaussian/g16-A.03/g16-haswell/g16/l103.exe)

 GradGradGradGradGradGradGradGradGradGradGradGradGradGradGradGradGradGrad
 Berny optimization.
 FormGI is forming the generalized inverse of G from B-inverse, IUseBI=4.
 Internal  Forces:  Max     0.013146268 RMS     0.008934677
 Search for a local minimum.
 Step number   1 out of a maximum of   20
 All quantities printed in internal units (Hartrees-Bohrs-Radians)
 RMS Force = .89347D-02 SwitMx=.10000D-02 MixMth= 1
 Mixed Optimization -- RFO/linear search
 Second derivative matrix not updated -- first step.
 The second derivative matrix:
                          R1        R2        R3        A1        A2
           R1           0.47688
           R2           0.00000   0.47688
           R3           0.00000   0.00000   0.47688
           A1           0.00000   0.00000   0.00000   0.16000
           A2           0.00000   0.00000   0.00000   0.00000   0.16000
           A3           0.00000   0.00000   0.00000   0.00000   0.00000
           D1           0.00000   0.00000   0.00000   0.00000   0.00000
                          A3        D1
           A3           0.16000
           D1           0.00000   0.01028
 ITU=  0
     Eigenvalues ---    0.05635   0.16000   0.16000   0.47688   0.47688
     Eigenvalues ---    0.47688
 RFO step:  Lambda=-1.64994927D-03 EMin= 5.63503304D-02
 Linear search not attempted -- first point.
 Iteration  1 RMS(Cart)=  0.02197912 RMS(Int)=  0.00145387
 Iteration  2 RMS(Cart)=  0.00091753 RMS(Int)=  0.00102752
 Iteration  3 RMS(Cart)=  0.00000112 RMS(Int)=  0.00102752
 Iteration  4 RMS(Cart)=  0.00000000 RMS(Int)=  0.00102752
 ITry= 1 IFail=0 DXMaxC= 5.01D-02 DCOld= 1.00D+10 DXMaxT= 3.00D-01 DXLimC= 3.00D+00 Rises=F
 ClnCor:  largest displacement from symmetrization is 1.23D-03 for atom     4.
 Variable       Old X    -DE/DX   Delta X   Delta X   Delta X     New X
                                 (Linear)    (Quad)   (Total)
    R1        1.88973   0.01315   0.00000   0.02747   0.02782   1.91754
    R2        1.88973   0.01315   0.00000   0.02747   0.02782   1.91754
    R3        1.88973   0.01315   0.00000   0.02747   0.02782   1.91754
    A1        1.91063  -0.00045   0.00000  -0.02963  -0.03298   1.87765
    A2        1.91063  -0.00318   0.00000  -0.03310  -0.03298   1.87765
    A3        1.91063  -0.00318   0.00000  -0.03310  -0.03298   1.87765
    D1       -2.09440   0.00446   0.00000   0.07682   0.07600  -2.01839
         Item               Value     Threshold  Converged?
 Maximum Force            0.013146     0.000450     NO 
 RMS     Force            0.008935     0.000300     NO 
 Maximum Displacement     0.050053     0.001800     NO 
 RMS     Displacement     0.022052     0.001200     NO 
 Predicted change in Energy=-8.164411D-04
 Lowest energy point so far.  Saving SCF results.
 GradGradGradGradGradGradGradGradGradGradGradGradGradGradGradGradGradGrad

 Leave Link  103 at Sun Oct 13 20:07:23 2019, MaxMem=  1342177280 cpu:              39.4 elap:               8.2
 (Enter /apps/cent7/gaussian/g16-A.03/g16-haswell/g16/l202.exe)
                          Input orientation:                          
 ---------------------------------------------------------------------
 Center     Atomic      Atomic             Coordinates (Angstroms)
 Number     Number       Type             X           Y           Z
 ---------------------------------------------------------------------
      1          7           0       -0.014366    1.036364    0.000000
      2          1           0        0.354228    0.090957   -0.000000
      3          1           0        0.354245    1.509061    0.818743
      4          1           0        0.354245    1.509061   -0.818742
 ---------------------------------------------------------------------
                    Distance matrix (angstroms):
                    1          2          3          4
     1  N    0.000000
     2  H    1.014719   0.000000
     3  H    1.014719   1.637485   0.000000
     4  H    1.014719   1.637485   1.637485   0.000000
 Stoichiometry    H3N
 Framework group  C3V[C3(N),3SGV(H)]
 Deg. of freedom     2
 Full point group                 C3V     NOp   6
 RotChk:  IX=0 Diff= 1.10D-15
 Largest Abelian subgroup         CS      NOp   2
 Largest concise Abelian subgroup CS      NOp   2
                         Standard orientation:                         
 ---------------------------------------------------------------------
 Center     Atomic      Atomic             Coordinates (Angstroms)
 Number     Number       Type             X           Y           Z
 ---------------------------------------------------------------------
      1          7           0       -0.000000    0.000000    0.110582
      2          1           0       -0.000000    0.945402   -0.258024
      3          1           0       -0.818743   -0.472701   -0.258024
      4          1           0        0.818743   -0.472701   -0.258024
 ---------------------------------------------------------------------
 Rotational constants (GHZ):         299.2141639         299.2141639         187.0153965
 Leave Link  202 at Sun Oct 13 20:07:24 2019, MaxMem=  1342177280 cpu:               4.5 elap:               1.0
 (Enter /apps/cent7/gaussian/g16-A.03/g16-haswell/g16/l301.exe)
 Standard basis: 6-31G(d) (6D, 7F)
 Ernie: Thresh=  0.10000D-02 Tol=  0.10000D-05 Strict=F.
 There are    15 symmetry adapted cartesian basis functions of A'  symmetry.
 There are     6 symmetry adapted cartesian basis functions of A"  symmetry.
 There are    15 symmetry adapted basis functions of A'  symmetry.
 There are     6 symmetry adapted basis functions of A"  symmetry.
    21 basis functions,    40 primitive gaussians,    21 cartesian basis functions
     5 alpha electrons        5 beta electrons
       nuclear repulsion energy        11.9210152122 Hartrees.
 IExCor=  402 DFT=T Ex+Corr=B3LYP ExCW=0 ScaHFX=  0.200000
 ScaDFX=  0.800000  0.720000  1.000000  0.810000 ScalE2=  1.000000  1.000000
 IRadAn=      5 IRanWt=     -1 IRanGd=            0 ICorTp=0 IEmpDi=  4
 NAtoms=    4 NActive=    4 NUniq=    2 SFac= 4.00D+00 NAtFMM=   60 NAOKFM=F Big=F
 Integral buffers will be    131072 words long.
 Raffenetti 2 integral format.
 Two-electron integral symmetry is turned on.
 Leave Link  301 at Sun Oct 13 20:07:24 2019, MaxMem=  1342177280 cpu:               2.1 elap:               0.4
 (Enter /apps/cent7/gaussian/g16-A.03/g16-haswell/g16/l302.exe)
 NPDir=0 NMtPBC=     1 NCelOv=     1 NCel=       1 NClECP=     1 NCelD=      1
         NCelK=      1 NCelE2=     1 NClLst=     1 CellRange=     0.0.
 One-electron integrals computed using PRISM.
 One-electron integral symmetry used in STVInt
 NBasis=    21 RedAO= T EigKep=  2.25D-02  NBF=    15     6
 NBsUse=    21 1.00D-06 EigRej= -1.00D+00 NBFU=    15     6
 Precomputing XC quadrature grid using
 IXCGrd= 4 IRadAn=           5 IRanWt=          -1 IRanGd=           0 AccXCQ= 0.00D+00.
 Generated NRdTot=       0 NPtTot=           0 NUsed=           0 NTot=          32
 NSgBfM=    21    21    21    21    21 MxSgAt=     4 MxSgA2=     4.
 Leave Link  302 at Sun Oct 13 20:07:27 2019, MaxMem=  1342177280 cpu:              14.5 elap:               3.0
 (Enter /apps/cent7/gaussian/g16-A.03/g16-haswell/g16/l303.exe)
 DipDrv:  MaxL=1.
 Leave Link  303 at Sun Oct 13 20:07:28 2019, MaxMem=  1342177280 cpu:               3.6 elap:               0.8
 (Enter /apps/cent7/gaussian/g16-A.03/g16-haswell/g16/l401.exe)
 Initial guess from the checkpoint file:  "ammonia.chk"
 B after Tr=    -0.000000   -0.000000   -0.000000
         Rot=    1.000000    0.000000    0.000000    0.000000 Ang=   0.00 deg.
 Guess basis will be translated and rotated to current coordinates.
 JPrj=2 DoOrth=T DoCkMO=T.
 Initial guess orbital symmetries:
       Occupied  (A1) (A1) (E) (E) (A1)
       Virtual   (A1) (E) (E) (E) (E) (A1) (A1) (E) (E) (A1) (E)
                 (E) (A1) (E) (E) (A1)
 The electronic state of the initial guess is 1-A1.
 Generating alternative initial guess.
 ExpMin= 1.61D-01 ExpMax= 4.17D+03 ExpMxC= 6.27D+02 IAcc=2 IRadAn=         4 AccDes= 0.00D+00
 Harris functional with IExCor=  402 and IRadAn=       4 diagonalized for initial guess.
 HarFok:  IExCor=  402 AccDes= 0.00D+00 IRadAn=         4 IDoV= 1 UseB2=F ITyADJ=14
 ICtDFT=  3500011 ScaDFX=  1.000000  1.000000  1.000000  1.000000
 FoFCou: FMM=F IPFlag=           0 FMFlag=      100000 FMFlg1=           0
         NFxFlg=           0 DoJE=T BraDBF=F KetDBF=T FulRan=T
         wScrn=  0.000000 ICntrl=       500 IOpCl=  0 I1Cent=   200000004 NGrid=           0
         NMat0=    1 NMatS0=      1 NMatT0=    0 NMatD0=    1 NMtDS0=    0 NMtDT0=    0
 Petite list used in FoFCou.
 Harris En= -56.5768682732724    
 Leave Link  401 at Sun Oct 13 20:07:35 2019, MaxMem=  1342177280 cpu:              36.3 elap:               7.5
 (Enter /apps/cent7/gaussian/g16-A.03/g16-haswell/g16/l502.exe)
 Keep R1 ints in memory in symmetry-blocked form, NReq=20711020.
 FoFCou: FMM=F IPFlag=           0 FMFlag=           0 FMFlg1=           0
         NFxFlg=           0 DoJE=F BraDBF=F KetDBF=F FulRan=T
         wScrn=  0.000000 ICntrl=       600 IOpCl=  0 I1Cent=           0 NGrid=           0
         NMat0=    1 NMatS0=    231 NMatT0=    0 NMatD0=    1 NMtDS0=    0 NMtDT0=    0
 Petite list used in FoFCou.
 Closed shell SCF:
 Using DIIS extrapolation, IDIIS=  1040.
 NGot=  1342177280 LenX=  1342160536 LenY=  1342159654
 Requested convergence on RMS density matrix=1.00D-08 within 128 cycles.
 Requested convergence on MAX density matrix=1.00D-06.
 Requested convergence on             energy=1.00D-06.
 No special actions if energy rises.
 Integral accuracy reduced to 1.0D-05 until final iterations.

 Cycle   1  Pass 0  IDiag  1:
 E= -56.5472535339647    
 DIIS: error= 4.51D-03 at cycle   1 NSaved=   1.
 NSaved= 1 IEnMin= 1 EnMin= -56.5472535339647     IErMin= 1 ErrMin= 4.51D-03
 ErrMax= 4.51D-03  0.00D+00 EMaxC= 1.00D-01 BMatC= 3.17D-04 BMatP= 3.17D-04
 IDIUse=3 WtCom= 9.55D-01 WtEn= 4.51D-02
 Coeff-Com:  0.100D+01
 Coeff-En:   0.100D+01
 Coeff:      0.100D+01
 Gap=     0.324 Goal=   None    Shift=    0.000
 GapD=    0.324 DampG=1.000 DampE=1.000 DampFc=1.0000 IDamp=-1.
 RMSDP=2.08D-03 MaxDP=1.91D-02              OVMax= 1.45D-02

 Cycle   2  Pass 0  IDiag  1:
 E= -56.5475968595166     Delta-E=       -0.000343325552 Rises=F Damp=F
 DIIS: error= 3.18D-03 at cycle   2 NSaved=   2.
 NSaved= 2 IEnMin= 2 EnMin= -56.5475968595166     IErMin= 2 ErrMin= 3.18D-03
 ErrMax= 3.18D-03  0.00D+00 EMaxC= 1.00D-01 BMatC= 1.84D-04 BMatP= 3.17D-04
 IDIUse=3 WtCom= 9.68D-01 WtEn= 3.18D-02
 Coeff-Com:  0.404D+00 0.596D+00
 Coeff-En:   0.000D+00 0.100D+01
 Coeff:      0.391D+00 0.609D+00
 Gap=     0.329 Goal=   None    Shift=    0.000
 RMSDP=6.09D-04 MaxDP=4.96D-03 DE=-3.43D-04 OVMax= 4.84D-03

 Cycle   3  Pass 0  IDiag  1:
 E= -56.5477214120570     Delta-E=       -0.000124552540 Rises=F Damp=F
 DIIS: error= 1.40D-03 at cycle   3 NSaved=   3.
 NSaved= 3 IEnMin= 3 EnMin= -56.5477214120570     IErMin= 3 ErrMin= 1.40D-03
 ErrMax= 1.40D-03  0.00D+00 EMaxC= 1.00D-01 BMatC= 3.42D-05 BMatP= 1.84D-04
 IDIUse=3 WtCom= 9.86D-01 WtEn= 1.40D-02
 Coeff-Com: -0.412D-01 0.295D+00 0.746D+00
 Coeff-En:   0.000D+00 0.149D+00 0.851D+00
 Coeff:     -0.406D-01 0.293D+00 0.747D+00
 Gap=     0.328 Goal=   None    Shift=    0.000
 RMSDP=2.45D-04 MaxDP=1.67D-03 DE=-1.25D-04 OVMax= 1.87D-03

 Cycle   4  Pass 0  IDiag  1:
 E= -56.5477505460369     Delta-E=       -0.000029133980 Rises=F Damp=F
 DIIS: error= 1.61D-05 at cycle   4 NSaved=   4.
 NSaved= 4 IEnMin= 4 EnMin= -56.5477505460369     IErMin= 4 ErrMin= 1.61D-05
 ErrMax= 1.61D-05  0.00D+00 EMaxC= 1.00D-01 BMatC= 4.72D-09 BMatP= 3.42D-05
 IDIUse=1 WtCom= 1.00D+00 WtEn= 0.00D+00
 Coeff-Com: -0.806D-03-0.459D-02-0.223D-02 0.101D+01
 Coeff:     -0.806D-03-0.459D-02-0.223D-02 0.101D+01
 Gap=     0.328 Goal=   None    Shift=    0.000
 RMSDP=1.64D-05 MaxDP=1.39D-04 DE=-2.91D-05 OVMax= 1.16D-04

 Cycle   5  Pass 0  IDiag  1:
 E= -56.5477505589166     Delta-E=       -0.000000012880 Rises=F Damp=F
 DIIS: error= 3.95D-06 at cycle   5 NSaved=   5.
 NSaved= 5 IEnMin= 5 EnMin= -56.5477505589166     IErMin= 5 ErrMin= 3.95D-06
 ErrMax= 3.95D-06  0.00D+00 EMaxC= 1.00D-01 BMatC= 3.57D-10 BMatP= 4.72D-09
 IDIUse=1 WtCom= 1.00D+00 WtEn= 0.00D+00
 Coeff-Com:  0.330D-03-0.542D-02-0.107D-01 0.653D-01 0.950D+00
 Coeff:      0.330D-03-0.542D-02-0.107D-01 0.653D-01 0.950D+00
 Gap=     0.328 Goal=   None    Shift=    0.000
 RMSDP=1.93D-06 MaxDP=1.66D-05 DE=-1.29D-08 OVMax= 1.36D-05

 Initial convergence to 1.0D-05 achieved.  Increase integral accuracy.
 Cycle   6  Pass 1  IDiag  1:
 E= -56.5477504750342     Delta-E=        0.000000083882 Rises=F Damp=F
 DIIS: error= 7.17D-07 at cycle   1 NSaved=   1.
 NSaved= 1 IEnMin= 1 EnMin= -56.5477504750342     IErMin= 1 ErrMin= 7.17D-07
 ErrMax= 7.17D-07  0.00D+00 EMaxC= 1.00D-01 BMatC= 9.24D-12 BMatP= 9.24D-12
 IDIUse=1 WtCom= 1.00D+00 WtEn= 0.00D+00
 Coeff-Com:  0.100D+01
 Coeff:      0.100D+01
 Gap=     0.328 Goal=   None    Shift=    0.000
 RMSDP=1.93D-06 MaxDP=1.66D-05 DE= 8.39D-08 OVMax= 1.73D-06

 Cycle   7  Pass 1  IDiag  1:
 E= -56.5477504750412     Delta-E=       -0.000000000007 Rises=F Damp=F
 DIIS: error= 4.05D-07 at cycle   2 NSaved=   2.
 NSaved= 2 IEnMin= 2 EnMin= -56.5477504750412     IErMin= 2 ErrMin= 4.05D-07
 ErrMax= 4.05D-07  0.00D+00 EMaxC= 1.00D-01 BMatC= 3.38D-12 BMatP= 9.24D-12
 IDIUse=1 WtCom= 1.00D+00 WtEn= 0.00D+00
 Coeff-Com:  0.357D+00 0.643D+00
 Coeff:      0.357D+00 0.643D+00
 Gap=     0.328 Goal=   None    Shift=    0.000
 RMSDP=8.32D-08 MaxDP=7.11D-07 DE=-6.98D-12 OVMax= 6.74D-07

 Cycle   8  Pass 1  IDiag  1:
 E= -56.5477504750435     Delta-E=       -0.000000000002 Rises=F Damp=F
 DIIS: error= 2.10D-07 at cycle   3 NSaved=   3.
 NSaved= 3 IEnMin= 3 EnMin= -56.5477504750435     IErMin= 3 ErrMin= 2.10D-07
 ErrMax= 2.10D-07  0.00D+00 EMaxC= 1.00D-01 BMatC= 7.12D-13 BMatP= 3.38D-12
 IDIUse=1 WtCom= 1.00D+00 WtEn= 0.00D+00
 Coeff-Com:  0.112D+00 0.340D+00 0.548D+00
 Coeff:      0.112D+00 0.340D+00 0.548D+00
 Gap=     0.328 Goal=   None    Shift=    0.000
 RMSDP=2.76D-08 MaxDP=1.95D-07 DE=-2.37D-12 OVMax= 2.34D-07

 Cycle   9  Pass 1  IDiag  1:
 E= -56.5477504750442     Delta-E=       -0.000000000001 Rises=F Damp=F
 DIIS: error= 1.72D-08 at cycle   4 NSaved=   4.
 NSaved= 4 IEnMin= 4 EnMin= -56.5477504750442     IErMin= 4 ErrMin= 1.72D-08
 ErrMax= 1.72D-08  0.00D+00 EMaxC= 1.00D-01 BMatC= 4.19D-15 BMatP= 7.12D-13
 IDIUse=1 WtCom= 1.00D+00 WtEn= 0.00D+00
 Coeff-Com: -0.153D-01-0.220D-01 0.411D-01 0.996D+00
 Coeff:     -0.153D-01-0.220D-01 0.411D-01 0.996D+00
 Gap=     0.328 Goal=   None    Shift=    0.000
 RMSDP=9.38D-09 MaxDP=7.29D-08 DE=-6.82D-13 OVMax= 7.69D-08

 SCF Done:  E(RB3LYP) =  -56.5477504750     A.U. after    9 cycles
            NFock=  9  Conv=0.94D-08     -V/T= 2.0090
 KE= 5.604165962834D+01 PE=-1.556991542821D+02 EE= 3.118872896657D+01
 Leave Link  502 at Sun Oct 13 20:07:53 2019, MaxMem=  1342177280 cpu:              83.1 elap:              17.3
 (Enter /apps/cent7/gaussian/g16-A.03/g16-haswell/g16/l701.exe)
 ... and contract with generalized density number  0.
 Compute integral first derivatives.
 Leave Link  701 at Sun Oct 13 20:07:56 2019, MaxMem=  1342177280 cpu:              14.1 elap:               2.9
 (Enter /apps/cent7/gaussian/g16-A.03/g16-haswell/g16/l702.exe)
 L702 exits ... SP integral derivatives will be done elsewhere.
 Leave Link  702 at Sun Oct 13 20:07:56 2019, MaxMem=  1342177280 cpu:               2.0 elap:               0.4
 (Enter /apps/cent7/gaussian/g16-A.03/g16-haswell/g16/l703.exe)
 Integral derivatives from FoFJK, PRISM(SPDF).
 Compute integral first derivatives, UseDBF=F ICtDFT=           0.
 Calling FoFJK, ICntrl=      2127 FMM=F ISym2X=1 I1Cent= 0 IOpClX= 0 NMat=1 NMatS=1 NMatT=0.
 FoFJK:  IHMeth= 1 ICntrl=    2127 DoSepK=F KAlg= 0 I1Cent=           0 FoldK=F
 IRaf=         0 NMat=       1 IRICut=       1 DoRegI=T DoRafI=F ISym2E= 1 IDoP0=0 IntGTp=1.
 FoFCou: FMM=F IPFlag=           0 FMFlag=      100000 FMFlg1=         800
         NFxFlg=           0 DoJE=F BraDBF=F KetDBF=F FulRan=T
         wScrn=  0.000000 ICntrl=      2127 IOpCl=  0 I1Cent=           0 NGrid=           0
         NMat0=    1 NMatS0=      1 NMatT0=    0 NMatD0=    1 NMtDS0=    0 NMtDT0=    0
 Petite list used in FoFCou.
 Leave Link  703 at Sun Oct 13 20:07:59 2019, MaxMem=  1342177280 cpu:              12.8 elap:               2.6
 (Enter /apps/cent7/gaussian/g16-A.03/g16-haswell/g16/l716.exe)
 Dipole        =-6.66133815D-16-1.11022302D-16-7.14944578D-01
 ***** Axes restored to original set *****
 -------------------------------------------------------------------
 Center     Atomic                   Forces (Hartrees/Bohr)
 Number     Number              X              Y              Z
 -------------------------------------------------------------------
      1        7          -0.007684749    0.000000093    0.000000000
      2        1           0.002561569   -0.001136372   -0.000000000
      3        1           0.002561590    0.000568139    0.000984100
      4        1           0.002561590    0.000568140   -0.000984100
 -------------------------------------------------------------------
 Cartesian Forces:  Max     0.007684749 RMS     0.002623838
 Leave Link  716 at Sun Oct 13 20:07:59 2019, MaxMem=  1342177280 cpu:               2.0 elap:               0.4
 (Enter /apps/cent7/gaussian/g16-A.03/g16-haswell/g16/l103.exe)

 GradGradGradGradGradGradGradGradGradGradGradGradGradGradGradGradGradGrad
 Berny optimization.
 Using GEDIIS/GDIIS optimizer.
 FormGI is forming the generalized inverse of G from B-inverse, IUseBI=4.
 Internal  Forces:  Max     0.002696107 RMS     0.002033869
 Search for a local minimum.
 Step number   2 out of a maximum of   20
 All quantities printed in internal units (Hartrees-Bohrs-Radians)
 RMS Force = .20339D-02 SwitMx=.10000D-02 MixMth= 1
 Mixed Optimization -- RFO/linear search
 Update second derivatives using D2CorX and points    1    2
 DE= -1.09D-03 DEPred=-8.16D-04 R= 1.34D+00
 TightC=F SS=  1.41D+00  RLast= 1.07D-01 DXNew= 5.0454D-01 3.1976D-01
 Trust test= 1.34D+00 RLast= 1.07D-01 DXMaxT set to 3.20D-01
 The second derivative matrix:
                          R1        R2        R3        A1        A2
           R1           0.48271
           R2           0.00583   0.48271
           R3           0.00583   0.00583   0.48271
           A1           0.04108   0.04108   0.04108   0.14351
           A2           0.03172   0.03172   0.03172  -0.01646   0.14437
           A3           0.03172   0.03172   0.03172  -0.01646  -0.01563
           D1           0.01121   0.01121   0.01121   0.00238   0.00091
                          A3        D1
           A3           0.14437
           D1           0.00091   0.01266
 ITU=  1  0
 Use linear search instead of GDIIS.
     Eigenvalues ---    0.04135   0.15272   0.16000   0.47688   0.47688
     Eigenvalues ---    0.50095
 RFO step:  Lambda=-1.93188510D-04 EMin= 4.13532763D-02
 Quartic linear search produced a step of  0.47881.
 Iteration  1 RMS(Cart)=  0.02271996 RMS(Int)=  0.00176571
 Iteration  2 RMS(Cart)=  0.00084405 RMS(Int)=  0.00152072
 Iteration  3 RMS(Cart)=  0.00000021 RMS(Int)=  0.00152072
 ITry= 1 IFail=0 DXMaxC= 4.74D-02 DCOld= 1.00D+10 DXMaxT= 3.20D-01 DXLimC= 3.00D+00 Rises=F
 ClnCor:  largest displacement from symmetrization is 5.03D-05 for atom     4.
 Variable       Old X    -DE/DX   Delta X   Delta X   Delta X     New X
                                 (Linear)    (Quad)   (Total)
    R1        1.91754   0.00199   0.01332  -0.00360   0.00971   1.92725
    R2        1.91754   0.00199   0.01332  -0.00360   0.00971   1.92725
    R3        1.91754   0.00199   0.01332  -0.00360   0.00971   1.92725
    A1        1.87765  -0.00042  -0.01579  -0.01817  -0.03671   1.84095
    A2        1.87765  -0.00220  -0.01579  -0.01987  -0.03671   1.84095
    A3        1.87765  -0.00220  -0.01579  -0.01987  -0.03671   1.84095
    D1       -2.01839   0.00270   0.03639   0.04115   0.07501  -1.94338
         Item               Value     Threshold  Converged?
 Maximum Force            0.002696     0.000450     NO 
 RMS     Force            0.002034     0.000300     NO 
 Maximum Displacement     0.047406     0.001800     NO 
 RMS     Displacement     0.023012     0.001200     NO 
 Predicted change in Energy=-2.041235D-04
 Lowest energy point so far.  Saving SCF results.
 GradGradGradGradGradGradGradGradGradGradGradGradGradGradGradGradGradGrad

 Leave Link  103 at Sun Oct 13 20:08:08 2019, MaxMem=  1342177280 cpu:              40.9 elap:               8.6
 (Enter /apps/cent7/gaussian/g16-A.03/g16-haswell/g16/l202.exe)
                          Input orientation:                          
 ---------------------------------------------------------------------
 Center     Atomic      Atomic             Coordinates (Angstroms)
 Number     Number       Type             X           Y           Z
 ---------------------------------------------------------------------
      1          7           0       -0.039452    1.036364    0.000000
      2          1           0        0.362594    0.099096   -0.000000
      3          1           0        0.362611    1.504991    0.811694
      4          1           0        0.362611    1.504991   -0.811694
 ---------------------------------------------------------------------
                    Distance matrix (angstroms):
                    1          2          3          4
     1  N    0.000000
     2  H    1.019859   0.000000
     3  H    1.019859   1.623387   0.000000
     4  H    1.019859   1.623387   1.623387   0.000000
 Stoichiometry    H3N
 Framework group  C3V[C3(N),3SGV(H)]
 Deg. of freedom     2
 Full point group                 C3V     NOp   6
 RotChk:  IX=0 Diff= 4.55D-16
 Largest Abelian subgroup         CS      NOp   2
 Largest concise Abelian subgroup CS      NOp   2
                         Standard orientation:                         
 ---------------------------------------------------------------------
 Center     Atomic      Atomic             Coordinates (Angstroms)
 Number     Number       Type             X           Y           Z
 ---------------------------------------------------------------------
      1          7           0        0.000000    0.000000    0.120617
      2          1           0        0.000000    0.937263   -0.281440
      3          1           0       -0.811694   -0.468632   -0.281440
      4          1           0        0.811694   -0.468632   -0.281440
 ---------------------------------------------------------------------
 Rotational constants (GHZ):         292.1330716         292.1330716         190.2776226
 Leave Link  202 at Sun Oct 13 20:08:08 2019, MaxMem=  1342177280 cpu:               4.1 elap:               0.8
 (Enter /apps/cent7/gaussian/g16-A.03/g16-haswell/g16/l301.exe)
 Standard basis: 6-31G(d) (6D, 7F)
 Ernie: Thresh=  0.10000D-02 Tol=  0.10000D-05 Strict=F.
 There are    15 symmetry adapted cartesian basis functions of A'  symmetry.
 There are     6 symmetry adapted cartesian basis functions of A"  symmetry.
 There are    15 symmetry adapted basis functions of A'  symmetry.
 There are     6 symmetry adapted basis functions of A"  symmetry.
    21 basis functions,    40 primitive gaussians,    21 cartesian basis functions
     5 alpha electrons        5 beta electrons
       nuclear repulsion energy        11.8742429248 Hartrees.
 IExCor=  402 DFT=T Ex+Corr=B3LYP ExCW=0 ScaHFX=  0.200000
 ScaDFX=  0.800000  0.720000  1.000000  0.810000 ScalE2=  1.000000  1.000000
 IRadAn=      5 IRanWt=     -1 IRanGd=            0 ICorTp=0 IEmpDi=  4
 NAtoms=    4 NActive=    4 NUniq=    2 SFac= 4.00D+00 NAtFMM=   60 NAOKFM=F Big=F
 Integral buffers will be    131072 words long.
 Raffenetti 2 integral format.
 Two-electron integral symmetry is turned on.
 Leave Link  301 at Sun Oct 13 20:08:09 2019, MaxMem=  1342177280 cpu:               2.5 elap:               0.6
 (Enter /apps/cent7/gaussian/g16-A.03/g16-haswell/g16/l302.exe)
 NPDir=0 NMtPBC=     1 NCelOv=     1 NCel=       1 NClECP=     1 NCelD=      1
         NCelK=      1 NCelE2=     1 NClLst=     1 CellRange=     0.0.
 One-electron integrals computed using PRISM.
 One-electron integral symmetry used in STVInt
 NBasis=    21 RedAO= T EigKep=  2.24D-02  NBF=    15     6
 NBsUse=    21 1.00D-06 EigRej= -1.00D+00 NBFU=    15     6
 Precomputing XC quadrature grid using
 IXCGrd= 4 IRadAn=           5 IRanWt=          -1 IRanGd=           0 AccXCQ= 0.00D+00.
 Generated NRdTot=       0 NPtTot=           0 NUsed=           0 NTot=          32
 NSgBfM=    21    21    21    21    21 MxSgAt=     4 MxSgA2=     4.
 Leave Link  302 at Sun Oct 13 20:08:12 2019, MaxMem=  1342177280 cpu:              13.3 elap:               2.7
 (Enter /apps/cent7/gaussian/g16-A.03/g16-haswell/g16/l303.exe)
 DipDrv:  MaxL=1.
 Leave Link  303 at Sun Oct 13 20:08:13 2019, MaxMem=  1342177280 cpu:               4.0 elap:               0.9
 (Enter /apps/cent7/gaussian/g16-A.03/g16-haswell/g16/l401.exe)
 Initial guess from the checkpoint file:  "ammonia.chk"
 B after Tr=     0.000000    0.000000    0.000000
         Rot=    1.000000   -0.000000    0.000000   -0.000000 Ang=   0.00 deg.
 Guess basis will be translated and rotated to current coordinates.
 JPrj=2 DoOrth=T DoCkMO=T.
 Initial guess orbital symmetries:
       Occupied  (A1) (A1) (E) (E) (A1)
       Virtual   (A1) (E) (E) (E) (E) (A1) (A1) (E) (E) (A1) (E)
                 (E) (A1) (E) (E) (A1)
 The electronic state of the initial guess is 1-A1.
 Generating alternative initial guess.
 ExpMin= 1.61D-01 ExpMax= 4.17D+03 ExpMxC= 6.27D+02 IAcc=2 IRadAn=         4 AccDes= 0.00D+00
 Harris functional with IExCor=  402 and IRadAn=       4 diagonalized for initial guess.
 HarFok:  IExCor=  402 AccDes= 0.00D+00 IRadAn=         4 IDoV= 1 UseB2=F ITyADJ=14
 ICtDFT=  3500011 ScaDFX=  1.000000  1.000000  1.000000  1.000000
 FoFCou: FMM=F IPFlag=           0 FMFlag=      100000 FMFlg1=           0
         NFxFlg=           0 DoJE=T BraDBF=F KetDBF=T FulRan=T
         wScrn=  0.000000 ICntrl=       500 IOpCl=  0 I1Cent=   200000004 NGrid=           0
         NMat0=    1 NMatS0=      1 NMatT0=    0 NMatD0=    1 NMtDS0=    0 NMtDT0=    0
 Petite list used in FoFCou.
 Harris En= -56.5755328042756    
 Leave Link  401 at Sun Oct 13 20:08:21 2019, MaxMem=  1342177280 cpu:              38.1 elap:               7.9
 (Enter /apps/cent7/gaussian/g16-A.03/g16-haswell/g16/l502.exe)
 Keep R1 ints in memory in symmetry-blocked form, NReq=20711020.
 FoFCou: FMM=F IPFlag=           0 FMFlag=           0 FMFlg1=           0
         NFxFlg=           0 DoJE=F BraDBF=F KetDBF=F FulRan=T
         wScrn=  0.000000 ICntrl=       600 IOpCl=  0 I1Cent=           0 NGrid=           0
         NMat0=    1 NMatS0=    231 NMatT0=    0 NMatD0=    1 NMtDS0=    0 NMtDT0=    0
 Petite list used in FoFCou.
 Closed shell SCF:
 Using DIIS extrapolation, IDIIS=  1040.
 NGot=  1342177280 LenX=  1342160536 LenY=  1342159654
 Requested convergence on RMS density matrix=1.00D-08 within 128 cycles.
 Requested convergence on MAX density matrix=1.00D-06.
 Requested convergence on             energy=1.00D-06.
 No special actions if energy rises.
 Integral accuracy reduced to 1.0D-05 until final iterations.

 Cycle   1  Pass 0  IDiag  1:
 E= -56.5476128734171    
 DIIS: error= 4.77D-03 at cycle   1 NSaved=   1.
 NSaved= 1 IEnMin= 1 EnMin= -56.5476128734171     IErMin= 1 ErrMin= 4.77D-03
 ErrMax= 4.77D-03  0.00D+00 EMaxC= 1.00D-01 BMatC= 2.23D-04 BMatP= 2.23D-04
 IDIUse=3 WtCom= 9.52D-01 WtEn= 4.77D-02
 Coeff-Com:  0.100D+01
 Coeff-En:   0.100D+01
 Coeff:      0.100D+01
 Gap=     0.329 Goal=   None    Shift=    0.000
 GapD=    0.329 DampG=1.000 DampE=1.000 DampFc=1.0000 IDamp=-1.
 RMSDP=1.62D-03 MaxDP=1.52D-02              OVMax= 1.10D-02

 Cycle   2  Pass 0  IDiag  1:
 E= -56.5479096945392     Delta-E=       -0.000296821122 Rises=F Damp=F
 DIIS: error= 1.39D-03 at cycle   2 NSaved=   2.
 NSaved= 2 IEnMin= 2 EnMin= -56.5479096945392     IErMin= 2 ErrMin= 1.39D-03
 ErrMax= 1.39D-03  0.00D+00 EMaxC= 1.00D-01 BMatC= 3.84D-05 BMatP= 2.23D-04
 IDIUse=3 WtCom= 9.86D-01 WtEn= 1.39D-02
 Coeff-Com:  0.174D+00 0.826D+00
 Coeff-En:   0.000D+00 0.100D+01
 Coeff:      0.172D+00 0.828D+00
 Gap=     0.333 Goal=   None    Shift=    0.000
 RMSDP=3.83D-04 MaxDP=2.83D-03 DE=-2.97D-04 OVMax= 3.07D-03

 Cycle   3  Pass 0  IDiag  1:
 E= -56.5479150654576     Delta-E=       -0.000005370918 Rises=F Damp=F
 DIIS: error= 1.37D-03 at cycle   3 NSaved=   3.
 NSaved= 3 IEnMin= 3 EnMin= -56.5479150654576     IErMin= 3 ErrMin= 1.37D-03
 ErrMax= 1.37D-03  0.00D+00 EMaxC= 1.00D-01 BMatC= 3.36D-05 BMatP= 3.84D-05
 IDIUse=3 WtCom= 9.86D-01 WtEn= 1.37D-02
 Coeff-Com: -0.289D-01 0.490D+00 0.539D+00
 Coeff-En:   0.000D+00 0.460D+00 0.540D+00
 Coeff:     -0.285D-01 0.490D+00 0.539D+00
 Gap=     0.332 Goal=   None    Shift=    0.000
 RMSDP=2.13D-04 MaxDP=1.62D-03 DE=-5.37D-06 OVMax= 1.59D-03

 Cycle   4  Pass 0  IDiag  1:
 E= -56.5479432502685     Delta-E=       -0.000028184811 Rises=F Damp=F
 DIIS: error= 4.36D-05 at cycle   4 NSaved=   4.
 NSaved= 4 IEnMin= 4 EnMin= -56.5479432502685     IErMin= 4 ErrMin= 4.36D-05
 ErrMax= 4.36D-05  0.00D+00 EMaxC= 1.00D-01 BMatC= 3.82D-08 BMatP= 3.36D-05
 IDIUse=1 WtCom= 1.00D+00 WtEn= 0.00D+00
 Coeff-Com: -0.109D-01 0.901D-01 0.111D+00 0.810D+00
 Coeff:     -0.109D-01 0.901D-01 0.111D+00 0.810D+00
 Gap=     0.332 Goal=   None    Shift=    0.000
 RMSDP=1.03D-05 MaxDP=9.77D-05 DE=-2.82D-05 OVMax= 6.55D-05

 Cycle   5  Pass 0  IDiag  1:
 E= -56.5479432845902     Delta-E=       -0.000000034322 Rises=F Damp=F
 DIIS: error= 5.78D-06 at cycle   5 NSaved=   5.
 NSaved= 5 IEnMin= 5 EnMin= -56.5479432845902     IErMin= 5 ErrMin= 5.78D-06
 ErrMax= 5.78D-06  0.00D+00 EMaxC= 1.00D-01 BMatC= 2.35D-10 BMatP= 3.82D-08
 IDIUse=1 WtCom= 1.00D+00 WtEn= 0.00D+00
 Coeff-Com:  0.924D-03-0.123D-01-0.134D-01-0.683D-02 0.103D+01
 Coeff:      0.924D-03-0.123D-01-0.134D-01-0.683D-02 0.103D+01
 Gap=     0.332 Goal=   None    Shift=    0.000
 RMSDP=4.32D-06 MaxDP=3.72D-05 DE=-3.43D-08 OVMax= 3.28D-05

 Initial convergence to 1.0D-05 achieved.  Increase integral accuracy.
 Cycle   6  Pass 1  IDiag  1:
 E= -56.5479434816637     Delta-E=       -0.000000197074 Rises=F Damp=F
 DIIS: error= 7.34D-07 at cycle   1 NSaved=   1.
 NSaved= 1 IEnMin= 1 EnMin= -56.5479434816637     IErMin= 1 ErrMin= 7.34D-07
 ErrMax= 7.34D-07  0.00D+00 EMaxC= 1.00D-01 BMatC= 8.29D-12 BMatP= 8.29D-12
 IDIUse=1 WtCom= 1.00D+00 WtEn= 0.00D+00
 Coeff-Com:  0.100D+01
 Coeff:      0.100D+01
 Gap=     0.332 Goal=   None    Shift=    0.000
 RMSDP=4.32D-06 MaxDP=3.72D-05 DE=-1.97D-07 OVMax= 1.87D-06

 Cycle   7  Pass 1  IDiag  1:
 E= -56.5479434816654     Delta-E=       -0.000000000002 Rises=F Damp=F
 DIIS: error= 7.63D-07 at cycle   2 NSaved=   2.
 NSaved= 2 IEnMin= 2 EnMin= -56.5479434816654     IErMin= 1 ErrMin= 7.34D-07
 ErrMax= 7.63D-07  0.00D+00 EMaxC= 1.00D-01 BMatC= 1.06D-11 BMatP= 8.29D-12
 IDIUse=1 WtCom= 1.00D+00 WtEn= 0.00D+00
 Coeff-Com:  0.534D+00 0.466D+00
 Coeff:      0.534D+00 0.466D+00
 Gap=     0.332 Goal=   None    Shift=    0.000
 RMSDP=1.29D-07 MaxDP=1.02D-06 DE=-1.71D-12 OVMax= 9.86D-07

 Cycle   8  Pass 1  IDiag  1:
 E= -56.5479434816742     Delta-E=       -0.000000000009 Rises=F Damp=F
 DIIS: error= 9.13D-08 at cycle   3 NSaved=   3.
 NSaved= 3 IEnMin= 3 EnMin= -56.5479434816742     IErMin= 3 ErrMin= 9.13D-08
 ErrMax= 9.13D-08  0.00D+00 EMaxC= 1.00D-01 BMatC= 1.46D-13 BMatP= 8.29D-12
 IDIUse=1 WtCom= 1.00D+00 WtEn= 0.00D+00
 Coeff-Com: -0.588D-02 0.942D-01 0.912D+00
 Coeff:     -0.588D-02 0.942D-01 0.912D+00
 Gap=     0.332 Goal=   None    Shift=    0.000
 RMSDP=3.12D-08 MaxDP=2.26D-07 DE=-8.84D-12 OVMax= 2.12D-07

 Cycle   9  Pass 1  IDiag  1:
 E= -56.5479434816743     Delta-E=       -0.000000000000 Rises=F Damp=F
 DIIS: error= 1.46D-08 at cycle   4 NSaved=   4.
 NSaved= 4 IEnMin= 4 EnMin= -56.5479434816743     IErMin= 4 ErrMin= 1.46D-08
 ErrMax= 1.46D-08  0.00D+00 EMaxC= 1.00D-01 BMatC= 3.11D-15 BMatP= 1.46D-13
 IDIUse=1 WtCom= 1.00D+00 WtEn= 0.00D+00
 Coeff-Com: -0.222D-01 0.612D-02 0.172D+00 0.844D+00
 Coeff:     -0.222D-01 0.612D-02 0.172D+00 0.844D+00
 Gap=     0.332 Goal=   None    Shift=    0.000
 RMSDP=4.66D-09 MaxDP=4.37D-08 DE=-7.11D-14 OVMax= 3.55D-08

 SCF Done:  E(RB3LYP) =  -56.5479434817     A.U. after    9 cycles
            NFock=  9  Conv=0.47D-08     -V/T= 2.0092
 KE= 5.603399413422D+01 PE=-1.555906976315D+02 EE= 3.113451709082D+01
 Leave Link  502 at Sun Oct 13 20:08:39 2019, MaxMem=  1342177280 cpu:              89.6 elap:              18.7
 (Enter /apps/cent7/gaussian/g16-A.03/g16-haswell/g16/l701.exe)
 ... and contract with generalized density number  0.
 Compute integral first derivatives.
 Leave Link  701 at Sun Oct 13 20:08:42 2019, MaxMem=  1342177280 cpu:              13.5 elap:               2.8
 (Enter /apps/cent7/gaussian/g16-A.03/g16-haswell/g16/l702.exe)
 L702 exits ... SP integral derivatives will be done elsewhere.
 Leave Link  702 at Sun Oct 13 20:08:43 2019, MaxMem=  1342177280 cpu:               2.1 elap:               0.5
 (Enter /apps/cent7/gaussian/g16-A.03/g16-haswell/g16/l703.exe)
 Integral derivatives from FoFJK, PRISM(SPDF).
 Compute integral first derivatives, UseDBF=F ICtDFT=           0.
 Calling FoFJK, ICntrl=      2127 FMM=F ISym2X=1 I1Cent= 0 IOpClX= 0 NMat=1 NMatS=1 NMatT=0.
 FoFJK:  IHMeth= 1 ICntrl=    2127 DoSepK=F KAlg= 0 I1Cent=           0 FoldK=F
 IRaf=         0 NMat=       1 IRICut=       1 DoRegI=T DoRafI=F ISym2E= 1 IDoP0=0 IntGTp=1.
 FoFCou: FMM=F IPFlag=           0 FMFlag=      100000 FMFlg1=         800
         NFxFlg=           0 DoJE=F BraDBF=F KetDBF=F FulRan=T
         wScrn=  0.000000 ICntrl=      2127 IOpCl=  0 I1Cent=           0 NGrid=           0
         NMat0=    1 NMatS0=      1 NMatT0=    0 NMatD0=    1 NMtDS0=    0 NMtDT0=    0
 Petite list used in FoFCou.
 Leave Link  703 at Sun Oct 13 20:08:45 2019, MaxMem=  1342177280 cpu:              12.3 elap:               2.5
 (Enter /apps/cent7/gaussian/g16-A.03/g16-haswell/g16/l716.exe)
 Dipole        =-2.22044605D-16 8.88178420D-16-7.57588075D-01
 ***** Axes restored to original set *****
 -------------------------------------------------------------------
 Center     Atomic                   Forces (Hartrees/Bohr)
 Number     Number              X              Y              Z
 -------------------------------------------------------------------
      1        7           0.001001783   -0.000000012    0.000000000
      2        1          -0.000333929   -0.000092915   -0.000000000
      3        1          -0.000333927    0.000046464    0.000080471
      4        1          -0.000333927    0.000046464   -0.000080471
 -------------------------------------------------------------------
 Cartesian Forces:  Max     0.001001783 RMS     0.000337144
 Leave Link  716 at Sun Oct 13 20:08:45 2019, MaxMem=  1342177280 cpu:               1.8 elap:               0.4
 (Enter /apps/cent7/gaussian/g16-A.03/g16-haswell/g16/l103.exe)

 GradGradGradGradGradGradGradGradGradGradGradGradGradGradGradGradGradGrad
 Berny optimization.
 Using GEDIIS/GDIIS optimizer.
 FormGI is forming the generalized inverse of G from B-inverse, IUseBI=4.
 Internal  Forces:  Max     0.000439714 RMS     0.000278583
 Search for a local minimum.
 Step number   3 out of a maximum of   20
 All quantities printed in internal units (Hartrees-Bohrs-Radians)
 RMS Force = .27858D-03 SwitMx=.10000D-02 MixMth= 2
 Mixed Optimization -- En-DIIS/RFO-DIIS
 Update second derivatives using D2CorX and points    1    2    3
 DE= -1.93D-04 DEPred=-2.04D-04 R= 9.46D-01
 TightC=F SS=  1.41D+00  RLast= 9.98D-02 DXNew= 5.3777D-01 2.9928D-01
 Trust test= 9.46D-01 RLast= 9.98D-02 DXMaxT set to 3.20D-01
 The second derivative matrix:
                          R1        R2        R3        A1        A2
           R1           0.48322
           R2           0.00634   0.48322
           R3           0.00634   0.00634   0.48322
           A1           0.05702   0.05702   0.05702   0.13406
           A2           0.03570   0.03570   0.03570  -0.02874   0.13818
           A3           0.03570   0.03570   0.03570  -0.02874  -0.02182
           D1           0.02578   0.02578   0.02578   0.00848  -0.00571
                          A3        D1
           A3           0.13818
           D1          -0.00571   0.03035
 ITU=  1  1  0
 Use linear search instead of GDIIS.
     Eigenvalues ---    0.04634   0.15216   0.16000   0.47688   0.47688
     Eigenvalues ---    0.50320
 RFO step:  Lambda=-2.90969887D-07 EMin= 4.63388081D-02
 Quartic linear search produced a step of -0.12335.
 Iteration  1 RMS(Cart)=  0.00308238 RMS(Int)=  0.00011023
 Iteration  2 RMS(Cart)=  0.00001281 RMS(Int)=  0.00010933
 Iteration  3 RMS(Cart)=  0.00000000 RMS(Int)=  0.00010933
 ITry= 1 IFail=0 DXMaxC= 5.96D-03 DCOld= 1.00D+10 DXMaxT= 3.20D-01 DXLimC= 3.00D+00 Rises=F
 ClnCor:  largest displacement from symmetrization is 9.95D-05 for atom     4.
 Variable       Old X    -DE/DX   Delta X   Delta X   Delta X     New X
                                 (Linear)    (Quad)   (Total)
    R1        1.92725  -0.00005  -0.00120   0.00039  -0.00083   1.92642
    R2        1.92725  -0.00005  -0.00120   0.00039  -0.00083   1.92642
    R3        1.92725  -0.00005  -0.00120   0.00039  -0.00083   1.92642
    A1        1.84095   0.00010   0.00453  -0.00001   0.00483   1.84578
    A2        1.84095   0.00041   0.00453   0.00030   0.00483   1.84578
    A3        1.84095   0.00041   0.00453   0.00030   0.00483   1.84578
    D1       -1.94338  -0.00044  -0.00925  -0.00023  -0.00937  -1.95275
         Item               Value     Threshold  Converged?
 Maximum Force            0.000440     0.000450     YES
 RMS     Force            0.000279     0.000300     YES
 Maximum Displacement     0.005962     0.001800     NO 
 RMS     Displacement     0.003066     0.001200     NO 
 Predicted change in Energy=-4.680071D-06
 Lowest energy point so far.  Saving SCF results.
 GradGradGradGradGradGradGradGradGradGradGradGradGradGradGradGradGradGrad

 Leave Link  103 at Sun Oct 13 20:08:52 2019, MaxMem=  1342177280 cpu:              32.1 elap:               6.7
 (Enter /apps/cent7/gaussian/g16-A.03/g16-haswell/g16/l202.exe)
                          Input orientation:                          
 ---------------------------------------------------------------------
 Center     Atomic      Atomic             Coordinates (Angstroms)
 Number     Number       Type             X           Y           Z
 ---------------------------------------------------------------------
      1          7           0       -0.036297    1.036364    0.000000
      2          1           0        0.361547    0.097782   -0.000000
      3          1           0        0.361564    1.505648    0.812832
      4          1           0        0.361564    1.505648   -0.812832
 ---------------------------------------------------------------------
                    Distance matrix (angstroms):
                    1          2          3          4
     1  N    0.000000
     2  H    1.019420   0.000000
     3  H    1.019420   1.625664   0.000000
     4  H    1.019420   1.625664   1.625664   0.000000
 Stoichiometry    H3N
 Framework group  C3V[C3(N),3SGV(H)]
 Deg. of freedom     2
 Full point group                 C3V     NOp   6
 RotChk:  IX=0 Diff= 8.82D-16
 Largest Abelian subgroup         CS      NOp   2
 Largest concise Abelian subgroup CS      NOp   2
                         Standard orientation:                         
 ---------------------------------------------------------------------
 Center     Atomic      Atomic             Coordinates (Angstroms)
 Number     Number       Type             X           Y           Z
 ---------------------------------------------------------------------
      1          7           0        0.000000    0.000000    0.119357
      2          1           0        0.000000    0.938578   -0.278499
      3          1           0       -0.812832   -0.469289   -0.278499
      4          1           0        0.812832   -0.469289   -0.278499
 ---------------------------------------------------------------------
 Rotational constants (GHZ):         292.9171988         292.9171988         189.7450745
 Leave Link  202 at Sun Oct 13 20:08:53 2019, MaxMem=  1342177280 cpu:               4.8 elap:               1.0
 (Enter /apps/cent7/gaussian/g16-A.03/g16-haswell/g16/l301.exe)
 Standard basis: 6-31G(d) (6D, 7F)
 Ernie: Thresh=  0.10000D-02 Tol=  0.10000D-05 Strict=F.
 There are    15 symmetry adapted cartesian basis functions of A'  symmetry.
 There are     6 symmetry adapted cartesian basis functions of A"  symmetry.
 There are    15 symmetry adapted basis functions of A'  symmetry.
 There are     6 symmetry adapted basis functions of A"  symmetry.
    21 basis functions,    40 primitive gaussians,    21 cartesian basis functions
     5 alpha electrons        5 beta electrons
       nuclear repulsion energy        11.8775688291 Hartrees.
 IExCor=  402 DFT=T Ex+Corr=B3LYP ExCW=0 ScaHFX=  0.200000
 ScaDFX=  0.800000  0.720000  1.000000  0.810000 ScalE2=  1.000000  1.000000
 IRadAn=      5 IRanWt=     -1 IRanGd=            0 ICorTp=0 IEmpDi=  4
 NAtoms=    4 NActive=    4 NUniq=    2 SFac= 4.00D+00 NAtFMM=   60 NAOKFM=F Big=F
 Integral buffers will be    131072 words long.
 Raffenetti 2 integral format.
 Two-electron integral symmetry is turned on.
 Leave Link  301 at Sun Oct 13 20:08:54 2019, MaxMem=  1342177280 cpu:               2.1 elap:               0.4
 (Enter /apps/cent7/gaussian/g16-A.03/g16-haswell/g16/l302.exe)
 NPDir=0 NMtPBC=     1 NCelOv=     1 NCel=       1 NClECP=     1 NCelD=      1
         NCelK=      1 NCelE2=     1 NClLst=     1 CellRange=     0.0.
 One-electron integrals computed using PRISM.
 One-electron integral symmetry used in STVInt
 NBasis=    21 RedAO= T EigKep=  2.24D-02  NBF=    15     6
 NBsUse=    21 1.00D-06 EigRej= -1.00D+00 NBFU=    15     6
 Precomputing XC quadrature grid using
 IXCGrd= 4 IRadAn=           5 IRanWt=          -1 IRanGd=           0 AccXCQ= 0.00D+00.
 Generated NRdTot=       0 NPtTot=           0 NUsed=           0 NTot=          32
 NSgBfM=    21    21    21    21    21 MxSgAt=     4 MxSgA2=     4.
 Leave Link  302 at Sun Oct 13 20:08:56 2019, MaxMem=  1342177280 cpu:              13.9 elap:               2.9
 (Enter /apps/cent7/gaussian/g16-A.03/g16-haswell/g16/l303.exe)
 DipDrv:  MaxL=1.
 Leave Link  303 at Sun Oct 13 20:08:59 2019, MaxMem=  1342177280 cpu:               3.9 elap:               0.7
 (Enter /apps/cent7/gaussian/g16-A.03/g16-haswell/g16/l401.exe)
 Initial guess from the checkpoint file:  "ammonia.chk"
 B after Tr=    -0.000000   -0.000000   -0.000000
         Rot=    1.000000    0.000000   -0.000000    0.000000 Ang=   0.00 deg.
 Guess basis will be translated and rotated to current coordinates.
 JPrj=2 DoOrth=T DoCkMO=T.
 Initial guess orbital symmetries:
       Occupied  (A1) (A1) (E) (E) (A1)
       Virtual   (A1) (E) (E) (E) (E) (A1) (E) (E) (A1) (A1) (E)
                 (E) (A1) (E) (E) (A1)
 The electronic state of the initial guess is 1-A1.
 Leave Link  401 at Sun Oct 13 20:09:01 2019, MaxMem=  1342177280 cpu:               7.6 elap:               1.6
 (Enter /apps/cent7/gaussian/g16-A.03/g16-haswell/g16/l502.exe)
 Keep R1 ints in memory in symmetry-blocked form, NReq=20711020.
 FoFCou: FMM=F IPFlag=           0 FMFlag=           0 FMFlg1=           0
         NFxFlg=           0 DoJE=F BraDBF=F KetDBF=F FulRan=T
         wScrn=  0.000000 ICntrl=       600 IOpCl=  0 I1Cent=           0 NGrid=           0
         NMat0=    1 NMatS0=    231 NMatT0=    0 NMatD0=    1 NMtDS0=    0 NMtDT0=    0
 Petite list used in FoFCou.
 Closed shell SCF:
 Using DIIS extrapolation, IDIIS=  1040.
 NGot=  1342177280 LenX=  1342160536 LenY=  1342159654
 Requested convergence on RMS density matrix=1.00D-08 within 128 cycles.
 Requested convergence on MAX density matrix=1.00D-06.
 Requested convergence on             energy=1.00D-06.
 No special actions if energy rises.

 Cycle   1  Pass 1  IDiag  1:
 E= -56.5479427539656    
 DIIS: error= 6.12D-04 at cycle   1 NSaved=   1.
 NSaved= 1 IEnMin= 1 EnMin= -56.5479427539656     IErMin= 1 ErrMin= 6.12D-04
 ErrMax= 6.12D-04  0.00D+00 EMaxC= 1.00D-01 BMatC= 3.47D-06 BMatP= 3.47D-06
 IDIUse=3 WtCom= 9.94D-01 WtEn= 6.12D-03
 Coeff-Com:  0.100D+01
 Coeff-En:   0.100D+01
 Coeff:      0.100D+01
 Gap=     0.331 Goal=   None    Shift=    0.000
 RMSDP=1.96D-04 MaxDP=1.86D-03              OVMax= 1.32D-03

 Cycle   2  Pass 1  IDiag  1:
 E= -56.5479474675274     Delta-E=       -0.000004713562 Rises=F Damp=F
 DIIS: error= 1.33D-04 at cycle   2 NSaved=   2.
 NSaved= 2 IEnMin= 2 EnMin= -56.5479474675274     IErMin= 2 ErrMin= 1.33D-04
 ErrMax= 1.33D-04  0.00D+00 EMaxC= 1.00D-01 BMatC= 3.63D-07 BMatP= 3.47D-06
 IDIUse=3 WtCom= 9.99D-01 WtEn= 1.33D-03
 Coeff-Com:  0.104D+00 0.896D+00
 Coeff-En:   0.000D+00 0.100D+01
 Coeff:      0.104D+00 0.896D+00
 Gap=     0.331 Goal=   None    Shift=    0.000
 RMSDP=4.11D-05 MaxDP=2.95D-04 DE=-4.71D-06 OVMax= 3.20D-04

 Cycle   3  Pass 1  IDiag  1:
 E= -56.5479474478544     Delta-E=        0.000000019673 Rises=F Damp=F
 DIIS: error= 1.52D-04 at cycle   3 NSaved=   3.
 NSaved= 3 IEnMin= 2 EnMin= -56.5479474675274     IErMin= 2 ErrMin= 1.33D-04
 ErrMax= 1.52D-04  0.00D+00 EMaxC= 1.00D-01 BMatC= 4.18D-07 BMatP= 3.63D-07
 IDIUse=3 WtCom= 4.48D-01 WtEn= 5.52D-01
 Coeff-Com: -0.261D-01 0.527D+00 0.499D+00
 Coeff-En:   0.000D+00 0.514D+00 0.486D+00
 Coeff:     -0.117D-01 0.520D+00 0.492D+00
 Gap=     0.331 Goal=   None    Shift=    0.000
 RMSDP=2.33D-05 MaxDP=1.81D-04 DE= 1.97D-08 OVMax= 1.73D-04

 Cycle   4  Pass 1  IDiag  1:
 E= -56.5479477965095     Delta-E=       -0.000000348655 Rises=F Damp=F
 DIIS: error= 7.08D-06 at cycle   4 NSaved=   4.
 NSaved= 4 IEnMin= 4 EnMin= -56.5479477965095     IErMin= 4 ErrMin= 7.08D-06
 ErrMax= 7.08D-06  0.00D+00 EMaxC= 1.00D-01 BMatC= 1.03D-09 BMatP= 3.63D-07
 IDIUse=1 WtCom= 1.00D+00 WtEn= 0.00D+00
 Coeff-Com: -0.115D-01 0.964D-01 0.117D+00 0.798D+00
 Coeff:     -0.115D-01 0.964D-01 0.117D+00 0.798D+00
 Gap=     0.331 Goal=   None    Shift=    0.000
 RMSDP=1.56D-06 MaxDP=1.36D-05 DE=-3.49D-07 OVMax= 9.03D-06

 Cycle   5  Pass 1  IDiag  1:
 E= -56.5479477974052     Delta-E=       -0.000000000896 Rises=F Damp=F
 DIIS: error= 6.97D-07 at cycle   5 NSaved=   5.
 NSaved= 5 IEnMin= 5 EnMin= -56.5479477974052     IErMin= 5 ErrMin= 6.97D-07
 ErrMax= 6.97D-07  0.00D+00 EMaxC= 1.00D-01 BMatC= 3.01D-12 BMatP= 1.03D-09
 IDIUse=1 WtCom= 1.00D+00 WtEn= 0.00D+00
 Coeff-Com:  0.971D-03-0.131D-01-0.133D-01-0.338D-01 0.106D+01
 Coeff:      0.971D-03-0.131D-01-0.133D-01-0.338D-01 0.106D+01
 Gap=     0.331 Goal=   None    Shift=    0.000
 RMSDP=5.60D-07 MaxDP=4.85D-06 DE=-8.96D-10 OVMax= 4.25D-06

 Cycle   6  Pass 1  IDiag  1:
 E= -56.5479477974188     Delta-E=       -0.000000000014 Rises=F Damp=F
 DIIS: error= 1.03D-07 at cycle   6 NSaved=   6.
 NSaved= 6 IEnMin= 6 EnMin= -56.5479477974188     IErMin= 6 ErrMin= 1.03D-07
 ErrMax= 1.03D-07  0.00D+00 EMaxC= 1.00D-01 BMatC= 1.45D-13 BMatP= 3.01D-12
 IDIUse=1 WtCom= 1.00D+00 WtEn= 0.00D+00
 Coeff-Com:  0.353D-04-0.223D-03 0.991D-04-0.764D-02-0.390D-01 0.105D+01
 Coeff:      0.353D-04-0.223D-03 0.991D-04-0.764D-02-0.390D-01 0.105D+01
 Gap=     0.331 Goal=   None    Shift=    0.000
 RMSDP=3.77D-08 MaxDP=2.97D-07 DE=-1.35D-11 OVMax= 2.57D-07

 Cycle   7  Pass 1  IDiag  1:
 E= -56.5479477974190     Delta-E=       -0.000000000000 Rises=F Damp=F
 DIIS: error= 3.56D-09 at cycle   7 NSaved=   7.
 NSaved= 7 IEnMin= 7 EnMin= -56.5479477974190     IErMin= 7 ErrMin= 3.56D-09
 ErrMax= 3.56D-09  0.00D+00 EMaxC= 1.00D-01 BMatC= 1.32D-16 BMatP= 1.45D-13
 IDIUse=1 WtCom= 1.00D+00 WtEn= 0.00D+00
 Coeff-Com: -0.444D-05 0.509D-04 0.223D-04 0.382D-03-0.178D-02-0.398D-01
 Coeff-Com:  0.104D+01
 Coeff:     -0.444D-05 0.509D-04 0.223D-04 0.382D-03-0.178D-02-0.398D-01
 Coeff:      0.104D+01
 Gap=     0.331 Goal=   None    Shift=    0.000
 RMSDP=8.53D-10 MaxDP=7.65D-09 DE=-1.85D-13 OVMax= 8.08D-09

 SCF Done:  E(RB3LYP) =  -56.5479477974     A.U. after    7 cycles
            NFock=  7  Conv=0.85D-09     -V/T= 2.0092
 KE= 5.603393050383D+01 PE=-1.555987764771D+02 EE= 3.113932934676D+01
 Leave Link  502 at Sun Oct 13 20:09:09 2019, MaxMem=  1342177280 cpu:              37.6 elap:               7.8
 (Enter /apps/cent7/gaussian/g16-A.03/g16-haswell/g16/l701.exe)
 ... and contract with generalized density number  0.
 Compute integral first derivatives.
 Leave Link  701 at Sun Oct 13 20:09:11 2019, MaxMem=  1342177280 cpu:              11.5 elap:               2.4
 (Enter /apps/cent7/gaussian/g16-A.03/g16-haswell/g16/l702.exe)
 L702 exits ... SP integral derivatives will be done elsewhere.
 Leave Link  702 at Sun Oct 13 20:09:12 2019, MaxMem=  1342177280 cpu:               2.4 elap:               0.5
 (Enter /apps/cent7/gaussian/g16-A.03/g16-haswell/g16/l703.exe)
 Integral derivatives from FoFJK, PRISM(SPDF).
 Compute integral first derivatives, UseDBF=F ICtDFT=           0.
 Calling FoFJK, ICntrl=      2127 FMM=F ISym2X=1 I1Cent= 0 IOpClX= 0 NMat=1 NMatS=1 NMatT=0.
 FoFJK:  IHMeth= 1 ICntrl=    2127 DoSepK=F KAlg= 0 I1Cent=           0 FoldK=F
 IRaf=         0 NMat=       1 IRICut=       1 DoRegI=T DoRafI=F ISym2E= 1 IDoP0=0 IntGTp=1.
 FoFCou: FMM=F IPFlag=           0 FMFlag=      100000 FMFlg1=         800
         NFxFlg=           0 DoJE=F BraDBF=F KetDBF=F FulRan=T
         wScrn=  0.000000 ICntrl=      2127 IOpCl=  0 I1Cent=           0 NGrid=           0
         NMat0=    1 NMatS0=      1 NMatT0=    0 NMatD0=    1 NMtDS0=    0 NMtDT0=    0
 Petite list used in FoFCou.
 Leave Link  703 at Sun Oct 13 20:09:14 2019, MaxMem=  1342177280 cpu:               9.0 elap:               1.9
 (Enter /apps/cent7/gaussian/g16-A.03/g16-haswell/g16/l716.exe)
 Dipole        =-2.22044605D-16 0.00000000D+00-7.52327321D-01
 ***** Axes restored to original set *****
 -------------------------------------------------------------------
 Center     Atomic                   Forces (Hartrees/Bohr)
 Number     Number              X              Y              Z
 -------------------------------------------------------------------
      1        7          -0.000014182    0.000000000    0.000000000
      2        1           0.000004727   -0.000017749   -0.000000000
      3        1           0.000004727    0.000008875    0.000015371
      4        1           0.000004727    0.000008875   -0.000015371
 -------------------------------------------------------------------
 Cartesian Forces:  Max     0.000017749 RMS     0.000010055
 Leave Link  716 at Sun Oct 13 20:09:14 2019, MaxMem=  1342177280 cpu:               1.7 elap:               0.4
 (Enter /apps/cent7/gaussian/g16-A.03/g16-haswell/g16/l103.exe)

 GradGradGradGradGradGradGradGradGradGradGradGradGradGradGradGradGradGrad
 Berny optimization.
 Using GEDIIS/GDIIS optimizer.
 FormGI is forming the generalized inverse of G from B-inverse, IUseBI=4.
 Internal  Forces:  Max     0.000018187 RMS     0.000012085
 Search for a local minimum.
 Step number   4 out of a maximum of   20
 All quantities printed in internal units (Hartrees-Bohrs-Radians)
 RMS Force = .12085D-04 SwitMx=.10000D-02 MixMth= 2
 Mixed Optimization -- En-DIIS/RFO-DIIS
 Swapping is turned off.
 Update second derivatives using D2CorX and points    1    2    3    4
 DE= -4.32D-06 DEPred=-4.68D-06 R= 9.22D-01
 TightC=F SS=  1.41D+00  RLast= 1.26D-02 DXNew= 5.3777D-01 3.7920D-02
 Trust test= 9.22D-01 RLast= 1.26D-02 DXMaxT set to 3.20D-01
 The second derivative matrix:
                          R1        R2        R3        A1        A2
           R1           0.48495
           R2           0.00807   0.48495
           R3           0.00807   0.00807   0.48495
           A1           0.04673   0.04673   0.04673   0.12566
           A2           0.03139   0.03139   0.03139  -0.03474   0.13697
           A3           0.03139   0.03139   0.03139  -0.03474  -0.02303
           D1           0.01893   0.01893   0.01893   0.00624  -0.01082
                          A3        D1
           A3           0.13697
           D1          -0.01082   0.03361
 ITU=  1  1  1  0
     Eigenvalues ---    0.04935   0.15548   0.16000   0.47688   0.47688
     Eigenvalues ---    0.50729
 En-DIIS/RFO-DIIS/Sim-DIIS IScMMF=       -3 using points:     4    3
 RFO step:  Lambda=-2.05532688D-09.
 NNeg= 0 NGDIIS= 2 SimSw=  2.50D-01 Rises=F DC= -4.32D-06 SmlDif=  1.00D-05
 NRisDI= 0 DoIntr=F SqrtH=F CThrHd= 10.0 CDAdj=  3.0
 RMS Error=  0.2648006942D-04 NUsed= 2 OKEnD=F EnDIS=F
 InvSVX:  RCond= 4.00D-05 Info=           0 Equed=N FErr=  8.93D-16 BErr=  1.09D-16
 DidBck=F Rises=F RFO-DIIS coefs:    1.00241   -0.00241
 Iteration  1 RMS(Cart)=  0.00002716 RMS(Int)=  0.00000004
 Iteration  2 RMS(Cart)=  0.00000000 RMS(Int)=  0.00000004
 ITry= 1 IFail=0 DXMaxC= 4.10D-05 DCOld= 1.00D+10 DXMaxT= 3.20D-01 DXLimC= 3.00D+00 Rises=F
 ClnCor:  largest displacement from symmetrization is 7.34D-07 for atom     4.
 Variable       Old X    -DE/DX   Delta X   Delta X   Delta X     New X
                                 (Linear)    (Quad)   (Total)
    R1        1.92642   0.00002  -0.00000   0.00004   0.00003   1.92646
    R2        1.92642   0.00002  -0.00000   0.00004   0.00003   1.92646
    R3        1.92642   0.00002  -0.00000   0.00004   0.00003   1.92646
    A1        1.84578   0.00000   0.00001   0.00000   0.00001   1.84579
    A2        1.84578   0.00000   0.00001   0.00000   0.00001   1.84579
    A3        1.84578   0.00000   0.00001   0.00000   0.00001   1.84579
    D1       -1.95275  -0.00000  -0.00002  -0.00001  -0.00003  -1.95278
         Item               Value     Threshold  Converged?
 Maximum Force            0.000018     0.000450     YES
 RMS     Force            0.000012     0.000300     YES
 Maximum Displacement     0.000041     0.001800     YES
 RMS     Displacement     0.000027     0.001200     YES
 Predicted change in Energy=-1.029132D-09
 Optimization completed.
    -- Stationary point found.
                           ----------------------------
                           !   Optimized Parameters   !
                           ! (Angstroms and Degrees)  !
 --------------------------                            --------------------------
 ! Name  Definition              Value          Derivative Info.                !
 --------------------------------------------------------------------------------
 ! R1    R(1,2)                  1.0194         -DE/DX =    0.0                 !
 ! R2    R(1,3)                  1.0194         -DE/DX =    0.0                 !
 ! R3    R(1,4)                  1.0194         -DE/DX =    0.0                 !
 ! A1    A(2,1,3)              105.7551         -DE/DX =    0.0                 !
 ! A2    A(2,1,4)              105.7551         -DE/DX =    0.0                 !
 ! A3    A(3,1,4)              105.7551         -DE/DX =    0.0                 !
 ! D1    D(2,1,4,3)           -111.8843         -DE/DX =    0.0                 !
[...]
 Diagonal vibrational polarizability:
        0.1394694       0.1394698       3.2827195
 Harmonic frequencies (cm**-1), IR intensities (KM/Mole), Raman scattering
 activities (A**4/AMU), depolarization ratios for plane and unpolarized
 incident light, reduced masses (AMU), force constants (mDyne/A),
 and normal coordinates:
                      1                      2                      3
                     A1                      E                      E
 Frequencies --   1131.8206              1726.7373              1726.7373
 Red. masses --      1.1797                 1.0642                 1.0642
 Frc consts  --      0.8904                 1.8695                 1.8695
 IR Inten    --    156.1783                15.3466                15.3465
  Atom  AN      X      Y      Z        X      Y      Z        X      Y      Z
     1   7    -0.00  -0.00  -0.12    -0.00  -0.07   0.00    -0.07   0.00  -0.00
     2   1    -0.00   0.21   0.53     0.00  -0.15  -0.26     0.76   0.00   0.00
     3   1    -0.18  -0.11   0.53    -0.39   0.53   0.13     0.08  -0.39   0.22
     4   1     0.18  -0.11   0.53     0.39   0.53   0.13     0.08   0.39  -0.22
                      4                      5                      6
                     A1                      E                      E
 Frequencies --   3436.7355              3568.4020              3568.4020
 Red. masses --      1.0274                 1.0886                 1.0886
 Frc consts  --      7.1497                 8.1671                 8.1671
 IR Inten    --      0.7799                 0.4526                 0.4525
  Atom  AN      X      Y      Z        X      Y      Z        X      Y      Z
     1   7     0.00   0.00   0.04    -0.08  -0.00   0.00     0.00  -0.08   0.00
     2   1     0.00   0.55  -0.18    -0.02   0.00  -0.00     0.00   0.75  -0.31
     3   1    -0.47  -0.27  -0.18     0.56   0.34   0.27     0.34   0.17   0.15
     4   1     0.47  -0.27  -0.18     0.56  -0.34  -0.27    -0.34   0.17   0.15

 -------------------
 - Thermochemistry -
 -------------------
 Temperature     0.001 Kelvin.  Pressure   1.00000 Atm.
 Atom     1 has atomic number  7 and mass  14.00307
 Atom     2 has atomic number  1 and mass   1.00783
 Atom     3 has atomic number  1 and mass   1.00783
 Atom     4 has atomic number  1 and mass   1.00783
 Molecular mass:    17.02655 amu.
 Principal axes and moments of inertia in atomic units:
                           1         2         3
     Eigenvalues --     6.16127   6.16127   9.51140
           X           -0.11682   0.99315   0.00000
           Y            0.99315   0.11682   0.00000
           Z           -0.00000  -0.00000   1.00000
 This molecule is an oblate symmetric top.
 Rotational symmetry number  3.
 Rotational temperatures (Kelvin)     14.05781    14.05781     9.10633
 Rotational constants (GHZ):         292.91720   292.91720   189.74507
 Zero-point vibrational energy      90670.0 (Joules/Mol)
                                   21.67064 (Kcal/Mol)
 Vibrational temperatures:   1628.44  2484.39  2484.39  4944.70  5134.13
          (Kelvin)           5134.13
 
 Zero-point correction=                           0.034534 (Hartree/Particle)
 Thermal correction to Energy=                    0.034534
 Thermal correction to Enthalpy=                  0.034534
 Thermal correction to Gibbs Free Energy=         0.034534
 Sum of electronic and zero-point Energies=            -56.513413
 Sum of electronic and thermal Energies=               -56.513413
 Sum of electronic and thermal Enthalpies=             -56.513413
 Sum of electronic and thermal Free Energies=          -56.513413
 
                     E (Thermal)             CV                S
                      KCal/Mol        Cal/Mol-Kelvin    Cal/Mol-Kelvin
 Total                   21.671              5.962            -54.286
 Electronic               0.000              0.000              0.000
 Translational            0.000              2.981            -28.183
 Rotational               0.000              2.981            -26.103
 Vibrational             21.671              0.000              0.000
                       Q            Log10(Q)             Ln(Q)
 Total Bot                                 -Inf              -Inf
 Total V=0                           -13.601079        -31.317641
 Vib (Bot)                                 -Inf              -Inf
 Vib (V=0)                             0.000000          0.000000
 Electronic      0.100000D+01          0.000000          0.000000
 Translational   0.568927D-07         -7.244943        -16.682098
 Rotational      0.440417D-06         -6.356136        -14.635543
 
                                                         Title Card Required
                                                             IR Spectrum
 
      3   3                                                            1                    1                                        
      5   4                                                            7                    1                                        
      6   3                                                            2                    3                                        
      8   7                                                            7                    2                                        
 
      X   X                                                            X                    X                                        
                                                                       X                    X                                        
                                                                       X                    X                                        
                                                                       X                    X                                        
                                                                                            X                                        
                                                                                            X                                        
                                                                                            X                                        
                                                                                            X                                        
                                                                                            X                                        
                                                                                            X                                        
                                                                                            X                                        
                                                                                            X                                        
                                                                                            X                                        
                                                                                            X                                        
                                                                                            X                                        
                                                                                            X                                        
                                                                                            X                                        
                                                                                            X                                        
                                                                                            X                                        
                                                                                            X                                        
 
 ***** Axes restored to original set *****
 -------------------------------------------------------------------
 Center     Atomic                   Forces (Hartrees/Bohr)
 Number     Number              X              Y              Z
 -------------------------------------------------------------------
      1        7          -0.000014182    0.000000000   -0.000000000
      2        1           0.000004727   -0.000017749   -0.000000000
      3        1           0.000004727    0.000008875    0.000015371
      4        1           0.000004727    0.000008875   -0.000015371
 -------------------------------------------------------------------
 Cartesian Forces:  Max     0.000017749 RMS     0.000010055
 Force constants in Cartesian coordinates: 
                1             2             3             4             5 
      1  0.235181D+00
      2  0.466225D-05  0.629799D+00
      3  0.000000D+00  0.000000D+00  0.629799D+00
      4 -0.783901D-01  0.177977D+00  0.000000D+00  0.764162D-01
      5  0.116492D+00 -0.356030D+00  0.000000D+00 -0.139439D+00  0.391602D+00
      6  0.000000D+00  0.000000D+00 -0.638396D-01  0.000000D+00  0.000000D+00
      7 -0.783954D-01 -0.889908D-01 -0.154137D+00  0.986968D-03  0.114736D-01
      8 -0.582481D-01 -0.136884D+00 -0.126519D+00 -0.192691D-01 -0.177860D-01
      9 -0.100889D+00 -0.126519D+00 -0.282980D+00 -0.212388D-02  0.310285D-02
     10 -0.783954D-01 -0.889908D-01  0.154137D+00  0.986968D-03  0.114736D-01
     11 -0.582482D-01 -0.136884D+00  0.126519D+00 -0.192691D-01 -0.177860D-01
     12  0.100889D+00  0.126519D+00 -0.282980D+00  0.212388D-02 -0.310285D-02
                6             7             8             9            10 
      6  0.621335D-01
      7  0.156249D-01  0.764212D-01
      8 -0.353870D-01  0.697221D-01  0.144498D+00
      9  0.853040D-03  0.120763D+00  0.142661D+00  0.309232D+00
     10 -0.156249D-01  0.987250D-03  0.779517D-02 -0.177495D-01  0.764212D-01
     11  0.353870D-01  0.779517D-02  0.101724D-01 -0.192446D-01  0.697221D-01
     12  0.853048D-03  0.177495D-01  0.192446D-01 -0.271057D-01 -0.120763D+00
               11            12 
     11  0.144498D+00
     12 -0.142661D+00  0.309232D+00
 FormGI is forming the generalized inverse of G from B-inverse, IUseBI=4.
 Force constants in internal coordinates: 
                1             2             3             4             5 
      1  0.443804D+00
      2 -0.283527D-02  0.443804D+00
      3 -0.283527D-02 -0.283529D-02  0.443804D+00
      4  0.842544D-02  0.842544D-02 -0.700799D-02  0.556344D-01
      5  0.207094D-01 -0.140885D-02  0.232011D-01 -0.431135D-01  0.146618D+00
      6 -0.140882D-02  0.207095D-01  0.232011D-01 -0.431135D-01 -0.213805D-01
      7 -0.174895D-01 -0.174895D-01 -0.115194D-01 -0.263076D-01 -0.399357D-02
                6             7 
      6  0.146618D+00
      7 -0.399357D-02  0.327908D-01
 Leave Link  716 at Sun Oct 13 20:09:51 2019, MaxMem=  1342177280 cpu:               2.4 elap:               0.5
 (Enter /apps/cent7/gaussian/g16-A.03/g16-haswell/g16/l103.exe)

 GradGradGradGradGradGradGradGradGradGradGradGradGradGradGradGradGradGrad
 Berny optimization.
 Red2BG is reusing G-inverse.
 Internal  Forces:  Max     0.000018187 RMS     0.000012085
 Search for a local minimum.
 Step number   1 out of a maximum of    2
 All quantities printed in internal units (Hartrees-Bohrs-Radians)
 Second derivative matrix not updated -- analytic derivatives used.
 The second derivative matrix:
                          R1        R2        R3        A1        A2
           R1           0.44380
           R2          -0.00284   0.44380
           R3          -0.00284  -0.00284   0.44380
           A1           0.00843   0.00843  -0.00701   0.05563
           A2           0.02071  -0.00141   0.02320  -0.04311   0.14662
           A3          -0.00141   0.02071   0.02320  -0.04311  -0.02138
           D1          -0.01749  -0.01749  -0.01152  -0.02631  -0.00399
                          A3        D1
           A3           0.14662
           D1          -0.00399   0.03279
 ITU=  0
     Eigenvalues ---    0.04895   0.15764   0.16625   0.44336   0.44838
     Eigenvalues ---    0.44848
 Angle between quadratic step and forces=  21.34 degrees.
 Linear search not attempted -- first point.
 Iteration  1 RMS(Cart)=  0.00003054 RMS(Int)=  0.00000000
 Iteration  2 RMS(Cart)=  0.00000000 RMS(Int)=  0.00000000
 ITry= 1 IFail=0 DXMaxC= 4.64D-05 DCOld= 1.00D+10 DXMaxT= 3.00D-01 DXLimC= 3.00D+00 Rises=F
 ClnCor:  largest displacement from symmetrization is 1.00D-10 for atom     4.
 Variable       Old X    -DE/DX   Delta X   Delta X   Delta X     New X
                                 (Linear)    (Quad)   (Total)
    R1        1.92642   0.00002   0.00000   0.00004   0.00004   1.92646
    R2        1.92642   0.00002   0.00000   0.00004   0.00004   1.92646
    R3        1.92642   0.00002   0.00000   0.00004   0.00004   1.92646
    A1        1.84578   0.00000   0.00000   0.00002   0.00002   1.84579
    A2        1.84578   0.00000   0.00000   0.00002   0.00002   1.84579
    A3        1.84578   0.00000   0.00000   0.00002   0.00002   1.84579
    D1       -1.95275  -0.00000   0.00000  -0.00003  -0.00003  -1.95278
         Item               Value     Threshold  Converged?
 Maximum Force            0.000018     0.000450     YES
 RMS     Force            0.000012     0.000300     YES
 Maximum Displacement     0.000046     0.001800     YES
 RMS     Displacement     0.000031     0.001200     YES
 Predicted change in Energy=-1.174769D-09
 Optimization completed.
    -- Stationary point found.
                           ----------------------------
                           !   Optimized Parameters   !
                           ! (Angstroms and Degrees)  !
 --------------------------                            --------------------------
 ! Name  Definition              Value          Derivative Info.                !
 --------------------------------------------------------------------------------
 ! R1    R(1,2)                  1.0194         -DE/DX =    0.0                 !
 ! R2    R(1,3)                  1.0194         -DE/DX =    0.0                 !
 ! R3    R(1,4)                  1.0194         -DE/DX =    0.0                 !
 ! A1    A(2,1,3)              105.7551         -DE/DX =    0.0                 !
 ! A2    A(2,1,4)              105.7551         -DE/DX =    0.0                 !
 ! A3    A(3,1,4)              105.7551         -DE/DX =    0.0                 !
 ! D1    D(2,1,4,3)           -111.8843         -DE/DX =    0.0                 !
 --------------------------------------------------------------------------------
 GradGradGradGradGradGradGradGradGradGradGradGradGradGradGradGradGradGrad

 Leave Link  103 at Sun Oct 13 20:09:54 2019, MaxMem=  1342177280 cpu:              14.3 elap:               2.9
 (Enter /apps/cent7/gaussian/g16-A.03/g16-haswell/g16/l9999.exe)

 ----------------------------------------------------------------------

 Electric dipole moment (input orientation):
 (Debye = 10**-18 statcoulomb cm , SI units = C m)
                  (au)            (Debye)         (10**-30 SI)
   Tot        0.752327D+00      0.191223D+01      0.637850D+01
   x          0.752327D+00      0.191223D+01      0.637850D+01
   y          0.000000D+00      0.000000D+00      0.000000D+00
   z          0.000000D+00      0.000000D+00      0.000000D+00

 Dipole polarizability, Alpha (input orientation).
 (esu units = cm**3 , SI units = C**2 m**2 J**-1)
 Alpha(0;0):
               (au)            (10**-24 esu)      (10**-40 SI)
   iso        0.830561D+01      0.123076D+01      0.136941D+01
   aniso      0.382647D+01      0.567024D+00      0.630899D+00
   xx         0.575463D+01      0.852749D+00      0.948811D+00
   yx         0.520645D-04      0.771517D-05      0.858428D-05
   yy         0.958110D+01      0.141977D+01      0.157971D+01
   zx         0.000000D+00      0.000000D+00      0.000000D+00
   zy         0.000000D+00      0.000000D+00      0.000000D+00
   zz         0.958110D+01      0.141977D+01      0.157971D+01

 ----------------------------------------------------------------------

 Dipole orientation:
     7          0.00002360          1.95844355         -0.06861545
     1          0.00000244          0.18478911          0.68322262
     1         -1.53599563          2.84528910          0.68322262
     1          1.53606399          2.84525246          0.68322262

 Electric dipole moment (dipole orientation):
 (Debye = 10**-18 statcoulomb cm , SI units = C m)
                  (au)            (Debye)         (10**-30 SI)
   Tot        0.752327D+00      0.191223D+01      0.637850D+01
   x          0.000000D+00      0.000000D+00      0.000000D+00
   y          0.000000D+00      0.000000D+00      0.000000D+00
   z          0.752327D+00      0.191223D+01      0.637850D+01

 Dipole polarizability, Alpha (dipole orientation).
 (esu units = cm**3 , SI units = C**2 m**2 J**-1)
 Alpha(0;0):
               (au)            (10**-24 esu)      (10**-40 SI)
   iso        0.830561D+01      0.123076D+01      0.136941D+01
   aniso      0.382647D+01      0.567024D+00      0.630899D+00
   xx         0.958110D+01      0.141977D+01      0.157971D+01
   yx         0.000000D+00      0.000000D+00      0.000000D+00
   yy         0.958110D+01      0.141977D+01      0.157971D+01
   zx         0.000000D+00      0.000000D+00      0.000000D+00
   zy         0.000000D+00      0.000000D+00      0.000000D+00
   zz         0.575463D+01      0.852749D+00      0.948811D+00

 ----------------------------------------------------------------------
 1\1\GINC-BROWN-FE02\Freq\RB3LYP\6-31G(d)\H3N1\FINEJ\13-Oct-2019\0\\#P 
 Geom=AllCheck Guess=TCheck SCRF=Check GenChk RB3LYP/6-31G(d) Freq\\Tit
 le Card Required\\0,1\N,-0.0362972419,1.0363641355,0.\H,0.3615470208,0
 .0977818272,-0.0000001152\H,0.3615639861,1.5056479984,0.8128320282\H,0
 .3615639861,1.505648198,-0.8128319129\\Version=ES64L-G16RevA.03\State=
 1-A1\HF=-56.5479478\RMSD=0.000e+00\RMSF=1.006e-05\ZeroPoint=0.0345344\
 Thermal=0.0345344\Dipole=0.7523273,-0.0000091,0.\DipoleDeriv=-0.578354
 4,0.0000041,0.,0.0000043,-0.3176716,0.,0.,0.,-0.3176707,0.1927881,0.19
 3004,0.,0.0943208,0.0422822,0.,0.,0.,0.1694956,0.192783,-0.0965038,-0.
 1671489,-0.0471622,0.1376948,-0.0550817,-0.0816869,-0.0550829,0.074087
 8,0.192783,-0.0965038,0.1671488,-0.0471623,0.1376948,0.0550817,0.08168
 69,0.0550829,0.0740879\Polar=5.7546331,0.0000521,9.5810962,0.,0.,9.581
 1009\Quadrupole=-1.302525,0.6512625,0.6512625,0.0000235,0.,0.\PG=C03V 
 [C3(N1),3SGV(H1)]\NImag=0\\0.23518083,0.00000466,0.62979886,0.,0.,0.62
 979882,-0.07839009,0.17797691,0.00000002,0.07641616,0.11649161,-0.3560
 3002,-0.00000004,-0.13943876,0.39160207,0.00000001,-0.00000004,-0.0638
 3955,-0.00000002,0.00000004,0.06213348,-0.07839539,-0.08899079,-0.1541
 3694,0.00098697,0.01147356,0.01562493,0.07642120,-0.05824815,-0.136884
 43,-0.12651875,-0.01926908,-0.01778603,-0.03538700,0.06972209,0.144498
 07,-0.10088912,-0.12651935,-0.28297972,-0.00212388,0.00310285,0.000853
 04,0.12076253,0.14266115,0.30923243,-0.07839539,-0.08899083,0.15413692
 ,0.00098697,0.01147357,-0.01562493,0.00098725,0.00779517,-0.01774951,0
 .07642120,-0.05824817,-0.13688449,0.12651878,-0.01926908,-0.01778603,0
 .03538700,0.00779517,0.01017244,-0.01924460,0.06972212,0.14449814,0.10
 088910,0.12651938,-0.28297966,0.00212388,-0.00310285,0.00085305,0.0177
 4951,0.01924461,-0.02710571,-0.12076251,-0.14266119,0.30923236\\0.0000
 1418,0.,0.,-0.00000473,0.00001775,0.,-0.00000473,-0.00000887,-0.000015
 37,-0.00000473,-0.00000887,0.00001537\\\@


 ONLY A FOOL KNOWS EVERYTHING.

               -- THE CHEMIST ANALYST, SEPTEMBER 1946
 Job cpu time:       0 days  0 hours  2 minutes 52.5 seconds.
 Elapsed time:       0 days  0 hours  0 minutes 35.4 seconds.
 File lengths (MBytes):  RWF=      6 Int=      0 D2E=      0 Chk=      1 Scr=      1
 Normal termination of Gaussian 16 at Sun Oct 13 20:09:54 2019.
